Generated by trjconv : CNT in water t= 331.00000
33518
    1C        C    1   2.847   2.776   4.747
    1C        C    2   2.904   2.726   4.866
    1C        C    3   2.845   2.776   4.983
    1C        C    4   2.851   2.777   4.261
    1C        C    5   2.899   2.726   4.384
    1C        C    6   2.848   2.775   4.506
    1C        C    7   3.015   2.641   4.625
    1C        C    8   2.901   2.725   4.627
    1C        C    9   3.077   2.603   4.747
    1C        C   10   3.013   2.637   4.868
    1C        C   11   3.182   2.486   4.978
    1C        C   12   3.062   2.557   4.973
    1C        C   13   2.848   2.770   3.772
    1C        C   14   2.903   2.725   3.894
    1C        C   15   2.848   2.773   4.015
    1C        C   16   3.017   2.647   4.138
    1C        C   17   2.903   2.731   4.138
    1C        C   18   3.082   2.617   4.260
    1C        C   19   3.015   2.645   4.381
    1C        C   20   3.207   2.556   4.505
    1C        C   21   3.075   2.606   4.503
    1C        C   22   3.279   2.534   4.625
    1C        C   23   3.209   2.551   4.747
    1C        C   24   3.412   2.486   4.867
    1C        C   25   3.270   2.504   4.866
    1C        C   26   3.491   2.482   4.983
    1C        C   27   2.850   2.770   3.281
    1C        C   28   2.906   2.729   3.404
    1C        C   29   2.859   2.779   3.527
    1C        C   30   3.020   2.644   3.649
    1C        C   31   2.906   2.728   3.650
    1C        C   32   3.077   2.604   3.772
    1C        C   33   3.017   2.641   3.894
    1C        C   34   3.208   2.552   4.018
    1C        C   35   3.077   2.606   4.017
    1C        C   36   3.278   2.534   4.140
    1C        C   37   3.211   2.560   4.261
    1C        C   38   3.414   2.501   4.384
    1C        C   39   3.276   2.535   4.384
    1C        C   40   3.486   2.495   4.505
    1C        C   41   3.416   2.498   4.628
    1C        C   42   3.631   2.484   4.744
    1C        C   43   3.489   2.483   4.747
    1C        C   44   3.706   2.481   4.864
    1C        C   45   3.629   2.475   4.982
    1C        C   46   2.841   2.757   2.792
    1C        C   47   2.893   2.712   2.916
    1C        C   48   2.843   2.763   3.037
    1C        C   49   3.017   2.641   3.161
    1C        C   50   2.899   2.718   3.159
    1C        C   51   3.079   2.608   3.283
    1C        C   52   3.020   2.646   3.406
    1C        C   53   3.211   2.548   3.529
    1C        C   54   3.082   2.607   3.527
    1C        C   55   3.277   2.525   3.652
    1C        C   56   3.206   2.546   3.772
    1C        C   57   3.411   2.498   3.894
    1C        C   58   3.272   2.527   3.895
    1C        C   59   3.483   2.492   4.015
    1C        C   60   3.416   2.505   4.139
    1C        C   61   3.626   2.499   4.259
    1C        C   62   3.485   2.495   4.262
    1C        C   63   3.698   2.503   4.380
    1C        C   64   3.627   2.495   4.502
    1C        C   65   3.837   2.535   4.621
    1C        C   66   3.700   2.500   4.622
    1C        C   67   3.907   2.555   4.743
    1C        C   68   3.841   2.522   4.863
    1C        C   69   4.049   2.586   4.979
    1C        C   70   3.922   2.528   4.977
    1C        C   71   2.825   2.739   2.306
    1C        C   72   2.879   2.691   2.428
    1C        C   73   2.835   2.747   2.550
    1C        C   74   3.005   2.621   2.672
    1C        C   75   2.889   2.701   2.672
    1C        C   76   3.068   2.592   2.795
    1C        C   77   3.010   2.632   2.917
    1C        C   78   3.204   2.542   3.038
    1C        C   79   3.076   2.600   3.038
    1C        C   80   3.273   2.526   3.160
    1C        C   81   3.208   2.550   3.283
    1C        C   82   3.412   2.492   3.401
    1C        C   83   3.274   2.523   3.405
    1C        C   84   3.483   2.491   3.523
    1C        C   85   3.417   2.501   3.647
    1C        C   86   3.624   2.502   3.767
    1C        C   87   3.482   2.496   3.772
    1C        C   88   3.693   2.511   3.890
    1C        C   89   3.624   2.500   4.013
    1C        C   90   3.829   2.545   4.135
    1C        C   91   3.694   2.504   4.135
    1C        C   92   3.899   2.571   4.255
    1C        C   93   3.834   2.544   4.377
    1C        C   94   4.024   2.634   4.499
    1C        C   95   3.903   2.561   4.499
    1C        C   96   4.086   2.672   4.620
    1C        C   97   4.032   2.622   4.740
    1C        C   98   4.183   2.769   4.863
    1C        C   99   4.097   2.655   4.862
    1C        C  100   4.210   2.842   4.980
    1C        C  101   2.824   2.730   2.068
    1C        C  102   2.989   2.590   2.192
    1C        C  103   2.881   2.684   2.187
    1C        C  104   3.061   2.569   2.313
    1C        C  105   2.997   2.614   2.430
    1C        C  106   3.199   2.534   2.549
    1C        C  107   3.068   2.588   2.550
    1C        C  108   3.268   2.519   2.671
    1C        C  109   3.199   2.539   2.793
    1C        C  110   3.408   2.499   2.917
    1C        C  111   3.268   2.519   2.914
    1C        C  112   3.483   2.495   3.037
    1C        C  113   3.413   2.502   3.159
    1C        C  114   3.626   2.493   3.277
    1C        C  115   3.484   2.489   3.280
    1C        C  116   3.694   2.506   3.400
    1C        C  117   3.624   2.502   3.523
    1C        C  118   3.832   2.542   3.648
    1C        C  119   3.694   2.509   3.645
    1C        C  120   3.898   2.568   3.770
    1C        C  121   3.831   2.542   3.892
    1C        C  122   4.020   2.638   4.013
    1C        C  123   3.898   2.567   4.014
    1C        C  124   4.084   2.675   4.134
    1C        C  125   4.025   2.636   4.256
    1C        C  126   4.191   2.768   4.376
    1C        C  127   4.084   2.676   4.378
    1C        C  128   4.239   2.820   4.499
    1C        C  129   4.193   2.765   4.620
    1C        C  130   4.316   2.940   4.741
    1C        C  131   4.235   2.822   4.742
    1C        C  132   4.348   3.006   4.861
    1C        C  133   4.286   2.959   4.978
    1C        C  134   3.175   2.471   2.081
    1C        C  135   3.041   2.510   2.085
    1C        C  136   3.260   2.481   2.192
    1C        C  137   3.193   2.516   2.311
    1C        C  138   3.406   2.474   2.432
    1C        C  139   3.267   2.500   2.430
    1C        C  140   3.480   2.483   2.552
    1C        C  141   3.407   2.495   2.673
    1C        C  142   3.618   2.493   2.788
    1C        C  143   3.477   2.486   2.795
    1C        C  144   3.691   2.502   2.909
    1C        C  145   3.625   2.494   3.033
    1C        C  146   3.832   2.536   3.155
    1C        C  147   3.696   2.498   3.155
    1C        C  148   3.898   2.563   3.278
    1C        C  149   3.832   2.539   3.400
    1C        C  150   4.021   2.628   3.523
    1C        C  151   3.894   2.566   3.524
    1C        C  152   4.085   2.664   3.644
    1C        C  153   4.025   2.630   3.767
    1C        C  154   4.190   2.762   3.888
    1C        C  155   4.078   2.676   3.890
    1C        C  156   4.241   2.814   4.009
    1C        C  157   4.192   2.765   4.132
    1C        C  158   4.330   2.928   4.253
    1C        C  159   4.242   2.817   4.254
    1C        C  160   4.368   2.987   4.376
    1C        C  161   4.323   2.933   4.498
    1C        C  162   4.430   3.118   4.616
    1C        C  163   4.360   2.996   4.619
    1C        C  164   4.464   3.183   4.737
    1C        C  165   4.429   3.121   4.860
    1C        C  166   4.519   3.320   4.972
    1C        C  167   4.477   3.187   4.974
    1C        C  168   3.475   2.433   2.073
    1C        C  169   3.400   2.459   2.189
    1C        C  170   3.616   2.470   2.305
    1C        C  171   3.474   2.462   2.309
    1C        C  172   3.692   2.488   2.423
    1C        C  173   3.621   2.489   2.545
    1C        C  174   3.828   2.536   2.670
    1C        C  175   3.691   2.500   2.667
    1C        C  176   3.897   2.559   2.791
    1C        C  177   3.829   2.534   2.912
    1C        C  178   4.023   2.624   3.033
    1C        C  179   3.899   2.557   3.033
    1C        C  180   4.084   2.664   3.154
    1C        C  181   4.024   2.628   3.276
    1C        C  182   4.191   2.753   3.398
    1C        C  183   4.083   2.662   3.400
    1C        C  184   4.242   2.804   3.519
    1C        C  185   4.191   2.757   3.643
    1C        C  186   4.332   2.916   3.766
    1C        C  187   4.241   2.807   3.765
    1C        C  188   4.373   2.978   3.885
    1C        C  189   4.328   2.925   4.008
    1C        C  190   4.441   3.105   4.128
    1C        C  191   4.370   2.983   4.130
    1C        C  192   4.464   3.174   4.250
    1C        C  193   4.433   3.113   4.373
    1C        C  194   4.505   3.315   4.492
    1C        C  195   4.461   3.181   4.494
    1C        C  196   4.520   3.386   4.613
    1C        C  197   4.509   3.318   4.736
    1C        C  198   4.551   3.536   4.849
    1C        C  199   4.533   3.394   4.854
    1C        C  200   4.584   3.617   4.962
    1C        C  201   3.614   2.417   2.073
    1C        C  202   3.827   2.508   2.180
    1C        C  203   3.690   2.467   2.184
    1C        C  204   3.894   2.543   2.301
    1C        C  205   3.830   2.519   2.424
    1C        C  206   4.017   2.620   2.541
    1C        C  207   3.892   2.554   2.546
    1C        C  208   4.078   2.659   2.663
    1C        C  209   4.023   2.623   2.788
    1C        C  210   4.195   2.746   2.907
    1C        C  211   4.082   2.661   2.910
    1C        C  212   4.249   2.794   3.029
    1C        C  213   4.197   2.749   3.152
    1C        C  214   4.333   2.909   3.274
    1C        C  215   4.243   2.800   3.276
    1C        C  216   4.372   2.967   3.397
    1C        C  217   4.331   2.914   3.521
    1C        C  218   4.439   3.097   3.638
    1C        C  219   4.372   2.973   3.643
    1C        C  220   4.462   3.166   3.759
    1C        C  221   4.435   3.105   3.884
    1C        C  222   4.503   3.307   4.003
    1C        C  223   4.466   3.171   4.006
    1C        C  224   4.517   3.377   4.124
    1C        C  225   4.507   3.309   4.248
    1C        C  226   4.521   3.524   4.368
    1C        C  227   4.517   3.382   4.368
    1C        C  228   4.519   3.599   4.487
    1C        C  229   4.527   3.527   4.608
    1C        C  230   4.503   3.743   4.727
    1C        C  231   4.535   3.605   4.725
    1C        C  232   4.494   3.820   4.846
    1C        C  233   4.544   3.751   4.958
    1C        C  234   4.015   2.616   2.062
    1C        C  235   3.898   2.541   2.064
    1C        C  236   4.085   2.647   2.180
    1C        C  237   4.022   2.605   2.299
    1C        C  238   4.196   2.734   2.420
    1C        C  239   4.083   2.647   2.419
    1C        C  240   4.251   2.785   2.540
    1C        C  241   4.192   2.743   2.661
    1C        C  242   4.331   2.904   2.786
    1C        C  243   4.245   2.792   2.783
    1C        C  244   4.377   2.960   2.907
    1C        C  245   4.335   2.906   3.030
    1C        C  246   4.436   3.095   3.150
    1C        C  247   4.372   2.969   3.152
    1C        C  248   4.459   3.162   3.273
    1C        C  249   4.433   3.095   3.394
    1C        C  250   4.497   3.298   3.513
    1C        C  251   4.465   3.161   3.515
    1C        C  252   4.512   3.369   3.635
    1C        C  253   4.498   3.303   3.759
    1C        C  254   4.525   3.516   3.878
    1C        C  255   4.512   3.375   3.879
    1C        C  256   4.518   3.588   3.999
    1C        C  257   4.520   3.519   4.122
    1C        C  258   4.494   3.730   4.239
    1C        C  259   4.518   3.591   4.244
    1C        C  260   4.474   3.802   4.359
    1C        C  261   4.489   3.737   4.484
    1C        C  262   4.427   3.939   4.601
    1C        C  263   4.484   3.810   4.604
    1C        C  264   4.397   4.007   4.722
    1C        C  265   4.438   3.949   4.843
    1C        C  266   4.318   4.133   4.955
    1C        C  267   4.395   4.017   4.958
    1C        C  268   4.260   2.775   2.063
    1C        C  269   4.198   2.732   2.181
    1C        C  270   4.342   2.894   2.294
    1C        C  271   4.248   2.787   2.301
    1C        C  272   4.378   2.952   2.418
    1C        C  273   4.337   2.897   2.541
    1C        C  274   4.447   3.080   2.659
    1C        C  275   4.375   2.958   2.663
    1C        C  276   4.468   3.150   2.779
    1C        C  277   4.440   3.086   2.902
    1C        C  278   4.500   3.289   3.024
    1C        C  279   4.463   3.153   3.025
    1C        C  280   4.508   3.363   3.144
    1C        C  281   4.493   3.299   3.269
    1C        C  282   4.514   3.509   3.390
    1C        C  283   4.506   3.368   3.391
    1C        C  284   4.520   3.582   3.511
    1C        C  285   4.521   3.510   3.632
    1C        C  286   4.495   3.721   3.752
    1C        C  287   4.523   3.583   3.753
    1C        C  288   4.474   3.792   3.872
    1C        C  289   4.496   3.727   3.996
    1C        C  290   4.433   3.932   4.114
    1C        C  291   4.476   3.798   4.116
    1C        C  292   4.400   3.998   4.235
    1C        C  293   4.424   3.934   4.359
    1C        C  294   4.326   4.126   4.477
    1C        C  295   4.395   4.003   4.479
    1C        C  296   4.282   4.184   4.598
    1C        C  297   4.329   4.132   4.720
    1C        C  298   4.200   4.316   4.834
    1C        C  299   4.286   4.201   4.837
    1C        C  300   4.171   4.401   4.945
    1C        C  301   4.350   2.881   2.061
    1C        C  302   4.473   3.069   2.175
    1C        C  303   4.393   2.951   2.174
    1C        C  304   4.484   3.141   2.297
    1C        C  305   4.444   3.078   2.417
    1C        C  306   4.510   3.283   2.537
    1C        C  307   4.473   3.147   2.537
    1C        C  308   4.517   3.358   2.657
    1C        C  309   4.505   3.287   2.779
    1C        C  310   4.524   3.498   2.901
    1C        C  311   4.517   3.357   2.901
    1C        C  312   4.519   3.575   3.019
    1C        C  313   4.518   3.504   3.142
    1C        C  314   4.490   3.714   3.264
    1C        C  315   4.512   3.574   3.265
    1C        C  316   4.473   3.785   3.384
    1C        C  317   4.497   3.722   3.508
    1C        C  318   4.425   3.922   3.628
    1C        C  319   4.476   3.790   3.630
    1C        C  320   4.393   3.988   3.749
    1C        C  321   4.423   3.924   3.871
    1C        C  322   4.319   4.111   3.989
    1C        C  323   4.397   3.993   3.991
    1C        C  324   4.277   4.170   4.110
    1C        C  325   4.321   4.115   4.233
    1C        C  326   4.188   4.283   4.351
    1C        C  327   4.283   4.178   4.353
    1C        C  328   4.136   4.336   4.471
    1C        C  329   4.185   4.287   4.593
    1C        C  330   4.024   4.435   4.711
    1C        C  331   4.136   4.347   4.711
    1C        C  332   3.969   4.487   4.830
    1C        C  333   4.055   4.479   4.941
    1C        C  334   4.554   3.269   2.062
    1C        C  335   4.531   3.131   2.059
    1C        C  336   4.540   3.351   2.175
    1C        C  337   4.517   3.279   2.294
    1C        C  338   4.529   3.493   2.413
    1C        C  339   4.527   3.352   2.415
    1C        C  340   4.525   3.569   2.533
    1C        C  341   4.523   3.499   2.655
    1C        C  342   4.492   3.707   2.772
    1C        C  343   4.516   3.568   2.778
    1C        C  344   4.474   3.777   2.893
    1C        C  345   4.495   3.714   3.018
    1C        C  346   4.413   3.908   3.139
    1C        C  347   4.471   3.780   3.140
    1C        C  348   4.389   3.979   3.259
    1C        C  349   4.421   3.917   3.381
    1C        C  350   4.316   4.100   3.502
    1C        C  351   4.394   3.981   3.504
    1C        C  352   4.271   4.160   3.622
    1C        C  353   4.318   4.108   3.744
    1C        C  354   4.172   4.262   3.866
    1C        C  355   4.273   4.163   3.866
    1C        C  356   4.121   4.313   3.987
    1C        C  357   4.175   4.268   4.110
    1C        C  358   4.007   4.398   4.228
    1C        C  359   4.124   4.320   4.231
    1C        C  360   3.953   4.445   4.350
    1C        C  361   4.018   4.415   4.472
    1C        C  362   3.825   4.515   4.591
    1C        C  363   3.955   4.461   4.590
    1C        C  364   3.760   4.545   4.713
    1C        C  365   3.836   4.534   4.832
    1C        C  366   3.629   4.591   4.950
    1C        C  367   3.765   4.561   4.949
    1C        C  368   4.507   3.562   2.052
    1C        C  369   4.528   3.492   2.171
    1C        C  370   4.497   3.704   2.286
    1C        C  371   4.519   3.564   2.292
    1C        C  372   4.480   3.776   2.407
    1C        C  373   4.499   3.708   2.529
    1C        C  374   4.422   3.908   2.648
    1C        C  375   4.472   3.776   2.650
    1C        C  376   4.390   3.969   2.771
    1C        C  377   4.422   3.909   2.895
    1C        C  378   4.315   4.093   3.013
    1C        C  379   4.391   3.974   3.016
    1C        C  380   4.268   4.149   3.134
    1C        C  381   4.311   4.097   3.258
    1C        C  382   4.171   4.255   3.377
    1C        C  383   4.271   4.156   3.380
    1C        C  384   4.118   4.308   3.497
    1C        C  385   4.174   4.263   3.619
    1C        C  386   4.007   4.390   3.743
    1C        C  387   4.120   4.307   3.742
    1C        C  388   3.944   4.431   3.864
    1C        C  389   4.007   4.396   3.986
    1C        C  390   3.813   4.487   4.108
    1C        C  391   3.944   4.432   4.107
    1C        C  392   3.750   4.512   4.231
    1C        C  393   3.822   4.497   4.352
    1C        C  394   3.613   4.555   4.474
    1C        C  395   3.751   4.524   4.471
    1C        C  396   3.544   4.564   4.597
    1C        C  397   3.620   4.563   4.716
    1C        C  398   3.410   4.548   4.843
    1C        C  399   3.549   4.575   4.837
    1C        C  400   3.343   4.511   4.960
    1C        C  401   4.500   3.701   2.050
    1C        C  402   4.446   3.912   2.166
    1C        C  403   4.490   3.778   2.167
    1C        C  404   4.411   3.978   2.286
    1C        C  405   4.439   3.911   2.407
    1C        C  406   4.326   4.094   2.524
    1C        C  407   4.406   3.978   2.527
    1C        C  408   4.276   4.147   2.645
    1C        C  409   4.314   4.089   2.768
    1C        C  410   4.175   4.249   2.886
    1C        C  411   4.271   4.146   2.890
    1C        C  412   4.121   4.295   3.009
    1C        C  413   4.172   4.253   3.134
    1C        C  414   4.001   4.382   3.253
    1C        C  415   4.118   4.302   3.255
    1C        C  416   3.943   4.421   3.375
    1C        C  417   4.002   4.388   3.499
    1C        C  418   3.813   4.481   3.620
    1C        C  419   3.941   4.421   3.622
    1C        C  420   3.748   4.509   3.742
    1C        C  421   3.815   4.488   3.864
    1C        C  422   3.609   4.540   3.986
    1C        C  423   3.748   4.515   3.986
    1C        C  424   3.541   4.548   4.109
    1C        C  425   3.612   4.546   4.231
    1C        C  426   3.401   4.551   4.356
    1C        C  427   3.541   4.563   4.352
    1C        C  428   3.331   4.544   4.479
    1C        C  429   3.404   4.552   4.600
    1C        C  430   3.195   4.515   4.724
    1C        C  431   3.335   4.542   4.723
    1C        C  432   3.124   4.496   4.846
    1C        C  433   3.204   4.497   4.960
    1C        C  434   4.383   4.123   2.050
    1C        C  435   4.445   3.997   2.054
    1C        C  436   4.299   4.159   2.160
    1C        C  437   4.331   4.095   2.283
    1C        C  438   4.182   4.252   2.398
    1C        C  439   4.280   4.150   2.403
    1C        C  440   4.128   4.296   2.521
    1C        C  441   4.181   4.252   2.644
    1C        C  442   4.010   4.382   2.763
    1C        C  443   4.124   4.299   2.764
    1C        C  444   3.945   4.414   2.884
    1C        C  445   4.005   4.374   3.006
    1C        C  446   3.813   4.469   3.128
    1C        C  447   3.942   4.411   3.128
    1C        C  448   3.747   4.491   3.250
    1C        C  449   3.812   4.475   3.375
    1C        C  450   3.607   4.527   3.495
    1C        C  451   3.746   4.500   3.497
    1C        C  452   3.539   4.540   3.618
    1C        C  453   3.609   4.534   3.741
    1C        C  454   3.398   4.551   3.863
    1C        C  455   3.539   4.547   3.863
    1C        C  456   3.334   4.534   3.987
    1C        C  457   3.400   4.538   4.112
    1C        C  458   3.193   4.501   4.237
    1C        C  459   3.331   4.531   4.235
    1C        C  460   3.125   4.490   4.360
    1C        C  461   3.193   4.514   4.481
    1C        C  462   2.996   4.437   4.601
    1C        C  463   3.126   4.493   4.603
    1C        C  464   2.934   4.398   4.721
    1C        C  465   2.991   4.442   4.844
    1C        C  466   2.796   4.342   4.956
    1C        C  467   2.905   4.430   4.957
    1C        C  468   4.125   4.289   2.036
    1C        C  469   4.186   4.247   2.156
    1C        C  470   4.008   4.373   2.277
    1C        C  471   4.129   4.299   2.275
    1C        C  472   3.942   4.401   2.398
    1C        C  473   4.008   4.371   2.520
    1C        C  474   3.814   4.462   2.641
    1C        C  475   3.944   4.406   2.641
    1C        C  476   3.748   4.490   2.763
    1C        C  477   3.816   4.472   2.885
    1C        C  478   3.605   4.510   3.007
    1C        C  479   3.746   4.491   3.006
    1C        C  480   3.537   4.525   3.130
    1C        C  481   3.609   4.519   3.252
    1C        C  482   3.396   4.535   3.375
    1C        C  483   3.538   4.533   3.373
    1C        C  484   3.328   4.535   3.498
    1C        C  485   3.398   4.548   3.620
    1C        C  486   3.190   4.504   3.745
    1C        C  487   3.326   4.545   3.742
    1C        C  488   3.128   4.474   3.868
    1C        C  489   3.197   4.498   3.989
    1C        C  490   3.006   4.412   4.116
    1C        C  491   3.131   4.478   4.112
    1C        C  492   2.943   4.382   4.239
    1C        C  493   2.998   4.427   4.361
    1C        C  494   2.828   4.298   4.481
    1C        C  495   2.935   4.390   4.482
    1C        C  496   2.778   4.253   4.605
    1C        C  497   2.821   4.312   4.725
    1C        C  498   2.666   4.160   4.844
    1C        C  499   2.752   4.272   4.842
    1C        C  500   2.601   4.113   4.959
    1C        C  501   4.007   4.362   2.041
    1C        C  502   3.817   4.471   2.157
    1C        C  503   3.945   4.410   2.156
    1C        C  504   3.745   4.484   2.277
    1C        C  505   3.812   4.456   2.398
    1C        C  506   3.607   4.509   2.519
    1C        C  507   3.745   4.483   2.519
    1C        C  508   3.535   4.521   2.640
    1C        C  509   3.609   4.516   2.760
    1C        C  510   3.398   4.523   2.885
    1C        C  511   3.539   4.521   2.883
    1C        C  512   3.328   4.523   3.008
    1C        C  513   3.396   4.531   3.131
    1C        C  514   3.189   4.489   3.256
    1C        C  515   3.326   4.525   3.253
    1C        C  516   3.121   4.471   3.379
    1C        C  517   3.190   4.501   3.499
    1C        C  518   3.004   4.404   3.625
    1C        C  519   3.128   4.473   3.622
    1C        C  520   2.945   4.365   3.747
    1C        C  521   3.004   4.405   3.868
    1C        C  522   2.841   4.279   3.995
    1C        C  523   2.949   4.371   3.994
    1C        C  524   2.790   4.233   4.119
    1C        C  525   2.835   4.291   4.239
    1C        C  526   2.692   4.132   4.362
    1C        C  527   2.779   4.243   4.360
    1C        C  528   2.655   4.075   4.486
    1C        C  529   2.690   4.142   4.605
    1C        C  530   2.579   3.960   4.729
    1C        C  531   2.636   4.091   4.725
    1C        C  532   2.538   3.901   4.852
    1C        C  533   2.524   3.996   4.958
    1C        C  534   3.620   4.551   2.038
    1C        C  535   3.755   4.513   2.039
    1C        C  536   3.537   4.531   2.153
    1C        C  537   3.605   4.510   2.276
    1C        C  538   3.393   4.519   2.399
    1C        C  539   3.535   4.522   2.398
    1C        C  540   3.322   4.515   2.520
    1C        C  541   3.394   4.520   2.642
    1C        C  542   3.186   4.488   2.764
    1C        C  543   3.324   4.519   2.765
    1C        C  544   3.121   4.465   2.887
    1C        C  545   3.191   4.486   3.008
    1C        C  546   3.002   4.400   3.135
    1C        C  547   3.126   4.468   3.132
    1C        C  548   2.943   4.359   3.257
    1C        C  549   2.998   4.403   3.379
    1C        C  550   2.833   4.276   3.505
    1C        C  551   2.942   4.366   3.504
    1C        C  552   2.781   4.228   3.627
    1C        C  553   2.836   4.274   3.749
    1C        C  554   2.702   4.118   3.875
    1C        C  555   2.788   4.230   3.874
    1C        C  556   2.660   4.061   3.997
    1C        C  557   2.702   4.122   4.118
    1C        C  558   2.597   3.942   4.247
    1C        C  559   2.657   4.069   4.241
    1C        C  560   2.566   3.878   4.370
    1C        C  561   2.593   3.948   4.490
    1C        C  562   2.530   3.747   4.616
    1C        C  563   2.562   3.884   4.612
    1C        C  564   2.512   3.679   4.739
    1C        C  565   2.513   3.760   4.856
    1C        C  566   2.524   3.545   4.978
    1C        C  567   2.520   3.684   4.973
    1C        C  568   3.330   4.465   2.044
    1C        C  569   3.396   4.511   2.158
    1C        C  570   3.182   4.475   2.278
    1C        C  571   3.320   4.506   2.278
    1C        C  572   3.116   4.452   2.400
    1C        C  573   3.185   4.481   2.520
    1C        C  574   2.990   4.402   2.649
    1C        C  575   3.118   4.461   2.643
    1C        C  576   2.936   4.357   2.772
    1C        C  577   3.000   4.392   2.892
    1C        C  578   2.832   4.267   3.017
    1C        C  579   2.939   4.359   3.015
    1C        C  580   2.784   4.214   3.139
    1C        C  581   2.838   4.265   3.259
    1C        C  582   2.699   4.110   3.384
    1C        C  583   2.790   4.218   3.384
    1C        C  584   2.658   4.055   3.507
    1C        C  585   2.696   4.116   3.629
    1C        C  586   2.594   3.934   3.756
    1C        C  587   2.662   4.058   3.753
    1C        C  588   2.568   3.870   3.880
    1C        C  589   2.595   3.936   4.002
    1C        C  590   2.531   3.738   4.127
    1C        C  591   2.569   3.874   4.126
    1C        C  592   2.526   3.670   4.250
    1C        C  593   2.537   3.740   4.372
    1C        C  594   2.509   3.532   4.498
    1C        C  595   2.520   3.673   4.495
    1C        C  596   2.512   3.462   4.621
    1C        C  597   2.513   3.537   4.741
    1C        C  598   2.529   3.326   4.865
    1C        C  599   2.515   3.466   4.863
    1C        C  600   2.531   3.246   4.980
    1C        C  601   3.196   4.431   2.042
    1C        C  602   2.982   4.389   2.161
    1C        C  603   3.116   4.437   2.157
    1C        C  604   2.927   4.350   2.286
    1C        C  605   2.992   4.385   2.407
    1C        C  606   2.822   4.263   2.532
    1C        C  607   2.930   4.354   2.530
    1C        C  608   2.774   4.212   2.654
    1C        C  609   2.829   4.265   2.773
    1C        C  610   2.691   4.104   2.896
    1C        C  611   2.784   4.211   2.896
    1C        C  612   2.647   4.048   3.018
    1C        C  613   2.691   4.108   3.139
    1C        C  614   2.592   3.924   3.267
    1C        C  615   2.655   4.051   3.263
    1C        C  616   2.567   3.862   3.392
    1C        C  617   2.598   3.927   3.514
    1C        C  618   2.528   3.728   3.640
    1C        C  619   2.569   3.863   3.636
    1C        C  620   2.516   3.660   3.764
    1C        C  621   2.533   3.733   3.884
    1C        C  622   2.507   3.524   4.010
    1C        C  623   2.522   3.664   4.007
    1C        C  624   2.509   3.454   4.133
    1C        C  625   2.513   3.529   4.252
    1C        C  626   2.534   3.321   4.381
    1C        C  627   2.514   3.461   4.376
    1C        C  628   2.552   3.252   4.503
    1C        C  629   2.530   3.322   4.623
    1C        C  630   2.593   3.118   4.746
    1C        C  631   2.550   3.254   4.745
    1C        C  632   2.615   3.048   4.869
    1C        C  633   2.553   3.108   4.983
    1C        C  634   2.778   4.299   2.058
    1C        C  635   2.887   4.387   2.054
    1C        C  636   2.748   4.222   2.171
    1C        C  637   2.815   4.262   2.289
    1C        C  638   2.680   4.102   2.411
    1C        C  639   2.766   4.215   2.412
    1C        C  640   2.642   4.042   2.533
    1C        C  641   2.683   4.104   2.653
    1C        C  642   2.584   3.919   2.776
    1C        C  643   2.647   4.045   2.776
    1C        C  644   2.556   3.854   2.898
    1C        C  645   2.584   3.921   3.020
    1C        C  646   2.525   3.724   3.149
    1C        C  647   2.570   3.858   3.145
    1C        C  648   2.516   3.655   3.272
    1C        C  649   2.526   3.727   3.393
    1C        C  650   2.504   3.519   3.522
    1C        C  651   2.514   3.660   3.517
    1C        C  652   2.502   3.448   3.644
    1C        C  653   2.505   3.519   3.766
    1C        C  654   2.524   3.310   3.890
    1C        C  655   2.505   3.450   3.889
    1C        C  656   2.541   3.242   4.013
    1C        C  657   2.530   3.314   4.135
    1C        C  658   2.604   3.120   4.256
    1C        C  659   2.551   3.251   4.260
    1C        C  660   2.636   3.059   4.379
    1C        C  661   2.602   3.119   4.503
    1C        C  662   2.706   2.936   4.625
    1C        C  663   2.630   3.055   4.625
    1C        C  664   2.753   2.883   4.747
    1C        C  665   2.696   2.930   4.868
    1C        C  666   2.737   2.863   4.984
    1C        C  667   2.678   4.020   2.052
    1C        C  668   2.685   4.096   2.169
    1C        C  669   2.585   3.908   2.294
    1C        C  670   2.641   4.039   2.291
    1C        C  671   2.553   3.843   2.415
    1C        C  672   2.580   3.915   2.533
    1C        C  673   2.516   3.715   2.659
    1C        C  674   2.552   3.851   2.656
    1C        C  675   2.504   3.648   2.783
    1C        C  676   2.517   3.718   2.905
    1C        C  677   2.491   3.511   3.030
    1C        C  678   2.506   3.652   3.029
    1C        C  679   2.500   3.443   3.153
    1C        C  680   2.507   3.514   3.275
    1C        C  681   2.537   3.309   3.401
    1C        C  682   2.511   3.449   3.400
    1C        C  683   2.550   3.241   3.523
    1C        C  684   2.529   3.309   3.646
    1C        C  685   2.596   3.111   3.771
    1C        C  686   2.537   3.239   3.768
    1C        C  687   2.621   3.046   3.894
    1C        C  688   2.582   3.107   4.015
    1C        C  689   2.707   2.932   4.138
    1C        C  690   2.631   3.051   4.136
    1C        C  691   2.757   2.883   4.261
    1C        C  692   2.716   2.943   4.382
    1C        C  693   2.757   2.884   4.504
    1C        C  694   2.630   3.889   2.059
    1C        C  695   2.521   3.702   2.175
    1C        C  696   2.576   3.832   2.175
    1C        C  697   2.497   3.634   2.296
    1C        C  698   2.517   3.707   2.415
    1C        C  699   2.481   3.501   2.541
    1C        C  700   2.502   3.640   2.539
    1C        C  701   2.496   3.434   2.665
    1C        C  702   2.499   3.507   2.786
    1C        C  703   2.526   3.300   2.911
    1C        C  704   2.497   3.438   2.909
    1C        C  705   2.548   3.233   3.034
    1C        C  706   2.531   3.305   3.155
    1C        C  707   2.594   3.105   3.283
    1C        C  708   2.548   3.239   3.279
    1C        C  709   2.629   3.042   3.405
    1C        C  710   2.601   3.109   3.527
    1C        C  711   2.715   2.933   3.652
    1C        C  712   2.633   3.048   3.650
    1C        C  713   2.757   2.878   3.776
    1C        C  714   2.705   2.932   3.896
    1C        C  715   2.749   2.873   4.016
    1C        C  716   2.446   3.499   2.060
    1C        C  717   2.482   3.634   2.058
    1C        C  718   2.461   3.420   2.178
    1C        C  719   2.475   3.494   2.299
    1C        C  720   2.507   3.287   2.422
    1C        C  721   2.474   3.424   2.422
    1C        C  722   2.528   3.221   2.546
    1C        C  723   2.522   3.296   2.665
    1C        C  724   2.589   3.099   2.791
    1C        C  725   2.537   3.230   2.789
    1C        C  726   2.626   3.039   2.913
    1C        C  727   2.597   3.101   3.037
    1C        C  728   2.709   2.927   3.158
    1C        C  729   2.627   3.042   3.162
    1C        C  730   2.754   2.874   3.282
    1C        C  731   2.713   2.929   3.405
    1C        C  732   2.758   2.878   3.529
    1C        C  733   2.481   3.195   2.073
    1C        C  734   2.474   3.278   2.186
    1C        C  735   2.578   3.083   2.304
    1C        C  736   2.521   3.213   2.303
    1C        C  737   2.612   3.020   2.426
    1C        C  738   2.581   3.090   2.545
    1C        C  739   2.701   2.918   2.669
    1C        C  740   2.619   3.034   2.669
    1C        C  741   2.749   2.865   2.791
    1C        C  742   2.709   2.925   2.912
    1C        C  743   2.751   2.871   3.036
    1C        C  744   2.535   3.067   2.072
    1C        C  745   2.688   2.901   2.184
    1C        C  746   2.601   3.013   2.183
    1C        C  747   2.730   2.844   2.306
    1C        C  748   2.694   2.905   2.428
    1C        C  749   2.744   2.855   2.551
    1C        C  750   2.736   2.837   2.069
    1C        C  751   3.670   2.311   1.986
    1C        O  752   3.614   2.200   1.964
    1C        O  753   3.726   2.355   1.865
    1C        C  754   4.612   3.071   1.950
    1C        O  755   4.568   3.065   1.832
    1C        O  756   4.752   3.058   1.954
    1C        C  757   4.449   4.232   1.976
    1C        O  758   4.541   4.302   2.027
    1C        O  759   4.460   4.235   1.836
    1C        C  760   3.589   4.657   1.939
    1C        O  761   3.606   4.781   1.955
    1C        O  762   3.582   4.637   1.800
    1C        C  763   2.863   4.505   1.967
    1C        O  764   2.878   4.507   1.842
    1C        O  765   2.826   4.627   2.024
    1C        C  766   2.367   3.451   1.944
    1C        O  767   2.427   3.430   1.835
    1C        O  768   2.229   3.434   1.958
    1C        C  769   4.705   3.590   5.042
    1C        O  770   4.711   3.617   5.165
    1C        O  771   4.825   3.562   4.977
    1C        C  772   4.274   4.469   5.028
    1C        O  773   4.252   4.527   5.138
    1C        O  774   4.369   4.552   4.968
    1C        C  775   4.143   2.507   5.062
    1C        O  776   4.190   2.398   5.020
    1C        O  777   4.164   2.523   5.199
    1C        C  778   2.894   4.531   5.065
    1C        O  779   2.875   4.655   5.047
    1C        O  780   2.878   4.493   5.198
    1C        C  781   2.483   3.036   5.092
    1C        O  782   2.379   2.968   5.071
    1C        O  783   2.484   3.092   5.219
    1C        C  784   2.393   4.015   5.024
    1C        O  785   2.287   4.065   4.977
    1C        O  786   2.387   4.026   5.163
    1C        C  787   2.948   2.443   1.991
    1C        O  788   2.965   2.468   1.869
    1C        O  789   2.898   2.316   2.021
    1C        C  790   3.181   2.356   5.048
    1C        O  791   3.101   2.269   5.003
    1C        O  792   3.196   2.350   5.187
    1C        H  793   4.293   3.007   5.073
    1C        H  794   4.221   2.786   5.070
    1C        H  795   4.481   3.139   5.069
    1C        H  796   4.594   3.343   5.045
    1C        H  797   4.584   3.811   5.037
    1C        H  798   4.446   4.004   5.051
    1C        H  799   4.275   4.165   5.048
    1C        H  800   4.059   4.565   5.004
    1C        H  801   3.817   4.606   5.031
    1C        H  802   3.584   4.632   5.038
    1C        H  803   3.391   4.515   5.055
    1C        H  804   3.155   4.486   5.054
    1C        H  805   3.883   2.490   5.069
    1C        H  806   3.675   2.449   5.075
    1C        H  807   3.000   2.559   5.061
    1C        H  808   3.446   2.444   5.073
    1C        H  809   2.877   2.739   5.079
    1C        H  810   2.676   2.870   5.071
    1C        H  811   2.472   3.281   5.063
    1C        H  812   2.576   3.508   5.064
    1C        H  813   2.523   3.742   5.063
    1C        H  814   2.574   4.180   5.038
    1C        H  815   2.717   4.361   5.026
    1C        H  816   2.689   2.862   1.976
    1C        H  817   2.852   2.688   1.974
    1C        H  818   3.197   2.395   2.009
    1C        H  819   3.426   2.414   1.980
    1C        H  820   3.883   2.483   1.975
    1C        H  821   4.028   2.677   1.976
    1C        H  822   4.208   2.756   1.971
    1C        H  823   4.372   2.921   1.964
    1C        H  824   4.576   3.322   1.972
    1C        H  825   4.508   3.510   1.959
    1C        H  826   4.490   3.744   1.952
    1C        H  827   3.817   4.572   1.975
    1C        H  828   3.970   4.388   1.944
    1C        H  829   4.173   4.285   1.941
    1C        H  830   4.499   3.967   1.966
    1C        H  831   2.608   3.845   1.964
    1C        H  832   2.720   4.056   1.961
    1C        H  833   2.714   4.287   1.973
    1C        H  834   3.384   4.409   1.971
    1C        H  835   3.148   4.446   1.947
    1C        H  836   2.536   3.015   1.978
    1C        H  837   2.410   3.205   1.992
    1C        H  838   2.421   3.693   1.994
    2V3OU   H29  839   2.812   3.553   3.483
    2V3OU   C27  840   2.795   3.501   3.581
    2V3OU   H27  841   2.737   3.571   3.647
    2V3OU   H28  842   2.737   3.407   3.563
    2V3OU   O11  843   2.914   3.477   3.656
    2V3OU   C15  844   2.929   3.399   3.769
    2V3OU   C13  845   3.051   3.379   3.836
    2V3OU   C14  846   3.084   3.273   3.923
    2V3OU   C16  847   2.980   3.190   3.962
    2V3OU    H6  848   2.990   3.102   4.028
    2V3OU   C12  849   3.217   3.229   3.969
    2V3OU    O2  850   3.235   3.129   4.043
    2V3OU   C10  851   3.329   3.309   3.917
    2V3OU    C8  852   3.460   3.273   3.943
    2V3OU   O10  853   3.491   3.157   4.007
    2V3OU   H26  854   3.402   3.119   4.022
    2V3OU    C6  855   3.567   3.354   3.893
    2V3OU    C5  856   3.539   3.471   3.824
    2V3OU    C4  857   3.706   3.301   3.888
    2V3OU    H4  858   3.726   3.230   3.974
    2V3OU    H5  859   3.713   3.233   3.798
    2V3OU    C2  860   3.819   3.403   3.874
    2V3OU    O6  861   3.820   3.477   3.997
    2V3OU   H21  862   3.766   3.555   3.974
    2V3OU    C3  863   3.782   3.498   3.760
    2V3OU    H2  864   3.864   3.574   3.757
    2V3OU    H3  865   3.775   3.438   3.666
    2V3OU   C25  866   3.952   3.332   3.852
    2V3OU    O7  867   3.992   3.300   3.740
    2V3OU   C26  868   4.026   3.289   3.978
    2V3OU   H22  869   4.061   3.379   4.034
    2V3OU   H23  870   4.116   3.228   3.950
    2V3OU    O8  871   3.961   3.207   4.072
    2V3OU   H24  872   3.922   3.263   4.141
    2V3OU    C1  873   3.648   3.566   3.787
    2V3OU    H1  874   3.620   3.624   3.694
    2V3OU    O3  875   3.658   3.650   3.902
    2V3OU   C19  876   3.623   3.787   3.888
    2V3OU    H9  877   3.524   3.807   3.836
    2V3OU    O4  878   3.718   3.847   3.802
    2V3OU   C20  879   3.848   3.873   3.855
    2V3OU   H10  880   3.884   3.767   3.870
    2V3OU   C24  881   3.609   3.855   4.024
    2V3OU   H16  882   3.551   3.790   4.095
    2V3OU   H17  883   3.559   3.954   4.009
    2V3OU   C23  884   3.746   3.877   4.089
    2V3OU   H15  885   3.793   3.776   4.111
    2V3OU    N1  886   3.734   3.959   4.208
    2V3OU   H19  887   3.811   3.931   4.266
    2V3OU   H20  888   3.646   3.931   4.245
    2V3OU   C21  889   3.839   3.951   3.987
    2V3OU   H11  890   3.943   3.921   4.020
    2V3OU    O5  891   3.830   4.093   3.984
    2V3OU   H18  892   3.768   4.108   4.057
    2V3OU   C22  893   3.917   3.949   3.743
    2V3OU   H12  894   3.859   4.041   3.717
    2V3OU   H13  895   3.906   3.893   3.647
    2V3OU   H14  896   4.024   3.964   3.772
    2V3OU   C11  897   3.162   3.472   3.812
    2V3OU    O1  898   3.137   3.592   3.786
    2V3OU    C9  899   3.299   3.425   3.839
    2V3OU    C7  900   3.403   3.505   3.794
    2V3OU    O9  901   3.391   3.616   3.713
    2V3OU   H25  902   3.297   3.627   3.692
    2V3OU   C17  903   2.828   3.314   3.819
    2V3OU    H7  904   2.730   3.353   3.792
    2V3OU   C18  905   2.852   3.218   3.916
    2V3OU    H8  906   2.787   3.172   3.992
    3SOL     OW  907   2.533   4.262   5.757
    3SOL    HW1  908   2.606   4.328   5.742
    3SOL    HW2  909   2.562   4.195   5.825
    4SOL     OW  910   6.362   0.067   6.577
    4SOL    HW1  911   6.293   0.014   6.528
    4SOL    HW2  912   6.450   0.020   6.572
    5SOL     OW  913   4.908   2.437   2.509
    5SOL    HW1  914   4.911   2.534   2.532
    5SOL    HW2  915   4.816   2.402   2.525
    6SOL     OW  916   4.685   2.282   2.553
    6SOL    HW1  917   4.645   2.223   2.482
    6SOL    HW2  918   4.648   2.257   2.642
    7SOL     OW  919   1.130   4.014   3.950
    7SOL    HW1  920   1.055   3.949   3.965
    7SOL    HW2  921   1.206   3.991   4.011
    8SOL     OW  922   2.895   1.982   5.345
    8SOL    HW1  923   2.984   1.958   5.383
    8SOL    HW2  924   2.907   2.047   5.270
    9SOL     OW  925   6.071   2.150   6.020
    9SOL    HW1  926   6.098   2.238   5.981
    9SOL    HW2  927   6.030   2.165   6.110
   10SOL     OW  928   2.807   4.757   4.533
   10SOL    HW1  929   2.725   4.709   4.501
   10SOL    HW2  930   2.811   4.752   4.633
   11SOL     OW  931   1.809   1.062   6.647
   11SOL    HW1  932   1.776   0.976   6.609
   11SOL    HW2  933   1.883   1.044   6.712
   12SOL     OW  934   2.798   4.780   3.951
   12SOL    HW1  935   2.779   4.747   3.859
   12SOL    HW2  936   2.896   4.769   3.971
   13SOL     OW  937   3.910   6.454   3.412
   13SOL    HW1  938   3.922   6.531   3.349
   13SOL    HW2  939   3.991   6.395   3.408
   14SOL     OW  940   4.107   3.810   6.431
   14SOL    HW1  941   4.159   3.884   6.474
   14SOL    HW2  942   4.168   3.732   6.415
   15SOL     OW  943   0.808   6.772   6.660
   15SOL    HW1  944   0.836   6.822   6.742
   15SOL    HW2  945   0.875   6.700   6.640
   16SOL     OW  946   5.730   2.599   6.509
   16SOL    HW1  947   5.822   2.637   6.496
   16SOL    HW2  948   5.699   2.618   6.602
   17SOL     OW  949   5.200   0.322   6.437
   17SOL    HW1  950   5.219   0.334   6.535
   17SOL    HW2  951   5.103   0.300   6.424
   18SOL     OW  952   3.783   0.898   4.653
   18SOL    HW1  953   3.684   0.901   4.637
   18SOL    HW2  954   3.799   0.867   4.747
   19SOL     OW  955   0.666   2.612   2.014
   19SOL    HW1  956   0.695   2.552   1.940
   19SOL    HW2  957   0.666   2.562   2.100
   20SOL     OW  958   5.053   2.222   5.329
   20SOL    HW1  959   5.113   2.256   5.401
   20SOL    HW2  960   5.036   2.295   5.262
   21SOL     OW  961   2.657   0.628   3.219
   21SOL    HW1  962   2.589   0.688   3.176
   21SOL    HW2  963   2.691   0.670   3.303
   22SOL     OW  964   0.968   6.474   6.916
   22SOL    HW1  965   1.066   6.471   6.936
   22SOL    HW2  966   0.924   6.393   6.953
   23SOL     OW  967   4.132   5.302   2.414
   23SOL    HW1  968   4.186   5.223   2.443
   23SOL    HW2  969   4.075   5.277   2.336
   24SOL     OW  970   3.521   0.340   2.496
   24SOL    HW1  971   3.547   0.256   2.543
   24SOL    HW2  972   3.583   0.356   2.419
   25SOL     OW  973   1.784   0.004   3.937
   25SOL    HW1  974   1.716   6.969   3.892
   25SOL    HW2  975   1.839   0.051   3.869
   26SOL     OW  976   6.879   2.118   6.920
   26SOL    HW1  977   6.866   2.051   6.994
   26SOL    HW2  978   6.963   2.168   6.935
   27SOL     OW  979   2.051   1.226   2.310
   27SOL    HW1  980   2.087   1.319   2.301
   27SOL    HW2  981   2.126   1.160   2.304
   28SOL     OW  982   0.089   0.963   4.666
   28SOL    HW1  983   0.012   0.950   4.603
   28SOL    HW2  984   0.172   0.980   4.614
   29SOL     OW  985   6.871   0.677   0.915
   29SOL    HW1  986   6.832   0.585   0.912
   29SOL    HW2  987   6.861   0.714   1.007
   30SOL     OW  988   4.061   0.492   5.059
   30SOL    HW1  989   4.117   0.409   5.056
   30SOL    HW2  990   4.099   0.559   4.995
   31SOL     OW  991   0.657   2.166   5.711
   31SOL    HW1  992   0.747   2.186   5.672
   31SOL    HW2  993   0.642   2.067   5.709
   32SOL     OW  994   1.228   1.578   2.368
   32SOL    HW1  995   1.245   1.507   2.301
   32SOL    HW2  996   1.271   1.663   2.339
   33SOL     OW  997   1.042   4.718   5.445
   33SOL    HW1  998   0.959   4.670   5.419
   33SOL    HW2  999   1.072   4.687   5.535
   34SOL     OW 1000   2.557   5.742   4.951
   34SOL    HW1 1001   2.643   5.713   4.909
   34SOL    HW2 1002   2.570   5.750   5.050
   35SOL     OW 1003   4.315   2.117   5.379
   35SOL    HW1 1004   4.236   2.056   5.385
   35SOL    HW2 1005   4.354   2.130   5.470
   36SOL     OW 1006   4.837   1.375   4.128
   36SOL    HW1 1007   4.837   1.282   4.166
   36SOL    HW2 1008   4.793   1.437   4.193
   37SOL     OW 1009   1.966   1.564   5.024
   37SOL    HW1 1010   2.020   1.625   5.082
   37SOL    HW2 1011   1.902   1.618   4.970
   38SOL     OW 1012   2.068   3.887   1.746
   38SOL    HW1 1013   2.066   3.827   1.826
   38SOL    HW2 1014   2.155   3.937   1.744
   39SOL     OW 1015   6.242   4.724   6.005
   39SOL    HW1 1016   6.260   4.635   6.048
   39SOL    HW2 1017   6.187   4.710   5.922
   40SOL     OW 1018   3.645   1.899   0.091
   40SOL    HW1 1019   3.629   1.841   0.011
   40SOL    HW2 1020   3.560   1.941   0.120
   41SOL     OW 1021   6.438   3.254   2.837
   41SOL    HW1 1022   6.413   3.158   2.824
   41SOL    HW2 1023   6.439   3.300   2.748
   42SOL     OW 1024   3.167   5.865   4.431
   42SOL    HW1 1025   3.223   5.790   4.395
   42SOL    HW2 1026   3.163   5.859   4.530
   43SOL     OW 1027   4.175   0.566   5.589
   43SOL    HW1 1028   4.254   0.516   5.553
   43SOL    HW2 1029   4.117   0.596   5.513
   44SOL     OW 1030   5.851   2.354   5.086
   44SOL    HW1 1031   5.902   2.440   5.083
   44SOL    HW2 1032   5.896   2.285   5.031
   45SOL     OW 1033   4.252   5.268   1.482
   45SOL    HW1 1034   4.340   5.252   1.527
   45SOL    HW2 1035   4.267   5.305   1.391
   46SOL     OW 1036   1.019   2.275   4.137
   46SOL    HW1 1037   0.923   2.289   4.163
   46SOL    HW2 1038   1.030   2.295   4.040
   47SOL     OW 1039   4.358   3.903   1.547
   47SOL    HW1 1040   4.336   3.899   1.449
   47SOL    HW2 1041   4.277   3.880   1.600
   48SOL     OW 1042   6.723   2.585   6.219
   48SOL    HW1 1043   6.652   2.546   6.161
   48SOL    HW2 1044   6.787   2.513   6.246
   49SOL     OW 1045   5.134   2.326   1.590
   49SOL    HW1 1046   5.099   2.411   1.551
   49SOL    HW2 1047   5.135   2.332   1.689
   50SOL     OW 1048   6.248   1.540   5.456
   50SOL    HW1 1049   6.276   1.543   5.552
   50SOL    HW2 1050   6.197   1.456   5.438
   51SOL     OW 1051   2.186   6.212   2.829
   51SOL    HW1 1052   2.216   6.136   2.772
   51SOL    HW2 1053   2.172   6.293   2.772
   52SOL     OW 1054   5.350   2.655   1.799
   52SOL    HW1 1055   5.422   2.679   1.864
   52SOL    HW2 1056   5.342   2.556   1.793
   53SOL     OW 1057   5.667   0.482   3.162
   53SOL    HW1 1058   5.734   0.530   3.219
   53SOL    HW2 1059   5.673   0.384   3.178
   54SOL     OW 1060   5.035   6.929   0.205
   54SOL    HW1 1061   5.061   6.924   0.301
   54SOL    HW2 1062   4.967   7.000   0.192
   55SOL     OW 1063   2.075   2.109   5.404
   55SOL    HW1 1064   2.060   2.108   5.305
   55SOL    HW2 1065   2.111   2.198   5.432
   56SOL     OW 1066   1.236   1.643   0.974
   56SOL    HW1 1067   1.219   1.691   0.888
   56SOL    HW2 1068   1.178   1.562   0.979
   57SOL     OW 1069   3.397   1.084   0.522
   57SOL    HW1 1070   3.393   0.994   0.565
   57SOL    HW2 1071   3.456   1.080   0.442
   58SOL     OW 1072   0.618   6.342   5.701
   58SOL    HW1 1073   0.643   6.430   5.660
   58SOL    HW2 1074   0.522   6.345   5.731
   59SOL     OW 1075   6.772   3.782   6.309
   59SOL    HW1 1076   6.817   3.693   6.313
   59SOL    HW2 1077   6.701   3.787   6.379
   60SOL     OW 1078   4.997   2.466   3.499
   60SOL    HW1 1079   4.924   2.399   3.484
   60SOL    HW2 1080   5.025   2.464   3.595
   61SOL     OW 1081   6.934   0.956   4.455
   61SOL    HW1 1082   6.837   0.956   4.431
   61SOL    HW2 1083   6.989   0.963   4.372
   62SOL     OW 1084   2.022   0.863   1.831
   62SOL    HW1 1085   2.097   0.894   1.773
   62SOL    HW2 1086   2.041   0.770   1.862
   63SOL     OW 1087   4.140   0.443   4.024
   63SOL    HW1 1088   4.217   0.496   3.987
   63SOL    HW2 1089   4.075   0.505   4.066
   64SOL     OW 1090   0.640   3.102   6.484
   64SOL    HW1 1091   0.574   3.058   6.423
   64SOL    HW2 1092   0.664   3.040   6.558
   65SOL     OW 1093   1.412   6.357   5.862
   65SOL    HW1 1094   1.333   6.410   5.831
   65SOL    HW2 1095   1.455   6.404   5.939
   66SOL     OW 1096   3.388   0.132   3.343
   66SOL    HW1 1097   3.342   0.120   3.432
   66SOL    HW2 1098   3.447   0.213   3.347
   67SOL     OW 1099   0.199   2.943   6.156
   67SOL    HW1 1100   0.141   2.877   6.204
   67SOL    HW2 1101   0.156   3.033   6.159
   68SOL     OW 1102   0.248   1.859   6.271
   68SOL    HW1 1103   0.244   1.947   6.319
   68SOL    HW2 1104   0.232   1.785   6.335
   69SOL     OW 1105   1.799   2.888   5.266
   69SOL    HW1 1106   1.791   2.789   5.278
   69SOL    HW2 1107   1.716   2.932   5.301
   70SOL     OW 1108   5.326   5.091   4.732
   70SOL    HW1 1109   5.412   5.074   4.684
   70SOL    HW2 1110   5.251   5.048   4.682
   71SOL     OW 1111   4.363   1.600   3.162
   71SOL    HW1 1112   4.424   1.609   3.084
   71SOL    HW2 1113   4.379   1.513   3.209
   72SOL     OW 1114   0.412   1.365   3.239
   72SOL    HW1 1115   0.347   1.419   3.185
   72SOL    HW2 1116   0.499   1.361   3.190
   73SOL     OW 1117   3.032   0.517   1.219
   73SOL    HW1 1118   3.097   0.471   1.158
   73SOL    HW2 1119   2.938   0.493   1.192
   74SOL     OW 1120   2.891   1.268   6.383
   74SOL    HW1 1121   2.866   1.232   6.473
   74SOL    HW2 1122   2.857   1.362   6.374
   75SOL     OW 1123   4.068   1.583   1.821
   75SOL    HW1 1124   4.041   1.601   1.727
   75SOL    HW2 1125   4.166   1.600   1.833
   76SOL     OW 1126   2.337   3.581   6.044
   76SOL    HW1 1127   2.366   3.598   6.138
   76SOL    HW2 1128   2.237   3.573   6.040
   77SOL     OW 1129   1.562   5.843   3.345
   77SOL    HW1 1130   1.578   5.778   3.419
   77SOL    HW2 1131   1.501   5.916   3.377
   78SOL     OW 1132   4.171   1.315   1.402
   78SOL    HW1 1133   4.246   1.268   1.355
   78SOL    HW2 1134   4.209   1.374   1.474
   79SOL     OW 1135   2.896   5.747   1.663
   79SOL    HW1 1136   2.807   5.769   1.702
   79SOL    HW2 1137   2.914   5.649   1.674
   80SOL     OW 1138   4.435   1.562   4.630
   80SOL    HW1 1139   4.427   1.466   4.601
   80SOL    HW2 1140   4.395   1.573   4.721
   81SOL     OW 1141   1.943   6.916   1.221
   81SOL    HW1 1142   1.862   6.858   1.211
   81SOL    HW2 1143   1.988   6.897   1.308
   82SOL     OW 1144   6.765   6.053   1.367
   82SOL    HW1 1145   6.850   6.004   1.350
   82SOL    HW2 1146   6.773   6.104   1.453
   83SOL     OW 1147   0.784   1.561   6.148
   83SOL    HW1 1148   0.866   1.599   6.104
   83SOL    HW2 1149   0.782   1.590   6.244
   84SOL     OW 1150   6.517   4.438   3.434
   84SOL    HW1 1151   6.455   4.364   3.406
   84SOL    HW2 1152   6.590   4.401   3.491
   85SOL     OW 1153   1.405   0.705   3.431
   85SOL    HW1 1154   1.492   0.664   3.458
   85SOL    HW2 1155   1.372   0.765   3.504
   86SOL     OW 1156   6.712   1.114   6.876
   86SOL    HW1 1157   6.725   1.158   6.787
   86SOL    HW2 1158   6.744   1.175   6.948
   87SOL     OW 1159   3.517   3.890   0.616
   87SOL    HW1 1160   3.461   3.902   0.534
   87SOL    HW2 1161   3.458   3.862   0.692
   88SOL     OW 1162   3.185   2.159   6.538
   88SOL    HW1 1163   3.122   2.194   6.469
   88SOL    HW2 1164   3.277   2.153   6.500
   89SOL     OW 1165   3.251   3.525   0.380
   89SOL    HW1 1166   3.186   3.559   0.449
   89SOL    HW2 1167   3.289   3.603   0.329
   90SOL     OW 1168   4.399   4.559   2.555
   90SOL    HW1 1169   4.459   4.491   2.512
   90SOL    HW2 1170   4.341   4.601   2.485
   91SOL     OW 1171   5.889   4.904   5.815
   91SOL    HW1 1172   5.960   4.957   5.768
   91SOL    HW2 1173   5.928   4.816   5.844
   92SOL     OW 1174   5.096   4.321   0.870
   92SOL    HW1 1175   5.003   4.297   0.842
   92SOL    HW2 1176   5.160   4.252   0.836
   93SOL     OW 1177   3.173   3.714   6.851
   93SOL    HW1 1178   3.121   3.643   6.803
   93SOL    HW2 1179   3.251   3.673   6.898
   94SOL     OW 1180   2.203   5.915   0.846
   94SOL    HW1 1181   2.110   5.892   0.875
   94SOL    HW2 1182   2.198   5.981   0.770
   95SOL     OW 1183   1.559   1.049   3.178
   95SOL    HW1 1184   1.470   1.030   3.137
   95SOL    HW2 1185   1.615   1.099   3.112
   96SOL     OW 1186   5.098   5.614   6.736
   96SOL    HW1 1187   5.133   5.520   6.733
   96SOL    HW2 1188   5.029   5.626   6.665
   97SOL     OW 1189   2.045   3.933   5.194
   97SOL    HW1 1190   2.142   3.915   5.213
   97SOL    HW2 1191   2.015   3.873   5.120
   98SOL     OW 1192   1.091   1.680   0.602
   98SOL    HW1 1193   1.125   1.595   0.562
   98SOL    HW2 1194   0.995   1.693   0.577
   99SOL     OW 1195   3.733   4.074   2.598
   99SOL    HW1 1196   3.783   4.030   2.673
   99SOL    HW2 1197   3.758   4.171   2.595
  100SOL     OW 1198   6.895   0.263   4.528
  100SOL    HW1 1199   6.990   0.262   4.498
  100SOL    HW2 1200   6.892   0.256   4.628
  101SOL     OW 1201   0.384   5.731   2.310
  101SOL    HW1 1202   0.329   5.731   2.226
  101SOL    HW2 1203   0.325   5.713   2.389
  102SOL     OW 1204   3.300   5.702   2.404
  102SOL    HW1 1205   3.289   5.714   2.503
  102SOL    HW2 1206   3.310   5.605   2.383
  103SOL     OW 1207   1.590   2.048   2.544
  103SOL    HW1 1208   1.627   2.039   2.637
  103SOL    HW2 1209   1.624   1.973   2.487
  104SOL     OW 1210   1.670   5.016   2.119
  104SOL    HW1 1211   1.651   5.103   2.074
  104SOL    HW2 1212   1.735   5.029   2.193
  105SOL     OW 1213   5.077   1.444   5.941
  105SOL    HW1 1214   5.038   1.532   5.966
  105SOL    HW2 1215   5.177   1.448   5.949
  106SOL     OW 1216   4.593   5.596   2.068
  106SOL    HW1 1217   4.623   5.691   2.068
  106SOL    HW2 1218   4.494   5.593   2.078
  107SOL     OW 1219   6.811   0.592   6.757
  107SOL    HW1 1220   6.782   0.604   6.852
  107SOL    HW2 1221   6.873   0.667   6.732
  108SOL     OW 1222   3.540   6.846   5.518
  108SOL    HW1 1223   3.519   6.799   5.604
  108SOL    HW2 1224   3.506   6.940   5.522
  109SOL     OW 1225   2.598   0.790   2.450
  109SOL    HW1 1226   2.576   0.698   2.483
  109SOL    HW2 1227   2.679   0.786   2.392
  110SOL     OW 1228   2.013   5.221   4.747
  110SOL    HW1 1229   2.068   5.143   4.776
  110SOL    HW2 1230   2.072   5.299   4.729
  111SOL     OW 1231   1.478   1.708   3.222
  111SOL    HW1 1232   1.575   1.704   3.199
  111SOL    HW2 1233   1.466   1.694   3.320
  112SOL     OW 1234   4.886   6.799   0.030
  112SOL    HW1 1235   4.945   6.815   0.109
  112SOL    HW2 1236   4.918   6.853   6.975
  113SOL     OW 1237   0.297   6.146   2.663
  113SOL    HW1 1238   0.357   6.212   2.709
  113SOL    HW2 1239   0.349   6.064   2.639
  114SOL     OW 1240   1.404   5.797   2.095
  114SOL    HW1 1241   1.407   5.758   2.003
  114SOL    HW2 1242   1.469   5.748   2.154
  115SOL     OW 1243   5.840   0.587   3.353
  115SOL    HW1 1244   5.853   0.649   3.429
  115SOL    HW2 1245   5.866   0.494   3.380
  116SOL     OW 1246   0.038   6.248   1.344
  116SOL    HW1 1247   0.097   6.324   1.316
  116SOL    HW2 1248   0.093   6.179   1.391
  117SOL     OW 1249   2.059   0.484   0.311
  117SOL    HW1 1250   1.988   0.448   0.251
  117SOL    HW2 1251   2.143   0.497   0.258
  118SOL     OW 1252   1.993   2.190   3.253
  118SOL    HW1 1253   2.079   2.216   3.208
  118SOL    HW2 1254   1.918   2.245   3.216
  119SOL     OW 1255   0.526   0.209   6.569
  119SOL    HW1 1256   0.454   0.190   6.502
  119SOL    HW2 1257   0.593   0.135   6.568
  120SOL     OW 1258   4.811   0.210   4.390
  120SOL    HW1 1259   4.783   0.267   4.467
  120SOL    HW2 1260   4.775   0.250   4.305
  121SOL     OW 1261   1.757   4.055   0.141
  121SOL    HW1 1262   1.694   4.058   0.218
  121SOL    HW2 1263   1.705   4.042   0.056
  122SOL     OW 1264   1.624   3.472   0.123
  122SOL    HW1 1265   1.686   3.476   0.045
  122SOL    HW2 1266   1.550   3.539   0.110
  123SOL     OW 1267   1.218   1.055   2.243
  123SOL    HW1 1268   1.227   1.030   2.147
  123SOL    HW2 1269   1.134   1.107   2.256
  124SOL     OW 1270   3.273   2.134   0.733
  124SOL    HW1 1271   3.194   2.076   0.751
  124SOL    HW2 1272   3.355   2.093   0.773
  125SOL     OW 1273   3.234   2.454   0.393
  125SOL    HW1 1274   3.198   2.546   0.405
  125SOL    HW2 1275   3.231   2.429   0.296
  126SOL     OW 1276   3.606   3.353   3.146
  126SOL    HW1 1277   3.660   3.309   3.074
  126SOL    HW2 1278   3.554   3.283   3.196
  127SOL     OW 1279   6.460   6.376   5.872
  127SOL    HW1 1280   6.424   6.380   5.779
  127SOL    HW2 1281   6.527   6.449   5.885
  128SOL     OW 1282   5.258   2.909   2.185
  128SOL    HW1 1283   5.343   2.960   2.195
  128SOL    HW2 1284   5.242   2.890   2.088
  129SOL     OW 1285   2.933   4.203   0.738
  129SOL    HW1 1286   2.954   4.161   0.649
  129SOL    HW2 1287   2.969   4.145   0.811
  130SOL     OW 1288   6.276   0.583   4.777
  130SOL    HW1 1289   6.264   0.672   4.733
  130SOL    HW2 1290   6.373   0.568   4.796
  131SOL     OW 1291   6.076   0.892   4.691
  131SOL    HW1 1292   6.014   0.970   4.684
  131SOL    HW2 1293   6.132   0.901   4.773
  132SOL     OW 1294   3.447   3.152   1.813
  132SOL    HW1 1295   3.500   3.201   1.744
  132SOL    HW2 1296   3.508   3.093   1.865
  133SOL     OW 1297   5.223   1.445   3.608
  133SOL    HW1 1298   5.202   1.360   3.656
  133SOL    HW2 1299   5.144   1.474   3.555
  134SOL     OW 1300   0.833   0.320   2.602
  134SOL    HW1 1301   0.840   0.360   2.511
  134SOL    HW2 1302   0.744   0.340   2.642
  135SOL     OW 1303   5.226   3.237   3.977
  135SOL    HW1 1304   5.265   3.149   4.006
  135SOL    HW2 1305   5.180   3.226   3.889
  136SOL     OW 1306   2.234   6.468   4.562
  136SOL    HW1 1307   2.149   6.444   4.610
  136SOL    HW2 1308   2.309   6.472   4.627
  137SOL     OW 1309   4.589   1.104   4.302
  137SOL    HW1 1310   4.587   1.028   4.366
  137SOL    HW2 1311   4.679   1.110   4.259
  138SOL     OW 1312   0.933   4.515   3.512
  138SOL    HW1 1313   0.932   4.572   3.429
  138SOL    HW2 1314   0.839   4.497   3.541
  139SOL     OW 1315   2.792   5.799   6.001
  139SOL    HW1 1316   2.788   5.734   6.077
  139SOL    HW2 1317   2.770   5.752   5.915
  140SOL     OW 1318   1.922   6.659   2.778
  140SOL    HW1 1319   1.965   6.749   2.782
  140SOL    HW2 1320   1.823   6.668   2.791
  141SOL     OW 1321   6.810   2.871   6.148
  141SOL    HW1 1322   6.713   2.893   6.138
  141SOL    HW2 1323   6.822   2.808   6.225
  142SOL     OW 1324   2.076   3.752   1.520
  142SOL    HW1 1325   2.082   3.657   1.549
  142SOL    HW2 1326   2.077   3.812   1.600
  143SOL     OW 1327   5.928   5.621   0.926
  143SOL    HW1 1328   5.991   5.588   0.855
  143SOL    HW2 1329   5.980   5.676   0.993
  144SOL     OW 1330   2.488   4.802   4.863
  144SOL    HW1 1331   2.572   4.757   4.831
  144SOL    HW2 1332   2.494   4.817   4.962
  145SOL     OW 1333   1.423   5.751   1.819
  145SOL    HW1 1334   1.350   5.717   1.760
  145SOL    HW2 1335   1.464   5.833   1.779
  146SOL     OW 1336   5.000   1.071   5.830
  146SOL    HW1 1337   4.983   1.148   5.768
  146SOL    HW2 1338   5.067   1.099   5.899
  147SOL     OW 1339   5.094   1.237   5.461
  147SOL    HW1 1340   5.075   1.235   5.559
  147SOL    HW2 1341   5.099   1.332   5.430
  148SOL     OW 1342   1.074   5.940   1.364
  148SOL    HW1 1343   1.026   5.856   1.389
  148SOL    HW2 1344   1.172   5.925   1.366
  149SOL     OW 1345   3.317   1.636   4.663
  149SOL    HW1 1346   3.331   1.544   4.626
  149SOL    HW2 1347   3.348   1.703   4.596
  150SOL     OW 1348   4.575   0.498   6.175
  150SOL    HW1 1349   4.514   0.568   6.138
  150SOL    HW2 1350   4.562   0.492   6.274
  151SOL     OW 1351   3.829   0.720   1.698
  151SOL    HW1 1352   3.819   0.635   1.646
  151SOL    HW2 1353   3.924   0.733   1.723
  152SOL     OW 1354   6.518   1.505   0.435
  152SOL    HW1 1355   6.599   1.459   0.472
  152SOL    HW2 1356   6.528   1.604   0.446
  153SOL     OW 1357   2.477   0.431   3.448
  153SOL    HW1 1358   2.437   0.423   3.540
  153SOL    HW2 1359   2.473   0.526   3.418
  154SOL     OW 1360   6.690   2.858   0.412
  154SOL    HW1 1361   6.772   2.808   0.438
  154SOL    HW2 1362   6.615   2.793   0.396
  155SOL     OW 1363   1.117   6.882   2.514
  155SOL    HW1 1364   1.173   6.882   2.431
  155SOL    HW2 1365   1.020   6.884   2.489
  156SOL     OW 1366   5.792   1.214   7.004
  156SOL    HW1 1367   5.826   1.306   6.982
  156SOL    HW2 1368   5.798   1.200   0.080
  157SOL     OW 1369   5.685   2.573   0.097
  157SOL    HW1 1370   5.700   2.648   0.031
  157SOL    HW2 1371   5.698   2.608   0.190
  158SOL     OW 1372   1.604   2.259   1.229
  158SOL    HW1 1373   1.520   2.311   1.241
  158SOL    HW2 1374   1.637   2.227   1.318
  159SOL     OW 1375   4.352   4.837   1.326
  159SOL    HW1 1376   4.274   4.894   1.301
  159SOL    HW2 1377   4.329   4.741   1.312
  160SOL     OW 1378   6.275   0.302   1.435
  160SOL    HW1 1379   6.292   0.260   1.346
  160SOL    HW2 1380   6.346   0.371   1.454
  161SOL     OW 1381   1.801   0.091   2.168
  161SOL    HW1 1382   1.864   0.163   2.197
  161SOL    HW2 1383   1.708   0.115   2.197
  162SOL     OW 1384   2.744   0.175   0.187
  162SOL    HW1 1385   2.784   0.089   0.153
  162SOL    HW2 1386   2.817   0.233   0.223
  163SOL     OW 1387   0.500   4.686   2.996
  163SOL    HW1 1388   0.541   4.699   2.906
  163SOL    HW2 1389   0.571   4.683   3.066
  164SOL     OW 1390   0.729   2.671   3.091
  164SOL    HW1 1391   0.757   2.749   3.147
  164SOL    HW2 1392   0.695   2.598   3.151
  165SOL     OW 1393   6.089   5.729   1.109
  165SOL    HW1 1394   6.055   5.768   1.194
  165SOL    HW2 1395   6.129   5.801   1.052
  166SOL     OW 1396   6.600   3.542   2.033
  166SOL    HW1 1397   6.600   3.594   1.948
  166SOL    HW2 1398   6.609   3.606   2.110
  167SOL     OW 1399   5.895   1.673   6.024
  167SOL    HW1 1400   5.982   1.664   6.073
  167SOL    HW2 1401   5.910   1.657   5.926
  168SOL     OW 1402   3.925   2.106   1.538
  168SOL    HW1 1403   3.974   2.180   1.491
  168SOL    HW2 1404   3.828   2.111   1.517
  169SOL     OW 1405   5.952   3.171   0.391
  169SOL    HW1 1406   5.964   3.264   0.423
  169SOL    HW2 1407   5.855   3.153   0.376
  170SOL     OW 1408   6.983   5.609   2.763
  170SOL    HW1 1409   6.990   5.707   2.782
  170SOL    HW2 1410   6.900   5.573   2.806
  171SOL     OW 1411   1.707   3.475   6.881
  171SOL    HW1 1412   1.696   3.404   6.812
  171SOL    HW2 1413   1.795   3.521   6.869
  172SOL     OW 1414   6.798   2.421   2.095
  172SOL    HW1 1415   6.707   2.462   2.081
  172SOL    HW2 1416   6.787   2.324   2.116
  173SOL     OW 1417   5.966   1.136   4.618
  173SOL    HW1 1418   5.911   1.195   4.558
  173SOL    HW2 1419   6.034   1.191   4.666
  174SOL     OW 1420   4.857   5.164   4.517
  174SOL    HW1 1421   4.760   5.168   4.494
  174SOL    HW2 1422   4.870   5.191   4.613
  175SOL     OW 1423   3.304   0.640   1.866
  175SOL    HW1 1424   3.403   0.649   1.869
  175SOL    HW2 1425   3.267   0.704   1.798
  176SOL     OW 1426   5.179   4.152   3.353
  176SOL    HW1 1427   5.159   4.236   3.302
  176SOL    HW2 1428   5.196   4.077   3.289
  177SOL     OW 1429   5.098   2.373   5.093
  177SOL    HW1 1430   5.196   2.372   5.073
  177SOL    HW2 1431   5.063   2.466   5.087
  178SOL     OW 1432   3.207   4.956   4.735
  178SOL    HW1 1433   3.233   4.948   4.831
  178SOL    HW2 1434   3.108   4.952   4.726
  179SOL     OW 1435   4.474   6.786   6.499
  179SOL    HW1 1436   4.510   6.704   6.544
  179SOL    HW2 1437   4.500   6.867   6.552
  180SOL     OW 1438   2.448   6.889   0.619
  180SOL    HW1 1439   2.520   6.940   0.572
  180SOL    HW2 1440   2.379   6.952   0.653
  181SOL     OW 1441   3.742   3.037   5.814
  181SOL    HW1 1442   3.672   3.079   5.756
  181SOL    HW2 1443   3.718   2.942   5.834
  182SOL     OW 1444   4.950   2.993   6.904
  182SOL    HW1 1445   4.916   2.993   6.998
  182SOL    HW2 1446   4.959   2.898   6.872
  183SOL     OW 1447   3.950   2.169   3.834
  183SOL    HW1 1448   3.948   2.246   3.897
  183SOL    HW2 1449   4.015   2.188   3.760
  184SOL     OW 1450   0.553   6.532   4.026
  184SOL    HW1 1451   0.596   6.560   3.941
  184SOL    HW2 1452   0.557   6.607   4.092
  185SOL     OW 1453   0.881   1.382   3.867
  185SOL    HW1 1454   0.932   1.417   3.789
  185SOL    HW2 1455   0.829   1.301   3.840
  186SOL     OW 1456   5.742   6.984   4.347
  186SOL    HW1 1457   5.782   7.005   4.436
  186SOL    HW2 1458   5.643   6.980   4.356
  187SOL     OW 1459   4.798   6.258   2.462
  187SOL    HW1 1460   4.887   6.213   2.465
  187SOL    HW2 1461   4.809   6.349   2.421
  188SOL     OW 1462   0.994   2.845   3.499
  188SOL    HW1 1463   0.898   2.871   3.503
  188SOL    HW2 1464   1.030   2.834   3.591
  189SOL     OW 1465   0.571   4.607   6.571
  189SOL    HW1 1466   0.563   4.535   6.640
  189SOL    HW2 1467   0.547   4.695   6.610
  190SOL     OW 1468   6.305   4.907   6.856
  190SOL    HW1 1469   6.323   4.997   6.896
  190SOL    HW2 1470   6.299   4.916   6.756
  191SOL     OW 1471   6.666   1.435   5.677
  191SOL    HW1 1472   6.717   1.494   5.740
  191SOL    HW2 1473   6.586   1.484   5.644
  192SOL     OW 1474   0.203   4.986   1.831
  192SOL    HW1 1475   0.119   4.934   1.845
  192SOL    HW2 1476   0.247   4.956   1.746
  193SOL     OW 1477   4.893   4.221   5.275
  193SOL    HW1 1478   4.992   4.204   5.271
  193SOL    HW2 1479   4.849   4.147   5.326
  194SOL     OW 1480   4.122   6.916   2.988
  194SOL    HW1 1481   4.158   6.822   2.984
  194SOL    HW2 1482   4.125   6.957   2.897
  195SOL     OW 1483   1.862   0.675   3.408
  195SOL    HW1 1484   1.837   0.765   3.373
  195SOL    HW2 1485   1.883   0.614   3.332
  196SOL     OW 1486   3.202   6.624   0.172
  196SOL    HW1 1487   3.160   6.697   0.119
  196SOL    HW2 1488   3.296   6.650   0.196
  197SOL     OW 1489   3.073   6.070   6.830
  197SOL    HW1 1490   3.099   6.159   6.867
  197SOL    HW2 1491   3.029   6.084   6.741
  198SOL     OW 1492   4.775   6.766   1.357
  198SOL    HW1 1493   4.864   6.803   1.330
  198SOL    HW2 1494   4.712   6.770   1.279
  199SOL     OW 1495   6.827   1.147   2.842
  199SOL    HW1 1496   6.925   1.133   2.858
  199SOL    HW2 1497   6.786   1.062   2.809
  200SOL     OW 1498   1.007   4.279   2.791
  200SOL    HW1 1499   1.072   4.202   2.795
  200SOL    HW2 1500   0.986   4.300   2.696
  201SOL     OW 1501   3.372   6.716   5.931
  201SOL    HW1 1502   3.355   6.626   5.971
  201SOL    HW2 1503   3.320   6.785   5.981
  202SOL     OW 1504   4.915   0.532   5.133
  202SOL    HW1 1505   4.931   0.545   5.035
  202SOL    HW2 1506   4.871   0.613   5.171
  203SOL     OW 1507   4.819   2.456   4.857
  203SOL    HW1 1508   4.875   2.376   4.880
  203SOL    HW2 1509   4.872   2.518   4.798
  204SOL     OW 1510   0.721   0.395   6.535
  204SOL    HW1 1511   0.636   0.349   6.561
  204SOL    HW2 1512   0.745   0.371   6.441
  205SOL     OW 1513   1.098   1.369   1.879
  205SOL    HW1 1514   1.089   1.269   1.886
  205SOL    HW2 1515   1.193   1.392   1.857
  206SOL     OW 1516   0.370   4.681   2.252
  206SOL    HW1 1517   0.273   4.704   2.253
  206SOL    HW2 1518   0.386   4.600   2.309
  207SOL     OW 1519   3.532   0.633   5.150
  207SOL    HW1 1520   3.631   0.617   5.143
  207SOL    HW2 1521   3.491   0.562   5.207
  208SOL     OW 1522   5.062   3.365   6.003
  208SOL    HW1 1523   5.011   3.289   5.962
  208SOL    HW2 1524   5.112   3.414   5.932
  209SOL     OW 1525   1.148   5.668   6.225
  209SOL    HW1 1526   1.088   5.748   6.233
  209SOL    HW2 1527   1.149   5.637   6.130
  210SOL     OW 1528   4.287   1.942   2.609
  210SOL    HW1 1529   4.277   2.000   2.529
  210SOL    HW2 1530   4.208   1.881   2.616
  211SOL     OW 1531   0.967   6.304   3.812
  211SOL    HW1 1532   0.969   6.388   3.866
  211SOL    HW2 1533   0.880   6.298   3.763
  212SOL     OW 1534   2.110   4.231   2.033
  212SOL    HW1 1535   2.147   4.139   2.016
  212SOL    HW2 1536   2.184   4.298   2.026
  213SOL     OW 1537   4.367   1.087   6.685
  213SOL    HW1 1538   4.412   1.159   6.738
  213SOL    HW2 1539   4.423   1.004   6.688
  214SOL     OW 1540   3.139   6.020   2.864
  214SOL    HW1 1541   3.094   5.980   2.784
  214SOL    HW2 1542   3.095   6.107   2.887
  215SOL     OW 1543   3.061   4.011   1.854
  215SOL    HW1 1544   3.072   3.940   1.785
  215SOL    HW2 1545   2.985   4.071   1.830
  216SOL     OW 1546   1.666   6.943   4.835
  216SOL    HW1 1547   1.624   7.021   4.789
  216SOL    HW2 1548   1.633   6.939   4.930
  217SOL     OW 1549   2.074   2.541   4.982
  217SOL    HW1 1550   2.115   2.606   4.918
  217SOL    HW2 1551   2.129   2.536   5.065
  218SOL     OW 1552   1.289   2.699   5.318
  218SOL    HW1 1553   1.225   2.685   5.394
  218SOL    HW2 1554   1.258   2.646   5.239
  219SOL     OW 1555   3.531   5.437   6.010
  219SOL    HW1 1556   3.604   5.402   6.069
  219SOL    HW2 1557   3.560   5.433   5.915
  220SOL     OW 1558   3.414   5.816   6.983
  220SOL    HW1 1559   3.504   5.774   6.989
  220SOL    HW2 1560   3.388   5.825   6.887
  221SOL     OW 1561   6.609   4.162   2.381
  221SOL    HW1 1562   6.691   4.152   2.324
  221SOL    HW2 1563   6.548   4.085   2.366
  222SOL     OW 1564   1.988   4.940   5.445
  222SOL    HW1 1565   2.070   4.893   5.478
  222SOL    HW2 1566   1.907   4.888   5.471
  223SOL     OW 1567   0.263   4.032   0.574
  223SOL    HW1 1568   0.346   4.027   0.518
  223SOL    HW2 1569   0.183   4.016   0.516
  224SOL     OW 1570   2.597   2.489   3.579
  224SOL    HW1 1571   2.555   2.547   3.649
  224SOL    HW2 1572   2.659   2.543   3.523
  225SOL     OW 1573   5.151   1.351   6.255
  225SOL    HW1 1574   5.201   1.422   6.206
  225SOL    HW2 1575   5.119   1.387   6.343
  226SOL     OW 1576   0.506   6.743   0.216
  226SOL    HW1 1577   0.605   6.732   0.224
  226SOL    HW2 1578   0.477   6.710   0.126
  227SOL     OW 1579   1.142   4.652   2.273
  227SOL    HW1 1580   1.072   4.714   2.308
  227SOL    HW2 1581   1.163   4.583   2.343
  228SOL     OW 1582   2.815   6.380   3.724
  228SOL    HW1 1583   2.914   6.392   3.722
  228SOL    HW2 1584   2.779   6.380   3.630
  229SOL     OW 1585   6.228   5.610   0.469
  229SOL    HW1 1586   6.146   5.597   0.413
  229SOL    HW2 1587   6.272   5.697   0.445
  230SOL     OW 1588   3.264   4.885   3.760
  230SOL    HW1 1589   3.327   4.899   3.683
  230SOL    HW2 1590   3.315   4.893   3.846
  231SOL     OW 1591   6.013   2.488   5.841
  231SOL    HW1 1592   5.935   2.467   5.900
  231SOL    HW2 1593   5.987   2.563   5.779
  232SOL     OW 1594   0.898   4.392   6.228
  232SOL    HW1 1595   0.994   4.422   6.221
  232SOL    HW2 1596   0.845   4.463   6.275
  233SOL     OW 1597   2.534   1.309   4.505
  233SOL    HW1 1598   2.460   1.253   4.542
  233SOL    HW2 1599   2.502   1.358   4.424
  234SOL     OW 1600   2.784   5.984   4.943
  234SOL    HW1 1601   2.824   5.909   4.890
  234SOL    HW2 1602   2.693   6.005   4.907
  235SOL     OW 1603   3.085   3.114   3.156
  235SOL    HW1 1604   3.053   3.161   3.074
  235SOL    HW2 1605   3.031   3.144   3.235
  236SOL     OW 1606   5.966   2.790   6.408
  236SOL    HW1 1607   5.970   2.832   6.498
  236SOL    HW2 1608   5.927   2.855   6.343
  237SOL     OW 1609   0.210   6.850   0.672
  237SOL    HW1 1610   0.242   6.808   0.587
  237SOL    HW2 1611   0.268   6.928   0.694
  238SOL     OW 1612   6.525   3.040   0.295
  238SOL    HW1 1613   6.595   2.985   0.342
  238SOL    HW2 1614   6.472   2.982   0.234
  239SOL     OW 1615   6.688   4.488   0.154
  239SOL    HW1 1616   6.779   4.481   0.195
  239SOL    HW2 1617   6.690   4.555   0.080
  240SOL     OW 1618   0.572   2.904   5.230
  240SOL    HW1 1619   0.655   2.894   5.287
  240SOL    HW2 1620   0.546   3.000   5.225
  241SOL     OW 1621   0.474   0.732   3.457
  241SOL    HW1 1622   0.426   0.811   3.496
  241SOL    HW2 1623   0.456   0.652   3.514
  242SOL     OW 1624   2.206   2.753   5.687
  242SOL    HW1 1625   2.204   2.729   5.784
  242SOL    HW2 1626   2.116   2.784   5.658
  243SOL     OW 1627   4.907   0.184   5.506
  243SOL    HW1 1628   4.883   0.111   5.442
  243SOL    HW2 1629   4.868   0.270   5.474
  244SOL     OW 1630   4.885   2.914   4.167
  244SOL    HW1 1631   4.867   2.968   4.249
  244SOL    HW2 1632   4.860   2.819   4.183
  245SOL     OW 1633   6.515   2.898   4.578
  245SOL    HW1 1634   6.488   2.983   4.533
  245SOL    HW2 1635   6.591   2.917   4.641
  246SOL     OW 1636   5.725   3.579   3.371
  246SOL    HW1 1637   5.735   3.480   3.370
  246SOL    HW2 1638   5.632   3.604   3.397
  247SOL     OW 1639   2.234   1.787   2.717
  247SOL    HW1 1640   2.187   1.723   2.776
  247SOL    HW2 1641   2.246   1.874   2.765
  248SOL     OW 1642   4.690   2.768   3.942
  248SOL    HW1 1643   4.768   2.735   3.889
  248SOL    HW2 1644   4.671   2.863   3.917
  249SOL     OW 1645   3.906   0.312   5.224
  249SOL    HW1 1646   3.864   0.356   5.303
  249SOL    HW2 1647   3.938   0.382   5.160
  250SOL     OW 1648   4.906   1.993   5.435
  250SOL    HW1 1649   4.977   1.941   5.389
  250SOL    HW2 1650   4.937   2.087   5.449
  251SOL     OW 1651   4.266   4.315   6.171
  251SOL    HW1 1652   4.182   4.348   6.129
  251SOL    HW2 1653   4.286   4.369   6.253
  252SOL     OW 1654   6.931   1.347   5.928
  252SOL    HW1 1655   6.836   1.379   5.927
  252SOL    HW2 1656   6.934   1.255   5.969
  253SOL     OW 1657   2.679   4.565   0.283
  253SOL    HW1 1658   2.727   4.506   0.218
  253SOL    HW2 1659   2.646   4.646   0.235
  254SOL     OW 1660   6.751   2.863   4.239
  254SOL    HW1 1661   6.836   2.904   4.203
  254SOL    HW2 1662   6.741   2.887   4.335
  255SOL     OW 1663   2.601   2.042   3.797
  255SOL    HW1 1664   2.595   1.951   3.755
  255SOL    HW2 1665   2.617   2.110   3.726
  256SOL     OW 1666   6.317   4.474   6.738
  256SOL    HW1 1667   6.368   4.471   6.824
  256SOL    HW2 1668   6.280   4.384   6.718
  257SOL     OW 1669   3.507   5.252   5.624
  257SOL    HW1 1670   3.590   5.287   5.666
  257SOL    HW2 1671   3.429   5.268   5.684
  258SOL     OW 1672   5.175   3.711   4.806
  258SOL    HW1 1673   5.240   3.755   4.868
  258SOL    HW2 1674   5.082   3.726   4.840
  259SOL     OW 1675   1.666   2.648   2.467
  259SOL    HW1 1676   1.699   2.554   2.476
  259SOL    HW2 1677   1.743   2.709   2.450
  260SOL     OW 1678   4.471   0.385   0.675
  260SOL    HW1 1679   4.458   0.460   0.610
  260SOL    HW2 1680   4.390   0.376   0.733
  261SOL     OW 1681   0.410   3.584   1.129
  261SOL    HW1 1682   0.458   3.649   1.069
  261SOL    HW2 1683   0.331   3.547   1.081
  262SOL     OW 1684   0.612   3.876   1.904
  262SOL    HW1 1685   0.700   3.911   1.936
  262SOL    HW2 1686   0.596   3.785   1.943
  263SOL     OW 1687   0.126   1.724   4.286
  263SOL    HW1 1688   0.045   1.735   4.344
  263SOL    HW2 1689   0.205   1.767   4.331
  264SOL     OW 1690   6.387   3.879   5.861
  264SOL    HW1 1691   6.427   3.971   5.866
  264SOL    HW2 1692   6.444   3.821   5.803
  265SOL     OW 1693   5.206   3.778   3.343
  265SOL    HW1 1694   5.285   3.733   3.383
  265SOL    HW2 1695   5.236   3.839   3.270
  266SOL     OW 1696   3.600   2.794   6.478
  266SOL    HW1 1697   3.693   2.826   6.497
  266SOL    HW2 1698   3.604   2.713   6.419
  267SOL     OW 1699   0.487   2.827   0.065
  267SOL    HW1 1700   0.542   2.906   0.040
  267SOL    HW2 1701   0.544   2.745   0.065
  268SOL     OW 1702   4.940   5.500   5.017
  268SOL    HW1 1703   4.923   5.538   5.108
  268SOL    HW2 1704   4.906   5.407   5.013
  269SOL     OW 1705   1.798   1.960   0.277
  269SOL    HW1 1706   1.823   1.922   0.188
  269SOL    HW2 1707   1.699   1.949   0.291
  270SOL     OW 1708   6.087   0.918   1.719
  270SOL    HW1 1709   6.056   0.942   1.811
  270SOL    HW2 1710   6.126   0.826   1.720
  271SOL     OW 1711   2.759   1.728   0.806
  271SOL    HW1 1712   2.831   1.702   0.742
  271SOL    HW2 1713   2.729   1.648   0.858
  272SOL     OW 1714   3.373   5.482   3.951
  272SOL    HW1 1715   3.324   5.524   4.027
  272SOL    HW2 1716   3.401   5.389   3.978
  273SOL     OW 1717   1.440   5.530   5.898
  273SOL    HW1 1718   1.381   5.557   5.975
  273SOL    HW2 1719   1.504   5.604   5.878
  274SOL     OW 1720   4.866   2.679   3.733
  274SOL    HW1 1721   4.924   2.602   3.761
  274SOL    HW2 1722   4.834   2.665   3.640
  275SOL     OW 1723   0.941   6.111   6.392
  275SOL    HW1 1724   1.020   6.129   6.451
  275SOL    HW2 1725   0.886   6.194   6.384
  276SOL     OW 1726   6.454   5.605   4.373
  276SOL    HW1 1727   6.470   5.702   4.355
  276SOL    HW2 1728   6.517   5.550   4.318
  277SOL     OW 1729   3.350   1.115   6.029
  277SOL    HW1 1730   3.286   1.069   6.091
  277SOL    HW2 1731   3.442   1.082   6.046
  278SOL     OW 1732   5.976   3.446   2.034
  278SOL    HW1 1733   5.958   3.398   2.120
  278SOL    HW2 1734   5.920   3.407   1.961
  279SOL     OW 1735   6.124   3.276   3.740
  279SOL    HW1 1736   6.210   3.282   3.791
  279SOL    HW2 1737   6.076   3.193   3.765
  280SOL     OW 1738   4.410   0.105   3.656
  280SOL    HW1 1739   4.386   0.009   3.658
  280SOL    HW2 1740   4.327   0.161   3.654
  281SOL     OW 1741   2.869   5.011   3.781
  281SOL    HW1 1742   2.790   5.070   3.767
  281SOL    HW2 1743   2.855   4.955   3.863
  282SOL     OW 1744   3.679   2.720   5.589
  282SOL    HW1 1745   3.775   2.717   5.615
  282SOL    HW2 1746   3.623   2.683   5.663
  283SOL     OW 1747   5.913   0.391   5.569
  283SOL    HW1 1748   5.843   0.443   5.618
  283SOL    HW2 1749   5.964   0.335   5.634
  284SOL     OW 1750   1.190   4.159   4.509
  284SOL    HW1 1751   1.112   4.140   4.569
  284SOL    HW2 1752   1.255   4.219   4.555
  285SOL     OW 1753   5.729   6.179   0.274
  285SOL    HW1 1754   5.697   6.250   0.336
  285SOL    HW2 1755   5.670   6.176   0.193
  286SOL     OW 1756   4.057   4.817   5.470
  286SOL    HW1 1757   4.037   4.751   5.398
  286SOL    HW2 1758   4.103   4.771   5.546
  287SOL     OW 1759   1.564   5.577   6.921
  287SOL    HW1 1760   1.574   5.484   6.958
  287SOL    HW2 1761   1.631   5.637   6.964
  288SOL     OW 1762   3.814   1.116   0.450
  288SOL    HW1 1763   3.820   1.035   0.508
  288SOL    HW2 1764   3.741   1.104   0.383
  289SOL     OW 1765   1.641   5.238   5.989
  289SOL    HW1 1766   1.571   5.197   5.931
  289SOL    HW2 1767   1.599   5.276   6.071
  290SOL     OW 1768   4.460   0.759   3.513
  290SOL    HW1 1769   4.407   0.776   3.430
  290SOL    HW2 1770   4.464   0.843   3.568
  291SOL     OW 1771   4.490   1.171   3.879
  291SOL    HW1 1772   4.539   1.255   3.904
  291SOL    HW2 1773   4.484   1.111   3.958
  292SOL     OW 1774   4.779   1.251   3.645
  292SOL    HW1 1775   4.789   1.350   3.635
  292SOL    HW2 1776   4.693   1.232   3.693
  293SOL     OW 1777   4.526   6.376   1.326
  293SOL    HW1 1778   4.591   6.344   1.257
  293SOL    HW2 1779   4.496   6.298   1.382
  294SOL     OW 1780   6.403   5.708   6.210
  294SOL    HW1 1781   6.318   5.760   6.220
  294SOL    HW2 1782   6.469   5.762   6.159
  295SOL     OW 1783   1.861   2.505   5.548
  295SOL    HW1 1784   1.951   2.529   5.511
  295SOL    HW2 1785   1.870   2.429   5.612
  296SOL     OW 1786   6.677   2.391   1.298
  296SOL    HW1 1787   6.643   2.373   1.206
  296SOL    HW2 1788   6.690   2.490   1.310
  297SOL     OW 1789   3.838   4.889   3.511
  297SOL    HW1 1790   3.742   4.864   3.524
  297SOL    HW2 1791   3.850   4.986   3.530
  298SOL     OW 1792   3.966   0.208   0.218
  298SOL    HW1 1793   3.942   0.300   0.248
  298SOL    HW2 1794   4.043   0.214   0.153
  299SOL     OW 1795   3.924   1.747   0.378
  299SOL    HW1 1796   3.903   1.751   0.476
  299SOL    HW2 1797   3.910   1.837   0.338
  300SOL     OW 1798   4.061   0.541   2.440
  300SOL    HW1 1799   3.994   0.505   2.504
  300SOL    HW2 1800   4.020   0.547   2.349
  301SOL     OW 1801   4.924   0.852   1.132
  301SOL    HW1 1802   4.865   0.907   1.073
  301SOL    HW2 1803   5.016   0.848   1.092
  302SOL     OW 1804   0.943   1.142   2.314
  302SOL    HW1 1805   0.889   1.193   2.248
  302SOL    HW2 1806   0.915   1.047   2.315
  303SOL     OW 1807   6.642   5.891   1.700
  303SOL    HW1 1808   6.616   5.987   1.706
  303SOL    HW2 1809   6.565   5.833   1.729
  304SOL     OW 1810   2.242   6.235   6.218
  304SOL    HW1 1811   2.305   6.306   6.185
  304SOL    HW2 1812   2.191   6.270   6.297
  305SOL     OW 1813   1.291   3.025   0.742
  305SOL    HW1 1814   1.212   3.019   0.803
  305SOL    HW2 1815   1.283   2.956   0.670
  306SOL     OW 1816   0.308   1.576   2.851
  306SOL    HW1 1817   0.393   1.567   2.800
  306SOL    HW2 1818   0.327   1.572   2.949
  307SOL     OW 1819   3.770   4.074   0.071
  307SOL    HW1 1820   3.729   4.034   0.153
  307SOL    HW2 1821   3.869   4.060   0.072
  308SOL     OW 1822   5.794   3.002   4.066
  308SOL    HW1 1823   5.729   3.037   3.999
  308SOL    HW2 1824   5.824   3.077   4.125
  309SOL     OW 1825   1.396   6.067   0.732
  309SOL    HW1 1826   1.496   6.075   0.733
  309SOL    HW2 1827   1.360   6.105   0.817
  310SOL     OW 1828   5.198   6.640   4.096
  310SOL    HW1 1829   5.286   6.597   4.075
  310SOL    HW2 1830   5.194   6.660   4.194
  311SOL     OW 1831   2.573   4.743   2.688
  311SOL    HW1 1832   2.593   4.828   2.639
  311SOL    HW2 1833   2.616   4.745   2.778
  312SOL     OW 1834   3.655   2.058   4.193
  312SOL    HW1 1835   3.662   2.046   4.292
  312SOL    HW2 1836   3.559   2.055   4.166
  313SOL     OW 1837   2.948   3.850   2.878
  313SOL    HW1 1838   3.008   3.921   2.914
  313SOL    HW2 1839   2.853   3.874   2.895
  314SOL     OW 1840   1.843   4.487   4.842
  314SOL    HW1 1841   1.926   4.538   4.820
  314SOL    HW2 1842   1.772   4.507   4.775
  315SOL     OW 1843   0.591   2.205   4.061
  315SOL    HW1 1844   0.587   2.110   4.090
  315SOL    HW2 1845   0.600   2.210   3.962
  316SOL     OW 1846   4.029   1.021   4.694
  316SOL    HW1 1847   3.948   0.979   4.653
  316SOL    HW2 1848   4.002   1.076   4.773
  317SOL     OW 1849   0.848   1.473   1.791
  317SOL    HW1 1850   0.826   1.445   1.698
  317SOL    HW2 1851   0.934   1.430   1.819
  318SOL     OW 1852   6.256   0.565   6.742
  318SOL    HW1 1853   6.352   0.546   6.720
  318SOL    HW2 1854   6.198   0.497   6.696
  319SOL     OW 1855   6.889   2.455   3.946
  319SOL    HW1 1856   6.957   2.403   3.895
  319SOL    HW2 1857   6.839   2.394   4.008
  320SOL     OW 1858   6.216   3.149   0.050
  320SOL    HW1 1859   6.228   3.056   0.016
  320SOL    HW2 1860   6.191   3.146   0.147
  321SOL     OW 1861   4.122   2.181   0.130
  321SOL    HW1 1862   4.038   2.142   0.093
  321SOL    HW2 1863   4.130   2.158   0.227
  322SOL     OW 1864   3.760   2.921   4.369
  322SOL    HW1 1865   3.661   2.917   4.381
  322SOL    HW2 1866   3.804   2.931   4.458
  323SOL     OW 1867   1.224   2.499   5.159
  323SOL    HW1 1868   1.311   2.517   5.113
  323SOL    HW2 1869   1.238   2.435   5.234
  324SOL     OW 1870   2.458   0.157   3.394
  324SOL    HW1 1871   2.494   0.250   3.407
  324SOL    HW2 1872   2.433   0.145   3.298
  325SOL     OW 1873   0.929   3.801   2.714
  325SOL    HW1 1874   1.015   3.784   2.664
  325SOL    HW2 1875   0.861   3.733   2.686
  326SOL     OW 1876   1.007   4.182   6.403
  326SOL    HW1 1877   1.067   4.159   6.327
  326SOL    HW2 1878   0.934   4.242   6.371
  327SOL     OW 1879   2.315   4.565   3.010
  327SOL    HW1 1880   2.409   4.570   3.044
  327SOL    HW2 1881   2.316   4.549   2.911
  328SOL     OW 1882   2.266   4.975   1.574
  328SOL    HW1 1883   2.331   4.955   1.501
  328SOL    HW2 1884   2.195   4.905   1.576
  329SOL     OW 1885   2.672   3.837   5.521
  329SOL    HW1 1886   2.663   3.739   5.501
  329SOL    HW2 1887   2.768   3.859   5.535
  330SOL     OW 1888   3.535   6.147   0.502
  330SOL    HW1 1889   3.581   6.216   0.558
  330SOL    HW2 1890   3.604   6.094   0.453
  331SOL     OW 1891   5.590   5.494   0.908
  331SOL    HW1 1892   5.539   5.531   0.831
  331SOL    HW2 1893   5.661   5.432   0.875
  332SOL     OW 1894   6.197   2.198   4.560
  332SOL    HW1 1895   6.273   2.176   4.620
  332SOL    HW2 1896   6.178   2.121   4.499
  333SOL     OW 1897   3.789   0.571   5.138
  333SOL    HW1 1898   3.872   0.573   5.194
  333SOL    HW2 1899   3.811   0.538   5.046
  334SOL     OW 1900   3.452   2.057   0.190
  334SOL    HW1 1901   3.465   2.138   0.132
  334SOL    HW2 1902   3.400   2.082   0.271
  335SOL     OW 1903   3.608   0.307   6.768
  335SOL    HW1 1904   3.539   0.313   6.696
  335SOL    HW2 1905   3.582   0.366   6.845
  336SOL     OW 1906   2.765   0.676   3.503
  336SOL    HW1 1907   2.760   0.577   3.517
  336SOL    HW2 1908   2.848   0.698   3.452
  337SOL     OW 1909   0.430   3.230   5.888
  337SOL    HW1 1910   0.379   3.145   5.870
  337SOL    HW2 1911   0.449   3.237   5.986
  338SOL     OW 1912   3.227   2.588   1.364
  338SOL    HW1 1913   3.184   2.679   1.360
  338SOL    HW2 1914   3.262   2.572   1.456
  339SOL     OW 1915   4.764   5.272   4.989
  339SOL    HW1 1916   4.682   5.301   5.039
  339SOL    HW2 1917   4.821   5.215   5.048
  340SOL     OW 1918   4.852   3.036   4.417
  340SOL    HW1 1919   4.923   3.083   4.469
  340SOL    HW2 1920   4.797   2.980   4.480
  341SOL     OW 1921   5.663   6.951   4.971
  341SOL    HW1 1922   5.625   7.004   5.046
  341SOL    HW2 1923   5.602   6.956   4.892
  342SOL     OW 1924   4.983   3.016   0.491
  342SOL    HW1 1925   5.076   3.046   0.473
  342SOL    HW2 1926   4.969   2.924   0.454
  343SOL     OW 1927   7.006   6.565   2.312
  343SOL    HW1 1928   0.008   6.600   2.221
  343SOL    HW2 1929   6.938   6.493   2.303
  344SOL     OW 1930   0.579   3.093   1.952
  344SOL    HW1 1931   0.596   3.002   1.989
  344SOL    HW2 1932   0.489   3.094   1.906
  345SOL     OW 1933   5.951   2.378   4.332
  345SOL    HW1 1934   5.940   2.471   4.367
  345SOL    HW2 1935   5.944   2.313   4.408
  346SOL     OW 1936   1.678   0.627   2.655
  346SOL    HW1 1937   1.749   0.602   2.590
  346SOL    HW2 1938   1.720   0.661   2.739
  347SOL     OW 1939   3.282   5.657   0.224
  347SOL    HW1 1940   3.293   5.727   0.153
  347SOL    HW2 1941   3.185   5.647   0.246
  348SOL     OW 1942   5.143   4.151   2.891
  348SOL    HW1 1943   5.099   4.098   2.963
  348SOL    HW2 1944   5.154   4.095   2.810
  349SOL     OW 1945   6.900   4.982   2.117
  349SOL    HW1 1946   6.905   5.031   2.205
  349SOL    HW2 1947   6.864   5.044   2.047
  350SOL     OW 1948   2.491   2.668   1.209
  350SOL    HW1 1949   2.458   2.762   1.213
  350SOL    HW2 1950   2.478   2.631   1.117
  351SOL     OW 1951   2.288   3.209   0.693
  351SOL    HW1 1952   2.243   3.174   0.611
  351SOL    HW2 1953   2.268   3.307   0.702
  352SOL     OW 1954   3.352   6.839   3.744
  352SOL    HW1 1955   3.361   6.750   3.699
  352SOL    HW2 1956   3.383   6.831   3.839
  353SOL     OW 1957   3.015   0.238   6.877
  353SOL    HW1 1958   3.022   0.300   6.799
  353SOL    HW2 1959   2.933   0.181   6.866
  354SOL     OW 1960   4.449   2.087   1.512
  354SOL    HW1 1961   4.428   2.047   1.601
  354SOL    HW2 1962   4.468   2.014   1.447
  355SOL     OW 1963   1.644   3.998   2.591
  355SOL    HW1 1964   1.547   4.019   2.600
  355SOL    HW2 1965   1.692   4.023   2.675
  356SOL     OW 1966   2.567   0.860   5.807
  356SOL    HW1 1967   2.571   0.941   5.749
  356SOL    HW2 1968   2.517   0.787   5.760
  357SOL     OW 1969   6.534   6.008   5.249
  357SOL    HW1 1970   6.563   5.942   5.180
  357SOL    HW2 1971   6.440   5.989   5.276
  358SOL     OW 1972   5.014   6.620   1.046
  358SOL    HW1 1973   5.028   6.717   1.030
  358SOL    HW2 1974   4.927   6.591   1.006
  359SOL     OW 1975   3.404   1.300   2.369
  359SOL    HW1 1976   3.356   1.375   2.325
  359SOL    HW2 1977   3.474   1.336   2.431
  360SOL     OW 1978   1.580   3.921   4.934
  360SOL    HW1 1979   1.508   3.981   4.899
  360SOL    HW2 1980   1.669   3.952   4.901
  361SOL     OW 1981   6.758   6.594   2.968
  361SOL    HW1 1982   6.713   6.663   3.025
  361SOL    HW2 1983   6.697   6.516   2.955
  362SOL     OW 1984   3.243   2.699   1.673
  362SOL    HW1 1985   3.209   2.606   1.665
  362SOL    HW2 1986   3.339   2.698   1.702
  363SOL     OW 1987   6.017   4.614   3.387
  363SOL    HW1 1988   6.117   4.605   3.388
  363SOL    HW2 1989   5.977   4.532   3.346
  364SOL     OW 1990   0.430   5.319   6.735
  364SOL    HW1 1991   0.425   5.324   6.834
  364SOL    HW2 1992   0.354   5.263   6.700
  365SOL     OW 1993   5.043   0.304   1.149
  365SOL    HW1 1994   4.953   0.304   1.192
  365SOL    HW2 1995   5.109   0.258   1.207
  366SOL     OW 1996   6.142   2.000   6.349
  366SOL    HW1 1997   6.129   2.098   6.338
  366SOL    HW2 1998   6.057   1.959   6.385
  367SOL     OW 1999   5.761   2.348   6.987
  367SOL    HW1 2000   5.771   2.434   0.015
  367SOL    HW2 2001   5.664   2.332   6.967
  368SOL     OW 2002   0.377   2.477   5.463
  368SOL    HW1 2003   0.434   2.558   5.475
  368SOL    HW2 2004   0.426   2.396   5.495
  369SOL     OW 2005   5.941   5.320   2.537
  369SOL    HW1 2006   5.975   5.265   2.613
  369SOL    HW2 2007   5.858   5.279   2.500
  370SOL     OW 2008   0.890   1.772   4.744
  370SOL    HW1 2009   0.854   1.734   4.829
  370SOL    HW2 2010   0.970   1.829   4.765
  371SOL     OW 2011   1.999   4.424   6.613
  371SOL    HW1 2012   2.039   4.468   6.532
  371SOL    HW2 2013   1.900   4.442   6.614
  372SOL     OW 2014   1.925   6.951   5.814
  372SOL    HW1 2015   1.864   6.885   5.858
  372SOL    HW2 2016   1.937   6.928   5.718
  373SOL     OW 2017   5.520   6.110   5.042
  373SOL    HW1 2018   5.424   6.129   5.022
  373SOL    HW2 2019   5.571   6.102   4.956
  374SOL     OW 2020   2.773   2.302   3.310
  374SOL    HW1 2021   2.746   2.262   3.222
  374SOL    HW2 2022   2.870   2.282   3.327
  375SOL     OW 2023   0.908   3.844   4.056
  375SOL    HW1 2024   0.923   3.795   3.970
  375SOL    HW2 2025   0.920   3.781   4.132
  376SOL     OW 2026   1.319   1.337   5.276
  376SOL    HW1 2027   1.226   1.335   5.240
  376SOL    HW2 2028   1.333   1.259   5.337
  377SOL     OW 2029   1.540   1.898   0.446
  377SOL    HW1 2030   1.443   1.874   0.438
  377SOL    HW2 2031   1.562   1.917   0.541
  378SOL     OW 2032   4.341   1.627   0.292
  378SOL    HW1 2033   4.351   1.711   0.344
  378SOL    HW2 2034   4.420   1.567   0.308
  379SOL     OW 2035   5.281   2.561   0.878
  379SOL    HW1 2036   5.339   2.480   0.889
  379SOL    HW2 2037   5.207   2.541   0.813
  380SOL     OW 2038   2.882   1.362   0.871
  380SOL    HW1 2039   2.913   1.277   0.914
  380SOL    HW2 2040   2.939   1.382   0.791
  381SOL     OW 2041   1.807   3.760   3.734
  381SOL    HW1 2042   1.749   3.840   3.721
  381SOL    HW2 2043   1.900   3.780   3.703
  382SOL     OW 2044   5.976   0.814   0.302
  382SOL    HW1 2045   5.984   0.907   0.266
  382SOL    HW2 2046   5.886   0.803   0.345
  383SOL     OW 2047   3.588   3.248   6.605
  383SOL    HW1 2048   3.669   3.301   6.631
  383SOL    HW2 2049   3.532   3.232   6.686
  384SOL     OW 2050   6.456   5.454   4.632
  384SOL    HW1 2051   6.453   5.482   4.536
  384SOL    HW2 2052   6.469   5.534   4.690
  385SOL     OW 2053   3.058   4.897   5.061
  385SOL    HW1 2054   3.143   4.878   5.109
  385SOL    HW2 2055   3.009   4.811   5.044
  386SOL     OW 2056   2.914   5.936   4.093
  386SOL    HW1 2057   2.977   5.865   4.126
  386SOL    HW2 2058   2.858   5.897   4.020
  387SOL     OW 2059   0.979   5.977   2.703
  387SOL    HW1 2060   1.059   6.032   2.727
  387SOL    HW2 2061   0.998   5.881   2.722
  388SOL     OW 2062   1.652   2.121   6.100
  388SOL    HW1 2063   1.704   2.043   6.135
  388SOL    HW2 2064   1.702   2.163   6.024
  389SOL     OW 2065   3.917   3.625   2.065
  389SOL    HW1 2066   3.932   3.659   2.158
  389SOL    HW2 2067   3.996   3.646   2.009
  390SOL     OW 2068   2.508   1.274   2.371
  390SOL    HW1 2069   2.504   1.236   2.279
  390SOL    HW2 2070   2.594   1.325   2.382
  391SOL     OW 2071   2.593   1.665   6.434
  391SOL    HW1 2072   2.509   1.684   6.486
  391SOL    HW2 2073   2.670   1.709   6.480
  392SOL     OW 2074   1.992   4.990   0.904
  392SOL    HW1 2075   1.921   5.060   0.899
  392SOL    HW2 2076   2.024   4.969   0.811
  393SOL     OW 2077   0.922   3.954   6.527
  393SOL    HW1 2078   0.822   3.952   6.528
  393SOL    HW2 2079   0.953   4.035   6.478
  394SOL     OW 2080   6.782   1.266   0.045
  394SOL    HW1 2081   6.707   1.235   0.103
  394SOL    HW2 2082   6.766   1.360   0.017
  395SOL     OW 2083   5.164   3.809   2.948
  395SOL    HW1 2084   5.176   3.710   2.945
  395SOL    HW2 2085   5.152   3.845   2.855
  396SOL     OW 2086   3.663   4.110   1.739
  396SOL    HW1 2087   3.677   4.069   1.830
  396SOL    HW2 2088   3.621   4.200   1.750
  397SOL     OW 2089   4.727   2.019   5.821
  397SOL    HW1 2090   4.705   2.108   5.782
  397SOL    HW2 2091   4.724   2.025   5.921
  398SOL     OW 2092   0.592   6.473   2.368
  398SOL    HW1 2093   0.501   6.433   2.378
  398SOL    HW2 2094   0.658   6.400   2.352
  399SOL     OW 2095   5.610   6.387   2.471
  399SOL    HW1 2096   5.604   6.287   2.462
  399SOL    HW2 2097   5.652   6.410   2.558
  400SOL     OW 2098   6.267   6.908   5.843
  400SOL    HW1 2099   6.218   6.963   5.911
  400SOL    HW2 2100   6.203   6.872   5.776
  401SOL     OW 2101   4.853   0.415   5.372
  401SOL    HW1 2102   4.875   0.414   5.274
  401SOL    HW2 2103   4.826   0.508   5.399
  402SOL     OW 2104   5.732   0.232   3.202
  402SOL    HW1 2105   5.766   0.147   3.162
  402SOL    HW2 2106   5.753   0.234   3.299
  403SOL     OW 2107   4.247   1.975   4.362
  403SOL    HW1 2108   4.316   2.027   4.412
  403SOL    HW2 2109   4.160   2.025   4.363
  404SOL     OW 2110   1.283   5.466   4.935
  404SOL    HW1 2111   1.284   5.504   5.027
  404SOL    HW2 2112   1.248   5.373   4.938
  405SOL     OW 2113   1.726   3.405   1.740
  405SOL    HW1 2114   1.648   3.343   1.740
  405SOL    HW2 2115   1.750   3.428   1.834
  406SOL     OW 2116   1.164   4.346   4.942
  406SOL    HW1 2117   1.169   4.348   5.042
  406SOL    HW2 2118   1.169   4.439   4.907
  407SOL     OW 2119   1.320   0.835   3.736
  407SOL    HW1 2120   1.343   0.915   3.791
  407SOL    HW2 2121   1.279   0.765   3.794
  408SOL     OW 2122   1.183   2.836   3.021
  408SOL    HW1 2123   1.114   2.852   3.091
  408SOL    HW2 2124   1.265   2.795   3.062
  409SOL     OW 2125   6.864   2.717   1.115
  409SOL    HW1 2126   6.908   2.804   1.141
  409SOL    HW2 2127   6.811   2.683   1.193
  410SOL     OW 2128   1.526   1.236   1.785
  410SOL    HW1 2129   1.554   1.143   1.759
  410SOL    HW2 2130   1.562   1.257   1.876
  411SOL     OW 2131   5.274   0.313   0.768
  411SOL    HW1 2132   5.259   0.236   0.830
  411SOL    HW2 2133   5.285   0.397   0.821
  412SOL     OW 2134   4.584   6.371   3.561
  412SOL    HW1 2135   4.590   6.301   3.633
  412SOL    HW2 2136   4.564   6.326   3.473
  413SOL     OW 2137   4.968   4.507   1.786
  413SOL    HW1 2138   4.892   4.533   1.845
  413SOL    HW2 2139   4.976   4.407   1.784
  414SOL     OW 2140   3.409   5.254   3.737
  414SOL    HW1 2141   3.369   5.301   3.658
  414SOL    HW2 2142   3.453   5.322   3.797
  415SOL     OW 2143   1.090   5.690   6.690
  415SOL    HW1 2144   1.129   5.601   6.711
  415SOL    HW2 2145   1.004   5.679   6.641
  416SOL     OW 2146   5.149   6.220   4.456
  416SOL    HW1 2147   5.171   6.301   4.401
  416SOL    HW2 2148   5.050   6.216   4.470
  417SOL     OW 2149   2.981   5.064   0.168
  417SOL    HW1 2150   3.046   5.116   0.114
  417SOL    HW2 2151   3.005   4.967   0.165
  418SOL     OW 2152   4.101   6.322   0.637
  418SOL    HW1 2153   4.040   6.313   0.559
  418SOL    HW2 2154   4.196   6.308   0.608
  419SOL     OW 2155   1.728   0.550   1.322
  419SOL    HW1 2156   1.709   0.462   1.277
  419SOL    HW2 2157   1.655   0.614   1.300
  420SOL     OW 2158   5.707   1.373   6.618
  420SOL    HW1 2159   5.655   1.412   6.543
  420SOL    HW2 2160   5.669   1.404   6.705
  421SOL     OW 2161   0.055   4.303   6.306
  421SOL    HW1 2162   6.987   4.281   6.340
  421SOL    HW2 2163   0.107   4.219   6.290
  422SOL     OW 2164   5.964   3.495   0.839
  422SOL    HW1 2165   5.912   3.460   0.761
  422SOL    HW2 2166   6.061   3.498   0.816
  423SOL     OW 2167   1.071   2.160   6.878
  423SOL    HW1 2168   1.083   2.078   6.822
  423SOL    HW2 2169   1.046   2.133   6.971
  424SOL     OW 2170   2.044   4.474   1.126
  424SOL    HW1 2171   2.131   4.493   1.171
  424SOL    HW2 2172   2.003   4.560   1.095
  425SOL     OW 2173   5.844   1.380   2.850
  425SOL    HW1 2174   5.874   1.286   2.865
  425SOL    HW2 2175   5.911   1.428   2.794
  426SOL     OW 2176   4.205   1.722   4.463
  426SOL    HW1 2177   4.208   1.819   4.439
  426SOL    HW2 2178   4.275   1.702   4.531
  427SOL     OW 2179   4.596   5.828   3.100
  427SOL    HW1 2180   4.515   5.775   3.075
  427SOL    HW2 2181   4.678   5.783   3.064
  428SOL     OW 2182   4.673   0.402   4.576
  428SOL    HW1 2183   4.593   0.385   4.519
  428SOL    HW2 2184   4.729   0.473   4.532
  429SOL     OW 2185   1.473   3.270   1.394
  429SOL    HW1 2186   1.503   3.361   1.368
  429SOL    HW2 2187   1.463   3.213   1.313
  430SOL     OW 2188   0.096   0.449   5.625
  430SOL    HW1 2189   7.020   0.453   5.641
  430SOL    HW2 2190   0.145   0.487   5.704
  431SOL     OW 2191   3.378   6.705   0.615
  431SOL    HW1 2192   3.342   6.677   0.526
  431SOL    HW2 2193   3.303   6.712   0.681
  432SOL     OW 2194   6.529   1.313   0.740
  432SOL    HW1 2195   6.627   1.335   0.745
  432SOL    HW2 2196   6.490   1.352   0.657
  433SOL     OW 2197   2.734   6.409   5.178
  433SOL    HW1 2198   2.760   6.430   5.272
  433SOL    HW2 2199   2.786   6.329   5.147
  434SOL     OW 2200   3.646   6.028   3.234
  434SOL    HW1 2201   3.555   5.995   3.261
  434SOL    HW2 2202   3.715   5.962   3.262
  435SOL     OW 2203   4.939   2.541   6.164
  435SOL    HW1 2204   4.962   2.524   6.260
  435SOL    HW2 2205   4.866   2.609   6.160
  436SOL     OW 2206   3.039   6.178   1.245
  436SOL    HW1 2207   2.969   6.194   1.175
  436SOL    HW2 2208   3.039   6.254   1.310
  437SOL     OW 2209   1.112   0.837   0.494
  437SOL    HW1 2210   1.092   0.930   0.465
  437SOL    HW2 2211   1.194   0.837   0.552
  438SOL     OW 2212   1.919   3.853   2.693
  438SOL    HW1 2213   1.990   3.909   2.650
  438SOL    HW2 2214   1.960   3.771   2.732
  439SOL     OW 2215   5.807   4.755   2.894
  439SOL    HW1 2216   5.720   4.778   2.938
  439SOL    HW2 2217   5.880   4.759   2.961
  440SOL     OW 2218   2.093   1.217   5.513
  440SOL    HW1 2219   2.131   1.191   5.425
  440SOL    HW2 2220   2.010   1.272   5.499
  441SOL     OW 2221   0.989   2.552   4.512
  441SOL    HW1 2222   1.038   2.467   4.532
  441SOL    HW2 2223   0.978   2.561   4.413
  442SOL     OW 2224   3.742   4.992   5.847
  442SOL    HW1 2225   3.820   5.055   5.855
  442SOL    HW2 2226   3.698   4.982   5.936
  443SOL     OW 2227   6.106   3.930   4.485
  443SOL    HW1 2228   6.194   3.941   4.532
  443SOL    HW2 2229   6.084   3.833   4.477
  444SOL     OW 2230   5.029   1.321   5.713
  444SOL    HW1 2231   5.059   1.357   5.802
  444SOL    HW2 2232   4.939   1.359   5.691
  445SOL     OW 2233   1.006   5.697   2.682
  445SOL    HW1 2234   0.979   5.622   2.742
  445SOL    HW2 2235   1.103   5.718   2.696
  446SOL     OW 2236   3.908   5.150   3.531
  446SOL    HW1 2237   3.909   5.149   3.631
  446SOL    HW2 2238   3.992   5.192   3.497
  447SOL     OW 2239   0.359   2.606   6.345
  447SOL    HW1 2240   0.398   2.636   6.432
  447SOL    HW2 2241   0.293   2.675   6.313
  448SOL     OW 2242   1.633   0.601   3.549
  448SOL    HW1 2243   1.726   0.617   3.517
  448SOL    HW2 2244   1.615   0.502   3.549
  449SOL     OW 2245   3.965   1.481   4.127
  449SOL    HW1 2246   4.004   1.559   4.176
  449SOL    HW2 2247   3.967   1.400   4.185
  450SOL     OW 2248   1.301   5.571   3.468
  450SOL    HW1 2249   1.348   5.601   3.551
  450SOL    HW2 2250   1.230   5.637   3.445
  451SOL     OW 2251   1.277   2.570   3.664
  451SOL    HW1 2252   1.372   2.571   3.696
  451SOL    HW2 2253   1.265   2.640   3.594
  452SOL     OW 2254   6.236   6.154   0.783
  452SOL    HW1 2255   6.187   6.238   0.806
  452SOL    HW2 2256   6.299   6.131   0.858
  453SOL     OW 2257   3.563   1.101   5.556
  453SOL    HW1 2258   3.509   1.184   5.542
  453SOL    HW2 2259   3.528   1.029   5.496
  454SOL     OW 2260   6.809   4.721   6.285
  454SOL    HW1 2261   6.797   4.691   6.380
  454SOL    HW2 2262   6.905   4.715   6.260
  455SOL     OW 2263   5.870   2.700   3.433
  455SOL    HW1 2264   5.932   2.622   3.428
  455SOL    HW2 2265   5.817   2.706   3.348
  456SOL     OW 2266   6.093   6.251   4.024
  456SOL    HW1 2267   6.068   6.155   4.019
  456SOL    HW2 2268   6.032   6.298   4.088
  457SOL     OW 2269   1.298   2.184   4.057
  457SOL    HW1 2270   1.236   2.147   4.127
  457SOL    HW2 2271   1.252   2.258   4.008
  458SOL     OW 2272   4.156   5.545   3.646
  458SOL    HW1 2273   4.124   5.609   3.715
  458SOL    HW2 2274   4.086   5.534   3.575
  459SOL     OW 2275   1.881   6.502   5.327
  459SOL    HW1 2276   1.981   6.501   5.316
  459SOL    HW2 2277   1.857   6.464   5.416
  460SOL     OW 2278   1.553   6.630   3.660
  460SOL    HW1 2279   1.611   6.566   3.607
  460SOL    HW2 2280   1.507   6.580   3.733
  461SOL     OW 2281   6.538   6.892   5.893
  461SOL    HW1 2282   6.538   6.843   5.980
  461SOL    HW2 2283   6.444   6.914   5.867
  462SOL     OW 2284   3.903   3.111   6.452
  462SOL    HW1 2285   3.854   3.141   6.370
  462SOL    HW2 2286   3.924   3.191   6.509
  463SOL     OW 2287   5.581   6.044   3.483
  463SOL    HW1 2288   5.647   5.997   3.541
  463SOL    HW2 2289   5.604   6.141   3.477
  464SOL     OW 2290   2.999   1.220   4.801
  464SOL    HW1 2291   2.921   1.180   4.753
  464SOL    HW2 2292   3.031   1.300   4.751
  465SOL     OW 2293   0.853   3.248   6.413
  465SOL    HW1 2294   0.864   3.303   6.330
  465SOL    HW2 2295   0.761   3.207   6.413
  466SOL     OW 2296   1.033   6.328   2.752
  466SOL    HW1 2297   1.016   6.367   2.661
  466SOL    HW2 2298   1.131   6.329   2.770
  467SOL     OW 2299   2.316   1.315   0.543
  467SOL    HW1 2300   2.366   1.299   0.628
  467SOL    HW2 2301   2.224   1.277   0.550
  468SOL     OW 2302   3.614   0.467   6.104
  468SOL    HW1 2303   3.549   0.427   6.040
  468SOL    HW2 2304   3.617   0.413   6.188
  469SOL     OW 2305   3.067   3.054   6.709
  469SOL    HW1 2306   3.127   3.125   6.672
  469SOL    HW2 2307   2.995   3.097   6.764
  470SOL     OW 2308   4.356   0.152   1.872
  470SOL    HW1 2309   4.338   0.169   1.775
  470SOL    HW2 2310   4.293   0.204   1.928
  471SOL     OW 2311   2.082   2.549   3.764
  471SOL    HW1 2312   2.028   2.534   3.847
  471SOL    HW2 2313   2.132   2.465   3.742
  472SOL     OW 2314   4.858   3.224   6.407
  472SOL    HW1 2315   4.943   3.269   6.378
  472SOL    HW2 2316   4.817   3.277   6.481
  473SOL     OW 2317   1.065   3.306   3.156
  473SOL    HW1 2318   1.137   3.324   3.223
  473SOL    HW2 2319   1.105   3.293   3.066
  474SOL     OW 2320   5.066   5.809   4.313
  474SOL    HW1 2321   5.137   5.876   4.294
  474SOL    HW2 2322   5.046   5.808   4.411
  475SOL     OW 2323   5.576   1.109   6.149
  475SOL    HW1 2324   5.490   1.148   6.182
  475SOL    HW2 2325   5.602   1.032   6.207
  476SOL     OW 2326   0.196   3.642   3.632
  476SOL    HW1 2327   0.207   3.712   3.561
  476SOL    HW2 2328   0.217   3.682   3.721
  477SOL     OW 2329   1.912   6.020   3.687
  477SOL    HW1 2330   1.933   5.960   3.609
  477SOL    HW2 2331   1.814   6.018   3.705
  478SOL     OW 2332   3.394   5.716   2.104
  478SOL    HW1 2333   3.469   5.773   2.137
  478SOL    HW2 2334   3.353   5.758   2.023
  479SOL     OW 2335   4.415   1.831   5.679
  479SOL    HW1 2336   4.500   1.798   5.638
  479SOL    HW2 2337   4.338   1.803   5.622
  480SOL     OW 2338   2.760   0.764   6.852
  480SOL    HW1 2339   2.678   0.794   6.805
  480SOL    HW2 2340   2.840   0.781   6.795
  481SOL     OW 2341   2.271   6.915   0.907
  481SOL    HW1 2342   2.292   7.013   0.907
  481SOL    HW2 2343   2.179   6.900   0.870
  482SOL     OW 2344   4.284   5.014   2.371
  482SOL    HW1 2345   4.251   5.010   2.465
  482SOL    HW2 2346   4.384   5.012   2.370
  483SOL     OW 2347   6.940   1.798   2.703
  483SOL    HW1 2348   6.919   1.726   2.637
  483SOL    HW2 2349   0.011   1.789   2.736
  484SOL     OW 2350   2.169   3.659   4.496
  484SOL    HW1 2351   2.227   3.614   4.428
  484SOL    HW2 2352   2.076   3.621   4.491
  485SOL     OW 2353   3.395   5.301   3.088
  485SOL    HW1 2354   3.329   5.373   3.109
  485SOL    HW2 2355   3.392   5.231   3.160
  486SOL     OW 2356   6.538   0.935   0.034
  486SOL    HW1 2357   6.600   0.968   0.105
  486SOL    HW2 2358   6.464   1.002   0.021
  487SOL     OW 2359   0.744   0.908   2.256
  487SOL    HW1 2360   0.704   0.849   2.327
  487SOL    HW2 2361   0.678   0.978   2.230
  488SOL     OW 2362   1.180   1.707   1.401
  488SOL    HW1 2363   1.225   1.796   1.409
  488SOL    HW2 2364   1.248   1.634   1.409
  489SOL     OW 2365   3.719   6.296   5.833
  489SOL    HW1 2366   3.635   6.320   5.882
  489SOL    HW2 2367   3.795   6.296   5.898
  490SOL     OW 2368   6.682   6.238   2.963
  490SOL    HW1 2369   6.735   6.288   2.894
  490SOL    HW2 2370   6.700   6.140   2.955
  491SOL     OW 2371   1.041   3.170   2.760
  491SOL    HW1 2372   1.101   3.210   2.691
  491SOL    HW2 2373   1.096   3.136   2.836
  492SOL     OW 2374   1.634   0.636   5.063
  492SOL    HW1 2375   1.698   0.569   5.100
  492SOL    HW2 2376   1.585   0.680   5.138
  493SOL     OW 2377   5.114   6.025   5.823
  493SOL    HW1 2378   5.152   5.933   5.811
  493SOL    HW2 2379   5.077   6.033   5.916
  494SOL     OW 2380   0.526   6.422   6.542
  494SOL    HW1 2381   0.513   6.325   6.522
  494SOL    HW2 2382   0.505   6.476   6.461
  495SOL     OW 2383   4.749   5.981   3.732
  495SOL    HW1 2384   4.828   5.924   3.756
  495SOL    HW2 2385   4.669   5.924   3.717
  496SOL     OW 2386   5.227   2.885   1.896
  496SOL    HW1 2387   5.206   2.941   1.816
  496SOL    HW2 2388   5.247   2.792   1.868
  497SOL     OW 2389   2.608   0.997   4.101
  497SOL    HW1 2390   2.572   1.083   4.067
  497SOL    HW2 2391   2.693   1.015   4.152
  498SOL     OW 2392   1.183   4.057   1.594
  498SOL    HW1 2393   1.215   4.129   1.533
  498SOL    HW2 2394   1.248   3.981   1.593
  499SOL     OW 2395   1.459   5.947   4.613
  499SOL    HW1 2396   1.477   5.891   4.532
  499SOL    HW2 2397   1.519   5.919   4.687
  500SOL     OW 2398   0.112   3.089   5.447
  500SOL    HW1 2399   0.044   3.102   5.375
  500SOL    HW2 2400   0.202   3.118   5.414
  501SOL     OW 2401   3.400   5.887   0.870
  501SOL    HW1 2402   3.472   5.818   0.878
  501SOL    HW2 2403   3.365   5.888   0.776
  502SOL     OW 2404   0.587   3.865   6.951
  502SOL    HW1 2405   0.681   3.833   6.964
  502SOL    HW2 2406   0.565   3.863   6.854
  503SOL     OW 2407   0.292   5.724   6.919
  503SOL    HW1 2408   0.383   5.718   6.959
  503SOL    HW2 2409   0.296   5.700   6.822
  504SOL     OW 2410   1.566   5.250   2.070
  504SOL    HW1 2411   1.531   5.285   2.158
  504SOL    HW2 2412   1.592   5.327   2.012
  505SOL     OW 2413   3.084   6.026   5.228
  505SOL    HW1 2414   3.053   5.965   5.155
  505SOL    HW2 2415   3.099   5.974   5.312
  506SOL     OW 2416   2.733   4.932   4.151
  506SOL    HW1 2417   2.640   4.914   4.184
  506SOL    HW2 2418   2.743   4.897   4.058
  507SOL     OW 2419   3.148   6.716   3.120
  507SOL    HW1 2420   3.102   6.805   3.124
  507SOL    HW2 2421   3.234   6.720   3.170
  508SOL     OW 2422   7.021   3.817   2.344
  508SOL    HW1 2423   7.016   3.822   2.244
  508SOL    HW2 2424   6.987   3.728   2.374
  509SOL     OW 2425   3.109   1.481   1.017
  509SOL    HW1 2426   3.174   1.405   1.008
  509SOL    HW2 2427   3.053   1.488   0.935
  510SOL     OW 2428   6.451   4.563   6.500
  510SOL    HW1 2429   6.390   4.567   6.579
  510SOL    HW2 2430   6.443   4.648   6.447
  511SOL     OW 2431   1.042   1.686   5.969
  511SOL    HW1 2432   1.112   1.641   5.914
  511SOL    HW2 2433   0.984   1.742   5.911
  512SOL     OW 2434   6.811   3.250   0.246
  512SOL    HW1 2435   6.873   3.219   0.318
  512SOL    HW2 2436   6.731   3.293   0.288
  513SOL     OW 2437   5.806   0.014   3.064
  513SOL    HW1 2438   5.761   6.957   3.025
  513SOL    HW2 2439   5.899   7.012   3.091
  514SOL     OW 2440   6.935   2.102   3.941
  514SOL    HW1 2441   6.994   2.040   3.991
  514SOL    HW2 2442   6.874   2.150   4.005
  515SOL     OW 2443   0.997   0.442   6.220
  515SOL    HW1 2444   0.898   0.424   6.225
  515SOL    HW2 2445   1.044   0.386   6.287
  516SOL     OW 2446   2.584   4.676   2.068
  516SOL    HW1 2447   2.522   4.599   2.056
  516SOL    HW2 2448   2.678   4.645   2.051
  517SOL     OW 2449   4.777   5.811   1.471
  517SOL    HW1 2450   4.706   5.808   1.401
  517SOL    HW2 2451   4.840   5.887   1.451
  518SOL     OW 2452   3.021   2.233   3.370
  518SOL    HW1 2453   3.100   2.215   3.312
  518SOL    HW2 2454   3.046   2.297   3.443
  519SOL     OW 2455   0.286   0.102   4.573
  519SOL    HW1 2456   0.373   0.101   4.622
  519SOL    HW2 2457   0.234   0.183   4.601
  520SOL     OW 2458   5.771   4.418   0.742
  520SOL    HW1 2459   5.858   4.370   0.727
  520SOL    HW2 2460   5.778   4.510   0.705
  521SOL     OW 2461   6.557   5.217   5.078
  521SOL    HW1 2462   6.513   5.237   4.990
  521SOL    HW2 2463   6.601   5.128   5.073
  522SOL     OW 2464   3.821   3.282   4.486
  522SOL    HW1 2465   3.737   3.262   4.536
  522SOL    HW2 2466   3.805   3.269   4.388
  523SOL     OW 2467   0.303   5.715   1.588
  523SOL    HW1 2468   0.348   5.742   1.673
  523SOL    HW2 2469   0.216   5.670   1.609
  524SOL     OW 2470   0.461   2.081   2.366
  524SOL    HW1 2471   0.432   2.155   2.306
  524SOL    HW2 2472   0.549   2.105   2.409
  525SOL     OW 2473   2.129   3.401   5.542
  525SOL    HW1 2474   2.199   3.412   5.613
  525SOL    HW2 2475   2.039   3.422   5.580
  526SOL     OW 2476   4.217   6.395   3.714
  526SOL    HW1 2477   4.237   6.419   3.619
  526SOL    HW2 2478   4.135   6.444   3.744
  527SOL     OW 2479   5.717   2.651   6.785
  527SOL    HW1 2480   5.796   2.712   6.774
  527SOL    HW2 2481   5.749   2.561   6.813
  528SOL     OW 2482   0.730   2.457   3.826
  528SOL    HW1 2483   0.644   2.483   3.869
  528SOL    HW2 2484   0.806   2.480   3.886
  529SOL     OW 2485   1.354   6.979   4.599
  529SOL    HW1 2486   1.372   6.956   4.503
  529SOL    HW2 2487   1.275   0.017   4.604
  530SOL     OW 2488   3.678   3.207   4.240
  530SOL    HW1 2489   3.601   3.260   4.204
  530SOL    HW2 2490   3.685   3.121   4.191
  531SOL     OW 2491   0.435   1.790   3.531
  531SOL    HW1 2492   0.393   1.721   3.590
  531SOL    HW2 2493   0.526   1.759   3.504
  532SOL     OW 2494   1.142   2.758   6.844
  532SOL    HW1 2495   1.135   2.843   6.791
  532SOL    HW2 2496   1.141   2.779   6.941
  533SOL     OW 2497   3.911   6.238   4.347
  533SOL    HW1 2498   4.006   6.264   4.363
  533SOL    HW2 2499   3.854   6.320   4.343
  534SOL     OW 2500   5.122   6.596   2.153
  534SOL    HW1 2501   5.036   6.557   2.120
  534SOL    HW2 2502   5.103   6.669   2.218
  535SOL     OW 2503   0.542   3.516   4.650
  535SOL    HW1 2504   0.455   3.521   4.699
  535SOL    HW2 2505   0.578   3.608   4.636
  536SOL     OW 2506   6.790   5.183   1.942
  536SOL    HW1 2507   6.695   5.177   1.973
  536SOL    HW2 2508   6.803   5.268   1.891
  537SOL     OW 2509   3.000   6.326   4.539
  537SOL    HW1 2510   3.034   6.390   4.607
  537SOL    HW2 2511   2.994   6.371   4.450
  538SOL     OW 2512   1.220   4.326   3.340
  538SOL    HW1 2513   1.282   4.394   3.302
  538SOL    HW2 2514   1.206   4.343   3.437
  539SOL     OW 2515   1.881   5.948   1.204
  539SOL    HW1 2516   1.978   5.968   1.215
  539SOL    HW2 2517   1.852   5.883   1.274
  540SOL     OW 2518   1.306   0.972   3.135
  540SOL    HW1 2519   1.217   1.005   3.105
  540SOL    HW2 2520   1.299   0.939   3.229
  541SOL     OW 2521   5.406   5.670   4.133
  541SOL    HW1 2522   5.424   5.620   4.218
  541SOL    HW2 2523   5.471   5.746   4.124
  542SOL     OW 2524   5.972   6.559   6.977
  542SOL    HW1 2525   5.930   6.475   7.010
  542SOL    HW2 2526   5.945   6.576   6.883
  543SOL     OW 2527   1.458   4.247   5.301
  543SOL    HW1 2528   1.497   4.277   5.215
  543SOL    HW2 2529   1.398   4.318   5.337
  544SOL     OW 2530   2.844   4.010   0.005
  544SOL    HW1 2531   2.899   3.952   0.065
  544SOL    HW2 2532   2.753   4.020   0.043
  545SOL     OW 2533   2.494   1.611   1.787
  545SOL    HW1 2534   2.453   1.698   1.812
  545SOL    HW2 2535   2.590   1.625   1.762
  546SOL     OW 2536   2.439   3.011   0.383
  546SOL    HW1 2537   2.350   3.056   0.378
  546SOL    HW2 2538   2.494   3.054   0.455
  547SOL     OW 2539   3.214   0.822   0.211
  547SOL    HW1 2540   3.184   0.910   0.248
  547SOL    HW2 2541   3.252   0.835   0.119
  548SOL     OW 2542   3.138   3.518   2.777
  548SOL    HW1 2543   3.155   3.471   2.690
  548SOL    HW2 2544   3.067   3.468   2.828
  549SOL     OW 2545   5.051   2.799   1.181
  549SOL    HW1 2546   5.019   2.711   1.218
  549SOL    HW2 2547   5.060   2.792   1.082
  550SOL     OW 2548   6.874   5.199   3.727
  550SOL    HW1 2549   6.774   5.209   3.727
  550SOL    HW2 2550   6.904   5.164   3.639
  551SOL     OW 2551   0.755   0.437   2.222
  551SOL    HW1 2552   0.797   0.519   2.260
  551SOL    HW2 2553   0.691   0.399   2.289
  552SOL     OW 2554   5.252   4.455   0.168
  552SOL    HW1 2555   5.173   4.417   0.215
  552SOL    HW2 2556   5.223   4.497   0.082
  553SOL     OW 2557   2.234   6.815   2.555
  553SOL    HW1 2558   2.236   6.736   2.494
  553SOL    HW2 2559   2.149   6.866   2.540
  554SOL     OW 2560   5.462   0.499   6.141
  554SOL    HW1 2561   5.368   0.524   6.163
  554SOL    HW2 2562   5.504   0.456   6.221
  555SOL     OW 2563   1.754   5.306   3.401
  555SOL    HW1 2564   1.664   5.262   3.409
  555SOL    HW2 2565   1.762   5.379   3.469
  556SOL     OW 2566   4.649   2.645   3.351
  556SOL    HW1 2567   4.726   2.589   3.320
  556SOL    HW2 2568   4.590   2.667   3.273
  557SOL     OW 2569   0.369   5.133   0.645
  557SOL    HW1 2570   0.305   5.210   0.637
  557SOL    HW2 2571   0.350   5.066   0.574
  558SOL     OW 2572   3.012   3.214   4.316
  558SOL    HW1 2573   2.961   3.274   4.378
  558SOL    HW2 2574   3.035   3.130   4.364
  559SOL     OW 2575   6.777   5.824   6.862
  559SOL    HW1 2576   6.820   5.800   6.950
  559SOL    HW2 2577   6.840   5.881   6.809
  560SOL     OW 2578   4.513   4.510   6.822
  560SOL    HW1 2579   4.588   4.446   6.840
  560SOL    HW2 2580   4.550   4.599   6.797
  561SOL     OW 2581   6.741   1.196   0.510
  561SOL    HW1 2582   6.748   1.243   0.598
  561SOL    HW2 2583   6.802   1.117   0.511
  562SOL     OW 2584   4.870   0.669   5.964
  562SOL    HW1 2585   4.960   0.709   5.947
  562SOL    HW2 2586   4.834   0.704   6.050
  563SOL     OW 2587   2.067   0.699   3.628
  563SOL    HW1 2588   1.981   0.696   3.577
  563SOL    HW2 2589   2.144   0.703   3.564
  564SOL     OW 2590   2.133   2.108   6.543
  564SOL    HW1 2591   2.059   2.138   6.484
  564SOL    HW2 2592   2.179   2.187   6.583
  565SOL     OW 2593   3.809   3.032   5.340
  565SOL    HW1 2594   3.813   3.045   5.439
  565SOL    HW2 2595   3.787   2.937   5.319
  566SOL     OW 2596   6.469   5.146   3.903
  566SOL    HW1 2597   6.433   5.054   3.888
  566SOL    HW2 2598   6.506   5.153   3.995
  567SOL     OW 2599   3.599   3.293   2.086
  567SOL    HW1 2600   3.607   3.222   2.015
  567SOL    HW2 2601   3.503   3.304   2.111
  568SOL     OW 2602   4.750   1.604   0.087
  568SOL    HW1 2603   4.792   1.516   0.067
  568SOL    HW2 2604   4.821   1.674   0.095
  569SOL     OW 2605   1.432   2.610   6.908
  569SOL    HW1 2606   1.395   2.517   6.906
  569SOL    HW2 2607   1.357   2.675   6.921
  570SOL     OW 2608   3.190   6.274   6.907
  570SOL    HW1 2609   3.221   6.363   6.873
  570SOL    HW2 2610   3.183   6.276   7.006
  571SOL     OW 2611   3.312   0.434   2.644
  571SOL    HW1 2612   3.390   0.444   2.582
  571SOL    HW2 2613   3.265   0.347   2.625
  572SOL     OW 2614   3.134   4.957   5.452
  572SOL    HW1 2615   3.113   4.891   5.380
  572SOL    HW2 2616   3.175   4.911   5.530
  573SOL     OW 2617   5.430   1.971   5.976
  573SOL    HW1 2618   5.353   1.994   5.917
  573SOL    HW2 2619   5.514   1.970   5.922
  574SOL     OW 2620   3.292   2.152   3.913
  574SOL    HW1 2621   3.364   2.203   3.865
  574SOL    HW2 2622   3.325   2.060   3.933
  575SOL     OW 2623   5.539   3.753   1.110
  575SOL    HW1 2624   5.591   3.720   1.031
  575SOL    HW2 2625   5.584   3.833   1.148
  576SOL     OW 2626   1.017   2.403   3.009
  576SOL    HW1 2627   1.072   2.336   2.960
  576SOL    HW2 2628   1.000   2.482   2.950
  577SOL     OW 2629   1.523   1.508   2.269
  577SOL    HW1 2630   1.481   1.569   2.336
  577SOL    HW2 2631   1.456   1.440   2.239
  578SOL     OW 2632   6.642   5.482   3.205
  578SOL    HW1 2633   6.617   5.433   3.289
  578SOL    HW2 2634   6.581   5.560   3.193
  579SOL     OW 2635   1.462   2.684   1.929
  579SOL    HW1 2636   1.518   2.704   1.848
  579SOL    HW2 2637   1.510   2.715   2.011
  580SOL     OW 2638   6.881   5.138   6.942
  580SOL    HW1 2639   6.842   5.220   6.900
  580SOL    HW2 2640   6.866   5.141   0.018
  581SOL     OW 2641   2.981   3.215   2.830
  581SOL    HW1 2642   2.944   3.251   2.744
  581SOL    HW2 2643   2.927   3.251   2.907
  582SOL     OW 2644   4.848   6.730   1.707
  582SOL    HW1 2645   4.861   6.632   1.689
  582SOL    HW2 2646   4.753   6.755   1.686
  583SOL     OW 2647   3.132   5.226   5.547
  583SOL    HW1 2648   3.133   5.129   5.522
  583SOL    HW2 2649   3.073   5.239   5.626
  584SOL     OW 2650   2.405   3.910   6.127
  584SOL    HW1 2651   2.330   3.964   6.088
  584SOL    HW2 2652   2.422   3.830   6.070
  585SOL     OW 2653   5.340   2.833   5.997
  585SOL    HW1 2654   5.419   2.857   6.052
  585SOL    HW2 2655   5.301   2.746   6.029
  586SOL     OW 2656   3.961   1.949   6.228
  586SOL    HW1 2657   3.978   1.980   6.322
  586SOL    HW2 2658   3.887   1.882   6.228
  587SOL     OW 2659   3.919   1.115   5.628
  587SOL    HW1 2660   3.834   1.161   5.602
  587SOL    HW2 2661   3.909   1.016   5.614
  588SOL     OW 2662   2.516   4.729   0.913
  588SOL    HW1 2663   2.543   4.642   0.873
  588SOL    HW2 2664   2.489   4.715   1.008
  589SOL     OW 2665   3.066   5.208   1.388
  589SOL    HW1 2666   3.069   5.185   1.485
  589SOL    HW2 2667   2.980   5.253   1.367
  590SOL     OW 2668   5.123   3.112   2.650
  590SOL    HW1 2669   5.030   3.108   2.613
  590SOL    HW2 2670   5.185   3.146   2.580
  591SOL     OW 2671   3.808   5.628   3.653
  591SOL    HW1 2672   3.855   5.616   3.566
  591SOL    HW2 2673   3.741   5.555   3.666
  592SOL     OW 2674   3.293   0.365   1.862
  592SOL    HW1 2675   3.195   0.358   1.878
  592SOL    HW2 2676   3.316   0.458   1.834
  593SOL     OW 2677   4.521   2.609   3.112
  593SOL    HW1 2678   4.451   2.548   3.075
  593SOL    HW2 2679   4.549   2.674   3.041
  594SOL     OW 2680   5.239   2.445   6.988
  594SOL    HW1 2681   5.310   2.452   0.036
  594SOL    HW2 2682   5.257   2.512   6.916
  595SOL     OW 2683   5.964   6.781   3.957
  595SOL    HW1 2684   5.966   6.783   4.057
  595SOL    HW2 2685   5.873   6.805   3.924
  596SOL     OW 2686   1.913   4.308   3.117
  596SOL    HW1 2687   1.852   4.347   3.187
  596SOL    HW2 2688   1.863   4.298   3.031
  597SOL     OW 2689   4.183   6.914   6.590
  597SOL    HW1 2690   4.237   6.998   6.591
  597SOL    HW2 2691   4.243   6.835   6.578
  598SOL     OW 2692   2.994   4.120   5.836
  598SOL    HW1 2693   2.950   4.093   5.750
  598SOL    HW2 2694   2.941   4.084   5.913
  599SOL     OW 2695   2.117   6.488   2.729
  599SOL    HW1 2696   2.042   6.531   2.777
  599SOL    HW2 2697   2.200   6.492   2.785
  600SOL     OW 2698   1.107   1.124   0.407
  600SOL    HW1 2699   1.123   1.089   0.315
  600SOL    HW2 2700   1.154   1.212   0.417
  601SOL     OW 2701   2.998   6.204   3.855
  601SOL    HW1 2702   3.053   6.265   3.798
  601SOL    HW2 2703   2.904   6.238   3.859
  602SOL     OW 2704   2.126   2.927   6.010
  602SOL    HW1 2705   2.214   2.949   5.966
  602SOL    HW2 2706   2.097   3.005   6.065
  603SOL     OW 2707   3.660   1.742   3.988
  603SOL    HW1 2708   3.719   1.811   4.030
  603SOL    HW2 2709   3.713   1.688   3.923
  604SOL     OW 2710   0.512   3.371   1.798
  604SOL    HW1 2711   0.454   3.420   1.733
  604SOL    HW2 2712   0.557   3.294   1.752
  605SOL     OW 2713   6.772   6.323   2.665
  605SOL    HW1 2714   6.677   6.341   2.637
  605SOL    HW2 2715   6.829   6.400   2.638
  606SOL     OW 2716   5.114   0.599   6.703
  606SOL    HW1 2717   5.154   0.549   6.780
  606SOL    HW2 2718   5.187   0.643   6.651
  607SOL     OW 2719   5.736   0.870   5.590
  607SOL    HW1 2720   5.667   0.802   5.615
  607SOL    HW2 2721   5.801   0.881   5.665
  608SOL     OW 2722   3.395   6.176   6.726
  608SOL    HW1 2723   3.325   6.227   6.776
  608SOL    HW2 2724   3.481   6.226   6.728
  609SOL     OW 2725   4.133   3.369   3.531
  609SOL    HW1 2726   4.121   3.306   3.455
  609SOL    HW2 2727   4.087   3.334   3.612
  610SOL     OW 2728   5.045   3.314   2.181
  610SOL    HW1 2729   4.997   3.380   2.124
  610SOL    HW2 2730   4.990   3.231   2.191
  611SOL     OW 2731   3.172   0.135   0.294
  611SOL    HW1 2732   3.259   0.120   0.341
  611SOL    HW2 2733   3.126   0.215   0.334
  612SOL     OW 2734   3.710   6.616   6.137
  612SOL    HW1 2735   3.618   6.650   6.157
  612SOL    HW2 2736   3.772   6.693   6.124
  613SOL     OW 2737   3.885   6.811   6.043
  613SOL    HW1 2738   3.973   6.854   6.061
  613SOL    HW2 2739   3.866   6.813   5.945
  614SOL     OW 2740   4.429   4.599   1.530
  614SOL    HW1 2741   4.391   4.603   1.622
  614SOL    HW2 2742   4.367   4.646   1.467
  615SOL     OW 2743   0.535   1.983   1.003
  615SOL    HW1 2744   0.507   2.061   0.947
  615SOL    HW2 2745   0.454   1.934   1.034
  616SOL     OW 2746   0.279   2.272   3.750
  616SOL    HW1 2747   0.215   2.196   3.758
  616SOL    HW2 2748   0.242   2.351   3.800
  617SOL     OW 2749   6.776   3.310   6.348
  617SOL    HW1 2750   6.819   3.221   6.331
  617SOL    HW2 2751   6.774   3.327   6.447
  618SOL     OW 2752   6.569   2.904   6.642
  618SOL    HW1 2753   6.605   2.828   6.589
  618SOL    HW2 2754   6.527   2.970   6.581
  619SOL     OW 2755   4.731   0.030   6.898
  619SOL    HW1 2756   4.783   6.998   6.833
  619SOL    HW2 2757   4.633   0.019   6.880
  620SOL     OW 2758   5.149   2.339   1.873
  620SOL    HW1 2759   5.228   2.348   1.933
  620SOL    HW2 2760   5.067   2.371   1.920
  621SOL     OW 2761   2.227   6.796   5.539
  621SOL    HW1 2762   2.242   6.744   5.623
  621SOL    HW2 2763   2.133   6.831   5.539
  622SOL     OW 2764   1.038   1.428   4.622
  622SOL    HW1 2765   1.052   1.329   4.629
  622SOL    HW2 2766   0.985   1.449   4.540
  623SOL     OW 2767   1.198   6.134   5.914
  623SOL    HW1 2768   1.175   6.144   6.011
  623SOL    HW2 2769   1.251   6.213   5.884
  624SOL     OW 2770   0.278   1.722   0.974
  624SOL    HW1 2771   0.222   1.736   0.892
  624SOL    HW2 2772   0.259   1.632   1.012
  625SOL     OW 2773   1.924   2.031   1.668
  625SOL    HW1 2774   1.920   2.029   1.568
  625SOL    HW2 2775   1.904   1.940   1.704
  626SOL     OW 2776   1.084   5.915   3.088
  626SOL    HW1 2777   1.081   6.015   3.097
  626SOL    HW2 2778   0.998   5.883   3.048
  627SOL     OW 2779   6.788   6.183   0.656
  627SOL    HW1 2780   6.753   6.231   0.736
  627SOL    HW2 2781   6.732   6.102   0.639
  628SOL     OW 2782   5.331   5.921   5.626
  628SOL    HW1 2783   5.400   5.981   5.668
  628SOL    HW2 2784   5.264   5.976   5.577
  629SOL     OW 2785   0.655   0.658   6.394
  629SOL    HW1 2786   0.563   0.634   6.426
  629SOL    HW2 2787   0.715   0.671   6.473
  630SOL     OW 2788   0.529   1.577   0.363
  630SOL    HW1 2789   0.493   1.549   0.274
  630SOL    HW2 2790   0.627   1.557   0.367
  631SOL     OW 2791   3.901   1.432   5.513
  631SOL    HW1 2792   3.816   1.443   5.461
  631SOL    HW2 2793   3.951   1.352   5.478
  632SOL     OW 2794   4.138   1.796   1.295
  632SOL    HW1 2795   4.122   1.832   1.387
  632SOL    HW2 2796   4.219   1.737   1.296
  633SOL     OW 2797   2.752   4.000   6.369
  633SOL    HW1 2798   2.817   4.060   6.415
  633SOL    HW2 2799   2.801   3.922   6.330
  634SOL     OW 2800   3.707   4.062   3.063
  634SOL    HW1 2801   3.786   4.091   3.009
  634SOL    HW2 2802   3.626   4.060   3.005
  635SOL     OW 2803   4.658   5.896   0.807
  635SOL    HW1 2804   4.734   5.842   0.771
  635SOL    HW2 2805   4.577   5.882   0.750
  636SOL     OW 2806   3.421   6.767   0.191
  636SOL    HW1 2807   3.398   6.855   0.151
  636SOL    HW2 2808   3.509   6.735   0.154
  637SOL     OW 2809   0.074   3.004   3.766
  637SOL    HW1 2810   0.069   2.919   3.818
  637SOL    HW2 2811   7.004   3.034   3.742
  638SOL     OW 2812   5.736   3.401   3.092
  638SOL    HW1 2813   5.640   3.398   3.064
  638SOL    HW2 2814   5.787   3.331   3.041
  639SOL     OW 2815   5.073   3.697   2.550
  639SOL    HW1 2816   5.013   3.617   2.564
  639SOL    HW2 2817   5.098   3.703   2.453
  640SOL     OW 2818   0.210   5.015   4.038
  640SOL    HW1 2819   0.300   5.058   4.047
  640SOL    HW2 2820   0.139   5.086   4.041
  641SOL     OW 2821   0.828   4.627   5.084
  641SOL    HW1 2822   0.742   4.676   5.067
  641SOL    HW2 2823   0.828   4.590   5.177
  642SOL     OW 2824   6.913   3.595   4.424
  642SOL    HW1 2825   6.965   3.524   4.471
  642SOL    HW2 2826   6.904   3.572   4.328
  643SOL     OW 2827   6.147   0.185   6.349
  643SOL    HW1 2828   6.214   0.259   6.345
  643SOL    HW2 2829   6.111   0.178   6.442
  644SOL     OW 2830   1.477   6.936   4.052
  644SOL    HW1 2831   1.409   6.872   4.088
  644SOL    HW2 2832   1.525   6.894   3.975
  645SOL     OW 2833   4.138   6.995   5.030
  645SOL    HW1 2834   4.202   6.953   4.967
  645SOL    HW2 2835   4.129   6.939   5.112
  646SOL     OW 2836   3.014   0.425   4.452
  646SOL    HW1 2837   2.935   0.414   4.392
  646SOL    HW2 2838   2.990   0.487   4.527
  647SOL     OW 2839   5.102   1.937   4.831
  647SOL    HW1 2840   5.164   1.861   4.812
  647SOL    HW2 2841   5.098   1.953   4.930
  648SOL     OW 2842   0.639   3.629   3.874
  648SOL    HW1 2843   0.560   3.573   3.900
  648SOL    HW2 2844   0.614   3.726   3.880
  649SOL     OW 2845   1.896   4.202   1.349
  649SOL    HW1 2846   1.813   4.176   1.398
  649SOL    HW2 2847   1.951   4.263   1.406
  650SOL     OW 2848   5.913   4.124   0.969
  650SOL    HW1 2849   5.892   4.221   0.964
  650SOL    HW2 2850   5.828   4.072   0.979
  651SOL     OW 2851   1.518   6.871   6.463
  651SOL    HW1 2852   1.434   6.919   6.436
  651SOL    HW2 2853   1.572   6.931   6.522
  652SOL     OW 2854   5.131   6.972   3.793
  652SOL    HW1 2855   5.106   6.908   3.865
  652SOL    HW2 2856   5.200   6.929   3.733
  653SOL     OW 2857   1.226   5.818   0.106
  653SOL    HW1 2858   1.316   5.858   0.087
  653SOL    HW2 2859   1.213   5.736   0.050
  654SOL     OW 2860   0.734   5.941   0.370
  654SOL    HW1 2861   0.641   5.960   0.338
  654SOL    HW2 2862   0.774   6.026   0.406
  655SOL     OW 2863   0.016   6.000   1.085
  655SOL    HW1 2864   6.993   5.911   1.086
  655SOL    HW2 2865   6.971   6.072   1.103
  656SOL     OW 2866   2.494   5.952   0.844
  656SOL    HW1 2867   2.399   5.921   0.846
  656SOL    HW2 2868   2.551   5.882   0.801
  657SOL     OW 2869   2.672   3.714   1.180
  657SOL    HW1 2870   2.730   3.649   1.131
  657SOL    HW2 2871   2.588   3.668   1.210
  658SOL     OW 2872   1.520   3.664   6.625
  658SOL    HW1 2873   1.444   3.669   6.690
  658SOL    HW2 2874   1.484   3.642   6.534
  659SOL     OW 2875   1.964   6.276   5.065
  659SOL    HW1 2876   1.904   6.270   4.985
  659SOL    HW2 2877   1.939   6.205   5.130
  660SOL     OW 2878   6.212   4.083   2.612
  660SOL    HW1 2879   6.149   4.153   2.578
  660SOL    HW2 2880   6.222   4.092   2.711
  661SOL     OW 2881   4.851   3.597   3.691
  661SOL    HW1 2882   4.824   3.687   3.724
  661SOL    HW2 2883   4.912   3.606   3.613
  662SOL     OW 2884   4.135   0.205   5.280
  662SOL    HW1 2885   4.038   0.214   5.257
  662SOL    HW2 2886   4.190   0.209   5.196
  663SOL     OW 2887   1.413   3.634   0.124
  663SOL    HW1 2888   1.452   3.705   0.064
  663SOL    HW2 2889   1.314   3.629   0.109
  664SOL     OW 2890   0.828   5.309   6.761
  664SOL    HW1 2891   0.813   5.407   6.776
  664SOL    HW2 2892   0.770   5.278   6.686
  665SOL     OW 2893   4.597   5.104   0.755
  665SOL    HW1 2894   4.560   5.074   0.667
  665SOL    HW2 2895   4.537   5.175   0.794
  666SOL     OW 2896   4.823   1.885   2.604
  666SOL    HW1 2897   4.854   1.968   2.651
  666SOL    HW2 2898   4.888   1.811   2.621
  667SOL     OW 2899   6.441   4.059   3.466
  667SOL    HW1 2900   6.365   3.997   3.488
  667SOL    HW2 2901   6.405   4.143   3.426
  668SOL     OW 2902   5.332   6.006   7.004
  668SOL    HW1 2903   5.416   6.005   6.949
  668SOL    HW2 2904   5.271   5.933   6.973
  669SOL     OW 2905   3.729   6.037   3.557
  669SOL    HW1 2906   3.670   6.118   3.563
  669SOL    HW2 2907   3.750   6.017   3.462
  670SOL     OW 2908   3.032   3.293   1.303
  670SOL    HW1 2909   3.040   3.194   1.297
  670SOL    HW2 2910   3.103   3.328   1.364
  671SOL     OW 2911   2.835   5.813   6.729
  671SOL    HW1 2912   2.833   5.867   6.644
  671SOL    HW2 2913   2.922   5.829   6.776
  672SOL     OW 2914   0.724   5.064   1.817
  672SOL    HW1 2915   0.788   5.078   1.741
  672SOL    HW2 2916   0.752   5.119   1.895
  673SOL     OW 2917   6.441   0.509   1.425
  673SOL    HW1 2918   6.534   0.490   1.394
  673SOL    HW2 2919   6.433   0.605   1.451
  674SOL     OW 2920   0.211   3.692   4.962
  674SOL    HW1 2921   0.229   3.791   4.956
  674SOL    HW2 2922   0.130   3.669   4.908
  675SOL     OW 2923   0.310   0.687   5.031
  675SOL    HW1 2924   0.301   0.627   5.111
  675SOL    HW2 2925   0.257   0.770   5.046
  676SOL     OW 2926   4.084   5.598   2.823
  676SOL    HW1 2927   4.149   5.630   2.892
  676SOL    HW2 2928   3.994   5.587   2.864
  677SOL     OW 2929   6.280   1.526   6.346
  677SOL    HW1 2930   6.348   1.586   6.389
  677SOL    HW2 2931   6.257   1.561   6.255
  678SOL     OW 2932   1.103   1.433   5.113
  678SOL    HW1 2933   1.010   1.403   5.132
  678SOL    HW2 2934   1.114   1.529   5.139
  679SOL     OW 2935   4.983   1.520   4.359
  679SOL    HW1 2936   4.995   1.589   4.287
  679SOL    HW2 2937   5.007   1.560   4.447
  680SOL     OW 2938   5.631   5.028   6.483
  680SOL    HW1 2939   5.591   4.938   6.500
  680SOL    HW2 2940   5.691   5.023   6.403
  681SOL     OW 2941   5.667   6.565   1.472
  681SOL    HW1 2942   5.626   6.478   1.445
  681SOL    HW2 2943   5.675   6.624   1.392
  682SOL     OW 2944   2.129   6.831   0.174
  682SOL    HW1 2945   2.114   6.929   0.189
  682SOL    HW2 2946   2.213   6.802   0.219
  683SOL     OW 2947   3.406   2.262   6.796
  683SOL    HW1 2948   3.412   2.305   6.706
  683SOL    HW2 2949   3.429   2.165   6.789
  684SOL     OW 2950   6.108   1.073   6.840
  684SOL    HW1 2951   6.150   0.982   6.831
  684SOL    HW2 2952   6.009   1.065   6.832
  685SOL     OW 2953   4.696   0.883   4.009
  685SOL    HW1 2954   4.692   0.804   4.069
  685SOL    HW2 2955   4.607   0.931   4.011
  686SOL     OW 2956   6.025   2.993   3.306
  686SOL    HW1 2957   6.083   3.014   3.385
  686SOL    HW2 2958   5.931   3.021   3.325
  687SOL     OW 2959   0.212   3.261   4.892
  687SOL    HW1 2960   0.241   3.189   4.829
  687SOL    HW2 2961   0.288   3.285   4.952
  688SOL     OW 2962   1.499   3.021   6.658
  688SOL    HW1 2963   1.500   3.121   6.658
  688SOL    HW2 2964   1.582   2.987   6.611
  689SOL     OW 2965   0.099   4.529   6.506
  689SOL    HW1 2966   0.080   4.431   6.514
  689SOL    HW2 2967   0.116   4.553   6.411
  690SOL     OW 2968   0.744   3.915   3.795
  690SOL    HW1 2969   0.810   3.841   3.790
  690SOL    HW2 2970   0.792   4.003   3.794
  691SOL     OW 2971   2.515   0.431   6.446
  691SOL    HW1 2972   2.464   0.493   6.387
  691SOL    HW2 2973   2.611   0.429   6.419
  692SOL     OW 2974   3.658   6.354   3.364
  692SOL    HW1 2975   3.754   6.331   3.348
  692SOL    HW2 2976   3.649   6.406   3.449
  693SOL     OW 2977   6.130   0.833   3.309
  693SOL    HW1 2978   6.226   0.830   3.334
  693SOL    HW2 2979   6.075   0.848   3.391
  694SOL     OW 2980   3.503   6.419   2.556
  694SOL    HW1 2981   3.582   6.357   2.547
  694SOL    HW2 2982   3.421   6.373   2.522
  695SOL     OW 2983   4.298   4.943   5.578
  695SOL    HW1 2984   4.365   5.016   5.591
  695SOL    HW2 2985   4.227   4.974   5.515
  696SOL     OW 2986   2.925   5.253   2.404
  696SOL    HW1 2987   3.023   5.244   2.423
  696SOL    HW2 2988   2.903   5.206   2.318
  697SOL     OW 2989   1.995   2.949   4.762
  697SOL    HW1 2990   2.049   2.992   4.834
  697SOL    HW2 2991   1.987   3.012   4.684
  698SOL     OW 2992   5.760   0.232   6.848
  698SOL    HW1 2993   5.793   0.141   6.874
  698SOL    HW2 2994   5.731   0.281   6.930
  699SOL     OW 2995   1.302   4.484   6.793
  699SOL    HW1 2996   1.227   4.421   6.815
  699SOL    HW2 2997   1.268   4.556   6.732
  700SOL     OW 2998   2.911   1.689   3.664
  700SOL    HW1 2999   3.001   1.720   3.696
  700SOL    HW2 3000   2.921   1.599   3.622
  701SOL     OW 3001   6.005   3.661   5.312
  701SOL    HW1 3002   6.077   3.622   5.370
  701SOL    HW2 3003   5.924   3.603   5.316
  702SOL     OW 3004   6.578   6.563   6.303
  702SOL    HW1 3005   6.606   6.642   6.248
  702SOL    HW2 3006   6.640   6.486   6.285
  703SOL     OW 3007   3.912   3.805   6.219
  703SOL    HW1 3008   3.848   3.739   6.257
  703SOL    HW2 3009   3.991   3.814   6.281
  704SOL     OW 3010   1.412   1.311   6.283
  704SOL    HW1 3011   1.434   1.218   6.314
  704SOL    HW2 3012   1.362   1.307   6.197
  705SOL     OW 3013   6.032   6.651   3.261
  705SOL    HW1 3014   5.935   6.636   3.241
  705SOL    HW2 3015   6.041   6.696   3.350
  706SOL     OW 3016   3.959   2.048   4.390
  706SOL    HW1 3017   4.006   2.007   4.468
  706SOL    HW2 3018   3.866   2.011   4.383
  707SOL     OW 3019   4.751   0.347   2.570
  707SOL    HW1 3020   4.725   0.430   2.620
  707SOL    HW2 3021   4.827   0.302   2.617
  708SOL     OW 3022   4.006   0.950   1.216
  708SOL    HW1 3023   3.982   1.047   1.217
  708SOL    HW2 3024   4.060   0.928   1.296
  709SOL     OW 3025   1.046   5.353   0.423
  709SOL    HW1 3026   1.047   5.272   0.482
  709SOL    HW2 3027   1.134   5.401   0.431
  710SOL     OW 3028   4.085   3.246   2.589
  710SOL    HW1 3029   4.151   3.296   2.645
  710SOL    HW2 3030   4.014   3.309   2.557
  711SOL     OW 3031   0.106   2.524   6.090
  711SOL    HW1 3032   0.046   2.478   6.154
  711SOL    HW2 3033   0.170   2.458   6.050
  712SOL     OW 3034   3.359   4.341   1.385
  712SOL    HW1 3035   3.292   4.412   1.403
  712SOL    HW2 3036   3.312   4.260   1.350
  713SOL     OW 3037   3.230   2.796   6.606
  713SOL    HW1 3038   3.292   2.875   6.604
  713SOL    HW2 3039   3.174   2.799   6.688
  714SOL     OW 3040   6.149   4.794   4.611
  714SOL    HW1 3041   6.100   4.813   4.525
  714SOL    HW2 3042   6.174   4.697   4.614
  715SOL     OW 3043   5.936   5.964   0.203
  715SOL    HW1 3044   5.979   5.930   0.287
  715SOL    HW2 3045   5.855   6.018   0.226
  716SOL     OW 3046   1.270   0.019   0.738
  716SOL    HW1 3047   1.356   0.053   0.775
  716SOL    HW2 3048   1.200   0.090   0.744
  717SOL     OW 3049   5.799   4.384   6.171
  717SOL    HW1 3050   5.842   4.444   6.239
  717SOL    HW2 3051   5.798   4.429   6.082
  718SOL     OW 3052   4.645   2.072   6.094
  718SOL    HW1 3053   4.634   1.981   6.134
  718SOL    HW2 3054   4.681   2.135   6.162
  719SOL     OW 3055   6.751   1.895   1.358
  719SOL    HW1 3056   6.743   1.985   1.401
  719SOL    HW2 3057   6.664   1.847   1.363
  720SOL     OW 3058   3.732   0.541   6.498
  720SOL    HW1 3059   3.663   0.569   6.564
  720SOL    HW2 3060   3.707   0.452   6.459
  721SOL     OW 3061   2.220   0.723   4.279
  721SOL    HW1 3062   2.167   0.789   4.226
  721SOL    HW2 3063   2.249   0.648   4.220
  722SOL     OW 3064   2.799   0.388   4.293
  722SOL    HW1 3065   2.767   0.327   4.221
  722SOL    HW2 3066   2.725   0.450   4.320
  723SOL     OW 3067   2.075   3.530   3.002
  723SOL    HW1 3068   2.099   3.626   3.017
  723SOL    HW2 3069   2.024   3.497   3.081
  724SOL     OW 3070   1.242   2.965   4.599
  724SOL    HW1 3071   1.240   3.025   4.519
  724SOL    HW2 3072   1.320   2.989   4.657
  725SOL     OW 3073   3.793   5.972   0.731
  725SOL    HW1 3074   3.872   6.024   0.764
  725SOL    HW2 3075   3.709   6.020   0.754
  726SOL     OW 3076   4.413   4.753   0.687
  726SOL    HW1 3077   4.476   4.793   0.620
  726SOL    HW2 3078   4.382   4.663   0.653
  727SOL     OW 3079   5.460   5.408   6.291
  727SOL    HW1 3080   5.401   5.359   6.355
  727SOL    HW2 3081   5.471   5.503   6.321
  728SOL     OW 3082   6.532   3.721   4.963
  728SOL    HW1 3083   6.600   3.724   5.036
  728SOL    HW2 3084   6.455   3.664   4.991
  729SOL     OW 3085   1.011   1.740   0.229
  729SOL    HW1 3086   1.011   1.653   0.278
  729SOL    HW2 3087   0.997   1.723   0.131
  730SOL     OW 3088   5.639   1.717   2.977
  730SOL    HW1 3089   5.606   1.811   2.978
  730SOL    HW2 3090   5.701   1.704   2.899
  731SOL     OW 3091   5.620   4.050   5.554
  731SOL    HW1 3092   5.628   4.017   5.648
  731SOL    HW2 3093   5.709   4.041   5.508
  732SOL     OW 3094   0.723   2.788   0.954
  732SOL    HW1 3095   0.810   2.802   1.000
  732SOL    HW2 3096   0.648   2.792   1.020
  733SOL     OW 3097   5.832   6.088   5.580
  733SOL    HW1 3098   5.801   6.018   5.644
  733SOL    HW2 3099   5.773   6.089   5.499
  734SOL     OW 3100   6.684   4.595   2.399
  734SOL    HW1 3101   6.587   4.578   2.417
  734SOL    HW2 3102   6.704   4.692   2.412
  735SOL     OW 3103   3.887   2.773   0.483
  735SOL    HW1 3104   3.912   2.681   0.452
  735SOL    HW2 3105   3.970   2.826   0.502
  736SOL     OW 3106   0.201   0.382   2.715
  736SOL    HW1 3107   0.255   0.396   2.797
  736SOL    HW2 3108   0.240   0.306   2.662
  737SOL     OW 3109   4.983   2.541   5.789
  737SOL    HW1 3110   4.947   2.516   5.879
  737SOL    HW2 3111   4.949   2.477   5.720
  738SOL     OW 3112   1.838   3.974   2.155
  738SOL    HW1 3113   1.777   3.959   2.077
  738SOL    HW2 3114   1.844   4.072   2.174
  739SOL     OW 3115   4.012   0.110   4.378
  739SOL    HW1 3116   3.958   0.106   4.463
  739SOL    HW2 3117   3.974   0.046   4.312
  740SOL     OW 3118   4.723   0.530   0.750
  740SOL    HW1 3119   4.636   0.480   0.748
  740SOL    HW2 3120   4.706   0.626   0.773
  741SOL     OW 3121   2.236   6.800   3.388
  741SOL    HW1 3122   2.159   6.856   3.357
  741SOL    HW2 3123   2.312   6.810   3.324
  742SOL     OW 3124   2.040   6.189   1.641
  742SOL    HW1 3125   1.940   6.183   1.647
  742SOL    HW2 3126   2.068   6.285   1.648
  743SOL     OW 3127   0.649   4.127   4.460
  743SOL    HW1 3128   0.596   4.055   4.506
  743SOL    HW2 3129   0.737   4.089   4.432
  744SOL     OW 3130   5.612   0.197   6.589
  744SOL    HW1 3131   5.612   0.205   6.689
  744SOL    HW2 3132   5.693   0.145   6.560
  745SOL     OW 3133   0.933   5.249   4.786
  745SOL    HW1 3134   0.849   5.257   4.731
  745SOL    HW2 3135   0.917   5.290   4.876
  746SOL     OW 3136   0.345   5.363   6.306
  746SOL    HW1 3137   0.302   5.284   6.350
  746SOL    HW2 3138   0.323   5.363   6.208
  747SOL     OW 3139   3.994   6.587   4.838
  747SOL    HW1 3140   3.921   6.533   4.796
  747SOL    HW2 3141   3.958   6.633   4.919
  748SOL     OW 3142   3.746   5.111   2.335
  748SOL    HW1 3143   3.685   5.031   2.334
  748SOL    HW2 3144   3.706   5.182   2.393
  749SOL     OW 3145   6.180   4.597   5.389
  749SOL    HW1 3146   6.248   4.635   5.452
  749SOL    HW2 3147   6.107   4.553   5.440
  750SOL     OW 3148   2.105   2.188   0.884
  750SOL    HW1 3149   2.200   2.186   0.914
  750SOL    HW2 3150   2.096   2.137   0.798
  751SOL     OW 3151   3.978   2.341   6.176
  751SOL    HW1 3152   3.997   2.405   6.102
  751SOL    HW2 3153   4.059   2.286   6.194
  752SOL     OW 3154   3.666   1.378   2.497
  752SOL    HW1 3155   3.673   1.453   2.431
  752SOL    HW2 3156   3.735   1.308   2.475
  753SOL     OW 3157   2.079   3.375   4.712
  753SOL    HW1 3158   2.107   3.433   4.788
  753SOL    HW2 3159   2.041   3.431   4.639
  754SOL     OW 3160   5.616   2.941   5.719
  754SOL    HW1 3161   5.658   2.890   5.793
  754SOL    HW2 3162   5.673   2.934   5.637
  755SOL     OW 3163   1.520   4.392   5.740
  755SOL    HW1 3164   1.488   4.462   5.802
  755SOL    HW2 3165   1.585   4.432   5.675
  756SOL     OW 3166   3.518   0.419   1.330
  756SOL    HW1 3167   3.486   0.418   1.235
  756SOL    HW2 3168   3.617   0.409   1.332
  757SOL     OW 3169   0.898   6.924   3.891
  757SOL    HW1 3170   0.973   6.869   3.927
  757SOL    HW2 3171   0.906   7.018   3.925
  758SOL     OW 3172   3.653   0.112   2.189
  758SOL    HW1 3173   3.602   0.135   2.105
  758SOL    HW2 3174   3.745   0.082   2.165
  759SOL     OW 3175   1.177   0.973   1.102
  759SOL    HW1 3176   1.194   0.881   1.068
  759SOL    HW2 3177   1.083   0.979   1.136
  760SOL     OW 3178   5.146   0.447   5.607
  760SOL    HW1 3179   5.064   0.453   5.664
  760SOL    HW2 3180   5.125   0.394   5.524
  761SOL     OW 3181   5.590   3.226   5.582
  761SOL    HW1 3182   5.497   3.231   5.618
  761SOL    HW2 3183   5.606   3.135   5.543
  762SOL     OW 3184   2.713   0.777   4.816
  762SOL    HW1 3185   2.804   0.774   4.855
  762SOL    HW2 3186   2.676   0.684   4.807
  763SOL     OW 3187   4.077   4.722   6.767
  763SOL    HW1 3188   4.013   4.645   6.769
  763SOL    HW2 3189   4.164   4.692   6.727
  764SOL     OW 3190   5.104   1.322   4.667
  764SOL    HW1 3191   5.070   1.410   4.633
  764SOL    HW2 3192   5.032   1.278   4.721
  765SOL     OW 3193   1.223   6.276   1.317
  765SOL    HW1 3194   1.297   6.211   1.332
  765SOL    HW2 3195   1.151   6.262   1.386
  766SOL     OW 3196   2.226   3.814   6.810
  766SOL    HW1 3197   2.150   3.879   6.821
  766SOL    HW2 3198   2.310   3.865   6.794
  767SOL     OW 3199   6.179   6.117   2.066
  767SOL    HW1 3200   6.094   6.079   2.102
  767SOL    HW2 3201   6.236   6.150   2.141
  768SOL     OW 3202   1.883   6.469   1.549
  768SOL    HW1 3203   1.826   6.409   1.605
  768SOL    HW2 3204   1.968   6.421   1.526
  769SOL     OW 3205   3.153   0.593   4.211
  769SOL    HW1 3206   3.097   0.663   4.167
  769SOL    HW2 3207   3.175   0.621   4.304
  770SOL     OW 3208   2.166   3.819   3.084
  770SOL    HW1 3209   2.099   3.878   3.129
  770SOL    HW2 3210   2.196   3.862   2.998
  771SOL     OW 3211   2.144   5.569   2.605
  771SOL    HW1 3212   2.065   5.628   2.621
  771SOL    HW2 3213   2.201   5.566   2.687
  772SOL     OW 3214   5.277   5.048   0.756
  772SOL    HW1 3215   5.314   4.962   0.790
  772SOL    HW2 3216   5.186   5.063   0.796
  773SOL     OW 3217   0.361   3.804   4.458
  773SOL    HW1 3218   0.411   3.824   4.374
  773SOL    HW2 3219   0.327   3.710   4.456
  774SOL     OW 3220   1.637   1.818   1.424
  774SOL    HW1 3221   1.623   1.792   1.329
  774SOL    HW2 3222   1.563   1.879   1.453
  775SOL     OW 3223   0.570   2.506   2.592
  775SOL    HW1 3224   0.496   2.459   2.545
  775SOL    HW2 3225   0.543   2.524   2.687
  776SOL     OW 3226   0.819   6.761   6.039
  776SOL    HW1 3227   0.858   6.740   5.950
  776SOL    HW2 3228   0.794   6.858   6.043
  777SOL     OW 3229   2.934   5.185   1.025
  777SOL    HW1 3230   2.921   5.264   0.964
  777SOL    HW2 3231   2.918   5.213   1.119
  778SOL     OW 3232   3.298   1.425   2.940
  778SOL    HW1 3233   3.302   1.365   2.860
  778SOL    HW2 3234   3.386   1.470   2.953
  779SOL     OW 3235   0.710   2.885   2.610
  779SOL    HW1 3236   0.751   2.976   2.606
  779SOL    HW2 3237   0.695   2.859   2.705
  780SOL     OW 3238   6.219   3.884   3.461
  780SOL    HW1 3239   6.229   3.787   3.485
  780SOL    HW2 3240   6.144   3.895   3.396
  781SOL     OW 3241   5.744   0.758   0.457
  781SOL    HW1 3242   5.736   0.781   0.554
  781SOL    HW2 3243   5.659   0.714   0.427
  782SOL     OW 3244   1.508   3.929   6.647
  782SOL    HW1 3245   1.415   3.962   6.633
  782SOL    HW2 3246   1.515   3.835   6.614
  783SOL     OW 3247   3.879   5.060   1.229
  783SOL    HW1 3248   3.798   5.020   1.186
  783SOL    HW2 3249   3.856   5.148   1.270
  784SOL     OW 3250   5.159   6.657   0.179
  784SOL    HW1 3251   5.207   6.667   0.267
  784SOL    HW2 3252   5.173   6.739   0.124
  785SOL     OW 3253   0.450   2.997   2.819
  785SOL    HW1 3254   0.484   3.073   2.874
  785SOL    HW2 3255   0.381   2.946   2.870
  786SOL     OW 3256   1.281   0.931   1.374
  786SOL    HW1 3257   1.311   1.007   1.432
  786SOL    HW2 3258   1.245   0.967   1.288
  787SOL     OW 3259   3.246   0.084   6.829
  787SOL    HW1 3260   3.175   0.151   6.848
  787SOL    HW2 3261   3.233   0.047   6.737
  788SOL     OW 3262   3.896   3.298   5.293
  788SOL    HW1 3263   3.906   3.302   5.193
  788SOL    HW2 3264   3.870   3.205   5.320
  789SOL     OW 3265   5.550   4.079   0.604
  789SOL    HW1 3266   5.480   4.027   0.654
  789SOL    HW2 3267   5.517   4.173   0.590
  790SOL     OW 3268   1.712   1.623   4.284
  790SOL    HW1 3269   1.727   1.601   4.380
  790SOL    HW2 3270   1.749   1.714   4.265
  791SOL     OW 3271   3.365   5.238   4.147
  791SOL    HW1 3272   3.293   5.169   4.136
  791SOL    HW2 3273   3.330   5.314   4.202
  792SOL     OW 3274   0.830   0.048   1.815
  792SOL    HW1 3275   0.820   6.982   1.860
  792SOL    HW2 3276   0.836   0.035   1.716
  793SOL     OW 3277   4.859   5.345   3.788
  793SOL    HW1 3278   4.957   5.330   3.770
  793SOL    HW2 3279   4.848   5.385   3.879
  794SOL     OW 3280   3.163   3.561   5.081
  794SOL    HW1 3281   3.064   3.551   5.085
  794SOL    HW2 3282   3.201   3.553   5.173
  795SOL     OW 3283   3.715   6.074   4.434
  795SOL    HW1 3284   3.783   6.137   4.398
  795SOL    HW2 3285   3.688   6.010   4.363
  796SOL     OW 3286   1.312   1.814   6.352
  796SOL    HW1 3287   1.391   1.874   6.338
  796SOL    HW2 3288   1.230   1.859   6.316
  797SOL     OW 3289   5.089   2.566   1.493
  797SOL    HW1 3290   5.072   2.553   1.396
  797SOL    HW2 3291   5.179   2.609   1.506
  798SOL     OW 3292   4.605   0.374   2.112
  798SOL    HW1 3293   4.581   0.353   2.207
  798SOL    HW2 3294   4.645   0.466   2.108
  799SOL     OW 3295   6.191   0.728   5.683
  799SOL    HW1 3296   6.235   0.799   5.737
  799SOL    HW2 3297   6.137   0.668   5.742
  800SOL     OW 3298   5.174   1.958   2.742
  800SOL    HW1 3299   5.200   1.932   2.835
  800SOL    HW2 3300   5.103   2.029   2.747
  801SOL     OW 3301   1.691   3.374   4.487
  801SOL    HW1 3302   1.641   3.456   4.514
  801SOL    HW2 3303   1.748   3.395   4.408
  802SOL     OW 3304   4.554   0.995   0.412
  802SOL    HW1 3305   4.467   1.028   0.448
  802SOL    HW2 3306   4.560   1.017   0.315
  803SOL     OW 3307   6.923   6.833   5.460
  803SOL    HW1 3308   6.981   6.852   5.539
  803SOL    HW2 3309   6.857   6.908   5.448
  804SOL     OW 3310   5.559   5.449   6.661
  804SOL    HW1 3311   5.466   5.456   6.625
  804SOL    HW2 3312   5.624   5.452   6.585
  805SOL     OW 3313   3.232   1.307   5.476
  805SOL    HW1 3314   3.184   1.392   5.453
  805SOL    HW2 3315   3.168   1.242   5.517
  806SOL     OW 3316   5.364   1.462   4.129
  806SOL    HW1 3317   5.359   1.555   4.164
  806SOL    HW2 3318   5.339   1.462   4.032
  807SOL     OW 3319   0.852   1.969   5.026
  807SOL    HW1 3320   0.872   2.038   4.957
  807SOL    HW2 3321   0.779   1.909   4.994
  808SOL     OW 3322   4.595   3.050   6.039
  808SOL    HW1 3323   4.565   3.144   6.049
  808SOL    HW2 3324   4.596   3.005   6.128
  809SOL     OW 3325   0.197   5.630   2.111
  809SOL    HW1 3326   0.159   5.721   2.094
  809SOL    HW2 3327   0.126   5.561   2.097
  810SOL     OW 3328   3.454   3.328   1.098
  810SOL    HW1 3329   3.413   3.285   1.018
  810SOL    HW2 3330   3.536   3.379   1.071
  811SOL     OW 3331   3.662   5.787   5.404
  811SOL    HW1 3332   3.668   5.688   5.419
  811SOL    HW2 3333   3.745   5.831   5.439
  812SOL     OW 3334   0.422   1.502   1.712
  812SOL    HW1 3335   0.338   1.534   1.756
  812SOL    HW2 3336   0.492   1.486   1.781
  813SOL     OW 3337   3.360   6.375   5.523
  813SOL    HW1 3338   3.317   6.323   5.449
  813SOL    HW2 3339   3.375   6.470   5.494
  814SOL     OW 3340   5.850   6.589   2.625
  814SOL    HW1 3341   5.775   6.546   2.675
  814SOL    HW2 3342   5.816   6.671   2.578
  815SOL     OW 3343   0.318   4.131   3.015
  815SOL    HW1 3344   0.331   4.230   3.010
  815SOL    HW2 3345   0.331   4.091   2.925
  816SOL     OW 3346   6.047   6.626   0.235
  816SOL    HW1 3347   6.041   6.616   0.136
  816SOL    HW2 3348   5.967   6.675   0.268
  817SOL     OW 3349   1.926   3.436   1.544
  817SOL    HW1 3350   1.850   3.406   1.602
  817SOL    HW2 3351   2.012   3.431   1.596
  818SOL     OW 3352   6.278   2.623   1.807
  818SOL    HW1 3353   6.299   2.570   1.889
  818SOL    HW2 3354   6.258   2.717   1.832
  819SOL     OW 3355   5.848   2.877   2.858
  819SOL    HW1 3356   5.946   2.879   2.873
  819SOL    HW2 3357   5.802   2.920   2.936
  820SOL     OW 3358   2.890   3.042   5.731
  820SOL    HW1 3359   2.802   2.995   5.722
  820SOL    HW2 3360   2.961   2.975   5.755
  821SOL     OW 3361   1.289   4.026   0.939
  821SOL    HW1 3362   1.360   4.009   1.008
  821SOL    HW2 3363   1.320   4.098   0.877
  822SOL     OW 3364   1.790   4.251   4.928
  822SOL    HW1 3365   1.870   4.224   4.982
  822SOL    HW2 3366   1.802   4.345   4.896
  823SOL     OW 3367   5.289   4.436   6.482
  823SOL    HW1 3368   5.360   4.415   6.415
  823SOL    HW2 3369   5.209   4.379   6.464
  824SOL     OW 3370   5.654   1.236   5.275
  824SOL    HW1 3371   5.608   1.292   5.206
  824SOL    HW2 3372   5.647   1.281   5.364
  825SOL     OW 3373   1.261   4.245   1.423
  825SOL    HW1 3374   1.282   4.225   1.327
  825SOL    HW2 3375   1.178   4.301   1.428
  826SOL     OW 3376   5.299   3.025   5.182
  826SOL    HW1 3377   5.395   3.030   5.211
  826SOL    HW2 3378   5.239   3.032   5.261
  827SOL     OW 3379   3.677   4.194   5.743
  827SOL    HW1 3380   3.605   4.185   5.812
  827SOL    HW2 3381   3.635   4.217   5.655
  828SOL     OW 3382   5.106   6.750   6.473
  828SOL    HW1 3383   5.063   6.823   6.420
  828SOL    HW2 3384   5.035   6.698   6.521
  829SOL     OW 3385   2.915   3.281   3.383
  829SOL    HW1 3386   2.937   3.234   3.468
  829SOL    HW2 3387   2.938   3.378   3.391
  830SOL     OW 3388   4.367   4.202   6.602
  830SOL    HW1 3389   4.451   4.256   6.608
  830SOL    HW2 3390   4.291   4.253   6.641
  831SOL     OW 3391   5.343   0.925   6.626
  831SOL    HW1 3392   5.408   0.941   6.701
  831SOL    HW2 3393   5.353   0.831   6.594
  832SOL     OW 3394   3.068   0.688   2.004
  832SOL    HW1 3395   3.147   0.645   1.961
  832SOL    HW2 3396   3.047   0.642   2.090
  833SOL     OW 3397   0.253   3.928   5.614
  833SOL    HW1 3398   0.347   3.923   5.580
  833SOL    HW2 3399   0.245   3.872   5.696
  834SOL     OW 3400   3.280   3.970   1.029
  834SOL    HW1 3401   3.205   4.016   0.982
  834SOL    HW2 3402   3.339   3.925   0.961
  835SOL     OW 3403   3.500   0.203   4.711
  835SOL    HW1 3404   3.425   0.223   4.774
  835SOL    HW2 3405   3.540   0.114   4.732
  836SOL     OW 3406   3.880   6.393   6.934
  836SOL    HW1 3407   3.891   6.490   6.913
  836SOL    HW2 3408   3.941   6.340   6.875
  837SOL     OW 3409   5.449   6.714   0.306
  837SOL    HW1 3410   5.512   6.751   0.238
  837SOL    HW2 3411   5.467   6.616   0.318
  838SOL     OW 3412   1.822   0.433   4.525
  838SOL    HW1 3413   1.890   0.366   4.551
  838SOL    HW2 3414   1.841   0.520   4.571
  839SOL     OW 3415   2.635   2.235   1.978
  839SOL    HW1 3416   2.591   2.312   1.932
  839SOL    HW2 3417   2.725   2.264   2.011
  840SOL     OW 3418   5.708   6.803   6.832
  840SOL    HW1 3419   5.610   6.784   6.827
  840SOL    HW2 3420   5.757   6.741   6.770
  841SOL     OW 3421   4.590   5.002   0.050
  841SOL    HW1 3422   4.583   5.011   0.150
  841SOL    HW2 3423   4.510   4.954   0.015
  842SOL     OW 3424   3.983   6.267   4.986
  842SOL    HW1 3425   3.992   6.231   4.894
  842SOL    HW2 3426   3.934   6.201   5.043
  843SOL     OW 3427   1.826   1.518   0.922
  843SOL    HW1 3428   1.800   1.612   0.944
  843SOL    HW2 3429   1.921   1.503   0.948
  844SOL     OW 3430   6.123   0.654   0.804
  844SOL    HW1 3431   6.115   0.753   0.798
  844SOL    HW2 3432   6.207   0.631   0.854
  845SOL     OW 3433   5.588   4.233   5.095
  845SOL    HW1 3434   5.609   4.137   5.074
  845SOL    HW2 3435   5.652   4.292   5.045
  846SOL     OW 3436   2.350   1.937   6.841
  846SOL    HW1 3437   2.256   1.904   6.847
  846SOL    HW2 3438   2.411   1.861   6.817
  847SOL     OW 3439   1.327   3.279   0.835
  847SOL    HW1 3440   1.349   3.187   0.804
  847SOL    HW2 3441   1.241   3.309   0.794
  848SOL     OW 3442   5.915   0.766   6.448
  848SOL    HW1 3443   5.893   0.713   6.530
  848SOL    HW2 3444   5.881   0.718   6.367
  849SOL     OW 3445   0.440   4.874   6.011
  849SOL    HW1 3446   0.391   4.950   5.968
  849SOL    HW2 3447   0.485   4.906   6.094
  850SOL     OW 3448   5.501   1.123   4.016
  850SOL    HW1 3449   5.516   1.175   4.100
  850SOL    HW2 3450   5.584   1.127   3.959
  851SOL     OW 3451   0.584   1.682   2.344
  851SOL    HW1 3452   0.516   1.650   2.410
  851SOL    HW2 3453   0.588   1.782   2.346
  852SOL     OW 3454   1.286   2.340   0.284
  852SOL    HW1 3455   1.299   2.252   0.331
  852SOL    HW2 3456   1.374   2.373   0.252
  853SOL     OW 3457   1.841   4.222   2.449
  853SOL    HW1 3458   1.827   4.270   2.362
  853SOL    HW2 3459   1.836   4.287   2.524
  854SOL     OW 3460   4.616   6.352   1.792
  854SOL    HW1 3461   4.686   6.413   1.755
  854SOL    HW2 3462   4.526   6.391   1.773
  855SOL     OW 3463   0.446   0.434   1.735
  855SOL    HW1 3464   0.388   0.403   1.810
  855SOL    HW2 3465   0.471   0.530   1.750
  856SOL     OW 3466   1.397   1.609   5.299
  856SOL    HW1 3467   1.377   1.516   5.270
  856SOL    HW2 3468   1.340   1.673   5.248
  857SOL     OW 3469   6.063   4.559   2.410
  857SOL    HW1 3470   5.977   4.510   2.398
  857SOL    HW2 3471   6.114   4.559   2.323
  858SOL     OW 3472   2.978   4.096   1.192
  858SOL    HW1 3473   2.911   4.169   1.174
  858SOL    HW2 3474   2.929   4.014   1.222
  859SOL     OW 3475   4.819   5.601   6.106
  859SOL    HW1 3476   4.917   5.619   6.116
  859SOL    HW2 3477   4.772   5.686   6.082
  860SOL     OW 3478   4.234   4.040   0.973
  860SOL    HW1 3479   4.221   4.135   0.945
  860SOL    HW2 3480   4.331   4.015   0.962
  861SOL     OW 3481   2.606   0.293   3.713
  861SOL    HW1 3482   2.641   0.202   3.735
  861SOL    HW2 3483   2.509   0.297   3.735
  862SOL     OW 3484   0.232   4.273   6.045
  862SOL    HW1 3485   0.263   4.257   6.139
  862SOL    HW2 3486   0.311   4.292   5.987
  863SOL     OW 3487   0.292   0.353   0.441
  863SOL    HW1 3488   0.198   0.322   0.454
  863SOL    HW2 3489   0.343   0.342   0.526
  864SOL     OW 3490   4.478   4.867   3.295
  864SOL    HW1 3491   4.411   4.911   3.236
  864SOL    HW2 3492   4.432   4.823   3.372
  865SOL     OW 3493   1.542   6.170   6.167
  865SOL    HW1 3494   1.632   6.214   6.158
  865SOL    HW2 3495   1.501   6.197   6.254
  866SOL     OW 3496   1.512   2.047   2.208
  866SOL    HW1 3497   1.475   2.063   2.116
  866SOL    HW2 3498   1.448   2.082   2.276
  867SOL     OW 3499   3.640   3.136   0.509
  867SOL    HW1 3500   3.562   3.194   0.483
  867SOL    HW2 3501   3.626   3.100   0.601
  868SOL     OW 3502   5.946   6.955   0.865
  868SOL    HW1 3503   5.959   0.019   0.913
  868SOL    HW2 3504   6.018   6.891   0.892
  869SOL     OW 3505   6.298   5.768   2.853
  869SOL    HW1 3506   6.254   5.718   2.927
  869SOL    HW2 3507   6.377   5.818   2.889
  870SOL     OW 3508   4.779   3.296   1.165
  870SOL    HW1 3509   4.706   3.325   1.227
  870SOL    HW2 3510   4.833   3.224   1.209
  871SOL     OW 3511   4.975   3.474   2.784
  871SOL    HW1 3512   4.912   3.397   2.788
  871SOL    HW2 3513   4.987   3.512   2.876
  872SOL     OW 3514   5.546   4.475   3.721
  872SOL    HW1 3515   5.583   4.391   3.681
  872SOL    HW2 3516   5.571   4.480   3.817
  873SOL     OW 3517   5.948   6.421   4.185
  873SOL    HW1 3518   5.897   6.505   4.204
  873SOL    HW2 3519   6.004   6.397   4.265
  874SOL     OW 3520   0.915   4.717   5.791
  874SOL    HW1 3521   0.879   4.806   5.763
  874SOL    HW2 3522   0.842   4.648   5.785
  875SOL     OW 3523   3.667   2.700   0.624
  875SOL    HW1 3524   3.743   2.741   0.573
  875SOL    HW2 3525   3.664   2.739   0.716
  876SOL     OW 3526   0.884   5.696   3.037
  876SOL    HW1 3527   0.946   5.648   2.975
  876SOL    HW2 3528   0.795   5.709   2.992
  877SOL     OW 3529   4.251   3.323   6.797
  877SOL    HW1 3530   4.183   3.314   6.724
  877SOL    HW2 3531   4.267   3.419   6.816
  878SOL     OW 3532   4.466   5.702   5.626
  878SOL    HW1 3533   4.409   5.637   5.677
  878SOL    HW2 3534   4.422   5.791   5.624
  879SOL     OW 3535   3.097   2.134   2.094
  879SOL    HW1 3536   3.122   2.074   2.017
  879SOL    HW2 3537   3.017   2.189   2.068
  880SOL     OW 3538   3.124   3.811   5.804
  880SOL    HW1 3539   3.071   3.790   5.722
  880SOL    HW2 3540   3.134   3.728   5.858
  881SOL     OW 3541   4.599   4.294   5.414
  881SOL    HW1 3542   4.661   4.354   5.364
  881SOL    HW2 3543   4.505   4.309   5.383
  882SOL     OW 3544   1.353   1.663   4.148
  882SOL    HW1 3545   1.325   1.596   4.079
  882SOL    HW2 3546   1.426   1.721   4.111
  883SOL     OW 3547   4.755   5.061   6.086
  883SOL    HW1 3548   4.803   5.029   6.004
  883SOL    HW2 3549   4.661   5.028   6.084
  884SOL     OW 3550   0.015   4.021   0.447
  884SOL    HW1 3551   7.001   4.110   0.423
  884SOL    HW2 3552   7.017   3.955   0.374
  885SOL     OW 3553   5.445   5.849   6.714
  885SOL    HW1 3554   5.355   5.827   6.752
  885SOL    HW2 3555   5.470   5.779   6.647
  886SOL     OW 3556   3.498   0.228   0.883
  886SOL    HW1 3557   3.580   0.276   0.852
  886SOL    HW2 3558   3.456   0.181   0.806
  887SOL     OW 3559   4.186   6.789   4.203
  887SOL    HW1 3560   4.270   6.797   4.149
  887SOL    HW2 3561   4.209   6.798   4.300
  888SOL     OW 3562   6.156   6.003   2.951
  888SOL    HW1 3563   6.072   5.951   2.936
  888SOL    HW2 3564   6.134   6.091   2.992
  889SOL     OW 3565   1.662   6.408   5.533
  889SOL    HW1 3566   1.654   6.312   5.562
  889SOL    HW2 3567   1.682   6.465   5.613
  890SOL     OW 3568   2.132   4.977   2.052
  890SOL    HW1 3569   2.117   4.897   2.110
  890SOL    HW2 3570   2.095   5.059   2.096
  891SOL     OW 3571   6.627   4.159   1.207
  891SOL    HW1 3572   6.628   4.061   1.224
  891SOL    HW2 3573   6.624   4.176   1.109
  892SOL     OW 3574   4.049   3.595   6.626
  892SOL    HW1 3575   4.116   3.637   6.688
  892SOL    HW2 3576   4.002   3.666   6.575
  893SOL     OW 3577   1.942   0.986   2.875
  893SOL    HW1 3578   2.011   0.981   2.947
  893SOL    HW2 3579   1.955   1.070   2.822
  894SOL     OW 3580   1.214   2.442   3.916
  894SOL    HW1 3581   1.161   2.389   3.850
  894SOL    HW2 3582   1.255   2.521   3.870
  895SOL     OW 3583   1.198   5.712   4.586
  895SOL    HW1 3584   1.158   5.622   4.604
  895SOL    HW2 3585   1.298   5.704   4.588
  896SOL     OW 3586   5.513   0.099   1.973
  896SOL    HW1 3587   5.514   0.049   2.059
  896SOL    HW2 3588   5.552   0.043   1.901
  897SOL     OW 3589   5.055   0.853   0.465
  897SOL    HW1 3590   4.968   0.884   0.505
  897SOL    HW2 3591   5.096   0.928   0.413
  898SOL     OW 3592   4.139   5.328   3.119
  898SOL    HW1 3593   4.044   5.357   3.131
  898SOL    HW2 3594   4.142   5.254   3.052
  899SOL     OW 3595   6.968   4.753   0.136
  899SOL    HW1 3596   0.030   4.771   0.085
  899SOL    HW2 3597   6.985   4.682   0.204
  900SOL     OW 3598   4.992   6.121   1.732
  900SOL    HW1 3599   4.905   6.072   1.737
  900SOL    HW2 3600   4.990   6.186   1.656
  901SOL     OW 3601   0.878   0.953   5.696
  901SOL    HW1 3602   0.811   0.952   5.770
  901SOL    HW2 3603   0.918   1.044   5.688
  902SOL     OW 3604   0.421   2.303   6.668
  902SOL    HW1 3605   0.387   2.336   6.580
  902SOL    HW2 3606   0.519   2.283   6.660
  903SOL     OW 3607   6.953   3.515   6.293
  903SOL    HW1 3608   6.876   3.453   6.278
  903SOL    HW2 3609   0.015   3.462   6.296
  904SOL     OW 3610   1.437   2.596   4.111
  904SOL    HW1 3611   1.441   2.505   4.070
  904SOL    HW2 3612   1.526   2.641   4.101
  905SOL     OW 3613   4.637   3.461   6.367
  905SOL    HW1 3614   4.723   3.486   6.322
  905SOL    HW2 3615   4.568   3.439   6.298
  906SOL     OW 3616   0.871   3.687   5.846
  906SOL    HW1 3617   0.823   3.715   5.929
  906SOL    HW2 3618   0.958   3.645   5.871
  907SOL     OW 3619   5.901   3.197   2.955
  907SOL    HW1 3620   5.995   3.170   2.973
  907SOL    HW2 3621   5.841   3.117   2.957
  908SOL     OW 3622   1.984   6.509   3.399
  908SOL    HW1 3623   2.014   6.546   3.487
  908SOL    HW2 3624   2.058   6.457   3.358
  909SOL     OW 3625   2.213   6.557   1.911
  909SOL    HW1 3626   2.311   6.561   1.891
  909SOL    HW2 3627   2.168   6.499   1.843
  910SOL     OW 3628   2.587   0.458   0.783
  910SOL    HW1 3629   2.545   0.406   0.709
  910SOL    HW2 3630   2.568   0.555   0.772
  911SOL     OW 3631   0.101   5.646   1.290
  911SOL    HW1 3632   0.112   5.587   1.369
  911SOL    HW2 3633   0.064   5.593   1.213
  912SOL     OW 3634   6.603   0.937   4.691
  912SOL    HW1 3635   6.510   0.959   4.661
  912SOL    HW2 3636   6.642   1.014   4.741
  913SOL     OW 3637   2.241   0.418   3.038
  913SOL    HW1 3638   2.313   0.483   3.018
  913SOL    HW2 3639   2.162   0.437   2.979
  914SOL     OW 3640   2.834   5.700   4.850
  914SOL    HW1 3641   2.817   5.745   4.762
  914SOL    HW2 3642   2.923   5.655   4.849
  915SOL     OW 3643   1.656   2.965   0.177
  915SOL    HW1 3644   1.643   3.064   0.173
  915SOL    HW2 3645   1.728   2.943   0.242
  916SOL     OW 3646   1.643   2.793   1.738
  916SOL    HW1 3647   1.628   2.773   1.641
  916SOL    HW2 3648   1.710   2.728   1.775
  917SOL     OW 3649   5.392   0.429   1.460
  917SOL    HW1 3650   5.466   0.484   1.499
  917SOL    HW2 3651   5.430   0.349   1.415
  918SOL     OW 3652   2.587   6.583   6.617
  918SOL    HW1 3653   2.492   6.590   6.649
  918SOL    HW2 3654   2.621   6.490   6.632
  919SOL     OW 3655   6.586   5.745   2.045
  919SOL    HW1 3656   6.584   5.651   2.079
  919SOL    HW2 3657   6.522   5.801   2.097
  920SOL     OW 3658   1.479   6.311   3.374
  920SOL    HW1 3659   1.526   6.389   3.333
  920SOL    HW2 3660   1.504   6.304   3.471
  921SOL     OW 3661   4.611   4.336   3.914
  921SOL    HW1 3662   4.588   4.362   3.820
  921SOL    HW2 3663   4.546   4.377   3.977
  922SOL     OW 3664   3.486   2.920   6.113
  922SOL    HW1 3665   3.579   2.935   6.146
  922SOL    HW2 3666   3.429   2.882   6.187
  923SOL     OW 3667   2.956   4.538   6.434
  923SOL    HW1 3668   3.023   4.534   6.508
  923SOL    HW2 3669   2.992   4.591   6.358
  924SOL     OW 3670   6.391   2.545   2.241
  924SOL    HW1 3671   6.303   2.567   2.198
  924SOL    HW2 3672   6.388   2.452   2.278
  925SOL     OW 3673   6.940   1.878   5.924
  925SOL    HW1 3674   6.945   1.843   5.830
  925SOL    HW2 3675   0.008   1.873   5.966
  926SOL     OW 3676   6.243   0.954   0.142
  926SOL    HW1 3677   6.272   1.036   0.093
  926SOL    HW2 3678   6.279   0.956   0.235
  927SOL     OW 3679   5.304   4.562   3.662
  927SOL    HW1 3680   5.265   4.495   3.726
  927SOL    HW2 3681   5.397   4.535   3.638
  928SOL     OW 3682   1.749   6.785   0.307
  928SOL    HW1 3683   1.841   6.746   0.315
  928SOL    HW2 3684   1.729   6.839   0.389
  929SOL     OW 3685   0.687   1.302   0.570
  929SOL    HW1 3686   0.696   1.388   0.519
  929SOL    HW2 3687   0.616   1.312   0.639
  930SOL     OW 3688   5.485   5.839   4.954
  930SOL    HW1 3689   5.508   5.928   4.993
  930SOL    HW2 3690   5.543   5.768   4.994
  931SOL     OW 3691   5.734   3.793   2.662
  931SOL    HW1 3692   5.692   3.848   2.589
  931SOL    HW2 3693   5.804   3.848   2.708
  932SOL     OW 3694   2.532   7.001   2.461
  932SOL    HW1 3695   2.585   6.924   2.495
  932SOL    HW2 3696   2.448   6.967   2.417
  933SOL     OW 3697   0.633   5.802   2.934
  933SOL    HW1 3698   0.645   5.862   2.855
  933SOL    HW2 3699   0.537   5.771   2.938
  934SOL     OW 3700   1.787   0.924   5.016
  934SOL    HW1 3701   1.738   0.994   4.964
  934SOL    HW2 3702   1.767   0.834   4.977
  935SOL     OW 3703   5.027   3.390   5.405
  935SOL    HW1 3704   5.074   3.303   5.388
  935SOL    HW2 3705   5.025   3.444   5.321
  936SOL     OW 3706   1.502   0.905   6.112
  936SOL    HW1 3707   1.558   0.962   6.173
  936SOL    HW2 3708   1.410   0.896   6.150
  937SOL     OW 3709   4.744   1.504   4.718
  937SOL    HW1 3710   4.689   1.479   4.639
  937SOL    HW2 3711   4.693   1.569   4.775
  938SOL     OW 3712   0.601   5.330   6.509
  938SOL    HW1 3713   0.657   5.403   6.469
  938SOL    HW2 3714   0.527   5.371   6.562
  939SOL     OW 3715   4.467   1.443   5.079
  939SOL    HW1 3716   4.417   1.389   5.146
  939SOL    HW2 3717   4.565   1.428   5.090
  940SOL     OW 3718   0.764   3.554   2.581
  940SOL    HW1 3719   0.852   3.509   2.594
  940SOL    HW2 3720   0.691   3.499   2.621
  941SOL     OW 3721   6.437   0.693   3.850
  941SOL    HW1 3722   6.472   0.635   3.923
  941SOL    HW2 3723   6.463   0.655   3.762
  942SOL     OW 3724   4.901   0.563   4.099
  942SOL    HW1 3725   4.803   0.568   4.080
  942SOL    HW2 3726   4.952   0.562   4.012
  943SOL     OW 3727   1.229   3.336   3.711
  943SOL    HW1 3728   1.251   3.415   3.654
  943SOL    HW2 3729   1.157   3.362   3.777
  944SOL     OW 3730   6.506   3.649   5.706
  944SOL    HW1 3731   6.556   3.651   5.793
  944SOL    HW2 3732   6.515   3.559   5.664
  945SOL     OW 3733   6.601   4.098   5.582
  945SOL    HW1 3734   6.634   4.109   5.676
  945SOL    HW2 3735   6.622   4.181   5.530
  946SOL     OW 3736   4.826   2.730   5.922
  946SOL    HW1 3737   4.893   2.690   5.859
  946SOL    HW2 3738   4.867   2.806   5.972
  947SOL     OW 3739   3.421   3.227   4.427
  947SOL    HW1 3740   3.470   3.200   4.510
  947SOL    HW2 3741   3.425   3.152   4.361
  948SOL     OW 3742   3.987   0.207   0.541
  948SOL    HW1 3743   3.951   0.270   0.472
  948SOL    HW2 3744   3.915   0.183   0.606
  949SOL     OW 3745   0.211   6.045   6.271
  949SOL    HW1 3746   0.187   5.973   6.335
  949SOL    HW2 3747   0.291   6.018   6.217
  950SOL     OW 3748   4.132   5.083   1.662
  950SOL    HW1 3749   4.182   5.136   1.594
  950SOL    HW2 3750   4.143   4.986   1.643
  951SOL     OW 3751   1.427   1.167   2.603
  951SOL    HW1 3752   1.430   1.126   2.512
  951SOL    HW2 3753   1.507   1.137   2.655
  952SOL     OW 3754   6.006   1.693   2.515
  952SOL    HW1 3755   6.049   1.782   2.524
  952SOL    HW2 3756   5.929   1.699   2.450
  953SOL     OW 3757   5.193   6.162   5.323
  953SOL    HW1 3758   5.165   6.103   5.399
  953SOL    HW2 3759   5.265   6.116   5.271
  954SOL     OW 3760   4.975   5.425   0.494
  954SOL    HW1 3761   4.923   5.341   0.511
  954SOL    HW2 3762   5.057   5.403   0.441
  955SOL     OW 3763   0.202   5.107   3.578
  955SOL    HW1 3764   0.153   5.039   3.633
  955SOL    HW2 3765   0.258   5.061   3.509
  956SOL     OW 3766   0.640   2.234   2.540
  956SOL    HW1 3767   0.656   2.171   2.616
  956SOL    HW2 3768   0.619   2.325   2.577
  957SOL     OW 3769   1.082   5.026   4.593
  957SOL    HW1 3770   1.141   4.972   4.653
  957SOL    HW2 3771   1.005   5.062   4.645
  958SOL     OW 3772   4.553   2.498   2.001
  958SOL    HW1 3773   4.520   2.529   1.912
  958SOL    HW2 3774   4.645   2.533   2.017
  959SOL     OW 3775   2.754   4.994   3.280
  959SOL    HW1 3776   2.780   5.090   3.282
  959SOL    HW2 3777   2.660   4.983   3.313
  960SOL     OW 3778   6.905   5.804   3.519
  960SOL    HW1 3779   6.836   5.780   3.587
  960SOL    HW2 3780   6.910   5.732   3.450
  961SOL     OW 3781   5.056   0.204   3.476
  961SOL    HW1 3782   5.051   0.303   3.491
  961SOL    HW2 3783   4.978   0.160   3.520
  962SOL     OW 3784   1.390   1.069   3.948
  962SOL    HW1 3785   1.312   1.132   3.943
  962SOL    HW2 3786   1.475   1.122   3.951
  963SOL     OW 3787   6.245   1.655   6.092
  963SOL    HW1 3788   6.219   1.609   6.007
  963SOL    HW2 3789   6.235   1.754   6.080
  964SOL     OW 3790   6.031   4.329   0.750
  964SOL    HW1 3791   6.066   4.243   0.787
  964SOL    HW2 3792   6.082   4.353   0.667
  965SOL     OW 3793   5.341   1.727   1.263
  965SOL    HW1 3794   5.242   1.737   1.255
  965SOL    HW2 3795   5.381   1.813   1.294
  966SOL     OW 3796   5.820   2.141   2.318
  966SOL    HW1 3797   5.806   2.063   2.258
  966SOL    HW2 3798   5.813   2.226   2.265
  967SOL     OW 3799   2.559   5.051   1.560
  967SOL    HW1 3800   2.619   5.105   1.620
  967SOL    HW2 3801   2.558   5.093   1.469
  968SOL     OW 3802   4.166   2.252   2.525
  968SOL    HW1 3803   4.067   2.263   2.534
  968SOL    HW2 3804   4.187   2.217   2.434
  969SOL     OW 3805   3.737   5.935   6.496
  969SOL    HW1 3806   3.806   5.996   6.459
  969SOL    HW2 3807   3.654   5.987   6.517
  970SOL     OW 3808   4.753   1.339   5.163
  970SOL    HW1 3809   4.781   1.260   5.218
  970SOL    HW2 3810   4.813   1.348   5.084
  971SOL     OW 3811   0.123   1.929   3.040
  971SOL    HW1 3812   0.138   2.021   3.076
  971SOL    HW2 3813   0.182   1.914   2.961
  972SOL     OW 3814   5.536   4.251   1.522
  972SOL    HW1 3815   5.608   4.182   1.515
  972SOL    HW2 3816   5.456   4.222   1.469
  973SOL     OW 3817   6.954   4.425   0.098
  973SOL    HW1 3818   6.907   4.357   0.042
  973SOL    HW2 3819   7.007   4.486   0.039
  974SOL     OW 3820   5.458   0.343   1.871
  974SOL    HW1 3821   5.378   0.343   1.811
  974SOL    HW2 3822   5.472   0.252   1.909
  975SOL     OW 3823   1.885   5.773   6.563
  975SOL    HW1 3824   1.815   5.753   6.632
  975SOL    HW2 3825   1.841   5.785   6.474
  976SOL     OW 3826   6.642   3.096   2.471
  976SOL    HW1 3827   6.545   3.072   2.473
  976SOL    HW2 3828   6.686   3.065   2.555
  977SOL     OW 3829   1.676   0.831   3.657
  977SOL    HW1 3830   1.634   0.903   3.603
  977SOL    HW2 3831   1.641   0.742   3.627
  978SOL     OW 3832   4.448   4.198   5.680
  978SOL    HW1 3833   4.533   4.176   5.632
  978SOL    HW2 3834   4.374   4.140   5.646
  979SOL     OW 3835   6.883   2.322   1.032
  979SOL    HW1 3836   6.787   2.348   1.042
  979SOL    HW2 3837   6.938   2.376   1.096
  980SOL     OW 3838   3.847   1.956   4.021
  980SOL    HW1 3839   3.805   2.001   4.100
  980SOL    HW2 3840   3.858   2.022   3.947
  981SOL     OW 3841   1.532   1.643   5.539
  981SOL    HW1 3842   1.463   1.626   5.469
  981SOL    HW2 3843   1.620   1.664   5.494
  982SOL     OW 3844   2.825   1.905   3.472
  982SOL    HW1 3845   2.883   1.839   3.426
  982SOL    HW2 3846   2.845   1.907   3.570
  983SOL     OW 3847   5.592   2.016   4.231
  983SOL    HW1 3848   5.546   2.037   4.317
  983SOL    HW2 3849   5.542   2.060   4.156
  984SOL     OW 3850   2.849   1.324   3.880
  984SOL    HW1 3851   2.804   1.354   3.796
  984SOL    HW2 3852   2.947   1.342   3.873
  985SOL     OW 3853   4.816   4.870   6.526
  985SOL    HW1 3854   4.783   4.940   6.462
  985SOL    HW2 3855   4.821   4.782   6.480
  986SOL     OW 3856   5.401   3.886   0.401
  986SOL    HW1 3857   5.336   3.950   0.443
  986SOL    HW2 3858   5.376   3.793   0.426
  987SOL     OW 3859   4.470   6.760   1.887
  987SOL    HW1 3860   4.409   6.809   1.948
  987SOL    HW2 3861   4.504   6.677   1.932
  988SOL     OW 3862   3.535   2.849   2.701
  988SOL    HW1 3863   3.477   2.806   2.770
  988SOL    HW2 3864   3.478   2.890   2.630
  989SOL     OW 3865   6.025   1.083   5.664
  989SOL    HW1 3866   6.092   1.062   5.593
  989SOL    HW2 3867   5.956   1.145   5.628
  990SOL     OW 3868   4.548   0.692   2.119
  990SOL    HW1 3869   4.627   0.675   2.061
  990SOL    HW2 3870   4.536   0.790   2.133
  991SOL     OW 3871   1.585   2.350   5.218
  991SOL    HW1 3872   1.568   2.405   5.136
  991SOL    HW2 3873   1.670   2.379   5.261
  992SOL     OW 3874   0.031   2.951   1.780
  992SOL    HW1 3875   0.018   3.051   1.785
  992SOL    HW2 3876   0.114   2.926   1.829
  993SOL     OW 3877   1.200   4.631   1.746
  993SOL    HW1 3878   1.172   4.641   1.842
  993SOL    HW2 3879   1.125   4.591   1.694
  994SOL     OW 3880   3.383   4.150   2.546
  994SOL    HW1 3881   3.340   4.164   2.457
  994SOL    HW2 3882   3.476   4.115   2.533
  995SOL     OW 3883   3.665   2.581   6.153
  995SOL    HW1 3884   3.704   2.575   6.062
  995SOL    HW2 3885   3.674   2.492   6.199
  996SOL     OW 3886   1.498   4.527   4.420
  996SOL    HW1 3887   1.588   4.508   4.381
  996SOL    HW2 3888   1.497   4.620   4.458
  997SOL     OW 3889   0.375   0.872   2.498
  997SOL    HW1 3890   0.360   0.969   2.515
  997SOL    HW2 3891   0.456   0.842   2.548
  998SOL     OW 3892   3.789   6.221   4.693
  998SOL    HW1 3893   3.884   6.230   4.662
  998SOL    HW2 3894   3.737   6.170   4.624
  999SOL     OW 3895   5.253   4.758   2.024
  999SOL    HW1 3896   5.195   4.746   2.105
  999SOL    HW2 3897   5.266   4.856   2.007
 1000SOL     OW 3898   0.947   0.951   1.535
 1000SOL    HW1 3899   1.015   0.879   1.529
 1000SOL    HW2 3900   0.856   0.911   1.540
 1001SOL     OW 3901   5.719   6.836   0.807
 1001SOL    HW1 3902   5.717   6.751   0.860
 1001SOL    HW2 3903   5.805   6.884   0.825
 1002SOL     OW 3904   6.277   1.944   0.053
 1002SOL    HW1 3905   6.303   1.867   7.018
 1002SOL    HW2 3906   6.357   2.000   0.072
 1003SOL     OW 3907   2.142   5.967   1.867
 1003SOL    HW1 3908   2.062   6.010   1.825
 1003SOL    HW2 3909   2.113   5.916   1.948
 1004SOL     OW 3910   0.321   0.244   1.540
 1004SOL    HW1 3911   0.357   0.317   1.599
 1004SOL    HW2 3912   0.271   0.284   1.464
 1005SOL     OW 3913   0.798   2.270   3.142
 1005SOL    HW1 3914   0.830   2.282   3.236
 1005SOL    HW2 3915   0.859   2.319   3.079
 1006SOL     OW 3916   1.263   4.728   0.892
 1006SOL    HW1 3917   1.211   4.698   0.972
 1006SOL    HW2 3918   1.349   4.677   0.888
 1007SOL     OW 3919   5.479   6.728   4.347
 1007SOL    HW1 3920   5.491   6.805   4.409
 1007SOL    HW2 3921   5.434   6.653   4.395
 1008SOL     OW 3922   2.152   3.075   4.969
 1008SOL    HW1 3923   2.191   3.167   4.958
 1008SOL    HW2 3924   2.222   3.014   5.008
 1009SOL     OW 3925   0.160   5.694   4.541
 1009SOL    HW1 3926   0.113   5.634   4.475
 1009SOL    HW2 3927   0.111   5.780   4.548
 1010SOL     OW 3928   3.801   2.306   5.839
 1010SOL    HW1 3929   3.849   2.394   5.846
 1010SOL    HW2 3930   3.715   2.312   5.889
 1011SOL     OW 3931   2.463   5.301   2.268
 1011SOL    HW1 3932   2.520   5.373   2.308
 1011SOL    HW2 3933   2.504   5.212   2.287
 1012SOL     OW 3934   0.068   0.594   0.749
 1012SOL    HW1 3935   0.027   0.660   0.812
 1012SOL    HW2 3936   7.019   0.553   0.693
 1013SOL     OW 3937   1.192   1.479   6.126
 1013SOL    HW1 3938   1.113   1.469   6.187
 1013SOL    HW2 3939   1.207   1.576   6.106
 1014SOL     OW 3940   5.181   5.982   6.469
 1014SOL    HW1 3941   5.088   5.958   6.443
 1014SOL    HW2 3942   5.186   6.080   6.489
 1015SOL     OW 3943   2.078   6.507   5.026
 1015SOL    HW1 3944   2.010   6.572   5.060
 1015SOL    HW2 3945   2.050   6.414   5.051
 1016SOL     OW 3946   3.684   3.442   7.019
 1016SOL    HW1 3947   3.668   3.516   0.061
 1016SOL    HW2 3948   3.741   3.371   0.040
 1017SOL     OW 3949   4.405   2.685   1.093
 1017SOL    HW1 3950   4.398   2.729   1.004
 1017SOL    HW2 3951   4.315   2.649   1.119
 1018SOL     OW 3952   1.283   3.271   4.213
 1018SOL    HW1 3953   1.190   3.236   4.215
 1018SOL    HW2 3954   1.316   3.273   4.119
 1019SOL     OW 3955   0.590   0.359   0.208
 1019SOL    HW1 3956   0.490   0.364   0.201
 1019SOL    HW2 3957   0.629   0.335   0.119
 1020SOL     OW 3958   0.720   6.740   1.565
 1020SOL    HW1 3959   0.790   6.723   1.635
 1020SOL    HW2 3960   0.686   6.652   1.531
 1021SOL     OW 3961   5.752   0.808   1.270
 1021SOL    HW1 3962   5.706   0.730   1.228
 1021SOL    HW2 3963   5.832   0.775   1.321
 1022SOL     OW 3964   3.689   4.375   6.016
 1022SOL    HW1 3965   3.616   4.341   5.957
 1022SOL    HW2 3966   3.725   4.460   5.978
 1023SOL     OW 3967   0.746   6.844   1.949
 1023SOL    HW1 3968   0.743   6.847   2.049
 1023SOL    HW2 3969   0.661   6.881   1.912
 1024SOL     OW 3970   6.518   3.443   4.453
 1024SOL    HW1 3971   6.513   3.411   4.358
 1024SOL    HW2 3972   6.560   3.533   4.456
 1025SOL     OW 3973   3.078   3.028   0.535
 1025SOL    HW1 3974   3.162   3.033   0.480
 1025SOL    HW2 3975   3.068   3.111   0.589
 1026SOL     OW 3976   2.279   2.670   1.547
 1026SOL    HW1 3977   2.271   2.634   1.640
 1026SOL    HW2 3978   2.343   2.747   1.547
 1027SOL     OW 3979   2.938   6.489   0.789
 1027SOL    HW1 3980   2.851   6.517   0.829
 1027SOL    HW2 3981   2.935   6.392   0.766
 1028SOL     OW 3982   3.416   6.095   0.021
 1028SOL    HW1 3983   3.413   5.999   0.049
 1028SOL    HW2 3984   3.345   6.112   6.975
 1029SOL     OW 3985   1.987   0.358   6.934
 1029SOL    HW1 3986   2.077   0.395   6.961
 1029SOL    HW2 3987   2.000   0.284   6.868
 1030SOL     OW 3988   3.499   3.501   1.727
 1030SOL    HW1 3989   3.510   3.437   1.651
 1030SOL    HW2 3990   3.575   3.491   1.791
 1031SOL     OW 3991   4.690   5.173   1.168
 1031SOL    HW1 3992   4.723   5.191   1.075
 1031SOL    HW2 3993   4.624   5.098   1.166
 1032SOL     OW 3994   2.128   1.744   5.132
 1032SOL    HW1 3995   2.143   1.806   5.056
 1032SOL    HW2 3996   2.207   1.747   5.194
 1033SOL     OW 3997   1.459   6.158   1.172
 1033SOL    HW1 3998   1.545   6.106   1.166
 1033SOL    HW2 3999   1.457   6.228   1.101
 1034SOL     OW 4000   0.627   5.785   4.812
 1034SOL    HW1 4001   0.543   5.765   4.862
 1034SOL    HW2 4002   0.613   5.864   4.752
 1035SOL     OW 4003   1.059   1.224   3.632
 1035SOL    HW1 4004   0.964   1.245   3.609
 1035SOL    HW2 4005   1.117   1.242   3.553
 1036SOL     OW 4006   2.755   1.000   2.016
 1036SOL    HW1 4007   2.737   0.951   1.931
 1036SOL    HW2 4008   2.848   1.037   2.014
 1037SOL     OW 4009   1.852   0.681   1.061
 1037SOL    HW1 4010   1.788   0.729   1.122
 1037SOL    HW2 4011   1.885   0.598   1.105
 1038SOL     OW 4012   1.500   7.018   5.536
 1038SOL    HW1 4013   1.408   0.025   5.511
 1038SOL    HW2 4014   1.526   0.036   5.624
 1039SOL     OW 4015   3.058   2.720   6.096
 1039SOL    HW1 4016   3.118   2.696   6.019
 1039SOL    HW2 4017   3.088   2.807   6.136
 1040SOL     OW 4018   4.878   3.073   2.201
 1040SOL    HW1 4019   4.915   2.980   2.209
 1040SOL    HW2 4020   4.824   3.081   2.118
 1041SOL     OW 4021   6.512   6.921   4.407
 1041SOL    HW1 4022   6.564   6.836   4.406
 1041SOL    HW2 4023   6.448   6.921   4.484
 1042SOL     OW 4024   3.884   5.074   2.637
 1042SOL    HW1 4025   3.835   5.008   2.695
 1042SOL    HW2 4026   3.852   5.065   2.542
 1043SOL     OW 4027   4.065   1.582   4.868
 1043SOL    HW1 4028   4.076   1.681   4.855
 1043SOL    HW2 4029   4.001   1.547   4.799
 1044SOL     OW 4030   5.022   4.780   2.379
 1044SOL    HW1 4031   5.048   4.870   2.346
 1044SOL    HW2 4032   4.972   4.731   2.307
 1045SOL     OW 4033   3.452   5.937   2.383
 1045SOL    HW1 4034   3.495   5.961   2.469
 1045SOL    HW2 4035   3.404   5.849   2.393
 1046SOL     OW 4036   1.151   6.815   0.840
 1046SOL    HW1 4037   1.200   6.893   0.801
 1046SOL    HW2 4038   1.136   6.746   0.768
 1047SOL     OW 4039   1.457   6.510   2.292
 1047SOL    HW1 4040   1.366   6.531   2.328
 1047SOL    HW2 4041   1.508   6.455   2.358
 1048SOL     OW 4042   4.875   6.197   5.434
 1048SOL    HW1 4043   4.860   6.269   5.367
 1048SOL    HW2 4044   4.808   6.124   5.420
 1049SOL     OW 4045   6.635   5.288   3.714
 1049SOL    HW1 4046   6.582   5.371   3.694
 1049SOL    HW2 4047   6.591   5.237   3.787
 1050SOL     OW 4048   4.162   5.590   0.776
 1050SOL    HW1 4049   4.084   5.545   0.820
 1050SOL    HW2 4050   4.235   5.603   0.842
 1051SOL     OW 4051   2.846   5.481   1.108
 1051SOL    HW1 4052   2.939   5.464   1.139
 1051SOL    HW2 4053   2.848   5.522   1.017
 1052SOL     OW 4054   3.707   0.129   3.973
 1052SOL    HW1 4055   3.698   0.041   4.020
 1052SOL    HW2 4056   3.775   0.121   3.901
 1053SOL     OW 4057   4.843   5.331   3.423
 1053SOL    HW1 4058   4.847   5.382   3.337
 1053SOL    HW2 4059   4.847   5.233   3.403
 1054SOL     OW 4060   2.033   3.681   5.390
 1054SOL    HW1 4061   2.034   3.611   5.318
 1054SOL    HW2 4062   2.006   3.769   5.350
 1055SOL     OW 4063   5.284   6.367   4.268
 1055SOL    HW1 4064   5.246   6.302   4.202
 1055SOL    HW2 4065   5.345   6.431   4.220
 1056SOL     OW 4066   1.691   4.937   6.040
 1056SOL    HW1 4067   1.650   5.028   6.038
 1056SOL    HW2 4068   1.771   4.935   5.980
 1057SOL     OW 4069   3.477   3.132   2.906
 1057SOL    HW1 4070   3.459   3.035   2.920
 1057SOL    HW2 4071   3.437   3.161   2.819
 1058SOL     OW 4072   5.214   1.505   2.024
 1058SOL    HW1 4073   5.174   1.531   2.112
 1058SOL    HW2 4074   5.306   1.543   2.017
 1059SOL     OW 4075   2.566   0.041   2.069
 1059SOL    HW1 4076   2.511   0.013   1.990
 1059SOL    HW2 4077   2.513   0.102   2.127
 1060SOL     OW 4078   7.014   3.997   4.323
 1060SOL    HW1 4079   6.926   3.964   4.357
 1060SOL    HW2 4080   0.054   4.007   4.400
 1061SOL     OW 4081   5.344   3.685   1.770
 1061SOL    HW1 4082   5.283   3.612   1.739
 1061SOL    HW2 4083   5.302   3.774   1.752
 1062SOL     OW 4084   5.872   4.642   5.576
 1062SOL    HW1 4085   5.819   4.567   5.537
 1062SOL    HW2 4086   5.894   4.707   5.504
 1063SOL     OW 4087   1.584   4.686   1.450
 1063SOL    HW1 4088   1.511   4.723   1.507
 1063SOL    HW2 4089   1.641   4.624   1.504
 1064SOL     OW 4090   1.334   4.120   2.078
 1064SOL    HW1 4091   1.277   4.195   2.111
 1064SOL    HW2 4092   1.302   4.091   1.988
 1065SOL     OW 4093   4.814   0.227   3.893
 1065SOL    HW1 4094   4.911   0.228   3.914
 1065SOL    HW2 4095   4.789   0.139   3.852
 1066SOL     OW 4096   5.180   0.416   3.793
 1066SOL    HW1 4097   5.115   0.487   3.818
 1066SOL    HW2 4098   5.136   0.327   3.798
 1067SOL     OW 4099   1.287   3.209   0.101
 1067SOL    HW1 4100   1.307   3.136   0.166
 1067SOL    HW2 4101   1.332   3.190   0.014
 1068SOL     OW 4102   5.029   5.032   3.097
 1068SOL    HW1 4103   5.053   4.941   3.131
 1068SOL    HW2 4104   4.931   5.035   3.075
 1069SOL     OW 4105   5.044   5.041   0.912
 1069SOL    HW1 4106   4.958   4.998   0.884
 1069SOL    HW2 4107   5.088   4.983   0.980
 1070SOL     OW 4108   0.926   1.154   1.748
 1070SOL    HW1 4109   0.827   1.147   1.742
 1070SOL    HW2 4110   0.967   1.135   1.658
 1071SOL     OW 4111   2.294   6.773   4.017
 1071SOL    HW1 4112   2.367   6.757   3.950
 1071SOL    HW2 4113   2.219   6.824   3.974
 1072SOL     OW 4114   1.686   6.390   1.131
 1072SOL    HW1 4115   1.705   6.457   1.202
 1072SOL    HW2 4116   1.595   6.407   1.093
 1073SOL     OW 4117   3.946   6.429   2.421
 1073SOL    HW1 4118   3.989   6.405   2.508
 1073SOL    HW2 4119   4.013   6.421   2.347
 1074SOL     OW 4120   2.783   5.392   0.296
 1074SOL    HW1 4121   2.756   5.322   0.362
 1074SOL    HW2 4122   2.822   5.347   0.215
 1075SOL     OW 4123   4.219   6.778   3.812
 1075SOL    HW1 4124   4.185   6.708   3.874
 1075SOL    HW2 4125   4.147   6.845   3.794
 1076SOL     OW 4126   6.955   4.527   5.458
 1076SOL    HW1 4127   6.976   4.431   5.479
 1076SOL    HW2 4128   6.868   4.551   5.500
 1077SOL     OW 4129   5.672   0.170   0.661
 1077SOL    HW1 4130   5.694   0.219   0.744
 1077SOL    HW2 4131   5.755   0.130   0.622
 1078SOL     OW 4132   1.001   1.360   2.465
 1078SOL    HW1 4133   0.948   1.434   2.425
 1078SOL    HW2 4134   0.994   1.279   2.407
 1079SOL     OW 4135   1.808   6.098   2.655
 1079SOL    HW1 4136   1.757   6.012   2.658
 1079SOL    HW2 4137   1.854   6.113   2.742
 1080SOL     OW 4138   2.016   4.637   3.397
 1080SOL    HW1 4139   1.932   4.590   3.425
 1080SOL    HW2 4140   2.086   4.569   3.373
 1081SOL     OW 4141   0.057   6.398   5.942
 1081SOL    HW1 4142   0.083   6.404   5.845
 1081SOL    HW2 4143   6.995   6.344   5.950
 1082SOL     OW 4144   3.773   1.729   6.316
 1082SOL    HW1 4145   3.752   1.653   6.255
 1082SOL    HW2 4146   3.794   1.694   6.407
 1083SOL     OW 4147   3.840   4.337   1.038
 1083SOL    HW1 4148   3.822   4.258   0.979
 1083SOL    HW2 4149   3.816   4.315   1.132
 1084SOL     OW 4150   6.653   6.045   1.083
 1084SOL    HW1 4151   6.668   5.976   1.013
 1084SOL    HW2 4152   6.713   6.028   1.160
 1085SOL     OW 4153   1.360   4.345   4.212
 1085SOL    HW1 4154   1.265   4.370   4.229
 1085SOL    HW2 4155   1.421   4.411   4.256
 1086SOL     OW 4156   6.844   5.794   2.302
 1086SOL    HW1 4157   6.839   5.701   2.265
 1086SOL    HW2 4158   6.924   5.801   2.362
 1087SOL     OW 4159   6.285   3.194   5.456
 1087SOL    HW1 4160   6.206   3.209   5.515
 1087SOL    HW2 4161   6.288   3.265   5.386
 1088SOL     OW 4162   5.838   4.781   3.673
 1088SOL    HW1 4163   5.781   4.779   3.756
 1088SOL    HW2 4164   5.791   4.730   3.600
 1089SOL     OW 4165   1.201   6.963   4.215
 1089SOL    HW1 4166   1.273   6.941   4.282
 1089SOL    HW2 4167   1.223   0.026   4.169
 1090SOL     OW 4168   2.173   1.675   3.779
 1090SOL    HW1 4169   2.133   1.767   3.789
 1090SOL    HW2 4170   2.101   1.607   3.790
 1091SOL     OW 4171   2.611   2.726   5.303
 1091SOL    HW1 4172   2.590   2.634   5.335
 1091SOL    HW2 4173   2.532   2.763   5.254
 1092SOL     OW 4174   1.937   3.771   0.391
 1092SOL    HW1 4175   1.840   3.791   0.378
 1092SOL    HW2 4176   1.956   3.756   0.487
 1093SOL     OW 4177   1.561   1.912   1.903
 1093SOL    HW1 4178   1.533   2.008   1.903
 1093SOL    HW2 4179   1.651   1.904   1.859
 1094SOL     OW 4180   1.118   6.057   3.591
 1094SOL    HW1 4181   1.062   6.133   3.626
 1094SOL    HW2 4182   1.059   5.979   3.572
 1095SOL     OW 4183   0.347   2.388   5.807
 1095SOL    HW1 4184   0.254   2.379   5.771
 1095SOL    HW2 4185   0.372   2.484   5.812
 1096SOL     OW 4186   3.316   4.737   1.681
 1096SOL    HW1 4187   3.409   4.710   1.704
 1096SOL    HW2 4188   3.269   4.662   1.636
 1097SOL     OW 4189   1.836   3.891   4.175
 1097SOL    HW1 4190   1.846   3.959   4.248
 1097SOL    HW2 4191   1.831   3.938   4.087
 1098SOL     OW 4192   4.989   3.089   1.193
 1098SOL    HW1 4193   5.050   3.166   1.173
 1098SOL    HW2 4194   5.043   3.012   1.226
 1099SOL     OW 4195   3.753   1.640   5.181
 1099SOL    HW1 4196   3.723   1.683   5.266
 1099SOL    HW2 4197   3.850   1.618   5.187
 1100SOL     OW 4198   3.057   1.758   6.549
 1100SOL    HW1 4199   3.064   1.659   6.560
 1100SOL    HW2 4200   3.045   1.780   6.453
 1101SOL     OW 4201   6.458   2.128   0.151
 1101SOL    HW1 4202   6.465   2.135   0.250
 1101SOL    HW2 4203   6.530   2.069   0.115
 1102SOL     OW 4204   0.349   6.042   4.034
 1102SOL    HW1 4205   0.366   5.962   4.091
 1102SOL    HW2 4206   0.363   6.019   3.938
 1103SOL     OW 4207   3.331   1.509   0.634
 1103SOL    HW1 4208   3.362   1.529   0.727
 1103SOL    HW2 4209   3.331   1.593   0.580
 1104SOL     OW 4210   2.052   3.408   5.272
 1104SOL    HW1 4211   2.089   3.329   5.223
 1104SOL    HW2 4212   2.087   3.408   5.366
 1105SOL     OW 4213   5.941   3.539   4.815
 1105SOL    HW1 4214   5.939   3.593   4.732
 1105SOL    HW2 4215   5.949   3.442   4.792
 1106SOL     OW 4216   0.483   2.026   0.527
 1106SOL    HW1 4217   0.472   1.996   0.622
 1106SOL    HW2 4218   0.544   2.105   0.524
 1107SOL     OW 4219   1.892   0.386   6.333
 1107SOL    HW1 4220   1.880   0.467   6.276
 1107SOL    HW2 4221   1.962   0.403   6.402
 1108SOL     OW 4222   3.081   0.990   5.807
 1108SOL    HW1 4223   3.047   0.899   5.783
 1108SOL    HW2 4224   3.176   0.999   5.775
 1109SOL     OW 4225   4.321   6.447   4.809
 1109SOL    HW1 4226   4.231   6.456   4.853
 1109SOL    HW2 4227   4.388   6.499   4.861
 1110SOL     OW 4228   2.812   1.767   2.670
 1110SOL    HW1 4229   2.772   1.675   2.670
 1110SOL    HW2 4230   2.911   1.760   2.675
 1111SOL     OW 4231   4.870   5.044   6.997
 1111SOL    HW1 4232   4.772   5.023   6.998
 1111SOL    HW2 4233   4.914   4.992   6.924
 1112SOL     OW 4234   6.596   0.795   2.358
 1112SOL    HW1 4235   6.519   0.741   2.323
 1112SOL    HW2 4236   6.576   0.823   2.452
 1113SOL     OW 4237   0.326   3.842   3.167
 1113SOL    HW1 4238   0.287   3.923   3.124
 1113SOL    HW2 4239   0.414   3.865   3.208
 1114SOL     OW 4240   4.641   1.430   6.588
 1114SOL    HW1 4241   4.544   1.433   6.561
 1114SOL    HW2 4242   4.676   1.338   6.574
 1115SOL     OW 4243   4.205   2.767   0.212
 1115SOL    HW1 4244   4.178   2.790   0.119
 1115SOL    HW2 4245   4.144   2.696   0.248
 1116SOL     OW 4246   5.337   5.933   5.224
 1116SOL    HW1 4247   5.353   5.984   5.140
 1116SOL    HW2 4248   5.415   5.874   5.243
 1117SOL     OW 4249   1.815   2.659   1.254
 1117SOL    HW1 4250   1.866   2.578   1.281
 1117SOL    HW2 4251   1.861   2.703   1.177
 1118SOL     OW 4252   2.328   4.269   1.767
 1118SOL    HW1 4253   2.360   4.305   1.855
 1118SOL    HW2 4254   2.257   4.329   1.730
 1119SOL     OW 4255   4.743   4.736   1.148
 1119SOL    HW1 4256   4.646   4.720   1.161
 1119SOL    HW2 4257   4.792   4.649   1.151
 1120SOL     OW 4258   5.490   6.768   5.213
 1120SOL    HW1 4259   5.513   6.823   5.293
 1120SOL    HW2 4260   5.533   6.808   5.132
 1121SOL     OW 4261   5.585   4.688   2.658
 1121SOL    HW1 4262   5.603   4.590   2.668
 1121SOL    HW2 4263   5.672   4.737   2.650
 1122SOL     OW 4264   4.479   3.216   6.774
 1122SOL    HW1 4265   4.388   3.258   6.774
 1122SOL    HW2 4266   4.474   3.126   6.816
 1123SOL     OW 4267   5.257   1.895   3.018
 1123SOL    HW1 4268   5.355   1.885   3.000
 1123SOL    HW2 4269   5.229   1.831   3.090
 1124SOL     OW 4270   5.954   4.106   5.148
 1124SOL    HW1 4271   5.885   4.035   5.162
 1124SOL    HW2 4272   6.016   4.078   5.074
 1125SOL     OW 4273   3.385   1.568   4.920
 1125SOL    HW1 4274   3.436   1.646   4.957
 1125SOL    HW2 4275   3.351   1.591   4.828
 1126SOL     OW 4276   5.343   6.657   0.648
 1126SOL    HW1 4277   5.349   6.654   0.747
 1126SOL    HW2 4278   5.435   6.664   0.609
 1127SOL     OW 4279   5.017   5.453   5.282
 1127SOL    HW1 4280   5.099   5.404   5.311
 1127SOL    HW2 4281   4.993   5.520   5.352
 1128SOL     OW 4282   5.413   2.376   5.058
 1128SOL    HW1 4283   5.470   2.455   5.033
 1128SOL    HW2 4284   5.471   2.302   5.091
 1129SOL     OW 4285   3.410   0.378   6.594
 1129SOL    HW1 4286   3.419   0.401   6.498
 1129SOL    HW2 4287   3.342   0.305   6.605
 1130SOL     OW 4288   2.002   4.761   1.090
 1130SOL    HW1 4289   2.094   4.732   1.068
 1130SOL    HW2 4290   1.975   4.838   1.031
 1131SOL     OW 4291   0.378   6.220   6.001
 1131SOL    HW1 4292   0.341   6.281   6.071
 1131SOL    HW2 4293   0.472   6.196   6.023
 1132SOL     OW 4294   5.180   0.084   0.987
 1132SOL    HW1 4295   5.086   0.104   0.960
 1132SOL    HW2 4296   5.180   0.043   1.079
 1133SOL     OW 4297   0.819   1.269   0.904
 1133SOL    HW1 4298   0.912   1.237   0.887
 1133SOL    HW2 4299   0.760   1.243   0.828
 1134SOL     OW 4300   4.869   1.365   1.622
 1134SOL    HW1 4301   4.799   1.411   1.677
 1134SOL    HW2 4302   4.838   1.361   1.526
 1135SOL     OW 4303   2.219   1.298   2.620
 1135SOL    HW1 4304   2.278   1.361   2.569
 1135SOL    HW2 4305   2.196   1.220   2.561
 1136SOL     OW 4306   3.398   5.369   4.919
 1136SOL    HW1 4307   3.482   5.373   4.864
 1136SOL    HW2 4308   3.320   5.349   4.859
 1137SOL     OW 4309   1.594   1.868   6.549
 1137SOL    HW1 4310   1.507   1.835   6.585
 1137SOL    HW2 4311   1.587   1.967   6.532
 1138SOL     OW 4312   0.627   1.322   6.433
 1138SOL    HW1 4313   0.670   1.410   6.456
 1138SOL    HW2 4314   0.584   1.285   6.515
 1139SOL     OW 4315   3.126   5.484   1.117
 1139SOL    HW1 4316   3.142   5.521   1.026
 1139SOL    HW2 4317   3.213   5.455   1.157
 1140SOL     OW 4318   3.322   1.057   1.994
 1140SOL    HW1 4319   3.231   1.028   1.964
 1140SOL    HW2 4320   3.385   0.979   1.987
 1141SOL     OW 4321   6.852   6.495   6.609
 1141SOL    HW1 4322   6.840   6.423   6.677
 1141SOL    HW2 4323   6.767   6.506   6.557
 1142SOL     OW 4324   3.534   0.340   3.940
 1142SOL    HW1 4325   3.599   0.265   3.953
 1142SOL    HW2 4326   3.483   0.354   4.025
 1143SOL     OW 4327   2.045   3.255   2.003
 1143SOL    HW1 4328   2.113   3.327   1.988
 1143SOL    HW2 4329   2.051   3.223   2.098
 1144SOL     OW 4330   6.388   4.623   5.537
 1144SOL    HW1 4331   6.479   4.663   5.524
 1144SOL    HW2 4332   6.397   4.528   5.566
 1145SOL     OW 4333   0.065   4.387   2.344
 1145SOL    HW1 4334   0.031   4.471   2.301
 1145SOL    HW2 4335   0.149   4.407   2.394
 1146SOL     OW 4336   6.223   0.659   1.635
 1146SOL    HW1 4337   6.219   0.691   1.540
 1146SOL    HW2 4338   6.159   0.583   1.648
 1147SOL     OW 4339   1.384   4.376   0.982
 1147SOL    HW1 4340   1.362   4.334   0.894
 1147SOL    HW2 4341   1.443   4.455   0.966
 1148SOL     OW 4342   4.620   6.597   6.680
 1148SOL    HW1 4343   4.547   6.578   6.746
 1148SOL    HW2 4344   4.688   6.657   6.723
 1149SOL     OW 4345   6.505   4.374   3.121
 1149SOL    HW1 4346   6.543   4.352   3.031
 1149SOL    HW2 4347   6.570   4.431   3.170
 1150SOL     OW 4348   2.654   4.223   0.780
 1150SOL    HW1 4349   2.754   4.232   0.780
 1150SOL    HW2 4350   2.630   4.126   0.775
 1151SOL     OW 4351   4.913   5.185   6.604
 1151SOL    HW1 4352   4.888   5.102   6.654
 1151SOL    HW2 4353   4.849   5.198   6.528
 1152SOL     OW 4354   0.503   5.644   5.886
 1152SOL    HW1 4355   0.603   5.652   5.889
 1152SOL    HW2 4356   0.475   5.611   5.796
 1153SOL     OW 4357   2.341   0.191   2.497
 1153SOL    HW1 4358   2.374   0.204   2.404
 1153SOL    HW2 4359   2.382   0.109   2.536
 1154SOL     OW 4360   0.340   4.238   1.675
 1154SOL    HW1 4361   0.377   4.241   1.768
 1154SOL    HW2 4362   0.368   4.153   1.631
 1155SOL     OW 4363   2.706   5.068   0.129
 1155SOL    HW1 4364   2.800   5.051   0.159
 1155SOL    HW2 4365   2.697   5.164   0.101
 1156SOL     OW 4366   2.220   0.848   4.942
 1156SOL    HW1 4367   2.177   0.810   4.860
 1156SOL    HW2 4368   2.266   0.775   4.993
 1157SOL     OW 4369   6.621   0.842   5.146
 1157SOL    HW1 4370   6.657   0.889   5.065
 1157SOL    HW2 4371   6.558   0.903   5.194
 1158SOL     OW 4372   0.376   5.584   5.619
 1158SOL    HW1 4373   0.295   5.565   5.674
 1158SOL    HW2 4374   0.349   5.629   5.534
 1159SOL     OW 4375   4.790   0.209   3.596
 1159SOL    HW1 4376   4.718   0.216   3.527
 1159SOL    HW2 4377   4.778   0.125   3.648
 1160SOL     OW 4378   3.825   3.322   1.479
 1160SOL    HW1 4379   3.778   3.235   1.464
 1160SOL    HW2 4380   3.774   3.396   1.434
 1161SOL     OW 4381   5.070   0.438   6.003
 1161SOL    HW1 4382   5.091   0.497   5.926
 1161SOL    HW2 4383   5.113   0.474   6.086
 1162SOL     OW 4384   3.152   2.266   6.959
 1162SOL    HW1 4385   3.209   2.223   6.889
 1162SOL    HW2 4386   3.097   2.339   6.919
 1163SOL     OW 4387   6.506   3.294   1.936
 1163SOL    HW1 4388   6.545   3.382   1.961
 1163SOL    HW2 4389   6.408   3.303   1.923
 1164SOL     OW 4390   5.214   2.353   4.190
 1164SOL    HW1 4391   5.190   2.329   4.284
 1164SOL    HW2 4392   5.292   2.416   4.190
 1165SOL     OW 4393   1.889   4.564   4.533
 1165SOL    HW1 4394   1.916   4.563   4.437
 1165SOL    HW2 4395   1.930   4.486   4.580
 1166SOL     OW 4396   3.706   0.300   0.737
 1166SOL    HW1 4397   3.692   0.388   0.693
 1166SOL    HW2 4398   3.694   0.227   0.670
 1167SOL     OW 4399   3.873   6.470   6.495
 1167SOL    HW1 4400   3.934   6.413   6.440
 1167SOL    HW2 4401   3.920   6.556   6.518
 1168SOL     OW 4402   6.336   1.511   3.563
 1168SOL    HW1 4403   6.309   1.521   3.467
 1168SOL    HW2 4404   6.359   1.415   3.581
 1169SOL     OW 4405   5.877   3.113   6.522
 1169SOL    HW1 4406   5.824   3.043   6.570
 1169SOL    HW2 4407   5.819   3.191   6.501
 1170SOL     OW 4408   5.420   0.745   1.905
 1170SOL    HW1 4409   5.464   0.657   1.924
 1170SOL    HW2 4410   5.393   0.788   1.991
 1171SOL     OW 4411   2.862   6.566   6.827
 1171SOL    HW1 4412   2.927   6.642   6.820
 1171SOL    HW2 4413   2.897   6.488   6.776
 1172SOL     OW 4414   3.153   3.977   2.116
 1172SOL    HW1 4415   3.228   4.034   2.149
 1172SOL    HW2 4416   3.110   4.021   2.038
 1173SOL     OW 4417   3.422   0.067   5.523
 1173SOL    HW1 4418   3.343   0.035   5.576
 1173SOL    HW2 4419   3.391   0.120   5.445
 1174SOL     OW 4420   3.005   4.398   0.297
 1174SOL    HW1 4421   2.921   4.346   0.313
 1174SOL    HW2 4422   3.048   4.419   0.384
 1175SOL     OW 4423   4.070   3.021   6.789
 1175SOL    HW1 4424   4.108   3.044   6.700
 1175SOL    HW2 4425   3.974   2.993   6.779
 1176SOL     OW 4426   5.495   4.551   1.225
 1176SOL    HW1 4427   5.494   4.453   1.210
 1176SOL    HW2 4428   5.468   4.571   1.319
 1177SOL     OW 4429   6.777   1.850   6.335
 1177SOL    HW1 4430   6.800   1.758   6.303
 1177SOL    HW2 4431   6.739   1.845   6.427
 1178SOL     OW 4432   3.627   3.613   1.094
 1178SOL    HW1 4433   3.574   3.665   1.161
 1178SOL    HW2 4434   3.572   3.600   1.012
 1179SOL     OW 4435   3.005   5.619   0.266
 1179SOL    HW1 4436   3.029   5.610   0.169
 1179SOL    HW2 4437   2.949   5.542   0.294
 1180SOL     OW 4438   2.216   6.536   3.868
 1180SOL    HW1 4439   2.299   6.590   3.880
 1180SOL    HW2 4440   2.161   6.576   3.794
 1181SOL     OW 4441   6.588   2.746   5.020
 1181SOL    HW1 4442   6.517   2.677   5.027
 1181SOL    HW2 4443   6.620   2.752   4.925
 1182SOL     OW 4444   2.337   5.329   3.519
 1182SOL    HW1 4445   2.388   5.386   3.583
 1182SOL    HW2 4446   2.316   5.240   3.562
 1183SOL     OW 4447   3.853   6.478   1.640
 1183SOL    HW1 4448   3.852   6.578   1.643
 1183SOL    HW2 4449   3.941   6.446   1.605
 1184SOL     OW 4450   4.383   0.883   5.848
 1184SOL    HW1 4451   4.473   0.839   5.850
 1184SOL    HW2 4452   4.367   0.921   5.757
 1185SOL     OW 4453   1.610   6.666   0.848
 1185SOL    HW1 4454   1.699   6.621   0.842
 1185SOL    HW2 4455   1.552   6.636   0.772
 1186SOL     OW 4456   6.181   5.824   6.310
 1186SOL    HW1 4457   6.209   5.919   6.292
 1186SOL    HW2 4458   6.096   5.805   6.261
 1187SOL     OW 4459   5.377   6.829   5.655
 1187SOL    HW1 4460   5.420   6.858   5.740
 1187SOL    HW2 4461   5.290   6.876   5.643
 1188SOL     OW 4462   3.342   5.861   6.729
 1188SOL    HW1 4463   3.359   5.817   6.641
 1188SOL    HW2 4464   3.296   5.948   6.715
 1189SOL     OW 4465   5.768   0.766   2.008
 1189SOL    HW1 4466   5.811   0.688   1.961
 1189SOL    HW2 4467   5.741   0.834   1.940
 1190SOL     OW 4468   3.839   4.874   4.298
 1190SOL    HW1 4469   3.773   4.933   4.251
 1190SOL    HW2 4470   3.795   4.787   4.322
 1191SOL     OW 4471   3.444   6.154   4.477
 1191SOL    HW1 4472   3.527   6.110   4.445
 1191SOL    HW2 4473   3.376   6.154   4.404
 1192SOL     OW 4474   5.232   6.133   3.130
 1192SOL    HW1 4475   5.235   6.202   3.202
 1192SOL    HW2 4476   5.298   6.157   3.059
 1193SOL     OW 4477   0.201   0.207   5.815
 1193SOL    HW1 4478   0.107   0.174   5.825
 1193SOL    HW2 4479   0.238   0.176   5.727
 1194SOL     OW 4480   6.780   1.693   0.902
 1194SOL    HW1 4481   6.824   1.719   0.815
 1194SOL    HW2 4482   6.765   1.774   0.957
 1195SOL     OW 4483   6.067   3.159   1.160
 1195SOL    HW1 4484   6.013   3.243   1.168
 1195SOL    HW2 4485   6.112   3.157   1.070
 1196SOL     OW 4486   6.497   4.963   1.775
 1196SOL    HW1 4487   6.431   4.888   1.776
 1196SOL    HW2 4488   6.587   4.928   1.752
 1197SOL     OW 4489   4.275   6.535   4.483
 1197SOL    HW1 4490   4.319   6.512   4.570
 1197SOL    HW2 4491   4.220   6.457   4.451
 1198SOL     OW 4492   1.512   2.947   2.569
 1198SOL    HW1 4493   1.599   2.957   2.616
 1198SOL    HW2 4494   1.437   2.971   2.631
 1199SOL     OW 4495   3.840   3.530   3.421
 1199SOL    HW1 4496   3.916   3.586   3.453
 1199SOL    HW2 4497   3.868   3.477   3.341
 1200SOL     OW 4498   3.786   4.143   4.684
 1200SOL    HW1 4499   3.849   4.087   4.630
 1200SOL    HW2 4500   3.725   4.193   4.623
 1201SOL     OW 4501   6.809   1.230   4.390
 1201SOL    HW1 4502   6.735   1.260   4.451
 1201SOL    HW2 4503   6.789   1.138   4.358
 1202SOL     OW 4504   6.099   0.922   6.048
 1202SOL    HW1 4505   6.160   0.957   6.118
 1202SOL    HW2 4506   6.053   0.998   6.003
 1203SOL     OW 4507   6.722   6.777   1.046
 1203SOL    HW1 4508   6.765   6.704   1.099
 1203SOL    HW2 4509   6.755   6.774   0.951
 1204SOL     OW 4510   4.388   1.618   1.805
 1204SOL    HW1 4511   4.390   1.716   1.784
 1204SOL    HW2 4512   4.382   1.606   1.905
 1205SOL     OW 4513   4.495   3.050   0.305
 1205SOL    HW1 4514   4.478   3.093   0.216
 1205SOL    HW2 4515   4.585   3.077   0.339
 1206SOL     OW 4516   1.150   2.381   4.865
 1206SOL    HW1 4517   1.083   2.428   4.923
 1206SOL    HW2 4518   1.102   2.321   4.801
 1207SOL     OW 4519   0.643   6.981   6.935
 1207SOL    HW1 4520   0.629   6.889   6.972
 1207SOL    HW2 4521   0.560   0.012   6.947
 1208SOL     OW 4522   3.466   3.742   2.003
 1208SOL    HW1 4523   3.507   3.807   2.067
 1208SOL    HW2 4524   3.400   3.684   2.051
 1209SOL     OW 4525   5.407   0.224   3.844
 1209SOL    HW1 4526   5.326   0.277   3.817
 1209SOL    HW2 4527   5.387   0.174   3.928
 1210SOL     OW 4528   4.206   0.302   3.578
 1210SOL    HW1 4529   4.281   0.367   3.569
 1210SOL    HW2 4530   4.166   0.310   3.669
 1211SOL     OW 4531   0.995   3.272   3.563
 1211SOL    HW1 4532   1.088   3.270   3.599
 1211SOL    HW2 4533   0.975   3.363   3.528
 1212SOL     OW 4534   6.683   1.177   5.620
 1212SOL    HW1 4535   6.769   1.151   5.577
 1212SOL    HW2 4536   6.675   1.277   5.620
 1213SOL     OW 4537   5.739   3.020   3.058
 1213SOL    HW1 4538   5.792   3.021   3.142
 1213SOL    HW2 4539   5.645   2.993   3.078
 1214SOL     OW 4540   0.454   2.427   6.158
 1214SOL    HW1 4541   0.432   2.508   6.213
 1214SOL    HW2 4542   0.385   2.356   6.173
 1215SOL     OW 4543   2.114   5.474   2.183
 1215SOL    HW1 4544   2.169   5.464   2.100
 1215SOL    HW2 4545   2.082   5.384   2.213
 1216SOL     OW 4546   0.139   0.900   6.988
 1216SOL    HW1 4547   0.043   0.900   6.957
 1216SOL    HW2 4548   0.195   0.947   6.920
 1217SOL     OW 4549   3.558   5.331   1.116
 1217SOL    HW1 4550   3.495   5.309   1.042
 1217SOL    HW2 4551   3.647   5.355   1.079
 1218SOL     OW 4552   0.832   4.073   5.562
 1218SOL    HW1 4553   0.783   4.057   5.476
 1218SOL    HW2 4554   0.915   4.018   5.564
 1219SOL     OW 4555   5.069   5.487   2.072
 1219SOL    HW1 4556   5.081   5.558   2.141
 1219SOL    HW2 4557   5.037   5.527   1.987
 1220SOL     OW 4558   6.602   4.286   2.860
 1220SOL    HW1 4559   6.635   4.246   2.775
 1220SOL    HW2 4560   6.547   4.367   2.839
 1221SOL     OW 4561   5.666   3.637   6.105
 1221SOL    HW1 4562   5.586   3.578   6.115
 1221SOL    HW2 4563   5.737   3.609   6.169
 1222SOL     OW 4564   0.803   0.698   0.193
 1222SOL    HW1 4565   0.790   0.749   0.278
 1222SOL    HW2 4566   0.809   0.601   0.212
 1223SOL     OW 4567   3.728   1.337   0.196
 1223SOL    HW1 4568   3.763   1.401   0.264
 1223SOL    HW2 4569   3.801   1.276   0.167
 1224SOL     OW 4570   2.706   5.615   0.140
 1224SOL    HW1 4571   2.742   5.607   0.047
 1224SOL    HW2 4572   2.743   5.541   0.196
 1225SOL     OW 4573   3.697   2.087   0.663
 1225SOL    HW1 4574   3.643   2.034   0.597
 1225SOL    HW2 4575   3.644   2.099   0.747
 1226SOL     OW 4576   4.712   6.325   0.635
 1226SOL    HW1 4577   4.713   6.331   0.536
 1226SOL    HW2 4578   4.786   6.264   0.665
 1227SOL     OW 4579   5.245   5.242   6.881
 1227SOL    HW1 4580   5.339   5.261   6.910
 1227SOL    HW2 4581   5.229   5.143   6.886
 1228SOL     OW 4582   3.598   3.039   0.754
 1228SOL    HW1 4583   3.579   2.941   0.742
 1228SOL    HW2 4584   3.662   3.050   0.831
 1229SOL     OW 4585   1.916   5.878   0.921
 1229SOL    HW1 4586   1.901   5.894   1.018
 1229SOL    HW2 4587   1.830   5.891   0.871
 1230SOL     OW 4588   5.612   5.414   2.682
 1230SOL    HW1 4589   5.635   5.467   2.764
 1230SOL    HW2 4590   5.676   5.337   2.674
 1231SOL     OW 4591   1.226   1.578   5.813
 1231SOL    HW1 4592   1.322   1.604   5.827
 1231SOL    HW2 4593   1.202   1.587   5.717
 1232SOL     OW 4594   5.869   1.463   5.328
 1232SOL    HW1 4595   5.814   1.426   5.252
 1232SOL    HW2 4596   5.834   1.552   5.354
 1233SOL     OW 4597   0.276   5.833   4.879
 1233SOL    HW1 4598   0.250   5.746   4.838
 1233SOL    HW2 4599   0.312   5.816   4.971
 1234SOL     OW 4600   6.254   2.378   5.158
 1234SOL    HW1 4601   6.335   2.329   5.192
 1234SOL    HW2 4602   6.192   2.396   5.234
 1235SOL     OW 4603   6.145   4.653   0.954
 1235SOL    HW1 4604   6.114   4.679   1.045
 1235SOL    HW2 4605   6.075   4.597   0.910
 1236SOL     OW 4606   4.068   1.040   2.343
 1236SOL    HW1 4607   4.166   1.025   2.345
 1236SOL    HW2 4608   4.021   0.955   2.320
 1237SOL     OW 4609   1.500   5.454   5.258
 1237SOL    HW1 4610   1.565   5.399   5.311
 1237SOL    HW2 4611   1.441   5.394   5.204
 1238SOL     OW 4612   0.848   0.254   4.790
 1238SOL    HW1 4613   0.933   0.291   4.826
 1238SOL    HW2 4614   0.780   0.327   4.781
 1239SOL     OW 4615   6.765   6.881   5.742
 1239SOL    HW1 4616   6.788   6.784   5.731
 1239SOL    HW2 4617   6.679   6.890   5.791
 1240SOL     OW 4618   6.048   5.261   1.764
 1240SOL    HW1 4619   6.046   5.173   1.811
 1240SOL    HW2 4620   6.065   5.334   1.830
 1241SOL     OW 4621   5.850   4.593   5.101
 1241SOL    HW1 4622   5.898   4.669   5.145
 1241SOL    HW2 4623   5.898   4.507   5.123
 1242SOL     OW 4624   2.201   3.461   0.719
 1242SOL    HW1 4625   2.272   3.525   0.750
 1242SOL    HW2 4626   2.115   3.484   0.765
 1243SOL     OW 4627   0.498   1.155   4.731
 1243SOL    HW1 4628   0.543   1.195   4.651
 1243SOL    HW2 4629   0.414   1.110   4.703
 1244SOL     OW 4630   5.335   6.381   5.245
 1244SOL    HW1 4631   5.407   6.366   5.313
 1244SOL    HW2 4632   5.264   6.311   5.256
 1245SOL     OW 4633   5.650   4.726   0.165
 1245SOL    HW1 4634   5.689   4.798   0.222
 1245SOL    HW2 4635   5.719   4.694   0.100
 1246SOL     OW 4636   3.273   1.309   2.715
 1246SOL    HW1 4637   3.191   1.364   2.700
 1246SOL    HW2 4638   3.354   1.362   2.689
 1247SOL     OW 4639   5.642   0.246   5.585
 1247SOL    HW1 4640   5.544   0.259   5.602
 1247SOL    HW2 4641   5.664   0.277   5.493
 1248SOL     OW 4642   1.180   6.151   3.916
 1248SOL    HW1 4643   1.135   6.076   3.965
 1248SOL    HW2 4644   1.113   6.196   3.857
 1249SOL     OW 4645   0.236   3.159   1.495
 1249SOL    HW1 4646   0.199   3.066   1.484
 1249SOL    HW2 4647   0.210   3.194   1.586
 1250SOL     OW 4648   6.223   4.093   3.661
 1250SOL    HW1 4649   6.321   4.109   3.653
 1250SOL    HW2 4650   6.196   4.019   3.600
 1251SOL     OW 4651   1.721   0.844   3.178
 1251SOL    HW1 4652   1.655   0.919   3.178
 1251SOL    HW2 4653   1.673   0.757   3.172
 1252SOL     OW 4654   3.894   4.515   6.757
 1252SOL    HW1 4655   3.871   4.477   6.668
 1252SOL    HW2 4656   3.810   4.544   6.804
 1253SOL     OW 4657   2.353   0.904   2.422
 1253SOL    HW1 4658   2.311   0.821   2.384
 1253SOL    HW2 4659   2.447   0.884   2.450
 1254SOL     OW 4660   0.021   2.577   4.140
 1254SOL    HW1 4661   7.016   2.555   4.046
 1254SOL    HW2 4662   0.007   2.674   4.157
 1255SOL     OW 4663   5.460   2.482   6.177
 1255SOL    HW1 4664   5.508   2.502   6.092
 1255SOL    HW2 4665   5.510   2.522   6.254
 1256SOL     OW 4666   0.224   6.361   3.459
 1256SOL    HW1 4667   0.221   6.262   3.471
 1256SOL    HW2 4668   0.131   6.398   3.461
 1257SOL     OW 4669   6.878   5.121   4.206
 1257SOL    HW1 4670   6.877   5.059   4.284
 1257SOL    HW2 4671   6.866   5.215   4.237
 1258SOL     OW 4672   2.213   4.821   2.987
 1258SOL    HW1 4673   2.257   4.732   2.998
 1258SOL    HW2 4674   2.206   4.843   2.890
 1259SOL     OW 4675   3.379   6.342   5.160
 1259SOL    HW1 4676   3.378   6.242   5.156
 1259SOL    HW2 4677   3.365   6.380   5.068
 1260SOL     OW 4678   2.673   1.501   0.964
 1260SOL    HW1 4679   2.747   1.433   0.956
 1260SOL    HW2 4680   2.599   1.477   0.902
 1261SOL     OW 4681   0.167   4.554   6.925
 1261SOL    HW1 4682   0.232   4.601   6.866
 1261SOL    HW2 4683   0.212   4.479   6.973
 1262SOL     OW 4684   5.230   5.481   1.286
 1262SOL    HW1 4685   5.317   5.524   1.312
 1262SOL    HW2 4686   5.204   5.414   1.355
 1263SOL     OW 4687   6.999   1.870   1.461
 1263SOL    HW1 4688   6.995   1.868   1.561
 1263SOL    HW2 4689   6.916   1.828   1.424
 1264SOL     OW 4690   6.952   3.682   1.330
 1264SOL    HW1 4691   6.900   3.634   1.401
 1264SOL    HW2 4692   6.902   3.765   1.304
 1265SOL     OW 4693   6.304   5.144   3.619
 1265SOL    HW1 4694   6.252   5.228   3.602
 1265SOL    HW2 4695   6.301   5.122   3.716
 1266SOL     OW 4696   0.993   1.153   4.150
 1266SOL    HW1 4697   0.921   1.216   4.180
 1266SOL    HW2 4698   0.969   1.060   4.178
 1267SOL     OW 4699   5.667   6.654   1.180
 1267SOL    HW1 4700   5.736   6.725   1.199
 1267SOL    HW2 4701   5.672   6.628   1.084
 1268SOL     OW 4702   4.535   2.195   0.446
 1268SOL    HW1 4703   4.598   2.211   0.522
 1268SOL    HW2 4704   4.533   2.097   0.425
 1269SOL     OW 4705   5.669   6.296   5.776
 1269SOL    HW1 4706   5.653   6.383   5.821
 1269SOL    HW2 4707   5.758   6.298   5.730
 1270SOL     OW 4708   2.151   3.412   4.263
 1270SOL    HW1 4709   2.144   3.506   4.229
 1270SOL    HW2 4710   2.171   3.350   4.186
 1271SOL     OW 4711   3.299   1.607   3.280
 1271SOL    HW1 4712   3.362   1.685   3.280
 1271SOL    HW2 4713   3.333   1.536   3.340
 1272SOL     OW 4714   5.943   5.808   0.448
 1272SOL    HW1 4715   6.027   5.848   0.483
 1272SOL    HW2 4716   5.903   5.748   0.517
 1273SOL     OW 4717   0.814   4.367   0.137
 1273SOL    HW1 4718   0.840   4.293   0.075
 1273SOL    HW2 4719   0.867   4.359   0.222
 1274SOL     OW 4720   6.452   2.715   1.380
 1274SOL    HW1 4721   6.448   2.670   1.469
 1274SOL    HW2 4722   6.407   2.657   1.312
 1275SOL     OW 4723   3.344   0.958   4.457
 1275SOL    HW1 4724   3.349   0.934   4.360
 1275SOL    HW2 4725   3.348   0.876   4.512
 1276SOL     OW 4726   6.895   0.665   4.666
 1276SOL    HW1 4727   6.875   0.753   4.623
 1276SOL    HW2 4728   6.827   0.598   4.638
 1277SOL     OW 4729   1.245   6.861   6.096
 1277SOL    HW1 4730   1.196   6.918   6.029
 1277SOL    HW2 4731   1.227   6.765   6.077
 1278SOL     OW 4732   1.037   0.472   5.201
 1278SOL    HW1 4733   1.049   0.549   5.140
 1278SOL    HW2 4734   1.010   0.391   5.148
 1279SOL     OW 4735   3.497   5.489   0.157
 1279SOL    HW1 4736   3.433   5.565   0.168
 1279SOL    HW2 4737   3.533   5.463   0.247
 1280SOL     OW 4738   3.582   6.306   4.137
 1280SOL    HW1 4739   3.681   6.314   4.126
 1280SOL    HW2 4740   3.541   6.272   4.052
 1281SOL     OW 4741   1.539   5.895   2.923
 1281SOL    HW1 4742   1.503   5.937   3.006
 1281SOL    HW2 4743   1.561   5.799   2.940
 1282SOL     OW 4744   0.739   1.073   6.361
 1282SOL    HW1 4745   0.737   1.173   6.362
 1282SOL    HW2 4746   0.648   1.038   6.339
 1283SOL     OW 4747   5.721   2.900   4.984
 1283SOL    HW1 4748   5.801   2.859   4.939
 1283SOL    HW2 4749   5.678   2.831   5.043
 1284SOL     OW 4750   4.776   1.577   2.264
 1284SOL    HW1 4751   4.770   1.675   2.282
 1284SOL    HW2 4752   4.719   1.527   2.329
 1285SOL     OW 4753   5.128   3.203   6.772
 1285SOL    HW1 4754   5.076   3.137   6.826
 1285SOL    HW2 4755   5.066   3.265   6.724
 1286SOL     OW 4756   4.926   3.359   1.792
 1286SOL    HW1 4757   5.000   3.345   1.726
 1286SOL    HW2 4758   4.857   3.288   1.781
 1287SOL     OW 4759   4.742   4.372   5.809
 1287SOL    HW1 4760   4.748   4.289   5.753
 1287SOL    HW2 4761   4.746   4.347   5.906
 1288SOL     OW 4762   5.306   3.708   0.830
 1288SOL    HW1 4763   5.315   3.627   0.772
 1288SOL    HW2 4764   5.210   3.733   0.837
 1289SOL     OW 4765   0.837   5.911   1.587
 1289SOL    HW1 4766   0.817   5.834   1.526
 1289SOL    HW2 4767   0.754   5.939   1.634
 1290SOL     OW 4768   1.074   0.499   6.738
 1290SOL    HW1 4769   1.055   0.526   6.832
 1290SOL    HW2 4770   1.169   0.467   6.730
 1291SOL     OW 4771   6.923   4.042   5.563
 1291SOL    HW1 4772   6.917   3.992   5.649
 1291SOL    HW2 4773   6.943   4.138   5.582
 1292SOL     OW 4774   0.040   6.117   2.696
 1292SOL    HW1 4775   0.139   6.131   2.688
 1292SOL    HW2 4776   7.015   6.204   2.685
 1293SOL     OW 4777   1.310   1.273   6.683
 1293SOL    HW1 4778   1.352   1.325   6.757
 1293SOL    HW2 4779   1.324   1.323   6.596
 1294SOL     OW 4780   1.262   3.698   6.702
 1294SOL    HW1 4781   1.303   3.772   6.755
 1294SOL    HW2 4782   1.198   3.737   6.635
 1295SOL     OW 4783   0.163   3.683   2.727
 1295SOL    HW1 4784   0.113   3.770   2.722
 1295SOL    HW2 4785   0.100   3.610   2.755
 1296SOL     OW 4786   3.721   0.609   5.605
 1296SOL    HW1 4787   3.635   0.575   5.568
 1296SOL    HW2 4788   3.760   0.542   5.668
 1297SOL     OW 4789   5.723   0.448   0.623
 1297SOL    HW1 4790   5.654   0.463   0.694
 1297SOL    HW2 4791   5.687   0.384   0.555
 1298SOL     OW 4792   6.600   4.823   2.749
 1298SOL    HW1 4793   6.608   4.855   2.844
 1298SOL    HW2 4794   6.688   4.785   2.720
 1299SOL     OW 4795   0.485   4.125   3.213
 1299SOL    HW1 4796   0.408   4.130   3.150
 1299SOL    HW2 4797   0.553   4.059   3.179
 1300SOL     OW 4798   3.701   3.739   1.896
 1300SOL    HW1 4799   3.742   3.648   1.897
 1300SOL    HW2 4800   3.606   3.732   1.927
 1301SOL     OW 4801   0.425   5.729   1.828
 1301SOL    HW1 4802   0.500   5.679   1.785
 1301SOL    HW2 4803   0.378   5.669   1.893
 1302SOL     OW 4804   3.707   0.226   5.465
 1302SOL    HW1 4805   3.639   0.268   5.525
 1302SOL    HW2 4806   3.676   0.231   5.370
 1303SOL     OW 4807   4.473   1.341   1.978
 1303SOL    HW1 4808   4.496   1.419   1.921
 1303SOL    HW2 4809   4.461   1.372   2.073
 1304SOL     OW 4810   1.370   1.005   6.630
 1304SOL    HW1 4811   1.283   0.959   6.645
 1304SOL    HW2 4812   1.365   1.098   6.668
 1305SOL     OW 4813   4.616   3.091   0.040
 1305SOL    HW1 4814   4.551   3.047   7.000
 1305SOL    HW2 4815   4.640   3.181   0.004
 1306SOL     OW 4816   1.008   4.291   5.565
 1306SOL    HW1 4817   0.927   4.234   5.577
 1306SOL    HW2 4818   1.018   4.315   5.468
 1307SOL     OW 4819   1.079   3.424   5.406
 1307SOL    HW1 4820   1.125   3.382   5.485
 1307SOL    HW2 4821   1.110   3.379   5.322
 1308SOL     OW 4822   4.769   5.991   5.183
 1308SOL    HW1 4823   4.705   5.970   5.258
 1308SOL    HW2 4824   4.826   5.911   5.166
 1309SOL     OW 4825   4.930   2.850   5.117
 1309SOL    HW1 4826   4.960   2.846   5.021
 1309SOL    HW2 4827   4.945   2.942   5.152
 1310SOL     OW 4828   0.332   4.022   5.227
 1310SOL    HW1 4829   0.393   4.024   5.148
 1310SOL    HW2 4830   0.376   4.064   5.306
 1311SOL     OW 4831   0.109   0.225   4.321
 1311SOL    HW1 4832   0.070   0.161   4.254
 1311SOL    HW2 4833   0.207   0.209   4.329
 1312SOL     OW 4834   0.841   0.613   6.645
 1312SOL    HW1 4835   0.784   0.535   6.620
 1312SOL    HW2 4836   0.935   0.581   6.663
 1313SOL     OW 4837   1.684   4.377   4.302
 1313SOL    HW1 4838   1.658   4.295   4.251
 1313SOL    HW2 4839   1.784   4.387   4.299
 1314SOL     OW 4840   3.874   1.429   5.827
 1314SOL    HW1 4841   3.800   1.367   5.801
 1314SOL    HW2 4842   3.927   1.453   5.746
 1315SOL     OW 4843   0.711   0.863   0.439
 1315SOL    HW1 4844   0.731   0.780   0.491
 1315SOL    HW2 4845   0.754   0.942   0.484
 1316SOL     OW 4846   1.924   6.363   4.558
 1316SOL    HW1 4847   1.891   6.344   4.650
 1316SOL    HW2 4848   1.889   6.453   4.528
 1317SOL     OW 4849   1.430   4.157   4.803
 1317SOL    HW1 4850   1.468   4.178   4.713
 1317SOL    HW2 4851   1.333   4.134   4.793
 1318SOL     OW 4852   0.814   0.988   0.823
 1318SOL    HW1 4853   0.889   0.933   0.860
 1318SOL    HW2 4854   0.849   1.046   0.749
 1319SOL     OW 4855   0.111   0.675   6.482
 1319SOL    HW1 4856   0.058   0.692   6.398
 1319SOL    HW2 4857   0.069   0.724   6.558
 1320SOL     OW 4858   5.532   3.857   0.798
 1320SOL    HW1 4859   5.455   3.794   0.815
 1320SOL    HW2 4860   5.567   3.841   0.706
 1321SOL     OW 4861   4.666   2.251   5.698
 1321SOL    HW1 4862   4.758   2.261   5.661
 1321SOL    HW2 4863   4.638   2.337   5.741
 1322SOL     OW 4864   4.191   0.610   4.308
 1322SOL    HW1 4865   4.140   0.531   4.341
 1322SOL    HW2 4866   4.288   0.599   4.329
 1323SOL     OW 4867   4.894   1.955   4.643
 1323SOL    HW1 4868   4.947   1.933   4.725
 1323SOL    HW2 4869   4.949   1.932   4.562
 1324SOL     OW 4870   0.918   2.834   0.064
 1324SOL    HW1 4871   0.845   2.889   0.024
 1324SOL    HW2 4872   0.987   2.894   0.105
 1325SOL     OW 4873   1.904   6.583   2.246
 1325SOL    HW1 4874   1.910   6.511   2.315
 1325SOL    HW2 4875   1.851   6.660   2.282
 1326SOL     OW 4876   4.770   2.838   4.610
 1326SOL    HW1 4877   4.829   2.784   4.549
 1326SOL    HW2 4878   4.783   2.807   4.704
 1327SOL     OW 4879   1.622   4.479   1.675
 1327SOL    HW1 4880   1.630   4.494   1.773
 1327SOL    HW2 4881   1.587   4.387   1.657
 1328SOL     OW 4882   1.597   2.855   0.998
 1328SOL    HW1 4883   1.512   2.819   1.036
 1328SOL    HW2 4884   1.667   2.859   1.070
 1329SOL     OW 4885   1.216   2.469   0.821
 1329SOL    HW1 4886   1.146   2.458   0.892
 1329SOL    HW2 4887   1.297   2.415   0.844
 1330SOL     OW 4888   6.764   1.025   1.416
 1330SOL    HW1 4889   6.859   0.997   1.402
 1330SOL    HW2 4890   6.736   1.088   1.344
 1331SOL     OW 4891   4.803   2.345   2.919
 1331SOL    HW1 4892   4.721   2.295   2.889
 1331SOL    HW2 4893   4.787   2.443   2.907
 1332SOL     OW 4894   2.853   6.936   0.100
 1332SOL    HW1 4895   2.753   6.935   0.087
 1332SOL    HW2 4896   2.895   6.869   0.039
 1333SOL     OW 4897   3.495   3.457   5.409
 1333SOL    HW1 4898   3.552   3.524   5.362
 1333SOL    HW2 4899   3.403   3.458   5.370
 1334SOL     OW 4900   6.386   2.388   4.433
 1334SOL    HW1 4901   6.327   2.329   4.490
 1334SOL    HW2 4902   6.386   2.481   4.471
 1335SOL     OW 4903   2.987   1.395   3.327
 1335SOL    HW1 4904   2.929   1.354   3.256
 1335SOL    HW2 4905   3.083   1.377   3.306
 1336SOL     OW 4906   2.103   1.466   6.036
 1336SOL    HW1 4907   2.008   1.484   6.062
 1336SOL    HW2 4908   2.105   1.425   5.945
 1337SOL     OW 4909   1.585   1.376   5.248
 1337SOL    HW1 4910   1.489   1.374   5.277
 1337SOL    HW2 4911   1.640   1.327   5.315
 1338SOL     OW 4912   5.475   2.734   6.403
 1338SOL    HW1 4913   5.408   2.723   6.477
 1338SOL    HW2 4914   5.566   2.709   6.436
 1339SOL     OW 4915   0.876   1.027   6.813
 1339SOL    HW1 4916   0.906   0.974   6.892
 1339SOL    HW2 4917   0.827   0.967   6.750
 1340SOL     OW 4918   0.521   1.982   2.112
 1340SOL    HW1 4919   0.431   1.969   2.073
 1340SOL    HW2 4920   0.512   2.009   2.208
 1341SOL     OW 4921   4.593   0.193   5.764
 1341SOL    HW1 4922   4.596   0.222   5.860
 1341SOL    HW2 4923   4.670   0.234   5.714
 1342SOL     OW 4924   1.667   4.708   6.405
 1342SOL    HW1 4925   1.764   4.729   6.400
 1342SOL    HW2 4926   1.652   4.636   6.474
 1343SOL     OW 4927   4.376   6.014   2.630
 1343SOL    HW1 4928   4.292   6.053   2.592
 1343SOL    HW2 4929   4.362   5.917   2.649
 1344SOL     OW 4930   6.800   4.969   3.990
 1344SOL    HW1 4931   6.827   4.873   3.983
 1344SOL    HW2 4932   6.843   5.010   4.071
 1345SOL     OW 4933   1.477   1.425   3.083
 1345SOL    HW1 4934   1.445   1.487   3.155
 1345SOL    HW2 4935   1.407   1.357   3.063
 1346SOL     OW 4936   0.799   6.443   4.216
 1346SOL    HW1 4937   0.712   6.448   4.167
 1346SOL    HW2 4938   0.814   6.529   4.265
 1347SOL     OW 4939   6.700   6.243   4.139
 1347SOL    HW1 4940   6.792   6.281   4.132
 1347SOL    HW2 4941   6.637   6.315   4.171
 1348SOL     OW 4942   5.359   4.837   2.597
 1348SOL    HW1 4943   5.446   4.792   2.616
 1348SOL    HW2 4944   5.366   4.934   2.622
 1349SOL     OW 4945   4.849   1.943   6.527
 1349SOL    HW1 4946   4.811   1.857   6.562
 1349SOL    HW2 4947   4.940   1.957   6.566
 1350SOL     OW 4948   5.087   4.272   6.476
 1350SOL    HW1 4949   5.162   4.227   6.427
 1350SOL    HW2 4950   5.000   4.243   6.436
 1351SOL     OW 4951   6.768   2.214   3.146
 1351SOL    HW1 4952   6.784   2.294   3.204
 1351SOL    HW2 4953   6.706   2.239   3.072
 1352SOL     OW 4954   6.633   0.256   2.887
 1352SOL    HW1 4955   6.602   0.329   2.827
 1352SOL    HW2 4956   6.619   0.282   2.982
 1353SOL     OW 4957   6.721   3.982   6.144
 1353SOL    HW1 4958   6.761   3.902   6.188
 1353SOL    HW2 4959   6.646   4.017   6.200
 1354SOL     OW 4960   0.530   1.994   0.219
 1354SOL    HW1 4961   0.540   1.969   0.315
 1354SOL    HW2 4962   0.534   2.094   0.210
 1355SOL     OW 4963   0.059   2.303   5.703
 1355SOL    HW1 4964   0.028   2.254   5.784
 1355SOL    HW2 4965   7.003   2.333   5.648
 1356SOL     OW 4966   2.985   3.139   3.614
 1356SOL    HW1 4967   2.976   3.041   3.593
 1356SOL    HW2 4968   3.076   3.156   3.652
 1357SOL     OW 4969   1.544   3.925   5.655
 1357SOL    HW1 4970   1.447   3.924   5.630
 1357SOL    HW2 4971   1.588   4.004   5.612
 1358SOL     OW 4972   4.163   1.251   6.053
 1358SOL    HW1 4973   4.148   1.162   6.095
 1358SOL    HW2 4974   4.245   1.293   6.092
 1359SOL     OW 4975   6.293   4.803   1.516
 1359SOL    HW1 4976   6.325   4.883   1.465
 1359SOL    HW2 4977   6.357   4.727   1.502
 1360SOL     OW 4978   4.017   3.935   1.093
 1360SOL    HW1 4979   4.090   3.970   1.035
 1360SOL    HW2 4980   4.039   3.841   1.121
 1361SOL     OW 4981   0.369   6.073   5.585
 1361SOL    HW1 4982   0.322   5.996   5.629
 1361SOL    HW2 4983   0.310   6.110   5.513
 1362SOL     OW 4984   2.935   3.658   4.411
 1362SOL    HW1 4985   2.854   3.691   4.362
 1362SOL    HW2 4986   2.979   3.734   4.458
 1363SOL     OW 4987   6.563   5.600   3.647
 1363SOL    HW1 4988   6.644   5.629   3.697
 1363SOL    HW2 4989   6.548   5.659   3.568
 1364SOL     OW 4990   0.003   2.499   0.384
 1364SOL    HW1 4991   0.081   2.458   0.336
 1364SOL    HW2 4992   0.020   2.596   0.398
 1365SOL     OW 4993   1.097   3.015   5.396
 1365SOL    HW1 4994   1.193   3.034   5.415
 1365SOL    HW2 4995   1.041   3.090   5.430
 1366SOL     OW 4996   0.666   4.167   0.466
 1366SOL    HW1 4997   0.618   4.083   0.439
 1366SOL    HW2 4998   0.650   4.238   0.397
 1367SOL     OW 4999   1.657   5.853   2.638
 1367SOL    HW1 5000   1.591   5.795   2.590
 1367SOL    HW2 5001   1.624   5.871   2.731
 1368SOL     OW 5002   0.176   6.766   3.476
 1368SOL    HW1 5003   0.151   6.669   3.475
 1368SOL    HW2 5004   0.185   6.799   3.382
 1369SOL     OW 5005   1.940   0.232   2.586
 1369SOL    HW1 5006   1.989   0.280   2.513
 1369SOL    HW2 5007   1.842   0.244   2.574
 1370SOL     OW 5008   4.455   1.896   3.208
 1370SOL    HW1 5009   4.371   1.946   3.186
 1370SOL    HW2 5010   4.471   1.826   3.138
 1371SOL     OW 5011   5.887   1.516   4.427
 1371SOL    HW1 5012   5.873   1.568   4.343
 1371SOL    HW2 5013   5.829   1.435   4.426
 1372SOL     OW 5014   1.138   2.279   0.613
 1372SOL    HW1 5015   1.154   2.353   0.679
 1372SOL    HW2 5016   1.082   2.314   0.538
 1373SOL     OW 5017   4.290   2.379   0.359
 1373SOL    HW1 5018   4.338   2.462   0.386
 1373SOL    HW2 5019   4.332   2.341   0.276
 1374SOL     OW 5020   4.165   1.951   0.644
 1374SOL    HW1 5021   4.106   1.872   0.659
 1374SOL    HW2 5022   4.118   2.034   0.673
 1375SOL     OW 5023   0.256   6.388   6.162
 1375SOL    HW1 5024   0.223   6.420   6.250
 1375SOL    HW2 5025   0.183   6.393   6.094
 1376SOL     OW 5026   4.609   4.644   5.273
 1376SOL    HW1 5027   4.666   4.563   5.261
 1376SOL    HW2 5028   4.651   4.705   5.340
 1377SOL     OW 5029   0.755   3.756   4.676
 1377SOL    HW1 5030   0.767   3.684   4.744
 1377SOL    HW2 5031   0.844   3.782   4.639
 1378SOL     OW 5032   5.743   1.758   4.505
 1378SOL    HW1 5033   5.792   1.820   4.444
 1378SOL    HW2 5034   5.803   1.684   4.534
 1379SOL     OW 5035   3.936   6.193   3.264
 1379SOL    HW1 5036   3.978   6.194   3.355
 1379SOL    HW2 5037   3.967   6.113   3.213
 1380SOL     OW 5038   0.691   7.013   3.414
 1380SOL    HW1 5039   0.654   0.026   3.328
 1380SOL    HW2 5040   0.783   0.026   3.428
 1381SOL     OW 5041   6.097   1.668   0.661
 1381SOL    HW1 5042   6.054   1.592   0.613
 1381SOL    HW2 5043   6.086   1.752   0.608
 1382SOL     OW 5044   5.938   3.414   1.094
 1382SOL    HW1 5045   5.955   3.505   1.132
 1382SOL    HW2 5046   5.948   3.417   0.994
 1383SOL     OW 5047   0.913   0.812   2.036
 1383SOL    HW1 5048   0.847   0.842   2.106
 1383SOL    HW2 5049   0.864   0.767   1.962
 1384SOL     OW 5050   4.541   0.640   1.722
 1384SOL    HW1 5051   4.591   0.701   1.784
 1384SOL    HW2 5052   4.497   0.568   1.775
 1385SOL     OW 5053   2.812   4.803   3.455
 1385SOL    HW1 5054   2.901   4.829   3.492
 1385SOL    HW2 5055   2.788   4.863   3.379
 1386SOL     OW 5056   3.007   1.032   4.033
 1386SOL    HW1 5057   2.980   1.088   4.111
 1386SOL    HW2 5058   3.069   1.083   3.974
 1387SOL     OW 5059   3.663   5.348   3.045
 1387SOL    HW1 5060   3.565   5.340   3.063
 1387SOL    HW2 5061   3.699   5.259   3.017
 1388SOL     OW 5062   0.139   0.748   2.551
 1388SOL    HW1 5063   0.223   0.800   2.536
 1388SOL    HW2 5064   0.141   0.706   2.642
 1389SOL     OW 5065   6.398   1.265   3.775
 1389SOL    HW1 5066   6.446   1.352   3.774
 1389SOL    HW2 5067   6.463   1.191   3.795
 1390SOL     OW 5068   6.523   2.494   6.041
 1390SOL    HW1 5069   6.465   2.571   6.016
 1390SOL    HW2 5070   6.598   2.487   5.975
 1391SOL     OW 5071   6.109   6.738   5.251
 1391SOL    HW1 5072   6.154   6.784   5.327
 1391SOL    HW2 5073   6.017   6.709   5.279
 1392SOL     OW 5074   5.900   6.664   5.791
 1392SOL    HW1 5075   5.910   6.635   5.886
 1392SOL    HW2 5076   5.873   6.586   5.735
 1393SOL     OW 5077   6.878   4.248   6.483
 1393SOL    HW1 5078   6.903   4.153   6.497
 1393SOL    HW2 5079   6.810   4.275   6.551
 1394SOL     OW 5080   3.975   5.333   5.738
 1394SOL    HW1 5081   3.988   5.236   5.717
 1394SOL    HW2 5082   4.057   5.384   5.709
 1395SOL     OW 5083   1.682   4.976   4.861
 1395SOL    HW1 5084   1.604   4.922   4.896
 1395SOL    HW2 5085   1.753   4.981   4.932
 1396SOL     OW 5086   6.970   1.343   5.190
 1396SOL    HW1 5087   6.916   1.386   5.262
 1396SOL    HW2 5088   0.029   1.300   5.230
 1397SOL     OW 5089   0.409   6.357   4.602
 1397SOL    HW1 5090   0.455   6.313   4.679
 1397SOL    HW2 5091   0.430   6.308   4.518
 1398SOL     OW 5092   3.048   1.040   6.291
 1398SOL    HW1 5093   2.993   1.093   6.227
 1398SOL    HW2 5094   3.040   1.080   6.383
 1399SOL     OW 5095   3.873   4.972   0.499
 1399SOL    HW1 5096   3.880   4.991   0.597
 1399SOL    HW2 5097   3.865   4.874   0.484
 1400SOL     OW 5098   0.375   1.804   4.345
 1400SOL    HW1 5099   0.414   1.845   4.263
 1400SOL    HW2 5100   0.440   1.739   4.384
 1401SOL     OW 5101   6.568   6.941   4.700
 1401SOL    HW1 5102   6.654   6.982   4.730
 1401SOL    HW2 5103   6.556   6.853   4.745
 1402SOL     OW 5104   5.175   3.947   6.489
 1402SOL    HW1 5105   5.212   3.953   6.396
 1402SOL    HW2 5106   5.216   4.017   6.547
 1403SOL     OW 5107   2.424   1.862   1.016
 1403SOL    HW1 5108   2.411   1.949   1.064
 1403SOL    HW2 5109   2.486   1.875   0.939
 1404SOL     OW 5110   6.556   0.024   6.375
 1404SOL    HW1 5111   6.632   0.085   6.354
 1404SOL    HW2 5112   6.470   0.064   6.344
 1405SOL     OW 5113   2.550   3.215   0.775
 1405SOL    HW1 5114   2.452   3.223   0.757
 1405SOL    HW2 5115   2.564   3.200   0.873
 1406SOL     OW 5116   0.927   5.987   0.827
 1406SOL    HW1 5117   0.829   5.967   0.824
 1406SOL    HW2 5118   0.971   5.926   0.893
 1407SOL     OW 5119   0.680   3.296   3.739
 1407SOL    HW1 5120   0.720   3.315   3.650
 1407SOL    HW2 5121   0.745   3.321   3.811
 1408SOL     OW 5122   5.214   1.557   5.640
 1408SOL    HW1 5123   5.216   1.565   5.541
 1408SOL    HW2 5124   5.121   1.569   5.673
 1409SOL     OW 5125   0.264   0.084   5.516
 1409SOL    HW1 5126   0.362   0.067   5.514
 1409SOL    HW2 5127   0.218   0.021   5.453
 1410SOL     OW 5128   1.718   4.479   6.636
 1410SOL    HW1 5129   1.630   4.434   6.621
 1410SOL    HW2 5130   1.715   4.531   6.721
 1411SOL     OW 5131   3.160   6.726   0.411
 1411SOL    HW1 5132   3.118   6.814   0.387
 1411SOL    HW2 5133   3.175   6.672   0.329
 1412SOL     OW 5134   1.127   2.749   1.034
 1412SOL    HW1 5135   1.099   2.827   1.090
 1412SOL    HW2 5136   1.083   2.666   1.068
 1413SOL     OW 5137   2.425   1.556   4.938
 1413SOL    HW1 5138   2.462   1.527   4.849
 1413SOL    HW2 5139   2.495   1.608   4.987
 1414SOL     OW 5140   2.045   1.865   2.230
 1414SOL    HW1 5141   1.961   1.827   2.193
 1414SOL    HW2 5142   2.036   1.877   2.329
 1415SOL     OW 5143   2.085   1.258   4.928
 1415SOL    HW1 5144   2.135   1.301   5.003
 1415SOL    HW2 5145   2.034   1.179   4.963
 1416SOL     OW 5146   4.407   5.666   4.489
 1416SOL    HW1 5147   4.424   5.723   4.570
 1416SOL    HW2 5148   4.490   5.664   4.433
 1417SOL     OW 5149   2.880   2.442   0.404
 1417SOL    HW1 5150   2.889   2.421   0.307
 1417SOL    HW2 5151   2.807   2.386   0.444
 1418SOL     OW 5152   3.450   3.647   2.702
 1418SOL    HW1 5153   3.386   3.678   2.632
 1418SOL    HW2 5154   3.486   3.558   2.677
 1419SOL     OW 5155   2.736   5.932   3.591
 1419SOL    HW1 5156   2.674   5.912   3.667
 1419SOL    HW2 5157   2.811   5.866   3.590
 1420SOL     OW 5158   2.531   6.250   2.104
 1420SOL    HW1 5159   2.569   6.162   2.076
 1420SOL    HW2 5160   2.522   6.310   2.024
 1421SOL     OW 5161   2.038   4.917   3.502
 1421SOL    HW1 5162   1.990   4.833   3.478
 1421SOL    HW2 5163   2.004   4.992   3.445
 1422SOL     OW 5164   1.274   4.079   6.579
 1422SOL    HW1 5165   1.341   4.043   6.514
 1422SOL    HW2 5166   1.183   4.073   6.538
 1423SOL     OW 5167   4.660   6.690   4.410
 1423SOL    HW1 5168   4.756   6.712   4.388
 1423SOL    HW2 5169   4.602   6.766   4.382
 1424SOL     OW 5170   6.591   3.857   6.513
 1424SOL    HW1 5171   6.597   3.953   6.487
 1424SOL    HW2 5172   6.543   3.849   6.601
 1425SOL     OW 5173   1.782   5.460   5.939
 1425SOL    HW1 5174   1.768   5.466   5.841
 1425SOL    HW2 5175   1.755   5.368   5.971
 1426SOL     OW 5176   2.847   3.181   6.834
 1426SOL    HW1 5177   2.766   3.193   6.776
 1426SOL    HW2 5178   2.833   3.105   6.897
 1427SOL     OW 5179   6.839   6.869   3.622
 1427SOL    HW1 5180   6.936   6.892   3.615
 1427SOL    HW2 5181   6.785   6.953   3.618
 1428SOL     OW 5182   0.832   1.983   6.924
 1428SOL    HW1 5183   0.788   1.907   6.972
 1428SOL    HW2 5184   0.858   1.954   6.832
 1429SOL     OW 5185   5.227   1.380   7.015
 1429SOL    HW1 5186   5.296   1.319   6.976
 1429SOL    HW2 5187   5.171   1.328   0.057
 1430SOL     OW 5188   1.926   5.207   4.128
 1430SOL    HW1 5189   1.996   5.277   4.145
 1430SOL    HW2 5190   1.841   5.235   4.172
 1431SOL     OW 5191   2.748   2.109   0.054
 1431SOL    HW1 5192   2.762   2.193   0.106
 1431SOL    HW2 5193   2.833   2.058   0.048
 1432SOL     OW 5194   2.913   1.769   1.301
 1432SOL    HW1 5195   2.829   1.737   1.256
 1432SOL    HW2 5196   2.987   1.704   1.285
 1433SOL     OW 5197   4.360   0.653   5.171
 1433SOL    HW1 5198   4.418   0.611   5.101
 1433SOL    HW2 5199   4.360   0.752   5.159
 1434SOL     OW 5200   1.593   0.159   5.735
 1434SOL    HW1 5201   1.672   0.219   5.749
 1434SOL    HW2 5202   1.524   0.178   5.805
 1435SOL     OW 5203   6.807   6.714   3.401
 1435SOL    HW1 5204   6.768   6.774   3.472
 1435SOL    HW2 5205   6.756   6.628   3.398
 1436SOL     OW 5206   4.893   3.638   6.886
 1436SOL    HW1 5207   4.928   3.732   6.876
 1436SOL    HW2 5208   4.930   3.597   6.969
 1437SOL     OW 5209   3.185   1.986   5.188
 1437SOL    HW1 5210   3.173   2.085   5.189
 1437SOL    HW2 5211   3.203   1.955   5.095
 1438SOL     OW 5212   2.538   6.734   2.126
 1438SOL    HW1 5213   2.605   6.788   2.076
 1438SOL    HW2 5214   2.446   6.766   2.105
 1439SOL     OW 5215   6.311   5.048   0.585
 1439SOL    HW1 5216   6.260   4.974   0.627
 1439SOL    HW2 5217   6.259   5.133   0.592
 1440SOL     OW 5218   3.316   3.228   6.390
 1440SOL    HW1 5219   3.384   3.177   6.337
 1440SOL    HW2 5220   3.232   3.237   6.337
 1441SOL     OW 5221   6.193   1.994   3.966
 1441SOL    HW1 5222   6.192   2.011   3.868
 1441SOL    HW2 5223   6.253   2.061   4.011
 1442SOL     OW 5224   6.965   5.577   6.848
 1442SOL    HW1 5225   6.920   5.662   6.820
 1442SOL    HW2 5226   0.026   5.565   6.796
 1443SOL     OW 5227   0.696   2.903   4.275
 1443SOL    HW1 5228   0.745   2.955   4.205
 1443SOL    HW2 5229   0.747   2.907   4.361
 1444SOL     OW 5230   4.419   5.673   0.902
 1444SOL    HW1 5231   4.490   5.602   0.903
 1444SOL    HW2 5232   4.424   5.724   0.816
 1445SOL     OW 5233   0.335   3.680   2.508
 1445SOL    HW1 5234   0.262   3.725   2.559
 1445SOL    HW2 5235   0.298   3.600   2.460
 1446SOL     OW 5236   5.083   2.451   0.716
 1446SOL    HW1 5237   5.003   2.433   0.660
 1446SOL    HW2 5238   5.145   2.372   0.711
 1447SOL     OW 5239   6.049   6.848   5.646
 1447SOL    HW1 5240   5.975   6.916   5.647
 1447SOL    HW2 5241   6.013   6.760   5.675
 1448SOL     OW 5242   7.004   2.139   5.926
 1448SOL    HW1 5243   6.943   2.183   5.992
 1448SOL    HW2 5244   6.981   2.042   5.919
 1449SOL     OW 5245   0.901   0.978   0.084
 1449SOL    HW1 5246   0.877   1.055   0.142
 1449SOL    HW2 5247   0.853   0.896   0.115
 1450SOL     OW 5248   0.923   2.287   1.445
 1450SOL    HW1 5249   0.888   2.267   1.537
 1450SOL    HW2 5250   0.846   2.305   1.383
 1451SOL     OW 5251   1.730   0.401   2.246
 1451SOL    HW1 5252   1.830   0.393   2.248
 1451SOL    HW2 5253   1.697   0.383   2.153
 1452SOL     OW 5254   4.892   1.005   4.492
 1452SOL    HW1 5255   4.928   1.022   4.584
 1452SOL    HW2 5256   4.929   0.919   4.458
 1453SOL     OW 5257   6.993   4.300   5.648
 1453SOL    HW1 5258   7.004   4.260   5.739
 1453SOL    HW2 5259   6.911   4.357   5.647
 1454SOL     OW 5260   0.357   3.375   2.130
 1454SOL    HW1 5261   0.409   3.399   2.048
 1454SOL    HW2 5262   0.345   3.276   2.134
 1455SOL     OW 5263   0.634   1.144   1.657
 1455SOL    HW1 5264   0.641   1.061   1.601
 1455SOL    HW2 5265   0.610   1.222   1.599
 1456SOL     OW 5266   6.696   6.482   5.272
 1456SOL    HW1 5267   6.698   6.509   5.176
 1456SOL    HW2 5268   6.770   6.526   5.321
 1457SOL     OW 5269   1.551   6.719   1.834
 1457SOL    HW1 5270   1.517   6.650   1.770
 1457SOL    HW2 5271   1.560   6.678   1.925
 1458SOL     OW 5272   6.151   5.583   3.290
 1458SOL    HW1 5273   6.063   5.624   3.315
 1458SOL    HW2 5274   6.213   5.589   3.368
 1459SOL     OW 5275   3.062   5.684   5.658
 1459SOL    HW1 5276   2.982   5.737   5.688
 1459SOL    HW2 5277   3.105   5.642   5.738
 1460SOL     OW 5278   0.641   5.999   5.223
 1460SOL    HW1 5279   0.708   5.950   5.167
 1460SOL    HW2 5280   0.640   5.959   5.315
 1461SOL     OW 5281   6.423   5.404   3.033
 1461SOL    HW1 5282   6.445   5.439   2.941
 1461SOL    HW2 5283   6.493   5.433   3.098
 1462SOL     OW 5284   1.298   0.214   6.860
 1462SOL    HW1 5285   1.245   0.147   6.808
 1462SOL    HW2 5286   1.350   0.167   6.931
 1463SOL     OW 5287   6.732   6.092   6.651
 1463SOL    HW1 5288   6.829   6.082   6.674
 1463SOL    HW2 5289   6.718   6.066   6.556
 1464SOL     OW 5290   0.201   0.320   1.287
 1464SOL    HW1 5291   0.132   0.366   1.232
 1464SOL    HW2 5292   0.199   0.221   1.268
 1465SOL     OW 5293   1.490   1.266   3.346
 1465SOL    HW1 5294   1.504   1.172   3.314
 1465SOL    HW2 5295   1.572   1.320   3.326
 1466SOL     OW 5296   1.339   1.810   2.329
 1466SOL    HW1 5297   1.386   1.833   2.244
 1466SOL    HW2 5298   1.370   1.871   2.402
 1467SOL     OW 5299   1.975   1.851   2.913
 1467SOL    HW1 5300   1.902   1.790   2.881
 1467SOL    HW2 5301   1.949   1.946   2.896
 1468SOL     OW 5302   4.529   5.958   2.203
 1468SOL    HW1 5303   4.588   6.023   2.252
 1468SOL    HW2 5304   4.579   5.921   2.124
 1469SOL     OW 5305   0.879   1.708   1.419
 1469SOL    HW1 5306   0.974   1.702   1.390
 1469SOL    HW2 5307   0.851   1.622   1.462
 1470SOL     OW 5308   1.142   1.934   2.605
 1470SOL    HW1 5309   1.118   1.846   2.565
 1470SOL    HW2 5310   1.060   1.980   2.638
 1471SOL     OW 5311   1.044   0.176   1.457
 1471SOL    HW1 5312   1.025   0.264   1.413
 1471SOL    HW2 5313   0.959   0.138   1.492
 1472SOL     OW 5314   3.787   5.640   5.870
 1472SOL    HW1 5315   3.742   5.724   5.839
 1472SOL    HW2 5316   3.779   5.633   5.970
 1473SOL     OW 5317   4.650   5.987   4.913
 1473SOL    HW1 5318   4.671   5.994   5.011
 1473SOL    HW2 5319   4.584   5.914   4.898
 1474SOL     OW 5320   5.461   5.438   2.310
 1474SOL    HW1 5321   5.518   5.389   2.376
 1474SOL    HW2 5322   5.502   5.527   2.290
 1475SOL     OW 5323   6.257   0.219   2.236
 1475SOL    HW1 5324   6.253   0.155   2.313
 1475SOL    HW2 5325   6.352   0.226   2.204
 1476SOL     OW 5326   2.749   0.994   1.272
 1476SOL    HW1 5327   2.729   0.919   1.335
 1476SOL    HW2 5328   2.842   1.027   1.288
 1477SOL     OW 5329   3.881   0.114   6.239
 1477SOL    HW1 5330   3.896   0.135   6.336
 1477SOL    HW2 5331   3.955   0.154   6.185
 1478SOL     OW 5332   6.248   5.624   6.526
 1478SOL    HW1 5333   6.223   5.636   6.622
 1478SOL    HW2 5334   6.252   5.714   6.481
 1479SOL     OW 5335   1.911   2.465   0.342
 1479SOL    HW1 5336   1.812   2.454   0.345
 1479SOL    HW2 5337   1.946   2.432   0.254
 1480SOL     OW 5338   3.200   0.739   5.493
 1480SOL    HW1 5339   3.170   0.810   5.430
 1480SOL    HW2 5340   3.289   0.765   5.532
 1481SOL     OW 5341   6.756   2.979   5.774
 1481SOL    HW1 5342   6.775   2.946   5.681
 1481SOL    HW2 5343   6.688   2.920   5.817
 1482SOL     OW 5344   4.473   1.881   1.351
 1482SOL    HW1 5345   4.547   1.882   1.283
 1482SOL    HW2 5346   4.406   1.811   1.326
 1483SOL     OW 5347   5.173   1.742   0.241
 1483SOL    HW1 5348   5.240   1.813   0.219
 1483SOL    HW2 5349   5.082   1.774   0.212
 1484SOL     OW 5350   5.788   4.284   4.710
 1484SOL    HW1 5351   5.882   4.270   4.680
 1484SOL    HW2 5352   5.788   4.325   4.802
 1485SOL     OW 5353   3.781   1.541   3.370
 1485SOL    HW1 5354   3.708   1.496   3.318
 1485SOL    HW2 5355   3.846   1.472   3.401
 1486SOL     OW 5356   5.421   1.754   2.682
 1486SOL    HW1 5357   5.503   1.754   2.739
 1486SOL    HW2 5358   5.380   1.846   2.684
 1487SOL     OW 5359   6.893   2.129   6.465
 1487SOL    HW1 5360   6.837   2.050   6.490
 1487SOL    HW2 5361   6.937   2.111   6.377
 1488SOL     OW 5362   4.811   0.980   3.614
 1488SOL    HW1 5363   4.892   0.973   3.556
 1488SOL    HW2 5364   4.783   1.075   3.621
 1489SOL     OW 5365   4.525   5.485   4.902
 1489SOL    HW1 5366   4.548   5.560   4.964
 1489SOL    HW2 5367   4.580   5.493   4.819
 1490SOL     OW 5368   0.926   3.058   2.139
 1490SOL    HW1 5369   0.888   2.996   2.208
 1490SOL    HW2 5370   0.855   3.121   2.109
 1491SOL     OW 5371   6.760   3.617   2.888
 1491SOL    HW1 5372   6.774   3.704   2.842
 1491SOL    HW2 5373   6.826   3.607   2.962
 1492SOL     OW 5374   5.808   0.758   2.504
 1492SOL    HW1 5375   5.744   0.825   2.466
 1492SOL    HW2 5376   5.871   0.729   2.432
 1493SOL     OW 5377   3.847   6.124   5.157
 1493SOL    HW1 5378   3.900   6.064   5.218
 1493SOL    HW2 5379   3.754   6.087   5.147
 1494SOL     OW 5380   5.189   2.089   6.163
 1494SOL    HW1 5381   5.101   2.109   6.205
 1494SOL    HW2 5382   5.261   2.142   6.209
 1495SOL     OW 5383   6.613   3.190   4.850
 1495SOL    HW1 5384   6.569   3.151   4.931
 1495SOL    HW2 5385   6.547   3.246   4.800
 1496SOL     OW 5386   0.463   1.645   1.325
 1496SOL    HW1 5387   0.479   1.548   1.308
 1496SOL    HW2 5388   0.550   1.692   1.340
 1497SOL     OW 5389   6.340   2.972   3.015
 1497SOL    HW1 5390   6.394   2.940   3.093
 1497SOL    HW2 5391   6.394   2.963   2.932
 1498SOL     OW 5392   1.979   4.994   6.790
 1498SOL    HW1 5393   2.019   5.082   6.818
 1498SOL    HW2 5394   1.906   5.010   6.724
 1499SOL     OW 5395   1.035   2.754   6.496
 1499SOL    HW1 5396   1.004   2.815   6.424
 1499SOL    HW2 5397   1.117   2.792   6.539
 1500SOL     OW 5398   6.976   0.141   6.832
 1500SOL    HW1 5399   6.900   0.132   6.768
 1500SOL    HW2 5400   6.942   0.170   6.921
 1501SOL     OW 5401   5.376   2.865   6.678
 1501SOL    HW1 5402   5.431   2.826   6.751
 1501SOL    HW2 5403   5.279   2.851   6.698
 1502SOL     OW 5404   4.105   7.006   0.383
 1502SOL    HW1 5405   4.028   6.942   0.381
 1502SOL    HW2 5406   4.070   0.077   0.383
 1503SOL     OW 5407   0.226   3.899   1.482
 1503SOL    HW1 5408   0.220   3.811   1.435
 1503SOL    HW2 5409   0.145   3.910   1.540
 1504SOL     OW 5410   0.787   0.378   5.401
 1504SOL    HW1 5411   0.804   0.475   5.385
 1504SOL    HW2 5412   0.822   0.324   5.325
 1505SOL     OW 5413   5.330   1.040   5.552
 1505SOL    HW1 5414   5.412   1.012   5.502
 1505SOL    HW2 5415   5.321   0.986   5.636
 1506SOL     OW 5416   0.640   6.488   0.868
 1506SOL    HW1 5417   0.696   6.533   0.938
 1506SOL    HW2 5418   0.625   6.392   0.893
 1507SOL     OW 5419   1.112   1.935   5.643
 1507SOL    HW1 5420   1.050   1.874   5.692
 1507SOL    HW2 5421   1.204   1.925   5.678
 1508SOL     OW 5422   6.836   1.244   1.888
 1508SOL    HW1 5423   6.832   1.334   1.932
 1508SOL    HW2 5424   6.770   1.241   1.813
 1509SOL     OW 5425   3.598   1.640   5.707
 1509SOL    HW1 5426   3.622   1.737   5.714
 1509SOL    HW2 5427   3.607   1.610   5.612
 1510SOL     OW 5428   4.622   2.171   4.841
 1510SOL    HW1 5429   4.578   2.259   4.864
 1510SOL    HW2 5430   4.666   2.178   4.752
 1511SOL     OW 5431   3.890   2.925   2.223
 1511SOL    HW1 5432   3.795   2.902   2.245
 1511SOL    HW2 5433   3.936   2.845   2.185
 1512SOL     OW 5434   0.063   5.545   1.570
 1512SOL    HW1 5435   0.084   5.463   1.517
 1512SOL    HW2 5436   0.079   5.528   1.667
 1513SOL     OW 5437   3.491   0.635   4.137
 1513SOL    HW1 5438   3.578   0.645   4.088
 1513SOL    HW2 5439   3.509   0.627   4.235
 1514SOL     OW 5440   4.459   2.099   5.604
 1514SOL    HW1 5441   4.452   2.009   5.647
 1514SOL    HW2 5442   4.538   2.147   5.641
 1515SOL     OW 5443   5.881   2.308   3.423
 1515SOL    HW1 5444   5.841   2.259   3.345
 1515SOL    HW2 5445   5.811   2.368   3.463
 1516SOL     OW 5446   6.824   6.718   0.140
 1516SOL    HW1 5447   6.917   6.737   0.111
 1516SOL    HW2 5448   6.805   6.620   0.130
 1517SOL     OW 5449   4.470   6.242   3.284
 1517SOL    HW1 5450   4.480   6.329   3.235
 1517SOL    HW2 5451   4.539   6.177   3.250
 1518SOL     OW 5452   1.180   2.576   0.084
 1518SOL    HW1 5453   1.202   2.497   0.027
 1518SOL    HW2 5454   1.173   2.547   0.180
 1519SOL     OW 5455   6.564   5.269   1.470
 1519SOL    HW1 5456   6.569   5.368   1.485
 1519SOL    HW2 5457   6.552   5.250   1.373
 1520SOL     OW 5458   0.376   3.670   1.839
 1520SOL    HW1 5459   0.435   3.744   1.806
 1520SOL    HW2 5460   0.358   3.606   1.764
 1521SOL     OW 5461   1.857   3.890   6.128
 1521SOL    HW1 5462   1.851   3.971   6.070
 1521SOL    HW2 5463   1.942   3.893   6.181
 1522SOL     OW 5464   6.380   6.299   5.378
 1522SOL    HW1 5465   6.383   6.352   5.293
 1522SOL    HW2 5466   6.410   6.205   5.360
 1523SOL     OW 5467   5.055   5.735   1.267
 1523SOL    HW1 5468   5.129   5.677   1.232
 1523SOL    HW2 5469   4.970   5.712   1.220
 1524SOL     OW 5470   2.178   1.997   2.009
 1524SOL    HW1 5471   2.130   1.991   2.097
 1524SOL    HW2 5472   2.245   2.071   2.013
 1525SOL     OW 5473   6.658   2.320   0.106
 1525SOL    HW1 5474   6.736   2.298   0.166
 1525SOL    HW2 5475   6.598   2.240   0.100
 1526SOL     OW 5476   6.225   6.858   6.252
 1526SOL    HW1 5477   6.185   6.865   6.343
 1526SOL    HW2 5478   6.243   6.950   6.216
 1527SOL     OW 5479   3.354   1.242   5.178
 1527SOL    HW1 5480   3.320   1.265   5.269
 1527SOL    HW2 5481   3.295   1.173   5.136
 1528SOL     OW 5482   4.875   5.820   2.239
 1528SOL    HW1 5483   4.845   5.901   2.189
 1528SOL    HW2 5484   4.816   5.806   2.318
 1529SOL     OW 5485   3.653   0.544   0.343
 1529SOL    HW1 5486   3.627   0.577   0.253
 1529SOL    HW2 5487   3.577   0.494   0.385
 1530SOL     OW 5488   3.504   1.540   2.109
 1530SOL    HW1 5489   3.421   1.495   2.077
 1530SOL    HW2 5490   3.491   1.639   2.109
 1531SOL     OW 5491   4.487   1.039   4.884
 1531SOL    HW1 5492   4.407   0.988   4.852
 1531SOL    HW2 5493   4.536   1.076   4.805
 1532SOL     OW 5494   2.641   3.343   6.018
 1532SOL    HW1 5495   2.550   3.330   6.057
 1532SOL    HW2 5496   2.646   3.433   5.976
 1533SOL     OW 5497   6.076   3.806   6.983
 1533SOL    HW1 5498   6.013   3.729   6.997
 1533SOL    HW2 5499   6.029   3.891   7.005
 1534SOL     OW 5500   2.330   4.686   6.461
 1534SOL    HW1 5501   2.379   4.643   6.537
 1534SOL    HW2 5502   2.236   4.653   6.458
 1535SOL     OW 5503   5.034   6.670   3.673
 1535SOL    HW1 5504   4.974   6.633   3.744
 1535SOL    HW2 5505   5.096   6.599   3.641
 1536SOL     OW 5506   4.010   4.668   5.262
 1536SOL    HW1 5507   4.088   4.612   5.236
 1536SOL    HW2 5508   3.926   4.614   5.255
 1537SOL     OW 5509   4.301   6.896   3.234
 1537SOL    HW1 5510   4.310   6.843   3.318
 1537SOL    HW2 5511   4.215   6.874   3.189
 1538SOL     OW 5512   4.137   5.638   6.079
 1538SOL    HW1 5513   4.219   5.625   6.134
 1538SOL    HW2 5514   4.098   5.549   6.055
 1539SOL     OW 5515   4.094   3.859   1.582
 1539SOL    HW1 5516   4.075   3.928   1.651
 1539SOL    HW2 5517   4.049   3.882   1.496
 1540SOL     OW 5518   1.422   5.631   6.250
 1540SOL    HW1 5519   1.326   5.659   6.248
 1540SOL    HW2 5520   1.479   5.710   6.228
 1541SOL     OW 5521   3.933   3.399   3.195
 1541SOL    HW1 5522   3.880   3.454   3.131
 1541SOL    HW2 5523   3.954   3.310   3.154
 1542SOL     OW 5524   5.979   5.997   2.198
 1542SOL    HW1 5525   5.898   5.939   2.188
 1542SOL    HW2 5526   6.006   6.000   2.294
 1543SOL     OW 5527   3.771   4.886   5.161
 1543SOL    HW1 5528   3.867   4.867   5.144
 1543SOL    HW2 5529   3.750   4.870   5.257
 1544SOL     OW 5530   3.413   3.526   2.941
 1544SOL    HW1 5531   3.372   3.434   2.938
 1544SOL    HW2 5532   3.422   3.561   2.848
 1545SOL     OW 5533   4.899   0.855   3.828
 1545SOL    HW1 5534   4.823   0.862   3.892
 1545SOL    HW2 5535   4.874   0.895   3.740
 1546SOL     OW 5536   3.789   6.028   6.103
 1546SOL    HW1 5537   3.857   5.959   6.076
 1546SOL    HW2 5538   3.819   6.118   6.072
 1547SOL     OW 5539   1.258   3.623   3.163
 1547SOL    HW1 5540   1.221   3.552   3.223
 1547SOL    HW2 5541   1.242   3.597   3.067
 1548SOL     OW 5542   4.943   3.694   5.789
 1548SOL    HW1 5543   4.979   3.608   5.751
 1548SOL    HW2 5544   4.845   3.683   5.808
 1549SOL     OW 5545   4.947   1.365   2.945
 1549SOL    HW1 5546   5.018   1.302   2.975
 1549SOL    HW2 5547   4.868   1.313   2.911
 1550SOL     OW 5548   3.070   3.976   6.841
 1550SOL    HW1 5549   3.112   3.886   6.846
 1550SOL    HW2 5550   2.999   3.984   6.912
 1551SOL     OW 5551   1.800   4.556   5.930
 1551SOL    HW1 5552   1.835   4.548   5.837
 1551SOL    HW2 5553   1.703   4.533   5.931
 1552SOL     OW 5554   0.184   6.486   6.672
 1552SOL    HW1 5555   0.234   6.467   6.756
 1552SOL    HW2 5556   0.180   6.585   6.657
 1553SOL     OW 5557   7.012   1.400   5.619
 1553SOL    HW1 5558   6.966   1.346   5.690
 1553SOL    HW2 5559   6.996   1.357   5.530
 1554SOL     OW 5560   4.594   1.364   3.017
 1554SOL    HW1 5561   4.634   1.454   2.999
 1554SOL    HW2 5562   4.510   1.354   2.963
 1555SOL     OW 5563   5.452   2.106   6.746
 1555SOL    HW1 5564   5.354   2.121   6.758
 1555SOL    HW2 5565   5.471   2.083   6.650
 1556SOL     OW 5566   3.156   0.967   1.126
 1556SOL    HW1 5567   3.208   1.027   1.187
 1556SOL    HW2 5568   3.105   0.900   1.182
 1557SOL     OW 5569   1.688   1.078   6.241
 1557SOL    HW1 5570   1.736   1.164   6.260
 1557SOL    HW2 5571   1.616   1.065   6.309
 1558SOL     OW 5572   5.147   0.838   4.813
 1558SOL    HW1 5573   5.162   0.851   4.715
 1558SOL    HW2 5574   5.141   0.928   4.857
 1559SOL     OW 5575   6.819   2.678   6.713
 1559SOL    HW1 5576   6.844   2.591   6.756
 1559SOL    HW2 5577   6.833   2.752   6.778
 1560SOL     OW 5578   2.014   1.689   5.815
 1560SOL    HW1 5579   2.086   1.715   5.750
 1560SOL    HW2 5580   2.048   1.701   5.908
 1561SOL     OW 5581   6.212   6.482   4.656
 1561SOL    HW1 5582   6.200   6.411   4.726
 1561SOL    HW2 5583   6.281   6.548   4.687
 1562SOL     OW 5584   3.939   5.859   2.806
 1562SOL    HW1 5585   3.877   5.784   2.782
 1562SOL    HW2 5586   3.957   5.858   2.904
 1563SOL     OW 5587   2.306   0.615   6.376
 1563SOL    HW1 5588   2.219   0.664   6.376
 1563SOL    HW2 5589   2.296   0.530   6.324
 1564SOL     OW 5590   1.010   2.875   3.229
 1564SOL    HW1 5591   0.915   2.901   3.215
 1564SOL    HW2 5592   1.028   2.864   3.327
 1565SOL     OW 5593   4.249   5.137   4.676
 1565SOL    HW1 5594   4.275   5.125   4.771
 1565SOL    HW2 5595   4.168   5.082   4.656
 1566SOL     OW 5596   5.190   5.323   3.491
 1566SOL    HW1 5597   5.169   5.228   3.467
 1566SOL    HW2 5598   5.287   5.340   3.478
 1567SOL     OW 5599   5.920   5.838   6.981
 1567SOL    HW1 5600   5.938   5.870   0.052
 1567SOL    HW2 5601   5.866   5.754   6.984
 1568SOL     OW 5602   1.757   5.573   1.344
 1568SOL    HW1 5603   1.786   5.608   1.433
 1568SOL    HW2 5604   1.673   5.520   1.354
 1569SOL     OW 5605   3.380   6.557   3.608
 1569SOL    HW1 5606   3.339   6.496   3.540
 1569SOL    HW2 5607   3.423   6.502   3.679
 1570SOL     OW 5608   2.011   6.766   0.942
 1570SOL    HW1 5609   1.998   6.674   0.905
 1570SOL    HW2 5610   2.041   6.760   1.037
 1571SOL     OW 5611   6.008   1.333   2.044
 1571SOL    HW1 5612   6.007   1.430   2.066
 1571SOL    HW2 5613   6.086   1.313   1.985
 1572SOL     OW 5614   0.782   6.836   0.772
 1572SOL    HW1 5615   0.781   6.932   0.744
 1572SOL    HW2 5616   0.826   6.828   0.861
 1573SOL     OW 5617   6.198   3.582   1.929
 1573SOL    HW1 5618   6.242   3.619   2.012
 1573SOL    HW2 5619   6.116   3.531   1.955
 1574SOL     OW 5620   0.308   0.945   3.164
 1574SOL    HW1 5621   0.318   0.886   3.083
 1574SOL    HW2 5622   0.282   0.889   3.242
 1575SOL     OW 5623   3.076   1.970   0.822
 1575SOL    HW1 5624   3.015   1.993   0.898
 1575SOL    HW2 5625   3.162   1.935   0.858
 1576SOL     OW 5626   0.894   0.647   3.270
 1576SOL    HW1 5627   0.830   0.576   3.242
 1576SOL    HW2 5628   0.914   0.708   3.193
 1577SOL     OW 5629   2.620   0.622   5.254
 1577SOL    HW1 5630   2.617   0.556   5.179
 1577SOL    HW2 5631   2.655   0.578   5.337
 1578SOL     OW 5632   5.862   2.674   5.740
 1578SOL    HW1 5633   5.907   2.749   5.790
 1578SOL    HW2 5634   5.813   2.712   5.661
 1579SOL     OW 5635   0.749   1.837   2.562
 1579SOL    HW1 5636   0.834   1.803   2.602
 1579SOL    HW2 5637   0.764   1.857   2.465
 1580SOL     OW 5638   3.214   4.115   4.069
 1580SOL    HW1 5639   3.276   4.156   4.136
 1580SOL    HW2 5640   3.122   4.110   4.108
 1581SOL     OW 5641   0.213   4.207   5.578
 1581SOL    HW1 5642   0.229   4.110   5.597
 1581SOL    HW2 5643   0.138   4.241   5.635
 1582SOL     OW 5644   2.008   0.080   4.153
 1582SOL    HW1 5645   2.026   0.016   4.228
 1582SOL    HW2 5646   1.949   0.036   4.086
 1583SOL     OW 5647   1.141   5.038   3.479
 1583SOL    HW1 5648   1.113   4.943   3.486
 1583SOL    HW2 5649   1.221   5.054   3.538
 1584SOL     OW 5650   1.554   6.195   6.502
 1584SOL    HW1 5651   1.628   6.262   6.494
 1584SOL    HW2 5652   1.469   6.241   6.526
 1585SOL     OW 5653   5.658   1.263   3.347
 1585SOL    HW1 5654   5.710   1.177   3.342
 1585SOL    HW2 5655   5.585   1.261   3.278
 1586SOL     OW 5656   3.565   4.906   2.293
 1586SOL    HW1 5657   3.581   4.856   2.207
 1586SOL    HW2 5658   3.467   4.909   2.312
 1587SOL     OW 5659   3.144   5.468   6.267
 1587SOL    HW1 5660   3.203   5.403   6.219
 1587SOL    HW2 5661   3.126   5.547   6.207
 1588SOL     OW 5662   4.246   0.849   2.949
 1588SOL    HW1 5663   4.301   0.768   2.927
 1588SOL    HW2 5664   4.304   0.920   2.987
 1589SOL     OW 5665   6.246   3.170   1.841
 1589SOL    HW1 5666   6.205   3.241   1.784
 1589SOL    HW2 5667   6.195   3.162   1.926
 1590SOL     OW 5668   3.828   6.198   5.583
 1590SOL    HW1 5669   3.807   6.236   5.673
 1590SOL    HW2 5670   3.749   6.210   5.522
 1591SOL     OW 5671   6.818   5.511   2.227
 1591SOL    HW1 5672   6.771   5.505   2.315
 1591SOL    HW2 5673   6.883   5.436   2.219
 1592SOL     OW 5674   2.148   4.179   6.589
 1592SOL    HW1 5675   2.095   4.222   6.516
 1592SOL    HW2 5676   2.113   4.209   6.677
 1593SOL     OW 5677   1.747   6.148   5.153
 1593SOL    HW1 5678   1.670   6.091   5.125
 1593SOL    HW2 5679   1.714   6.236   5.185
 1594SOL     OW 5680   0.071   6.248   2.103
 1594SOL    HW1 5681   0.062   6.175   2.035
 1594SOL    HW2 5682   0.018   6.224   2.184
 1595SOL     OW 5683   1.210   5.775   0.394
 1595SOL    HW1 5684   1.217   5.754   0.296
 1595SOL    HW2 5685   1.232   5.694   0.447
 1596SOL     OW 5686   0.467   2.514   3.979
 1596SOL    HW1 5687   0.423   2.463   4.053
 1596SOL    HW2 5688   0.400   2.528   3.905
 1597SOL     OW 5689   1.747   6.220   0.336
 1597SOL    HW1 5690   1.742   6.157   0.413
 1597SOL    HW2 5691   1.666   6.210   0.279
 1598SOL     OW 5692   0.622   4.006   6.017
 1598SOL    HW1 5693   0.640   4.027   5.921
 1598SOL    HW2 5694   0.646   3.911   6.036
 1599SOL     OW 5695   4.986   4.748   5.255
 1599SOL    HW1 5696   5.069   4.755   5.199
 1599SOL    HW2 5697   4.988   4.663   5.307
 1600SOL     OW 5698   4.261   1.482   3.617
 1600SOL    HW1 5699   4.290   1.399   3.664
 1600SOL    HW2 5700   4.340   1.522   3.569
 1601SOL     OW 5701   0.174   4.625   4.859
 1601SOL    HW1 5702   0.232   4.644   4.780
 1601SOL    HW2 5703   0.226   4.642   4.943
 1602SOL     OW 5704   3.449   5.030   3.567
 1602SOL    HW1 5705   3.435   5.102   3.635
 1602SOL    HW2 5706   3.370   5.025   3.506
 1603SOL     OW 5707   0.865   6.308   3.074
 1603SOL    HW1 5708   0.954   6.264   3.059
 1603SOL    HW2 5709   0.851   6.379   3.005
 1604SOL     OW 5710   5.354   5.057   1.697
 1604SOL    HW1 5711   5.303   5.041   1.782
 1604SOL    HW2 5712   5.384   4.969   1.659
 1605SOL     OW 5713   6.513   5.962   1.438
 1605SOL    HW1 5714   6.549   5.902   1.509
 1605SOL    HW2 5715   6.589   6.009   1.393
 1606SOL     OW 5716   3.302   0.870   4.771
 1606SOL    HW1 5717   3.203   0.872   4.754
 1606SOL    HW2 5718   3.340   0.961   4.757
 1607SOL     OW 5719   4.282   0.717   1.250
 1607SOL    HW1 5720   4.373   0.676   1.259
 1607SOL    HW2 5721   4.283   0.785   1.177
 1608SOL     OW 5722   0.909   0.499   3.519
 1608SOL    HW1 5723   0.949   0.553   3.445
 1608SOL    HW2 5724   0.872   0.414   3.483
 1609SOL     OW 5725   3.714   0.073   0.593
 1609SOL    HW1 5726   3.635   0.034   0.642
 1609SOL    HW2 5727   3.721   0.031   0.503
 1610SOL     OW 5728   6.075   4.755   6.937
 1610SOL    HW1 5729   6.039   4.722   6.849
 1610SOL    HW2 5730   6.170   4.784   6.926
 1611SOL     OW 5731   2.169   3.678   1.251
 1611SOL    HW1 5732   2.113   3.716   1.325
 1611SOL    HW2 5733   2.110   3.635   1.183
 1612SOL     OW 5734   2.762   0.220   5.892
 1612SOL    HW1 5735   2.682   0.173   5.929
 1612SOL    HW2 5736   2.755   0.224   5.792
 1613SOL     OW 5737   2.005   5.427   1.533
 1613SOL    HW1 5738   1.994   5.328   1.524
 1613SOL    HW2 5739   2.095   5.454   1.498
 1614SOL     OW 5740   6.118   3.422   0.133
 1614SOL    HW1 5741   6.125   3.482   0.213
 1614SOL    HW2 5742   6.025   3.386   0.127
 1615SOL     OW 5743   5.925   4.978   1.148
 1615SOL    HW1 5744   5.891   4.905   1.089
 1615SOL    HW2 5745   5.944   4.941   1.239
 1616SOL     OW 5746   2.949   0.814   5.003
 1616SOL    HW1 5747   2.966   0.879   4.929
 1616SOL    HW2 5748   2.892   0.857   5.073
 1617SOL     OW 5749   6.037   0.169   2.617
 1617SOL    HW1 5750   6.043   0.119   2.703
 1617SOL    HW2 5751   5.970   0.243   2.626
 1618SOL     OW 5752   1.836   4.284   2.163
 1618SOL    HW1 5753   1.921   4.266   2.113
 1618SOL    HW2 5754   1.780   4.348   2.111
 1619SOL     OW 5755   1.330   3.210   2.076
 1619SOL    HW1 5756   1.242   3.248   2.106
 1619SOL    HW2 5757   1.375   3.166   2.154
 1620SOL     OW 5758   2.722   4.869   1.860
 1620SOL    HW1 5759   2.819   4.863   1.838
 1620SOL    HW2 5760   2.704   4.822   1.947
 1621SOL     OW 5761   0.067   0.999   0.226
 1621SOL    HW1 5762   0.146   1.021   0.283
 1621SOL    HW2 5763   0.091   0.926   0.162
 1622SOL     OW 5764   0.280   2.811   4.874
 1622SOL    HW1 5765   0.283   2.908   4.848
 1622SOL    HW2 5766   0.300   2.755   4.794
 1623SOL     OW 5767   1.967   3.087   5.181
 1623SOL    HW1 5768   1.901   3.014   5.201
 1623SOL    HW2 5769   1.984   3.090   5.083
 1624SOL     OW 5770   2.644   0.519   4.768
 1624SOL    HW1 5771   2.671   0.422   4.763
 1624SOL    HW2 5772   2.575   0.537   4.698
 1625SOL     OW 5773   0.900   5.555   1.042
 1625SOL    HW1 5774   0.900   5.462   1.079
 1625SOL    HW2 5775   0.815   5.602   1.069
 1626SOL     OW 5776   4.140   1.856   6.814
 1626SOL    HW1 5777   4.091   1.897   6.890
 1626SOL    HW2 5778   4.162   1.926   6.746
 1627SOL     OW 5779   6.719   3.946   3.198
 1627SOL    HW1 5780   6.705   4.023   3.136
 1627SOL    HW2 5781   6.631   3.909   3.226
 1628SOL     OW 5782   4.719   4.558   0.242
 1628SOL    HW1 5783   4.770   4.474   0.261
 1628SOL    HW2 5784   4.741   4.591   0.150
 1629SOL     OW 5785   2.810   0.678   3.871
 1629SOL    HW1 5786   2.771   0.711   3.785
 1629SOL    HW2 5787   2.736   0.657   3.935
 1630SOL     OW 5788   1.843   5.189   5.696
 1630SOL    HW1 5789   1.787   5.123   5.646
 1630SOL    HW2 5790   1.784   5.244   5.755
 1631SOL     OW 5791   1.124   2.514   6.710
 1631SOL    HW1 5792   1.147   2.539   6.616
 1631SOL    HW2 5793   1.135   2.593   6.770
 1632SOL     OW 5794   0.189   1.905   6.846
 1632SOL    HW1 5795   0.129   1.951   6.911
 1632SOL    HW2 5796   0.273   1.957   6.835
 1633SOL     OW 5797   5.278   3.407   4.471
 1633SOL    HW1 5798   5.285   3.480   4.539
 1633SOL    HW2 5799   5.322   3.436   4.386
 1634SOL     OW 5800   4.406   5.324   5.532
 1634SOL    HW1 5801   4.422   5.270   5.615
 1634SOL    HW2 5802   4.483   5.386   5.516
 1635SOL     OW 5803   0.107   5.500   5.710
 1635SOL    HW1 5804   0.119   5.533   5.803
 1635SOL    HW2 5805   0.029   5.438   5.706
 1636SOL     OW 5806   2.973   4.389   1.606
 1636SOL    HW1 5807   2.965   4.430   1.697
 1636SOL    HW2 5808   3.027   4.305   1.612
 1637SOL     OW 5809   1.000   0.971   2.849
 1637SOL    HW1 5810   1.093   0.987   2.818
 1637SOL    HW2 5811   0.937   1.030   2.799
 1638SOL     OW 5812   0.797   4.257   3.321
 1638SOL    HW1 5813   0.710   4.217   3.290
 1638SOL    HW2 5814   0.833   4.317   3.249
 1639SOL     OW 5815   5.059   6.993   2.770
 1639SOL    HW1 5816   4.981   7.007   2.831
 1639SOL    HW2 5817   5.126   6.933   2.814
 1640SOL     OW 5818   5.948   1.055   0.612
 1640SOL    HW1 5819   5.867   1.045   0.553
 1640SOL    HW2 5820   5.972   1.152   0.618
 1641SOL     OW 5821   4.786   2.878   3.451
 1641SOL    HW1 5822   4.738   2.790   3.456
 1641SOL    HW2 5823   4.803   2.911   3.544
 1642SOL     OW 5824   5.903   3.584   6.569
 1642SOL    HW1 5825   5.811   3.580   6.608
 1642SOL    HW2 5826   5.897   3.583   6.469
 1643SOL     OW 5827   2.958   4.806   4.300
 1643SOL    HW1 5828   2.893   4.824   4.227
 1643SOL    HW2 5829   2.908   4.787   4.385
 1644SOL     OW 5830   6.779   3.505   0.753
 1644SOL    HW1 5831   6.708   3.539   0.814
 1644SOL    HW2 5832   6.867   3.505   0.800
 1645SOL     OW 5833   3.120   5.925   5.475
 1645SOL    HW1 5834   3.096   5.836   5.513
 1645SOL    HW2 5835   3.220   5.935   5.473
 1646SOL     OW 5836   3.092   5.856   0.596
 1646SOL    HW1 5837   3.064   5.797   0.521
 1646SOL    HW2 5838   3.080   5.952   0.570
 1647SOL     OW 5839   5.931   3.273   4.751
 1647SOL    HW1 5840   5.906   3.231   4.838
 1647SOL    HW2 5841   5.995   3.213   4.702
 1648SOL     OW 5842   5.423   5.218   1.014
 1648SOL    HW1 5843   5.478   5.153   0.963
 1648SOL    HW2 5844   5.450   5.311   0.989
 1649SOL     OW 5845   2.908   0.765   4.132
 1649SOL    HW1 5846   2.881   0.702   4.060
 1649SOL    HW2 5847   2.924   0.856   4.093
 1650SOL     OW 5848   1.974   6.554   5.707
 1650SOL    HW1 5849   2.042   6.625   5.726
 1650SOL    HW2 5850   1.884   6.597   5.696
 1651SOL     OW 5851   0.348   1.857   1.187
 1651SOL    HW1 5852   0.414   1.797   1.231
 1651SOL    HW2 5853   0.308   1.811   1.107
 1652SOL     OW 5854   0.852   4.165   2.498
 1652SOL    HW1 5855   0.888   4.078   2.465
 1652SOL    HW2 5856   0.782   4.148   2.568
 1653SOL     OW 5857   1.523   0.395   1.139
 1653SOL    HW1 5858   1.453   0.327   1.161
 1653SOL    HW2 5859   1.492   0.485   1.169
 1654SOL     OW 5860   6.936   3.511   1.091
 1654SOL    HW1 5861   6.927   3.462   1.178
 1654SOL    HW2 5862   6.896   3.603   1.100
 1655SOL     OW 5863   6.470   2.262   5.263
 1655SOL    HW1 5864   6.554   2.225   5.224
 1655SOL    HW2 5865   6.422   2.191   5.314
 1656SOL     OW 5866   2.356   4.615   1.898
 1656SOL    HW1 5867   2.321   4.640   1.988
 1656SOL    HW2 5868   2.403   4.693   1.858
 1657SOL     OW 5869   6.786   1.205   3.650
 1657SOL    HW1 5870   6.800   1.300   3.622
 1657SOL    HW2 5871   6.726   1.202   3.729
 1658SOL     OW 5872   1.298   6.986   1.462
 1658SOL    HW1 5873   1.243   0.038   1.425
 1658SOL    HW2 5874   1.277   6.975   1.559
 1659SOL     OW 5875   3.672   0.371   5.802
 1659SOL    HW1 5876   3.742   0.365   5.873
 1659SOL    HW2 5877   3.620   0.286   5.799
 1660SOL     OW 5878   1.295   5.313   4.239
 1660SOL    HW1 5879   1.265   5.382   4.305
 1660SOL    HW2 5880   1.232   5.235   4.242
 1661SOL     OW 5881   2.483   0.681   2.118
 1661SOL    HW1 5882   2.495   0.749   2.046
 1661SOL    HW2 5883   2.572   0.651   2.151
 1662SOL     OW 5884   6.725   0.309   4.051
 1662SOL    HW1 5885   6.790   0.254   3.999
 1662SOL    HW2 5886   6.660   0.249   4.098
 1663SOL     OW 5887   4.148   6.385   2.208
 1663SOL    HW1 5888   4.199   6.470   2.193
 1663SOL    HW2 5889   4.212   6.310   2.221
 1664SOL     OW 5890   1.754   6.767   4.644
 1664SOL    HW1 5891   1.714   6.835   4.705
 1664SOL    HW2 5892   1.834   6.726   4.688
 1665SOL     OW 5893   7.000   1.630   3.199
 1665SOL    HW1 5894   7.001   1.727   3.223
 1665SOL    HW2 5895   6.932   1.583   3.254
 1666SOL     OW 5896   5.319   2.779   0.110
 1666SOL    HW1 5897   5.336   2.780   0.011
 1666SOL    HW2 5898   5.349   2.692   0.148
 1667SOL     OW 5899   6.769   6.206   1.607
 1667SOL    HW1 5900   6.831   6.279   1.578
 1667SOL    HW2 5901   6.678   6.244   1.622
 1668SOL     OW 5902   5.360   6.143   5.936
 1668SOL    HW1 5903   5.431   6.120   5.869
 1668SOL    HW2 5904   5.275   6.097   5.910
 1669SOL     OW 5905   0.370   5.668   6.252
 1669SOL    HW1 5906   0.313   5.689   6.331
 1669SOL    HW2 5907   0.434   5.594   6.275
 1670SOL     OW 5908   0.313   3.904   5.922
 1670SOL    HW1 5909   0.219   3.884   5.949
 1670SOL    HW2 5910   0.368   3.821   5.930
 1671SOL     OW 5911   4.877   1.882   1.283
 1671SOL    HW1 5912   4.867   1.955   1.351
 1671SOL    HW2 5913   4.795   1.880   1.224
 1672SOL     OW 5914   1.734   3.166   0.988
 1672SOL    HW1 5915   1.693   3.089   0.939
 1672SOL    HW2 5916   1.713   3.159   1.085
 1673SOL     OW 5917   0.538   2.472   4.772
 1673SOL    HW1 5918   0.487   2.484   4.857
 1673SOL    HW2 5919   0.630   2.437   4.792
 1674SOL     OW 5920   0.243   3.699   2.081
 1674SOL    HW1 5921   0.301   3.678   2.002
 1674SOL    HW2 5922   0.299   3.732   2.157
 1675SOL     OW 5923   4.220   0.252   6.372
 1675SOL    HW1 5924   4.268   0.165   6.384
 1675SOL    HW2 5925   4.197   0.264   6.275
 1676SOL     OW 5926   1.966   2.148   1.914
 1676SOL    HW1 5927   1.948   2.136   1.816
 1676SOL    HW2 5928   2.029   2.078   1.946
 1677SOL     OW 5929   3.156   3.047   5.407
 1677SOL    HW1 5930   3.107   3.091   5.332
 1677SOL    HW2 5931   3.230   3.107   5.437
 1678SOL     OW 5932   4.671   4.314   4.633
 1678SOL    HW1 5933   4.763   4.351   4.647
 1678SOL    HW2 5934   4.611   4.386   4.599
 1679SOL     OW 5935   2.576   2.448   4.394
 1679SOL    HW1 5936   2.542   2.399   4.474
 1679SOL    HW2 5937   2.612   2.537   4.422
 1680SOL     OW 5938   0.031   3.616   4.776
 1680SOL    HW1 5939   6.969   3.669   4.774
 1680SOL    HW2 5940   0.022   3.536   4.716
 1681SOL     OW 5941   6.505   5.842   6.882
 1681SOL    HW1 5942   6.604   5.848   6.871
 1681SOL    HW2 5943   6.481   5.865   6.976
 1682SOL     OW 5944   0.825   1.094   4.622
 1682SOL    HW1 5945   0.833   1.002   4.585
 1682SOL    HW2 5946   0.902   1.113   4.682
 1683SOL     OW 5947   4.605   5.462   1.476
 1683SOL    HW1 5948   4.546   5.537   1.505
 1683SOL    HW2 5949   4.581   5.379   1.527
 1684SOL     OW 5950   1.561   6.159   2.749
 1684SOL    HW1 5951   1.540   6.139   2.845
 1684SOL    HW2 5952   1.658   6.141   2.732
 1685SOL     OW 5953   2.398   0.689   5.650
 1685SOL    HW1 5954   2.328   0.684   5.580
 1685SOL    HW2 5955   2.480   0.641   5.619
 1686SOL     OW 5956   2.732   5.447   4.780
 1686SOL    HW1 5957   2.675   5.446   4.862
 1686SOL    HW2 5958   2.791   5.528   4.781
 1687SOL     OW 5959   2.436   3.607   1.258
 1687SOL    HW1 5960   2.454   3.570   1.349
 1687SOL    HW2 5961   2.354   3.664   1.261
 1688SOL     OW 5962   2.244   2.215   4.654
 1688SOL    HW1 5963   2.256   2.313   4.639
 1688SOL    HW2 5964   2.184   2.201   4.732
 1689SOL     OW 5965   5.665   1.438   2.658
 1689SOL    HW1 5966   5.713   1.407   2.740
 1689SOL    HW2 5967   5.668   1.366   2.589
 1690SOL     OW 5968   1.650   2.857   4.059
 1690SOL    HW1 5969   1.608   2.836   4.148
 1690SOL    HW2 5970   1.582   2.896   3.998
 1691SOL     OW 5971   6.093   3.760   2.714
 1691SOL    HW1 5972   6.067   3.732   2.807
 1691SOL    HW2 5973   6.166   3.827   2.719
 1692SOL     OW 5974   5.943   0.019   1.606
 1692SOL    HW1 5975   5.863   6.982   1.606
 1692SOL    HW2 5976   5.960   0.054   1.514
 1693SOL     OW 5977   0.491   2.395   1.770
 1693SOL    HW1 5978   0.525   2.393   1.676
 1693SOL    HW2 5979   0.475   2.301   1.801
 1694SOL     OW 5980   5.404   0.600   3.183
 1694SOL    HW1 5981   5.500   0.573   3.191
 1694SOL    HW2 5982   5.356   0.532   3.127
 1695SOL     OW 5983   3.231   1.740   6.050
 1695SOL    HW1 5984   3.328   1.761   6.066
 1695SOL    HW2 5985   3.222   1.692   5.963
 1696SOL     OW 5986   4.694   4.440   0.923
 1696SOL    HW1 5987   4.739   4.377   0.987
 1696SOL    HW2 5988   4.645   4.510   0.974
 1697SOL     OW 5989   5.975   6.642   1.329
 1697SOL    HW1 5990   6.018   6.631   1.418
 1697SOL    HW2 5991   6.032   6.601   1.258
 1698SOL     OW 5992   4.246   0.649   6.894
 1698SOL    HW1 5993   4.223   0.637   6.798
 1698SOL    HW2 5994   4.247   0.747   6.917
 1699SOL     OW 5995   2.334   0.920   0.775
 1699SOL    HW1 5996   2.329   0.878   0.684
 1699SOL    HW2 5997   2.246   0.912   0.820
 1700SOL     OW 5998   5.680   2.400   3.132
 1700SOL    HW1 5999   5.725   2.329   3.186
 1700SOL    HW2 6000   5.583   2.377   3.120
 1701SOL     OW 6001   5.284   4.196   6.315
 1701SOL    HW1 6002   5.383   4.210   6.311
 1701SOL    HW2 6003   5.251   4.175   6.223
 1702SOL     OW 6004   6.692   2.724   0.148
 1702SOL    HW1 6005   6.647   2.674   0.074
 1702SOL    HW2 6006   6.637   2.720   0.230
 1703SOL     OW 6007   3.370   2.861   2.144
 1703SOL    HW1 6008   3.338   2.817   2.060
 1703SOL    HW2 6009   3.312   2.940   2.165
 1704SOL     OW 6010   1.111   2.102   1.213
 1704SOL    HW1 6011   1.086   2.110   1.116
 1704SOL    HW2 6012   1.041   2.147   1.268
 1705SOL     OW 6013   3.651   1.857   1.641
 1705SOL    HW1 6014   3.629   1.950   1.671
 1705SOL    HW2 6015   3.566   1.805   1.629
 1706SOL     OW 6016   4.984   1.116   2.092
 1706SOL    HW1 6017   5.046   1.064   2.033
 1706SOL    HW2 6018   5.032   1.145   2.174
 1707SOL     OW 6019   5.611   1.871   2.504
 1707SOL    HW1 6020   5.540   1.868   2.432
 1707SOL    HW2 6021   5.633   1.966   2.525
 1708SOL     OW 6022   5.215   5.475   2.432
 1708SOL    HW1 6023   5.169   5.386   2.437
 1708SOL    HW2 6024   5.292   5.468   2.369
 1709SOL     OW 6025   3.234   5.426   1.630
 1709SOL    HW1 6026   3.225   5.500   1.564
 1709SOL    HW2 6027   3.327   5.425   1.667
 1710SOL     OW 6028   5.227   5.407   4.034
 1710SOL    HW1 6029   5.231   5.507   4.035
 1710SOL    HW2 6030   5.183   5.376   3.950
 1711SOL     OW 6031   0.448   4.785   4.428
 1711SOL    HW1 6032   0.373   4.824   4.374
 1711SOL    HW2 6033   0.502   4.724   4.370
 1712SOL     OW 6034   6.999   2.935   5.942
 1712SOL    HW1 6035   6.940   2.989   5.881
 1712SOL    HW2 6036   6.951   2.917   6.027
 1713SOL     OW 6037   4.453   2.238   1.929
 1713SOL    HW1 6038   4.354   2.249   1.940
 1713SOL    HW2 6039   4.500   2.317   1.968
 1714SOL     OW 6040   3.506   2.013   5.604
 1714SOL    HW1 6041   3.482   1.960   5.522
 1714SOL    HW2 6042   3.517   2.109   5.580
 1715SOL     OW 6043   0.114   4.539   2.953
 1715SOL    HW1 6044   0.020   4.520   2.924
 1715SOL    HW2 6045   0.117   4.624   3.005
 1716SOL     OW 6046   4.314   6.649   2.952
 1716SOL    HW1 6047   4.370   6.725   2.919
 1716SOL    HW2 6048   4.371   6.586   3.005
 1717SOL     OW 6049   2.514   6.481   5.934
 1717SOL    HW1 6050   2.565   6.565   5.914
 1717SOL    HW2 6051   2.464   6.453   5.852
 1718SOL     OW 6052   2.308   2.011   1.329
 1718SOL    HW1 6053   2.219   2.038   1.295
 1718SOL    HW2 6054   2.351   2.088   1.376
 1719SOL     OW 6055   1.959   3.522   0.828
 1719SOL    HW1 6056   1.880   3.479   0.783
 1719SOL    HW2 6057   1.968   3.486   0.920
 1720SOL     OW 6058   0.602   2.587   0.009
 1720SOL    HW1 6059   0.545   2.507   0.024
 1720SOL    HW2 6060   0.688   2.577   0.061
 1721SOL     OW 6061   1.493   6.417   1.453
 1721SOL    HW1 6062   1.559   6.476   1.407
 1721SOL    HW2 6063   1.412   6.404   1.396
 1722SOL     OW 6064   3.937   2.222   4.176
 1722SOL    HW1 6065   3.962   2.184   4.265
 1722SOL    HW2 6066   3.838   2.214   4.164
 1723SOL     OW 6067   6.588   2.699   2.594
 1723SOL    HW1 6068   6.551   2.789   2.571
 1723SOL    HW2 6069   6.583   2.684   2.693
 1724SOL     OW 6070   6.366   2.373   0.612
 1724SOL    HW1 6071   6.426   2.389   0.533
 1724SOL    HW2 6072   6.285   2.430   0.604
 1725SOL     OW 6073   2.199   4.841   0.098
 1725SOL    HW1 6074   2.168   4.913   0.159
 1725SOL    HW2 6075   2.291   4.862   0.065
 1726SOL     OW 6076   5.169   4.377   5.648
 1726SOL    HW1 6077   5.106   4.313   5.605
 1726SOL    HW2 6078   5.259   4.334   5.657
 1727SOL     OW 6079   4.132   3.393   4.290
 1727SOL    HW1 6080   4.161   3.454   4.364
 1727SOL    HW2 6081   4.110   3.303   4.328
 1728SOL     OW 6082   4.798   4.847   5.393
 1728SOL    HW1 6083   4.845   4.841   5.481
 1728SOL    HW2 6084   4.860   4.819   5.320
 1729SOL     OW 6085   2.207   3.959   2.860
 1729SOL    HW1 6086   2.199   3.969   2.761
 1729SOL    HW2 6087   2.253   4.039   2.898
 1730SOL     OW 6088   1.187   0.064   5.903
 1730SOL    HW1 6089   1.109   0.127   5.911
 1730SOL    HW2 6090   1.170   7.020   5.831
 1731SOL     OW 6091   0.156   4.238   2.136
 1731SOL    HW1 6092   0.113   4.289   2.211
 1731SOL    HW2 6093   0.124   4.143   2.138
 1732SOL     OW 6094   2.507   5.098   5.502
 1732SOL    HW1 6095   2.602   5.112   5.474
 1732SOL    HW2 6096   2.462   5.037   5.437
 1733SOL     OW 6097   1.667   3.909   1.911
 1733SOL    HW1 6098   1.712   3.870   1.831
 1733SOL    HW2 6099   1.684   4.007   1.915
 1734SOL     OW 6100   4.841   3.359   1.466
 1734SOL    HW1 6101   4.762   3.315   1.508
 1734SOL    HW2 6102   4.922   3.302   1.481
 1735SOL     OW 6103   5.275   5.993   0.833
 1735SOL    HW1 6104   5.361   5.948   0.857
 1735SOL    HW2 6105   5.235   5.949   0.753
 1736SOL     OW 6106   3.696   2.784   0.891
 1736SOL    HW1 6107   3.740   2.709   0.941
 1736SOL    HW2 6108   3.695   2.866   0.948
 1737SOL     OW 6109   2.146   1.580   4.318
 1737SOL    HW1 6110   2.164   1.676   4.336
 1737SOL    HW2 6111   2.120   1.569   4.222
 1738SOL     OW 6112   2.221   2.314   3.750
 1738SOL    HW1 6113   2.262   2.381   3.813
 1738SOL    HW2 6114   2.259   2.224   3.768
 1739SOL     OW 6115   6.689   2.676   5.354
 1739SOL    HW1 6116   6.740   2.758   5.381
 1739SOL    HW2 6117   6.753   2.602   5.333
 1740SOL     OW 6118   6.394   1.795   5.715
 1740SOL    HW1 6119   6.381   1.829   5.808
 1740SOL    HW2 6120   6.449   1.861   5.663
 1741SOL     OW 6121   1.996   0.898   3.946
 1741SOL    HW1 6122   1.899   0.909   3.923
 1741SOL    HW2 6123   2.049   0.889   3.862
 1742SOL     OW 6124   5.200   1.011   6.296
 1742SOL    HW1 6125   5.248   1.081   6.349
 1742SOL    HW2 6126   5.264   0.938   6.271
 1743SOL     OW 6127   1.193   2.570   1.615
 1743SOL    HW1 6128   1.114   2.516   1.646
 1743SOL    HW2 6129   1.165   2.666   1.605
 1744SOL     OW 6130   0.342   1.988   2.600
 1744SOL    HW1 6131   0.280   2.067   2.608
 1744SOL    HW2 6132   0.399   2.000   2.519
 1745SOL     OW 6133   6.411   6.640   3.352
 1745SOL    HW1 6134   6.490   6.692   3.321
 1745SOL    HW2 6135   6.404   6.555   3.300
 1746SOL     OW 6136   1.907   5.215   4.489
 1746SOL    HW1 6137   1.874   5.287   4.429
 1746SOL    HW2 6138   1.936   5.255   4.576
 1747SOL     OW 6139   5.818   2.153   2.975
 1747SOL    HW1 6140   5.853   2.202   2.895
 1747SOL    HW2 6141   5.877   2.075   2.995
 1748SOL     OW 6142   1.057   0.633   4.403
 1748SOL    HW1 6143   1.024   0.668   4.490
 1748SOL    HW2 6144   1.157   0.624   4.406
 1749SOL     OW 6145   2.807   0.200   4.559
 1749SOL    HW1 6146   2.798   0.244   4.470
 1749SOL    HW2 6147   2.900   0.210   4.593
 1750SOL     OW 6148   5.741   6.953   3.958
 1750SOL    HW1 6149   5.667   6.928   4.021
 1750SOL    HW2 6150   5.702   6.971   3.868
 1751SOL     OW 6151   3.990   5.957   5.285
 1751SOL    HW1 6152   3.992   5.930   5.381
 1751SOL    HW2 6153   4.070   5.920   5.238
 1752SOL     OW 6154   6.963   2.286   1.383
 1752SOL    HW1 6155   6.954   2.325   1.475
 1752SOL    HW2 6156   6.901   2.209   1.373
 1753SOL     OW 6157   0.381   1.030   0.657
 1753SOL    HW1 6158   0.435   0.955   0.695
 1753SOL    HW2 6159   0.319   1.065   0.728
 1754SOL     OW 6160   2.075   4.182   1.148
 1754SOL    HW1 6161   2.093   4.272   1.108
 1754SOL    HW2 6162   2.000   4.189   1.213
 1755SOL     OW 6163   6.569   6.294   1.969
 1755SOL    HW1 6164   6.508   6.289   1.890
 1755SOL    HW2 6165   6.523   6.256   2.049
 1756SOL     OW 6166   4.489   5.331   6.415
 1756SOL    HW1 6167   4.443   5.386   6.484
 1756SOL    HW2 6168   4.547   5.389   6.358
 1757SOL     OW 6169   2.511   5.298   4.643
 1757SOL    HW1 6170   2.575   5.348   4.701
 1757SOL    HW2 6171   2.493   5.349   4.560
 1758SOL     OW 6172   1.720   0.550   4.082
 1758SOL    HW1 6173   1.773   0.466   4.094
 1758SOL    HW2 6174   1.693   0.558   3.986
 1759SOL     OW 6175   1.928   5.295   6.321
 1759SOL    HW1 6176   1.982   5.349   6.256
 1759SOL    HW2 6177   1.925   5.199   6.290
 1760SOL     OW 6178   5.986   1.943   3.034
 1760SOL    HW1 6179   5.996   1.917   2.938
 1760SOL    HW2 6180   5.927   1.877   3.080
 1761SOL     OW 6181   0.618   0.366   0.521
 1761SOL    HW1 6182   0.560   0.377   0.440
 1761SOL    HW2 6183   0.653   0.273   0.525
 1762SOL     OW 6184   0.130   1.551   5.084
 1762SOL    HW1 6185   0.127   1.464   5.134
 1762SOL    HW2 6186   0.056   1.610   5.116
 1763SOL     OW 6187   1.277   3.554   3.574
 1763SOL    HW1 6188   1.178   3.567   3.570
 1763SOL    HW2 6189   1.319   3.632   3.620
 1764SOL     OW 6190   2.059   3.634   2.430
 1764SOL    HW1 6191   2.075   3.605   2.335
 1764SOL    HW2 6192   2.041   3.553   2.486
 1765SOL     OW 6193   3.793   1.274   1.079
 1765SOL    HW1 6194   3.860   1.246   1.148
 1765SOL    HW2 6195   3.809   1.369   1.053
 1766SOL     OW 6196   5.256   3.564   2.777
 1766SOL    HW1 6197   5.161   3.535   2.783
 1766SOL    HW2 6198   5.271   3.612   2.690
 1767SOL     OW 6199   0.146   3.352   3.380
 1767SOL    HW1 6200   0.245   3.359   3.390
 1767SOL    HW2 6201   0.107   3.444   3.367
 1768SOL     OW 6202   4.240   1.469   5.768
 1768SOL    HW1 6203   4.297   1.491   5.688
 1768SOL    HW2 6204   4.192   1.383   5.751
 1769SOL     OW 6205   4.192   2.678   5.656
 1769SOL    HW1 6206   4.252   2.653   5.579
 1769SOL    HW2 6207   4.208   2.773   5.681
 1770SOL     OW 6208   6.770   5.087   4.869
 1770SOL    HW1 6209   6.865   5.113   4.889
 1770SOL    HW2 6210   6.720   5.167   4.835
 1771SOL     OW 6211   2.459   4.870   0.045
 1771SOL    HW1 6212   2.481   4.846   6.973
 1771SOL    HW2 6213   2.534   4.843   0.105
 1772SOL     OW 6214   3.309   6.792   3.339
 1772SOL    HW1 6215   3.402   6.797   3.374
 1772SOL    HW2 6216   3.292   6.870   3.278
 1773SOL     OW 6217   3.277   3.980   6.490
 1773SOL    HW1 6218   3.330   3.944   6.566
 1773SOL    HW2 6219   3.255   4.076   6.509
 1774SOL     OW 6220   4.272   0.290   1.656
 1774SOL    HW1 6221   4.271   0.218   1.587
 1774SOL    HW2 6222   4.326   0.368   1.623
 1775SOL     OW 6223   1.446   5.442   4.063
 1775SOL    HW1 6224   1.542   5.457   4.087
 1775SOL    HW2 6225   1.404   5.381   4.130
 1776SOL     OW 6226   3.866   0.842   5.759
 1776SOL    HW1 6227   3.948   0.787   5.772
 1776SOL    HW2 6228   3.808   0.800   5.688
 1777SOL     OW 6229   3.229   5.498   5.522
 1777SOL    HW1 6230   3.144   5.540   5.553
 1777SOL    HW2 6231   3.225   5.400   5.537
 1778SOL     OW 6232   4.355   2.338   4.656
 1778SOL    HW1 6233   4.403   2.375   4.736
 1778SOL    HW2 6234   4.371   2.396   4.577
 1779SOL     OW 6235   4.405   1.998   4.109
 1779SOL    HW1 6236   4.383   1.997   4.207
 1779SOL    HW2 6237   4.327   2.031   4.057
 1780SOL     OW 6238   2.230   4.910   5.722
 1780SOL    HW1 6239   2.327   4.901   5.700
 1780SOL    HW2 6240   2.212   5.002   5.757
 1781SOL     OW 6241   4.535   5.489   3.390
 1781SOL    HW1 6242   4.603   5.494   3.463
 1781SOL    HW2 6243   4.545   5.568   3.329
 1782SOL     OW 6244   2.945   1.940   3.015
 1782SOL    HW1 6245   2.990   1.953   2.927
 1782SOL    HW2 6246   2.990   1.998   3.083
 1783SOL     OW 6247   1.734   3.085   6.849
 1783SOL    HW1 6248   1.824   3.079   6.893
 1783SOL    HW2 6249   1.680   3.004   6.874
 1784SOL     OW 6250   2.558   0.831   3.581
 1784SOL    HW1 6251   2.584   0.894   3.655
 1784SOL    HW2 6252   2.639   0.781   3.550
 1785SOL     OW 6253   5.157   5.726   3.732
 1785SOL    HW1 6254   5.176   5.722   3.830
 1785SOL    HW2 6255   5.206   5.804   3.692
 1786SOL     OW 6256   1.640   2.810   0.743
 1786SOL    HW1 6257   1.586   2.877   0.692
 1786SOL    HW2 6258   1.622   2.820   0.841
 1787SOL     OW 6259   1.991   1.354   4.571
 1787SOL    HW1 6260   1.905   1.375   4.617
 1787SOL    HW2 6261   1.980   1.365   4.472
 1788SOL     OW 6262   2.786   3.346   0.214
 1788SOL    HW1 6263   2.873   3.347   0.165
 1788SOL    HW2 6264   2.776   3.259   0.262
 1789SOL     OW 6265   6.727   2.163   2.127
 1789SOL    HW1 6266   6.758   2.068   2.118
 1789SOL    HW2 6267   6.654   2.168   2.196
 1790SOL     OW 6268   4.113   5.856   4.135
 1790SOL    HW1 6269   4.205   5.874   4.100
 1790SOL    HW2 6270   4.119   5.796   4.214
 1791SOL     OW 6271   0.100   2.265   4.815
 1791SOL    HW1 6272   0.191   2.224   4.811
 1791SOL    HW2 6273   0.092   2.336   4.744
 1792SOL     OW 6274   0.883   1.980   4.294
 1792SOL    HW1 6275   0.980   1.961   4.280
 1792SOL    HW2 6276   0.852   2.045   4.224
 1793SOL     OW 6277   6.812   6.902   3.217
 1793SOL    HW1 6278   6.741   6.970   3.238
 1793SOL    HW2 6279   6.807   6.827   3.284
 1794SOL     OW 6280   5.090   6.200   6.209
 1794SOL    HW1 6281   5.067   6.296   6.224
 1794SOL    HW2 6282   5.047   6.144   6.280
 1795SOL     OW 6283   0.352   4.432   2.439
 1795SOL    HW1 6284   0.441   4.389   2.422
 1795SOL    HW2 6285   0.355   4.481   2.527
 1796SOL     OW 6286   1.823   1.385   4.847
 1796SOL    HW1 6287   1.766   1.329   4.907
 1796SOL    HW2 6288   1.900   1.421   4.899
 1797SOL     OW 6289   1.592   0.722   5.923
 1797SOL    HW1 6290   1.562   0.635   5.963
 1797SOL    HW2 6291   1.555   0.798   5.977
 1798SOL     OW 6292   4.509   2.750   5.397
 1798SOL    HW1 6293   4.554   2.761   5.309
 1798SOL    HW2 6294   4.412   2.728   5.383
 1799SOL     OW 6295   6.290   2.023   6.670
 1799SOL    HW1 6296   6.254   2.017   6.577
 1799SOL    HW2 6297   6.378   2.070   6.669
 1800SOL     OW 6298   4.626   4.939   3.864
 1800SOL    HW1 6299   4.579   4.978   3.942
 1800SOL    HW2 6300   4.643   5.011   3.796
 1801SOL     OW 6301   0.890   1.714   2.088
 1801SOL    HW1 6302   0.936   1.783   2.034
 1801SOL    HW2 6303   0.791   1.723   2.077
 1802SOL     OW 6304   5.661   5.106   2.779
 1802SOL    HW1 6305   5.614   5.025   2.812
 1802SOL    HW2 6306   5.651   5.180   2.847
 1803SOL     OW 6307   6.708   5.885   0.367
 1803SOL    HW1 6308   6.672   5.956   0.307
 1803SOL    HW2 6309   6.805   5.902   0.385
 1804SOL     OW 6310   2.831   3.099   6.019
 1804SOL    HW1 6311   2.759   3.167   6.029
 1804SOL    HW2 6312   2.852   3.086   5.922
 1805SOL     OW 6313   0.427   4.198   5.844
 1805SOL    HW1 6314   0.374   4.121   5.880
 1805SOL    HW2 6315   0.521   4.169   5.830
 1806SOL     OW 6316   1.634   0.980   1.679
 1806SOL    HW1 6317   1.711   1.012   1.623
 1806SOL    HW2 6318   1.666   0.911   1.744
 1807SOL     OW 6319   5.666   2.928   6.544
 1807SOL    HW1 6320   5.579   2.947   6.589
 1807SOL    HW2 6321   5.648   2.892   6.452
 1808SOL     OW 6322   6.513   4.002   4.830
 1808SOL    HW1 6323   6.550   3.964   4.745
 1808SOL    HW2 6324   6.503   3.929   4.898
 1809SOL     OW 6325   2.341   2.819   4.702
 1809SOL    HW1 6326   2.375   2.803   4.795
 1809SOL    HW2 6327   2.243   2.799   4.699
 1810SOL     OW 6328   2.694   0.156   5.608
 1810SOL    HW1 6329   2.619   0.219   5.629
 1810SOL    HW2 6330   2.708   0.154   5.509
 1811SOL     OW 6331   4.002   4.827   3.311
 1811SOL    HW1 6332   3.946   4.859   3.387
 1811SOL    HW2 6333   4.092   4.800   3.345
 1812SOL     OW 6334   4.599   0.277   6.025
 1812SOL    HW1 6335   4.564   0.204   6.084
 1812SOL    HW2 6336   4.580   0.366   6.066
 1813SOL     OW 6337   4.182   4.786   1.607
 1813SOL    HW1 6338   4.247   4.817   1.676
 1813SOL    HW2 6339   4.124   4.714   1.646
 1814SOL     OW 6340   0.079   0.430   0.099
 1814SOL    HW1 6341   0.055   0.468   0.010
 1814SOL    HW2 6342   0.057   0.332   0.100
 1815SOL     OW 6343   6.694   1.733   1.968
 1815SOL    HW1 6344   6.635   1.736   1.887
 1815SOL    HW2 6345   6.732   1.824   1.985
 1816SOL     OW 6346   1.644   4.275   0.669
 1816SOL    HW1 6347   1.681   4.368   0.661
 1816SOL    HW2 6348   1.682   4.232   0.751
 1817SOL     OW 6349   3.718   6.556   2.953
 1817SOL    HW1 6350   3.780   6.510   3.016
 1817SOL    HW2 6351   3.623   6.539   2.982
 1818SOL     OW 6352   2.621   5.761   1.731
 1818SOL    HW1 6353   2.602   5.858   1.737
 1818SOL    HW2 6354   2.563   5.711   1.796
 1819SOL     OW 6355   1.189   5.545   1.531
 1819SOL    HW1 6356   1.177   5.505   1.440
 1819SOL    HW2 6357   1.244   5.629   1.523
 1820SOL     OW 6358   2.572   0.404   2.251
 1820SOL    HW1 6359   2.657   0.401   2.198
 1820SOL    HW2 6360   2.514   0.326   2.225
 1821SOL     OW 6361   2.409   0.456   1.933
 1821SOL    HW1 6362   2.365   0.516   1.867
 1821SOL    HW2 6363   2.459   0.511   2.000
 1822SOL     OW 6364   1.509   3.467   0.736
 1822SOL    HW1 6365   1.607   3.448   0.745
 1822SOL    HW2 6366   1.456   3.389   0.770
 1823SOL     OW 6367   3.145   5.692   3.027
 1823SOL    HW1 6368   3.067   5.752   3.043
 1823SOL    HW2 6369   3.225   5.746   3.003
 1824SOL     OW 6370   3.462   3.591   0.886
 1824SOL    HW1 6371   3.489   3.519   0.822
 1824SOL    HW2 6372   3.379   3.564   0.934
 1825SOL     OW 6373   1.533   2.227   4.701
 1825SOL    HW1 6374   1.574   2.249   4.613
 1825SOL    HW2 6375   1.473   2.302   4.729
 1826SOL     OW 6376   3.410   1.338   1.627
 1826SOL    HW1 6377   3.459   1.402   1.687
 1826SOL    HW2 6378   3.438   1.245   1.648
 1827SOL     OW 6379   7.010   5.899   1.377
 1827SOL    HW1 6380   0.049   5.967   1.415
 1827SOL    HW2 6381   0.036   5.845   1.307
 1828SOL     OW 6382   2.055   2.358   0.548
 1828SOL    HW1 6383   2.017   2.406   0.469
 1828SOL    HW2 6384   2.078   2.264   0.522
 1829SOL     OW 6385   2.759   0.905   3.317
 1829SOL    HW1 6386   2.815   0.840   3.266
 1829SOL    HW2 6387   2.787   0.906   3.413
 1830SOL     OW 6388   5.688   6.296   3.523
 1830SOL    HW1 6389   5.774   6.247   3.534
 1830SOL    HW2 6390   5.680   6.365   3.594
 1831SOL     OW 6391   6.188   0.223   1.850
 1831SOL    HW1 6392   6.139   0.141   1.819
 1831SOL    HW2 6393   6.133   0.269   1.921
 1832SOL     OW 6394   4.342   1.620   1.297
 1832SOL    HW1 6395   4.344   1.614   1.396
 1832SOL    HW2 6396   4.368   1.531   1.258
 1833SOL     OW 6397   5.327   0.854   0.538
 1833SOL    HW1 6398   5.229   0.838   0.547
 1833SOL    HW2 6399   5.371   0.775   0.497
 1834SOL     OW 6400   2.623   3.503   0.818
 1834SOL    HW1 6401   2.531   3.541   0.818
 1834SOL    HW2 6402   2.620   3.408   0.787
 1835SOL     OW 6403   0.163   4.887   2.293
 1835SOL    HW1 6404   0.235   4.876   2.224
 1835SOL    HW2 6405   0.075   4.898   2.247
 1836SOL     OW 6406   5.147   1.644   1.598
 1836SOL    HW1 6407   5.135   1.544   1.601
 1836SOL    HW2 6408   5.087   1.682   1.527
 1837SOL     OW 6409   0.960   7.012   4.737
 1837SOL    HW1 6410   0.924   0.079   4.761
 1837SOL    HW2 6411   0.946   6.949   4.812
 1838SOL     OW 6412   6.427   1.390   5.020
 1838SOL    HW1 6413   6.476   1.440   5.090
 1838SOL    HW2 6414   6.392   1.454   4.951
 1839SOL     OW 6415   6.447   1.934   4.967
 1839SOL    HW1 6416   6.477   1.871   4.895
 1839SOL    HW2 6417   6.526   1.963   5.021
 1840SOL     OW 6418   3.962   6.963   1.257
 1840SOL    HW1 6419   3.926   0.007   1.191
 1840SOL    HW2 6420   3.887   6.922   1.308
 1841SOL     OW 6421   1.751   1.404   3.333
 1841SOL    HW1 6422   1.785   1.449   3.415
 1841SOL    HW2 6423   1.786   1.310   3.329
 1842SOL     OW 6424   1.589   5.788   0.269
 1842SOL    HW1 6425   1.540   5.861   0.317
 1842SOL    HW2 6426   1.561   5.699   0.306
 1843SOL     OW 6427   6.109   2.181   3.500
 1843SOL    HW1 6428   6.113   2.131   3.587
 1843SOL    HW2 6429   6.019   2.223   3.490
 1844SOL     OW 6430   3.287   6.708   5.046
 1844SOL    HW1 6431   3.324   6.770   5.115
 1844SOL    HW2 6432   3.254   6.625   5.090
 1845SOL     OW 6433   3.014   0.039   4.007
 1845SOL    HW1 6434   2.998   0.127   3.963
 1845SOL    HW2 6435   3.100   0.041   4.057
 1846SOL     OW 6436   3.346   1.322   2.003
 1846SOL    HW1 6437   3.274   1.344   1.938
 1846SOL    HW2 6438   3.359   1.223   2.007
 1847SOL     OW 6439   1.444   0.755   6.533
 1847SOL    HW1 6440   1.443   0.853   6.549
 1847SOL    HW2 6441   1.351   0.722   6.519
 1848SOL     OW 6442   1.889   5.942   3.998
 1848SOL    HW1 6443   1.970   5.891   4.027
 1848SOL    HW2 6444   1.908   5.990   3.913
 1849SOL     OW 6445   3.747   2.531   1.425
 1849SOL    HW1 6446   3.667   2.548   1.367
 1849SOL    HW2 6447   3.820   2.595   1.402
 1850SOL     OW 6448   0.258   2.798   1.863
 1850SOL    HW1 6449   0.352   2.775   1.836
 1850SOL    HW2 6450   0.194   2.742   1.811
 1851SOL     OW 6451   0.196   2.338   0.257
 1851SOL    HW1 6452   0.284   2.369   0.222
 1851SOL    HW2 6453   0.209   2.292   0.345
 1852SOL     OW 6454   6.456   4.555   2.834
 1852SOL    HW1 6455   6.545   4.591   2.806
 1852SOL    HW2 6456   6.428   4.600   2.919
 1853SOL     OW 6457   0.532   2.521   2.872
 1853SOL    HW1 6458   0.539   2.431   2.914
 1853SOL    HW2 6459   0.537   2.591   2.943
 1854SOL     OW 6460   2.518   5.704   3.007
 1854SOL    HW1 6461   2.565   5.616   3.010
 1854SOL    HW2 6462   2.577   5.775   3.047
 1855SOL     OW 6463   5.311   2.808   5.024
 1855SOL    HW1 6464   5.354   2.805   4.933
 1855SOL    HW2 6465   5.341   2.889   5.073
 1856SOL     OW 6466   6.052   4.198   5.893
 1856SOL    HW1 6467   6.039   4.161   5.801
 1856SOL    HW2 6468   5.972   4.179   5.949
 1857SOL     OW 6469   4.447   1.860   5.930
 1857SOL    HW1 6470   4.408   1.784   5.981
 1857SOL    HW2 6471   4.432   1.845   5.832
 1858SOL     OW 6472   5.748   4.282   3.633
 1858SOL    HW1 6473   5.843   4.270   3.605
 1858SOL    HW2 6474   5.700   4.194   3.627
 1859SOL     OW 6475   5.463   2.101   4.017
 1859SOL    HW1 6476   5.389   2.161   3.988
 1859SOL    HW2 6477   5.460   2.016   3.964
 1860SOL     OW 6478   0.081   0.744   5.456
 1860SOL    HW1 6479   0.016   0.776   5.387
 1860SOL    HW2 6480   0.131   0.666   5.419
 1861SOL     OW 6481   6.281   6.935   2.017
 1861SOL    HW1 6482   6.202   6.963   1.962
 1861SOL    HW2 6483   6.254   6.926   2.113
 1862SOL     OW 6484   3.744   6.902   6.334
 1862SOL    HW1 6485   3.755   6.963   6.256
 1862SOL    HW2 6486   3.833   6.866   6.361
 1863SOL     OW 6487   0.804   3.019   4.053
 1863SOL    HW1 6488   0.886   3.053   4.007
 1863SOL    HW2 6489   0.771   2.937   4.006
 1864SOL     OW 6490   1.640   6.768   5.155
 1864SOL    HW1 6491   1.556   6.818   5.135
 1864SOL    HW2 6492   1.619   6.690   5.215
 1865SOL     OW 6493   3.651   6.670   0.078
 1865SOL    HW1 6494   3.629   6.588   0.026
 1865SOL    HW2 6495   3.678   6.743   0.016
 1866SOL     OW 6496   5.411   5.032   3.513
 1866SOL    HW1 6497   5.417   5.053   3.610
 1866SOL    HW2 6498   5.315   5.028   3.486
 1867SOL     OW 6499   0.736   4.138   6.781
 1867SOL    HW1 6500   0.780   4.178   6.700
 1867SOL    HW2 6501   0.696   4.050   6.757
 1868SOL     OW 6502   4.916   2.935   6.076
 1868SOL    HW1 6503   4.861   2.886   6.144
 1868SOL    HW2 6504   4.858   2.999   6.027
 1869SOL     OW 6505   5.942   3.589   5.627
 1869SOL    HW1 6506   6.004   3.558   5.700
 1869SOL    HW2 6507   5.986   3.578   5.538
 1870SOL     OW 6508   1.727   2.501   4.803
 1870SOL    HW1 6509   1.670   2.420   4.786
 1870SOL    HW2 6510   1.720   2.527   4.899
 1871SOL     OW 6511   0.748   0.524   6.903
 1871SOL    HW1 6512   0.789   0.565   6.822
 1871SOL    HW2 6513   0.650   0.510   6.888
 1872SOL     OW 6514   4.242   1.605   6.798
 1872SOL    HW1 6515   4.255   1.613   6.897
 1872SOL    HW2 6516   4.177   1.674   6.767
 1873SOL     OW 6517   5.350   1.387   5.973
 1873SOL    HW1 6518   5.429   1.424   6.022
 1873SOL    HW2 6519   5.377   1.360   5.881
 1874SOL     OW 6520   2.664   1.011   0.731
 1874SOL    HW1 6521   2.666   1.017   0.830
 1874SOL    HW2 6522   2.574   1.039   0.697
 1875SOL     OW 6523   0.357   0.501   0.215
 1875SOL    HW1 6524   0.354   0.593   0.254
 1875SOL    HW2 6525   0.351   0.433   0.288
 1876SOL     OW 6526   3.325   6.006   6.208
 1876SOL    HW1 6527   3.285   5.986   6.119
 1876SOL    HW2 6528   3.418   5.972   6.213
 1877SOL     OW 6529   0.898   1.813   3.255
 1877SOL    HW1 6530   0.986   1.776   3.225
 1877SOL    HW2 6531   0.913   1.882   3.326
 1878SOL     OW 6532   6.307   3.303   3.939
 1878SOL    HW1 6533   6.380   3.344   3.994
 1878SOL    HW2 6534   6.303   3.205   3.957
 1879SOL     OW 6535   1.799   5.211   3.757
 1879SOL    HW1 6536   1.870   5.276   3.784
 1879SOL    HW2 6537   1.709   5.247   3.781
 1880SOL     OW 6538   6.174   0.788   3.847
 1880SOL    HW1 6539   6.171   0.883   3.815
 1880SOL    HW2 6540   6.266   0.766   3.880
 1881SOL     OW 6541   0.266   3.322   3.006
 1881SOL    HW1 6542   0.294   3.415   3.030
 1881SOL    HW2 6543   0.346   3.262   3.009
 1882SOL     OW 6544   1.114   3.972   0.011
 1882SOL    HW1 6545   1.055   3.892   0.014
 1882SOL    HW2 6546   1.131   4.005   0.105
 1883SOL     OW 6547   1.424   2.974   3.945
 1883SOL    HW1 6548   1.373   2.933   3.870
 1883SOL    HW2 6549   1.428   3.073   3.933
 1884SOL     OW 6550   6.015   3.015   6.824
 1884SOL    HW1 6551   5.977   2.965   6.902
 1884SOL    HW2 6552   6.115   3.021   6.835
 1885SOL     OW 6553   0.839   2.332   6.186
 1885SOL    HW1 6554   0.768   2.345   6.116
 1885SOL    HW2 6555   0.929   2.342   6.144
 1886SOL     OW 6556   2.269   0.605   1.743
 1886SOL    HW1 6557   2.328   0.676   1.704
 1886SOL    HW2 6558   2.194   0.585   1.680
 1887SOL     OW 6559   1.782   5.757   6.310
 1887SOL    HW1 6560   1.722   5.690   6.352
 1887SOL    HW2 6561   1.859   5.711   6.266
 1888SOL     OW 6562   3.159   2.401   6.687
 1888SOL    HW1 6563   3.165   2.478   6.623
 1888SOL    HW2 6564   3.251   2.368   6.708
 1889SOL     OW 6565   6.026   3.336   6.699
 1889SOL    HW1 6566   5.997   3.243   6.678
 1889SOL    HW2 6567   6.002   3.396   6.623
 1890SOL     OW 6568   1.334   5.646   4.263
 1890SOL    HW1 6569   1.372   5.580   4.198
 1890SOL    HW2 6570   1.396   5.656   4.341
 1891SOL     OW 6571   6.027   2.692   3.120
 1891SOL    HW1 6572   5.931   2.686   3.146
 1891SOL    HW2 6573   6.083   2.703   3.202
 1892SOL     OW 6574   3.071   1.027   0.584
 1892SOL    HW1 6575   3.064   1.097   0.513
 1892SOL    HW2 6576   3.135   1.058   0.655
 1893SOL     OW 6577   3.117   2.713   0.358
 1893SOL    HW1 6578   3.057   2.749   0.430
 1893SOL    HW2 6579   3.083   2.742   0.269
 1894SOL     OW 6580   3.996   3.804   3.404
 1894SOL    HW1 6581   3.948   3.886   3.375
 1894SOL    HW2 6582   4.040   3.762   3.325
 1895SOL     OW 6583   6.277   1.043   2.037
 1895SOL    HW1 6584   6.232   1.042   2.126
 1895SOL    HW2 6585   6.329   0.959   2.024
 1896SOL     OW 6586   6.901   0.711   1.448
 1896SOL    HW1 6587   6.864   0.794   1.491
 1896SOL    HW2 6588   6.931   0.647   1.519
 1897SOL     OW 6589   1.174   4.578   2.633
 1897SOL    HW1 6590   1.243   4.642   2.601
 1897SOL    HW2 6591   1.178   4.494   2.578
 1898SOL     OW 6592   3.063   4.858   2.596
 1898SOL    HW1 6593   3.153   4.900   2.612
 1898SOL    HW2 6594   3.014   4.851   2.682
 1899SOL     OW 6595   0.778   1.913   2.314
 1899SOL    HW1 6596   0.755   2.002   2.274
 1899SOL    HW2 6597   0.858   1.875   2.268
 1900SOL     OW 6598   1.523   0.492   6.507
 1900SOL    HW1 6599   1.475   0.454   6.428
 1900SOL    HW2 6600   1.491   0.586   6.523
 1901SOL     OW 6601   2.164   1.774   1.196
 1901SOL    HW1 6602   2.213   1.706   1.141
 1901SOL    HW2 6603   2.230   1.831   1.245
 1902SOL     OW 6604   2.451   1.936   4.955
 1902SOL    HW1 6605   2.535   1.940   5.010
 1902SOL    HW2 6606   2.474   1.950   4.859
 1903SOL     OW 6607   6.488   3.227   3.247
 1903SOL    HW1 6608   6.489   3.309   3.304
 1903SOL    HW2 6609   6.402   3.177   3.261
 1904SOL     OW 6610   5.625   6.488   4.838
 1904SOL    HW1 6611   5.647   6.403   4.792
 1904SOL    HW2 6612   5.689   6.560   4.808
 1905SOL     OW 6613   1.614   0.796   4.153
 1905SOL    HW1 6614   1.641   0.856   4.077
 1905SOL    HW2 6615   1.637   0.701   4.130
 1906SOL     OW 6616   2.327   0.446   4.999
 1906SOL    HW1 6617   2.336   0.386   4.920
 1906SOL    HW2 6618   2.236   0.487   5.000
 1907SOL     OW 6619   3.269   6.469   2.693
 1907SOL    HW1 6620   3.364   6.439   2.681
 1907SOL    HW2 6621   3.210   6.419   2.630
 1908SOL     OW 6622   3.631   0.245   5.209
 1908SOL    HW1 6623   3.558   0.181   5.187
 1908SOL    HW2 6624   3.705   0.236   5.143
 1909SOL     OW 6625   0.546   4.232   2.377
 1909SOL    HW1 6626   0.543   4.206   2.473
 1909SOL    HW2 6627   0.633   4.203   2.337
 1910SOL     OW 6628   6.553   2.922   6.108
 1910SOL    HW1 6629   6.524   2.879   6.023
 1910SOL    HW2 6630   6.525   3.018   6.109
 1911SOL     OW 6631   5.594   3.320   5.123
 1911SOL    HW1 6632   5.618   3.399   5.067
 1911SOL    HW2 6633   5.578   3.349   5.217
 1912SOL     OW 6634   3.344   6.291   0.771
 1912SOL    HW1 6635   3.318   6.357   0.842
 1912SOL    HW2 6636   3.405   6.222   0.810
 1913SOL     OW 6637   1.467   6.001   5.075
 1913SOL    HW1 6638   1.419   5.955   5.000
 1913SOL    HW2 6639   1.481   5.936   5.150
 1914SOL     OW 6640   4.118   3.200   6.232
 1914SOL    HW1 6641   4.094   3.128   6.167
 1914SOL    HW2 6642   4.081   3.287   6.201
 1915SOL     OW 6643   4.006   2.112   5.086
 1915SOL    HW1 6644   3.940   2.149   5.151
 1915SOL    HW2 6645   3.968   2.115   4.993
 1916SOL     OW 6646   3.717   5.725   1.323
 1916SOL    HW1 6647   3.789   5.663   1.293
 1916SOL    HW2 6648   3.697   5.710   1.419
 1917SOL     OW 6649   2.836   3.279   5.233
 1917SOL    HW1 6650   2.785   3.243   5.311
 1917SOL    HW2 6651   2.869   3.202   5.178
 1918SOL     OW 6652   0.786   1.266   5.510
 1918SOL    HW1 6653   0.776   1.328   5.588
 1918SOL    HW2 6654   0.757   1.174   5.537
 1919SOL     OW 6655   2.780   0.779   1.449
 1919SOL    HW1 6656   2.714   0.705   1.453
 1919SOL    HW2 6657   2.848   0.767   1.522
 1920SOL     OW 6658   1.463   4.375   2.371
 1920SOL    HW1 6659   1.365   4.382   2.356
 1920SOL    HW2 6660   1.483   4.390   2.468
 1921SOL     OW 6661   1.051   4.826   7.006
 1921SOL    HW1 6662   1.136   4.854   6.960
 1921SOL    HW2 6663   1.051   4.727   7.019
 1922SOL     OW 6664   1.760   4.105   0.886
 1922SOL    HW1 6665   1.739   4.174   0.955
 1922SOL    HW2 6666   1.804   4.026   0.930
 1923SOL     OW 6667   3.435   0.805   5.656
 1923SOL    HW1 6668   3.392   0.741   5.719
 1923SOL    HW2 6669   3.522   0.768   5.623
 1924SOL     OW 6670   4.553   5.444   1.209
 1924SOL    HW1 6671   4.579   5.354   1.174
 1924SOL    HW2 6672   4.573   5.448   1.307
 1925SOL     OW 6673   2.065   4.548   0.255
 1925SOL    HW1 6674   2.004   4.469   0.264
 1925SOL    HW2 6675   2.063   4.581   0.161
 1926SOL     OW 6676   2.228   0.117   3.585
 1926SOL    HW1 6677   2.310   0.120   3.529
 1926SOL    HW2 6678   2.178   0.203   3.576
 1927SOL     OW 6679   2.699   4.637   6.537
 1927SOL    HW1 6680   2.716   4.731   6.567
 1927SOL    HW2 6681   2.761   4.614   6.462
 1928SOL     OW 6682   6.586   4.385   5.888
 1928SOL    HW1 6683   6.487   4.384   5.899
 1928SOL    HW2 6684   6.626   4.453   5.949
 1929SOL     OW 6685   1.104   5.072   1.280
 1929SOL    HW1 6686   1.094   4.973   1.277
 1929SOL    HW2 6687   1.078   5.105   1.371
 1930SOL     OW 6688   3.573   3.730   6.332
 1930SOL    HW1 6689   3.602   3.638   6.356
 1930SOL    HW2 6690   3.641   3.796   6.364
 1931SOL     OW 6691   0.434   3.790   2.275
 1931SOL    HW1 6692   0.390   3.727   2.339
 1931SOL    HW2 6693   0.410   3.884   2.298
 1932SOL     OW 6694   5.024   3.540   3.043
 1932SOL    HW1 6695   5.021   3.461   3.105
 1932SOL    HW2 6696   4.961   3.610   3.075
 1933SOL     OW 6697   2.183   3.926   0.729
 1933SOL    HW1 6698   2.093   3.885   0.718
 1933SOL    HW2 6699   2.178   4.000   0.797
 1934SOL     OW 6700   0.293   6.972   5.250
 1934SOL    HW1 6701   0.344   0.023   5.204
 1934SOL    HW2 6702   0.226   6.933   5.187
 1935SOL     OW 6703   4.108   5.941   3.649
 1935SOL    HW1 6704   4.012   5.935   3.678
 1935SOL    HW2 6705   4.142   5.850   3.625
 1936SOL     OW 6706   5.857   3.949   3.507
 1936SOL    HW1 6707   5.829   3.983   3.596
 1936SOL    HW2 6708   5.921   3.873   3.519
 1937SOL     OW 6709   3.770   6.833   1.420
 1937SOL    HW1 6710   3.754   6.755   1.359
 1937SOL    HW2 6711   3.683   6.879   1.438
 1938SOL     OW 6712   2.124   1.714   1.910
 1938SOL    HW1 6713   2.181   1.674   1.982
 1938SOL    HW2 6714   2.150   1.810   1.897
 1939SOL     OW 6715   6.498   0.342   4.414
 1939SOL    HW1 6716   6.499   0.256   4.466
 1939SOL    HW2 6717   6.524   0.323   4.319
 1940SOL     OW 6718   5.425   4.798   0.795
 1940SOL    HW1 6719   5.425   4.744   0.879
 1940SOL    HW2 6720   5.366   4.753   0.728
 1941SOL     OW 6721   0.675   3.625   4.299
 1941SOL    HW1 6722   0.752   3.583   4.347
 1941SOL    HW2 6723   0.618   3.553   4.260
 1942SOL     OW 6724   5.372   1.742   1.732
 1942SOL    HW1 6725   5.438   1.759   1.659
 1942SOL    HW2 6726   5.294   1.693   1.694
 1943SOL     OW 6727   1.985   6.358   3.645
 1943SOL    HW1 6728   1.949   6.272   3.610
 1943SOL    HW2 6729   1.920   6.399   3.709
 1944SOL     OW 6730   6.121   3.003   0.287
 1944SOL    HW1 6731   6.188   2.977   0.356
 1944SOL    HW2 6732   6.052   3.063   0.328
 1945SOL     OW 6733   3.906   5.273   0.675
 1945SOL    HW1 6734   3.918   5.301   0.580
 1945SOL    HW2 6735   3.943   5.344   0.735
 1946SOL     OW 6736   6.435   6.728   0.608
 1946SOL    HW1 6737   6.422   6.797   0.679
 1946SOL    HW2 6738   6.425   6.772   0.518
 1947SOL     OW 6739   4.647   6.432   4.324
 1947SOL    HW1 6740   4.611   6.423   4.231
 1947SOL    HW2 6741   4.622   6.522   4.360
 1948SOL     OW 6742   5.765   5.654   3.831
 1948SOL    HW1 6743   5.689   5.603   3.789
 1948SOL    HW2 6744   5.852   5.621   3.794
 1949SOL     OW 6745   3.455   3.989   5.956
 1949SOL    HW1 6746   3.532   3.999   6.020
 1949SOL    HW2 6747   3.382   3.937   6.000
 1950SOL     OW 6748   4.091   3.184   0.486
 1950SOL    HW1 6749   4.014   3.246   0.471
 1950SOL    HW2 6750   4.099   3.121   0.409
 1951SOL     OW 6751   5.909   3.976   0.116
 1951SOL    HW1 6752   5.836   4.031   0.076
 1951SOL    HW2 6753   5.920   4.001   0.212
 1952SOL     OW 6754   5.101   3.523   1.201
 1952SOL    HW1 6755   5.189   3.547   1.160
 1952SOL    HW2 6756   5.117   3.468   1.283
 1953SOL     OW 6757   6.211   1.815   5.375
 1953SOL    HW1 6758   6.220   1.731   5.428
 1953SOL    HW2 6759   6.129   1.865   5.405
 1954SOL     OW 6760   6.739   0.623   2.905
 1954SOL    HW1 6761   6.686   0.555   2.854
 1954SOL    HW2 6762   6.834   0.592   2.913
 1955SOL     OW 6763   0.283   1.174   2.380
 1955SOL    HW1 6764   0.225   1.220   2.313
 1955SOL    HW2 6765   0.227   1.148   2.459
 1956SOL     OW 6766   5.111   0.230   2.217
 1956SOL    HW1 6767   5.032   0.189   2.264
 1956SOL    HW2 6768   5.162   0.287   2.281
 1957SOL     OW 6769   5.823   4.151   4.243
 1957SOL    HW1 6770   5.862   4.243   4.235
 1957SOL    HW2 6771   5.725   4.159   4.261
 1958SOL     OW 6772   5.044   1.501   2.270
 1958SOL    HW1 6773   5.097   1.585   2.279
 1958SOL    HW2 6774   4.947   1.520   2.286
 1959SOL     OW 6775   1.354   0.139   3.938
 1959SOL    HW1 6776   1.402   0.054   3.958
 1959SOL    HW2 6777   1.420   0.214   3.931
 1960SOL     OW 6778   6.965   4.858   1.848
 1960SOL    HW1 6779   6.918   4.770   1.835
 1960SOL    HW2 6780   6.904   4.921   1.895
 1961SOL     OW 6781   5.895   4.408   4.262
 1961SOL    HW1 6782   5.842   4.451   4.335
 1961SOL    HW2 6783   5.992   4.417   4.282
 1962SOL     OW 6784   1.081   6.550   3.124
 1962SOL    HW1 6785   1.035   6.528   3.038
 1962SOL    HW2 6786   1.066   6.476   3.190
 1963SOL     OW 6787   1.031   1.771   1.188
 1963SOL    HW1 6788   1.081   1.758   1.274
 1963SOL    HW2 6789   1.076   1.842   1.134
 1964SOL     OW 6790   4.902   4.371   1.320
 1964SOL    HW1 6791   4.893   4.435   1.396
 1964SOL    HW2 6792   4.815   4.366   1.270
 1965SOL     OW 6793   2.103   2.701   4.733
 1965SOL    HW1 6794   2.066   2.793   4.749
 1965SOL    HW2 6795   2.036   2.647   4.682
 1966SOL     OW 6796   0.390   6.196   0.677
 1966SOL    HW1 6797   0.418   6.108   0.639
 1966SOL    HW2 6798   0.391   6.191   0.777
 1967SOL     OW 6799   5.643   2.704   5.530
 1967SOL    HW1 6800   5.563   2.664   5.486
 1967SOL    HW2 6801   5.649   2.801   5.505
 1968SOL     OW 6802   1.429   6.674   5.298
 1968SOL    HW1 6803   1.481   6.689   5.382
 1968SOL    HW2 6804   1.331   6.669   5.320
 1969SOL     OW 6805   1.433   1.716   1.138
 1969SOL    HW1 6806   1.464   1.810   1.122
 1969SOL    HW2 6807   1.342   1.703   1.096
 1970SOL     OW 6808   2.879   6.433   6.313
 1970SOL    HW1 6809   2.877   6.415   6.411
 1970SOL    HW2 6810   2.789   6.416   6.273
 1971SOL     OW 6811   0.742   0.220   5.609
 1971SOL    HW1 6812   0.794   0.135   5.607
 1971SOL    HW2 6813   0.783   0.286   5.547
 1972SOL     OW 6814   5.448   1.829   2.268
 1972SOL    HW1 6815   5.411   1.905   2.214
 1972SOL    HW2 6816   5.518   1.783   2.214
 1973SOL     OW 6817   3.026   2.787   0.127
 1973SOL    HW1 6818   3.082   2.858   0.084
 1973SOL    HW2 6819   2.995   2.722   0.057
 1974SOL     OW 6820   5.474   6.777   4.731
 1974SOL    HW1 6821   5.570   6.749   4.735
 1974SOL    HW2 6822   5.416   6.697   4.741
 1975SOL     OW 6823   1.780   1.772   3.885
 1975SOL    HW1 6824   1.809   1.807   3.974
 1975SOL    HW2 6825   1.774   1.847   3.819
 1976SOL     OW 6826   6.702   0.148   0.331
 1976SOL    HW1 6827   6.717   0.245   0.316
 1976SOL    HW2 6828   6.604   0.128   0.322
 1977SOL     OW 6829   1.769   3.289   4.806
 1977SOL    HW1 6830   1.861   3.305   4.770
 1977SOL    HW2 6831   1.738   3.198   4.778
 1978SOL     OW 6832   1.922   6.175   3.156
 1978SOL    HW1 6833   1.938   6.143   3.250
 1978SOL    HW2 6834   1.888   6.269   3.158
 1979SOL     OW 6835   6.238   4.013   6.712
 1979SOL    HW1 6836   6.143   4.026   6.739
 1979SOL    HW2 6837   6.260   3.916   6.711
 1980SOL     OW 6838   3.813   6.795   4.658
 1980SOL    HW1 6839   3.842   6.712   4.610
 1980SOL    HW2 6840   3.818   6.780   4.757
 1981SOL     OW 6841   7.003   2.822   2.103
 1981SOL    HW1 6842   7.013   2.745   2.167
 1981SOL    HW2 6843   0.035   2.899   2.135
 1982SOL     OW 6844   0.861   4.159   4.104
 1982SOL    HW1 6845   0.762   4.145   4.113
 1982SOL    HW2 6846   0.904   4.074   4.071
 1983SOL     OW 6847   0.614   0.879   2.617
 1983SOL    HW1 6848   0.661   0.953   2.665
 1983SOL    HW2 6849   0.682   0.820   2.572
 1984SOL     OW 6850   4.733   1.929   4.932
 1984SOL    HW1 6851   4.703   2.003   4.872
 1984SOL    HW2 6852   4.778   1.967   5.013
 1985SOL     OW 6853   1.223   6.491   2.438
 1985SOL    HW1 6854   1.288   6.423   2.471
 1985SOL    HW2 6855   1.182   6.538   2.516
 1986SOL     OW 6856   2.894   1.025   0.042
 1986SOL    HW1 6857   2.849   0.975   6.991
 1986SOL    HW2 6858   2.873   1.123   0.033
 1987SOL     OW 6859   1.900   2.094   2.791
 1987SOL    HW1 6860   1.950   2.165   2.840
 1987SOL    HW2 6861   1.905   2.112   2.692
 1988SOL     OW 6862   6.203   3.447   0.494
 1988SOL    HW1 6863   6.180   3.518   0.428
 1988SOL    HW2 6864   6.263   3.380   0.451
 1989SOL     OW 6865   1.956   5.301   5.160
 1989SOL    HW1 6866   1.969   5.246   5.242
 1989SOL    HW2 6867   2.022   5.376   5.160
 1990SOL     OW 6868   3.916   5.715   0.689
 1990SOL    HW1 6869   3.911   5.815   0.688
 1990SOL    HW2 6870   4.007   5.687   0.719
 1991SOL     OW 6871   2.808   4.955   6.897
 1991SOL    HW1 6872   2.757   4.987   6.977
 1991SOL    HW2 6873   2.894   5.005   6.891
 1992SOL     OW 6874   0.441   0.970   0.172
 1992SOL    HW1 6875   0.502   0.917   0.113
 1992SOL    HW2 6876   0.461   1.068   0.162
 1993SOL     OW 6877   3.551   2.445   5.361
 1993SOL    HW1 6878   3.485   2.519   5.374
 1993SOL    HW2 6879   3.604   2.432   5.444
 1994SOL     OW 6880   0.498   1.641   6.902
 1994SOL    HW1 6881   0.547   1.722   6.934
 1994SOL    HW2 6882   0.410   1.668   6.864
 1995SOL     OW 6883   5.264   2.639   3.720
 1995SOL    HW1 6884   5.228   2.685   3.639
 1995SOL    HW2 6885   5.245   2.541   3.713
 1996SOL     OW 6886   2.217   2.720   0.132
 1996SOL    HW1 6887   2.229   2.739   0.229
 1996SOL    HW2 6888   2.199   2.622   0.120
 1997SOL     OW 6889   3.194   1.913   4.945
 1997SOL    HW1 6890   3.144   1.831   4.918
 1997SOL    HW2 6891   3.167   1.990   4.888
 1998SOL     OW 6892   2.932   3.814   0.306
 1998SOL    HW1 6893   2.843   3.772   0.285
 1998SOL    HW2 6894   2.990   3.811   0.224
 1999SOL     OW 6895   2.410   6.451   6.178
 1999SOL    HW1 6896   2.473   6.485   6.248
 1999SOL    HW2 6897   2.452   6.460   6.088
 2000SOL     OW 6898   4.253   2.698   5.354
 2000SOL    HW1 6899   4.217   2.626   5.295
 2000SOL    HW2 6900   4.197   2.781   5.344
 2001SOL     OW 6901   2.801   0.114   1.935
 2001SOL    HW1 6902   2.720   0.081   1.983
 2001SOL    HW2 6903   2.822   0.053   1.858
 2002SOL     OW 6904   0.784   4.610   0.303
 2002SOL    HW1 6905   0.823   4.520   0.321
 2002SOL    HW2 6906   0.789   4.665   0.387
 2003SOL     OW 6907   6.022   5.465   2.840
 2003SOL    HW1 6908   6.042   5.381   2.789
 2003SOL    HW2 6909   6.063   5.543   2.792
 2004SOL     OW 6910   5.046   1.612   4.632
 2004SOL    HW1 6911   4.964   1.666   4.651
 2004SOL    HW2 6912   5.123   1.649   4.683
 2005SOL     OW 6913   6.843   5.181   0.193
 2005SOL    HW1 6914   6.921   5.229   0.235
 2005SOL    HW2 6915   6.760   5.206   0.242
 2006SOL     OW 6916   5.738   6.689   3.254
 2006SOL    HW1 6917   5.675   6.684   3.177
 2006SOL    HW2 6918   5.687   6.704   3.338
 2007SOL     OW 6919   4.522   4.582   1.092
 2007SOL    HW1 6920   4.445   4.524   1.118
 2007SOL    HW2 6921   4.489   4.660   1.039
 2008SOL     OW 6922   1.976   4.265   3.953
 2008SOL    HW1 6923   2.072   4.251   3.929
 2008SOL    HW2 6924   1.932   4.176   3.965
 2009SOL     OW 6925   5.627   0.199   2.356
 2009SOL    HW1 6926   5.716   0.196   2.310
 2009SOL    HW2 6927   5.597   0.294   2.364
 2010SOL     OW 6928   2.666   1.629   2.142
 2010SOL    HW1 6929   2.656   1.616   2.241
 2010SOL    HW2 6930   2.656   1.726   2.120
 2011SOL     OW 6931   0.058   7.013   4.760
 2011SOL    HW1 6932   0.081   0.063   4.695
 2011SOL    HW2 6933   0.130   6.943   4.759
 2012SOL     OW 6934   1.139   4.631   2.003
 2012SOL    HW1 6935   1.169   4.655   2.095
 2012SOL    HW2 6936   1.104   4.537   2.003
 2013SOL     OW 6937   6.139   2.582   3.539
 2013SOL    HW1 6938   6.198   2.598   3.618
 2013SOL    HW2 6939   6.178   2.510   3.481
 2014SOL     OW 6940   2.396   6.513   3.489
 2014SOL    HW1 6941   2.376   6.452   3.566
 2014SOL    HW2 6942   2.328   6.499   3.418
 2015SOL     OW 6943   1.635   0.745   0.270
 2015SOL    HW1 6944   1.540   0.757   0.241
 2015SOL    HW2 6945   1.692   0.728   0.190
 2016SOL     OW 6946   1.928   6.079   5.894
 2016SOL    HW1 6947   1.974   6.005   5.845
 2016SOL    HW2 6948   1.904   6.049   5.986
 2017SOL     OW 6949   3.551   6.995   4.181
 2017SOL    HW1 6950   3.627   6.934   4.202
 2017SOL    HW2 6951   3.554   0.052   4.242
 2018SOL     OW 6952   5.204   1.975   4.477
 2018SOL    HW1 6953   5.130   1.972   4.410
 2018SOL    HW2 6954   5.174   2.027   4.557
 2019SOL     OW 6955   5.065   3.361   6.265
 2019SOL    HW1 6956   5.139   3.298   6.286
 2019SOL    HW2 6957   5.066   3.381   6.167
 2020SOL     OW 6958   1.704   0.217   5.186
 2020SOL    HW1 6959   1.619   0.263   5.163
 2020SOL    HW2 6960   1.684   0.132   5.235
 2021SOL     OW 6961   0.525   6.230   4.810
 2021SOL    HW1 6962   0.597   6.162   4.820
 2021SOL    HW2 6963   0.545   6.310   4.866
 2022SOL     OW 6964   1.475   4.491   3.196
 2022SOL    HW1 6965   1.516   4.580   3.178
 2022SOL    HW2 6966   1.464   4.441   3.110
 2023SOL     OW 6967   0.048   0.562   6.872
 2023SOL    HW1 6968   0.133   0.606   6.845
 2023SOL    HW2 6969   7.007   0.560   6.795
 2024SOL     OW 6970   0.351   6.049   3.218
 2024SOL    HW1 6971   0.401   6.128   3.253
 2024SOL    HW2 6972   0.364   5.971   3.279
 2025SOL     OW 6973   3.352   1.343   3.763
 2025SOL    HW1 6974   3.444   1.378   3.781
 2025SOL    HW2 6975   3.359   1.248   3.730
 2026SOL     OW 6976   6.482   3.351   5.601
 2026SOL    HW1 6977   6.566   3.335   5.549
 2026SOL    HW2 6978   6.403   3.329   5.545
 2027SOL     OW 6979   1.440   0.089   0.474
 2027SOL    HW1 6980   1.383   0.136   0.407
 2027SOL    HW2 6981   1.388   0.075   0.558
 2028SOL     OW 6982   2.625   6.080   4.534
 2028SOL    HW1 6983   2.543   6.067   4.479
 2028SOL    HW2 6984   2.656   6.175   4.525
 2029SOL     OW 6985   5.871   1.486   6.959
 2029SOL    HW1 6986   5.933   1.451   6.889
 2029SOL    HW2 6987   5.871   1.586   6.956
 2030SOL     OW 6988   2.878   0.990   3.790
 2030SOL    HW1 6989   2.913   1.043   3.867
 2030SOL    HW2 6990   2.778   0.993   3.790
 2031SOL     OW 6991   6.640   5.711   1.279
 2031SOL    HW1 6992   6.577   5.787   1.293
 2031SOL    HW2 6993   6.694   5.696   1.361
 2032SOL     OW 6994   4.793   0.584   2.037
 2032SOL    HW1 6995   4.832   0.674   2.053
 2032SOL    HW2 6996   4.866   0.517   2.027
 2033SOL     OW 6997   3.727   2.935   6.200
 2033SOL    HW1 6998   3.765   3.016   6.155
 2033SOL    HW2 6999   3.801   2.869   6.219
 2034SOL     OW 7000   2.339   5.317   5.468
 2034SOL    HW1 7001   2.353   5.220   5.487
 2034SOL    HW2 7002   2.424   5.358   5.435
 2035SOL     OW 7003   6.824   6.258   3.537
 2035SOL    HW1 7004   6.840   6.220   3.628
 2035SOL    HW2 7005   6.744   6.317   3.539
 2036SOL     OW 7006   0.907   4.060   3.087
 2036SOL    HW1 7007   0.828   3.999   3.086
 2036SOL    HW2 7008   0.989   4.008   3.065
 2037SOL     OW 7009   6.251   3.140   5.896
 2037SOL    HW1 7010   6.273   3.082   5.975
 2037SOL    HW2 7011   6.323   3.208   5.883
 2038SOL     OW 7012   2.122   1.840   0.082
 2038SOL    HW1 7013   2.207   1.801   0.046
 2038SOL    HW2 7014   2.136   1.868   0.177
 2039SOL     OW 7015   0.062   5.259   3.984
 2039SOL    HW1 7016   0.111   5.269   3.897
 2039SOL    HW2 7017   6.986   5.274   3.969
 2040SOL     OW 7018   2.480   3.227   5.702
 2040SOL    HW1 7019   2.534   3.226   5.618
 2040SOL    HW2 7020   2.439   3.137   5.717
 2041SOL     OW 7021   1.030   6.442   5.925
 2041SOL    HW1 7022   1.096   6.507   5.964
 2041SOL    HW2 7023   1.047   6.351   5.963
 2042SOL     OW 7024   5.014   6.242   6.766
 2042SOL    HW1 7025   4.928   6.207   6.801
 2042SOL    HW2 7026   5.086   6.226   6.834
 2043SOL     OW 7027   6.481   3.676   2.989
 2043SOL    HW1 7028   6.444   3.732   2.914
 2043SOL    HW2 7029   6.565   3.631   2.958
 2044SOL     OW 7030   0.015   0.574   1.660
 2044SOL    HW1 7031   6.994   0.591   1.748
 2044SOL    HW2 7032   0.045   0.479   1.655
 2045SOL     OW 7033   1.545   4.993   4.409
 2045SOL    HW1 7034   1.634   4.988   4.363
 2045SOL    HW2 7035   1.553   5.052   4.489
 2046SOL     OW 7036   6.700   1.664   4.411
 2046SOL    HW1 7037   6.682   1.717   4.328
 2046SOL    HW2 7038   6.620   1.608   4.432
 2047SOL     OW 7039   0.140   2.916   0.300
 2047SOL    HW1 7040   0.046   2.900   0.270
 2047SOL    HW2 7041   0.157   3.015   0.305
 2048SOL     OW 7042   1.500   6.518   6.074
 2048SOL    HW1 7043   1.532   6.613   6.072
 2048SOL    HW2 7044   1.571   6.459   6.111
 2049SOL     OW 7045   5.771   1.614   4.173
 2049SOL    HW1 7046   5.773   1.604   4.074
 2049SOL    HW2 7047   5.784   1.710   4.198
 2050SOL     OW 7048   6.085   2.797   4.178
 2050SOL    HW1 7049   6.151   2.782   4.104
 2050SOL    HW2 7050   6.012   2.730   4.170
 2051SOL     OW 7051   1.158   6.060   7.017
 2051SOL    HW1 7052   1.183   6.032   6.924
 2051SOL    HW2 7053   1.162   5.980   0.054
 2052SOL     OW 7054   1.875   3.017   1.456
 2052SOL    HW1 7055   1.967   2.996   1.424
 2052SOL    HW2 7056   1.880   3.053   1.550
 2053SOL     OW 7057   6.359   6.111   4.590
 2053SOL    HW1 7058   6.310   6.185   4.637
 2053SOL    HW2 7059   6.345   6.025   4.639
 2054SOL     OW 7060   3.349   4.123   3.579
 2054SOL    HW1 7061   3.408   4.181   3.636
 2054SOL    HW2 7062   3.280   4.079   3.636
 2055SOL     OW 7063   5.702   3.472   3.902
 2055SOL    HW1 7064   5.648   3.533   3.960
 2055SOL    HW2 7065   5.772   3.525   3.854
 2056SOL     OW 7066   4.046   5.910   1.402
 2056SOL    HW1 7067   4.111   5.843   1.439
 2056SOL    HW2 7068   4.023   5.976   1.473
 2057SOL     OW 7069   5.472   4.234   6.110
 2057SOL    HW1 7070   5.512   4.248   6.019
 2057SOL    HW2 7071   5.461   4.323   6.155
 2058SOL     OW 7072   0.282   0.428   3.259
 2058SOL    HW1 7073   0.361   0.469   3.305
 2058SOL    HW2 7074   0.217   0.395   3.327
 2059SOL     OW 7075   1.552   5.903   6.210
 2059SOL    HW1 7076   1.647   5.887   6.238
 2059SOL    HW2 7077   1.543   5.996   6.176
 2060SOL     OW 7078   0.455   4.041   1.513
 2060SOL    HW1 7079   0.514   4.010   1.439
 2060SOL    HW2 7080   0.367   3.993   1.510
 2061SOL     OW 7081   1.347   2.106   2.474
 2061SOL    HW1 7082   1.435   2.069   2.506
 2061SOL    HW2 7083   1.273   2.062   2.525
 2062SOL     OW 7084   0.006   4.886   4.966
 2062SOL    HW1 7085   7.016   4.807   5.026
 2062SOL    HW2 7086   7.002   4.970   5.015
 2063SOL     OW 7087   1.175   6.601   5.307
 2063SOL    HW1 7088   1.201   6.540   5.382
 2063SOL    HW2 7089   1.080   6.585   5.282
 2064SOL     OW 7090   6.769   2.373   4.704
 2064SOL    HW1 7091   6.830   2.307   4.659
 2064SOL    HW2 7092   6.774   2.461   4.656
 2065SOL     OW 7093   5.887   2.478   5.536
 2065SOL    HW1 7094   5.900   2.379   5.546
 2065SOL    HW2 7095   5.857   2.516   5.624
 2066SOL     OW 7096   0.270   4.617   5.118
 2066SOL    HW1 7097   0.176   4.612   5.150
 2066SOL    HW2 7098   0.313   4.527   5.126
 2067SOL     OW 7099   0.046   5.355   0.594
 2067SOL    HW1 7100   0.012   5.281   0.653
 2067SOL    HW2 7101   0.006   5.441   0.622
 2068SOL     OW 7102   2.032   0.242   4.580
 2068SOL    HW1 7103   2.040   0.153   4.624
 2068SOL    HW2 7104   2.111   0.258   4.521
 2069SOL     OW 7105   6.416   2.896   4.154
 2069SOL    HW1 7106   6.386   2.804   4.180
 2069SOL    HW2 7107   6.499   2.890   4.099
 2070SOL     OW 7108   1.240   1.456   0.506
 2070SOL    HW1 7109   1.292   1.392   0.451
 2070SOL    HW2 7110   1.300   1.501   0.572
 2071SOL     OW 7111   5.796   0.503   5.815
 2071SOL    HW1 7112   5.793   0.565   5.894
 2071SOL    HW2 7113   5.707   0.457   5.806
 2072SOL     OW 7114   4.431   5.310   4.627
 2072SOL    HW1 7115   4.518   5.262   4.636
 2072SOL    HW2 7116   4.358   5.254   4.665
 2073SOL     OW 7117   4.491   6.784   5.096
 2073SOL    HW1 7118   4.470   6.705   5.154
 2073SOL    HW2 7119   4.552   6.846   5.145
 2074SOL     OW 7120   2.212   1.891   6.226
 2074SOL    HW1 7121   2.207   1.860   6.321
 2074SOL    HW2 7122   2.278   1.965   6.218
 2075SOL     OW 7123   0.033   2.637   3.387
 2075SOL    HW1 7124   0.090   2.690   3.450
 2075SOL    HW2 7125   0.034   2.541   3.414
 2076SOL     OW 7126   5.095   6.732   6.080
 2076SOL    HW1 7127   5.168   6.799   6.071
 2076SOL    HW2 7128   5.007   6.779   6.080
 2077SOL     OW 7129   6.795   2.029   2.419
 2077SOL    HW1 7130   6.834   2.023   2.511
 2077SOL    HW2 7131   6.701   2.062   2.425
 2078SOL     OW 7132   1.918   5.436   6.574
 2078SOL    HW1 7133   1.910   5.393   6.484
 2078SOL    HW2 7134   1.966   5.523   6.565
 2079SOL     OW 7135   6.951   1.901   3.249
 2079SOL    HW1 7136   6.859   1.886   3.212
 2079SOL    HW2 7137   7.014   1.920   3.175
 2080SOL     OW 7138   1.750   0.650   4.679
 2080SOL    HW1 7139   1.713   0.683   4.592
 2080SOL    HW2 7140   1.676   0.610   4.734
 2081SOL     OW 7141   0.833   6.411   4.592
 2081SOL    HW1 7142   0.783   6.347   4.651
 2081SOL    HW2 7143   0.810   6.394   4.497
 2082SOL     OW 7144   0.820   6.825   2.950
 2082SOL    HW1 7145   0.735   6.797   2.906
 2082SOL    HW2 7146   0.802   6.853   3.044
 2083SOL     OW 7147   1.321   5.137   6.025
 2083SOL    HW1 7148   1.230   5.128   6.065
 2083SOL    HW2 7149   1.371   5.211   6.071
 2084SOL     OW 7150   0.698   4.499   2.712
 2084SOL    HW1 7151   0.780   4.540   2.673
 2084SOL    HW2 7152   0.714   4.401   2.728
 2085SOL     OW 7153   4.818   1.063   0.983
 2085SOL    HW1 7154   4.890   1.060   0.913
 2085SOL    HW2 7155   4.732   1.030   0.944
 2086SOL     OW 7156   3.640   6.336   6.532
 2086SOL    HW1 7157   3.610   6.347   6.626
 2086SOL    HW2 7158   3.727   6.384   6.519
 2087SOL     OW 7159   5.417   1.348   1.845
 2087SOL    HW1 7160   5.359   1.395   1.912
 2087SOL    HW2 7161   5.406   1.392   1.755
 2088SOL     OW 7162   1.266   5.895   6.785
 2088SOL    HW1 7163   1.349   5.911   6.732
 2088SOL    HW2 7164   1.211   5.825   6.740
 2089SOL     OW 7165   4.754   2.790   6.264
 2089SOL    HW1 7166   4.682   2.723   6.284
 2089SOL    HW2 7167   4.755   2.860   6.335
 2090SOL     OW 7168   4.255   3.227   5.915
 2090SOL    HW1 7169   4.296   3.269   5.996
 2090SOL    HW2 7170   4.325   3.176   5.865
 2091SOL     OW 7171   6.582   4.927   0.622
 2091SOL    HW1 7172   6.524   4.982   0.562
 2091SOL    HW2 7173   6.531   4.848   0.656
 2092SOL     OW 7174   5.425   3.487   0.702
 2092SOL    HW1 7175   5.408   3.398   0.744
 2092SOL    HW2 7176   5.513   3.485   0.654
 2093SOL     OW 7177   3.166   2.448   1.662
 2093SOL    HW1 7178   3.254   2.407   1.689
 2093SOL    HW2 7179   3.108   2.458   1.743
 2094SOL     OW 7180   5.722   1.465   1.495
 2094SOL    HW1 7181   5.643   1.499   1.442
 2094SOL    HW2 7182   5.695   1.454   1.590
 2095SOL     OW 7183   6.355   6.447   5.146
 2095SOL    HW1 7184   6.438   6.404   5.109
 2095SOL    HW2 7185   6.329   6.524   5.087
 2096SOL     OW 7186   4.900   4.968   3.498
 2096SOL    HW1 7187   4.882   4.876   3.534
 2096SOL    HW2 7188   4.843   4.985   3.418
 2097SOL     OW 7189   3.289   2.849   6.307
 2097SOL    HW1 7190   3.201   2.888   6.279
 2097SOL    HW2 7191   3.316   2.887   6.395
 2098SOL     OW 7192   4.606   5.773   1.708
 2098SOL    HW1 7193   4.523   5.746   1.659
 2098SOL    HW2 7194   4.664   5.827   1.648
 2099SOL     OW 7195   3.547   1.665   6.978
 2099SOL    HW1 7196   3.499   1.651   0.041
 2099SOL    HW2 7197   3.584   1.578   6.945
 2100SOL     OW 7198   5.767   1.402   0.684
 2100SOL    HW1 7199   5.682   1.409   0.632
 2100SOL    HW2 7200   5.747   1.383   0.780
 2101SOL     OW 7201   0.456   6.876   1.236
 2101SOL    HW1 7202   0.401   6.796   1.215
 2101SOL    HW2 7203   0.418   6.957   1.190
 2102SOL     OW 7204   5.131   4.471   2.142
 2102SOL    HW1 7205   5.177   4.453   2.228
 2102SOL    HW2 7206   5.079   4.390   2.114
 2103SOL     OW 7207   3.401   3.534   6.874
 2103SOL    HW1 7208   3.496   3.505   6.863
 2103SOL    HW2 7209   3.360   3.486   6.952
 2104SOL     OW 7210   1.828   4.582   2.349
 2104SOL    HW1 7211   1.806   4.533   2.434
 2104SOL    HW2 7212   1.746   4.588   2.292
 2105SOL     OW 7213   4.719   4.285   6.257
 2105SOL    HW1 7214   4.632   4.253   6.217
 2105SOL    HW2 7215   4.774   4.206   6.282
 2106SOL     OW 7216   5.518   3.592   1.330
 2106SOL    HW1 7217   5.461   3.659   1.377
 2106SOL    HW2 7218   5.535   3.624   1.236
 2107SOL     OW 7219   6.485   2.491   5.411
 2107SOL    HW1 7220   6.493   2.416   5.346
 2107SOL    HW2 7221   6.542   2.568   5.380
 2108SOL     OW 7222   6.027   5.013   5.443
 2108SOL    HW1 7223   6.042   5.047   5.536
 2108SOL    HW2 7224   6.045   5.086   5.378
 2109SOL     OW 7225   3.735   6.223   2.477
 2109SOL    HW1 7226   3.809   6.287   2.458
 2109SOL    HW2 7227   3.768   6.150   2.537
 2110SOL     OW 7228   2.913   0.888   0.783
 2110SOL    HW1 7229   2.992   0.885   0.722
 2110SOL    HW2 7230   2.833   0.918   0.732
 2111SOL     OW 7231   2.062   3.213   6.646
 2111SOL    HW1 7232   2.102   3.257   6.566
 2111SOL    HW2 7233   2.038   3.282   6.714
 2112SOL     OW 7234   5.256   1.836   0.756
 2112SOL    HW1 7235   5.227   1.865   0.665
 2112SOL    HW2 7236   5.186   1.862   0.822
 2113SOL     OW 7237   2.571   0.966   5.120
 2113SOL    HW1 7238   2.526   0.905   5.185
 2113SOL    HW2 7239   2.555   0.932   5.027
 2114SOL     OW 7240   2.379   1.683   6.625
 2114SOL    HW1 7241   2.305   1.734   6.581
 2114SOL    HW2 7242   2.359   1.585   6.621
 2115SOL     OW 7243   0.441   4.407   2.156
 2115SOL    HW1 7244   0.380   4.330   2.171
 2115SOL    HW2 7245   0.388   4.490   2.137
 2116SOL     OW 7246   1.003   3.955   2.407
 2116SOL    HW1 7247   0.970   3.915   2.322
 2116SOL    HW2 7248   1.063   3.890   2.454
 2117SOL     OW 7249   6.102   4.115   1.548
 2117SOL    HW1 7250   6.199   4.106   1.567
 2117SOL    HW2 7251   6.051   4.043   1.595
 2118SOL     OW 7252   6.241   3.579   3.178
 2118SOL    HW1 7253   6.307   3.646   3.145
 2118SOL    HW2 7254   6.231   3.506   3.110
 2119SOL     OW 7255   2.045   0.238   0.822
 2119SOL    HW1 7256   1.967   0.284   0.782
 2119SOL    HW2 7257   2.026   0.219   0.919
 2120SOL     OW 7258   0.740   4.226   2.803
 2120SOL    HW1 7259   0.814   4.231   2.869
 2120SOL    HW2 7260   0.738   4.136   2.760
 2121SOL     OW 7261   1.583   2.578   5.645
 2121SOL    HW1 7262   1.667   2.626   5.670
 2121SOL    HW2 7263   1.545   2.533   5.726
 2122SOL     OW 7264   5.914   5.798   6.569
 2122SOL    HW1 7265   5.822   5.782   6.533
 2122SOL    HW2 7266   5.941   5.892   6.551
 2123SOL     OW 7267   6.624   5.541   1.530
 2123SOL    HW1 7268   6.557   5.595   1.582
 2123SOL    HW2 7269   6.710   5.591   1.524
 2124SOL     OW 7270   3.053   1.560   0.393
 2124SOL    HW1 7271   2.971   1.539   0.445
 2124SOL    HW2 7272   3.134   1.552   0.452
 2125SOL     OW 7273   1.366   6.282   2.079
 2125SOL    HW1 7274   1.445   6.318   2.130
 2125SOL    HW2 7275   1.359   6.183   2.095
 2126SOL     OW 7276   3.459   2.346   6.544
 2126SOL    HW1 7277   3.471   2.308   6.452
 2126SOL    HW2 7278   3.478   2.444   6.543
 2127SOL     OW 7279   0.618   1.811   5.948
 2127SOL    HW1 7280   0.587   1.790   5.855
 2127SOL    HW2 7281   0.715   1.790   5.957
 2128SOL     OW 7282   6.344   2.834   2.571
 2128SOL    HW1 7283   6.319   2.836   2.474
 2128SOL    HW2 7284   6.294   2.762   2.617
 2129SOL     OW 7285   4.992   4.315   4.930
 2129SOL    HW1 7286   4.920   4.267   4.880
 2129SOL    HW2 7287   5.023   4.258   5.006
 2130SOL     OW 7288   3.272   0.276   2.314
 2130SOL    HW1 7289   3.190   0.269   2.369
 2130SOL    HW2 7290   3.352   0.285   2.374
 2131SOL     OW 7291   4.994   1.654   0.899
 2131SOL    HW1 7292   5.019   1.577   0.839
 2131SOL    HW2 7293   4.905   1.690   0.872
 2132SOL     OW 7294   3.116   1.952   6.699
 2132SOL    HW1 7295   3.094   1.876   6.638
 2132SOL    HW2 7296   3.138   2.033   6.645
 2133SOL     OW 7297   3.605   2.988   1.048
 2133SOL    HW1 7298   3.649   3.059   1.102
 2133SOL    HW2 7299   3.542   2.936   1.106
 2134SOL     OW 7300   0.571   0.960   4.434
 2134SOL    HW1 7301   0.634   0.886   4.457
 2134SOL    HW2 7302   0.563   0.967   4.335
 2135SOL     OW 7303   0.592   1.643   4.416
 2135SOL    HW1 7304   0.580   1.594   4.502
 2135SOL    HW2 7305   0.659   1.595   4.360
 2136SOL     OW 7306   1.161   4.063   4.781
 2136SOL    HW1 7307   1.081   4.122   4.771
 2136SOL    HW2 7308   1.173   4.039   4.877
 2137SOL     OW 7309   6.881   6.262   4.644
 2137SOL    HW1 7310   6.802   6.230   4.591
 2137SOL    HW2 7311   6.916   6.187   4.700
 2138SOL     OW 7312   6.891   1.400   1.379
 2138SOL    HW1 7313   6.918   1.305   1.388
 2138SOL    HW2 7314   6.796   1.406   1.350
 2139SOL     OW 7315   3.771   0.559   2.843
 2139SOL    HW1 7316   3.719   0.618   2.782
 2139SOL    HW2 7317   3.858   0.603   2.868
 2140SOL     OW 7318   3.166   5.453   3.134
 2140SOL    HW1 7319   3.134   5.404   3.053
 2140SOL    HW2 7320   3.165   5.551   3.115
 2141SOL     OW 7321   6.729   4.242   0.947
 2141SOL    HW1 7322   6.763   4.249   0.853
 2141SOL    HW2 7323   6.806   4.226   1.009
 2142SOL     OW 7324   1.342   2.143   3.050
 2142SOL    HW1 7325   1.320   2.046   3.054
 2142SOL    HW2 7326   1.301   2.184   2.969
 2143SOL     OW 7327   3.496   5.136   1.301
 2143SOL    HW1 7328   3.558   5.173   1.371
 2143SOL    HW2 7329   3.469   5.208   1.238
 2144SOL     OW 7330   1.078   6.806   3.272
 2144SOL    HW1 7331   1.121   6.753   3.199
 2144SOL    HW2 7332   1.122   6.785   3.359
 2145SOL     OW 7333   3.530   5.924   4.211
 2145SOL    HW1 7334   3.431   5.924   4.196
 2145SOL    HW2 7335   3.577   5.941   4.124
 2146SOL     OW 7336   2.991   3.233   2.006
 2146SOL    HW1 7337   2.951   3.309   2.057
 2146SOL    HW2 7338   2.943   3.223   1.919
 2147SOL     OW 7339   0.031   0.804   6.717
 2147SOL    HW1 7340   0.106   0.869   6.704
 2147SOL    HW2 7341   6.997   0.833   6.794
 2148SOL     OW 7342   5.222   2.745   4.057
 2148SOL    HW1 7343   5.309   2.695   4.057
 2148SOL    HW2 7344   5.205   2.782   3.965
 2149SOL     OW 7345   3.777   1.192   1.510
 2149SOL    HW1 7346   3.797   1.250   1.588
 2149SOL    HW2 7347   3.745   1.103   1.542
 2150SOL     OW 7348   2.099   2.406   2.647
 2150SOL    HW1 7349   2.062   2.492   2.680
 2150SOL    HW2 7350   2.025   2.348   2.614
 2151SOL     OW 7351   1.718   1.521   3.817
 2151SOL    HW1 7352   1.752   1.609   3.849
 2151SOL    HW2 7353   1.624   1.531   3.785
 2152SOL     OW 7354   3.690   5.906   1.122
 2152SOL    HW1 7355   3.720   5.993   1.160
 2152SOL    HW2 7356   3.686   5.838   1.196
 2153SOL     OW 7357   3.623   0.045   3.075
 2153SOL    HW1 7358   3.627   7.011   3.158
 2153SOL    HW2 7359   3.681   0.004   3.004
 2154SOL     OW 7360   4.999   0.725   4.579
 2154SOL    HW1 7361   5.005   0.626   4.589
 2154SOL    HW2 7362   5.084   0.760   4.539
 2155SOL     OW 7363   2.061   5.325   0.488
 2155SOL    HW1 7364   1.988   5.313   0.421
 2155SOL    HW2 7365   2.068   5.422   0.514
 2156SOL     OW 7366   2.688   0.609   2.770
 2156SOL    HW1 7367   2.647   0.586   2.682
 2156SOL    HW2 7368   2.708   0.525   2.820
 2157SOL     OW 7369   6.195   1.054   3.144
 2157SOL    HW1 7370   6.171   0.963   3.177
 2157SOL    HW2 7371   6.290   1.075   3.168
 2158SOL     OW 7372   4.397   6.311   0.843
 2158SOL    HW1 7373   4.414   6.404   0.809
 2158SOL    HW2 7374   4.474   6.282   0.900
 2159SOL     OW 7375   2.213   5.710   5.635
 2159SOL    HW1 7376   2.265   5.715   5.550
 2159SOL    HW2 7377   2.274   5.689   5.711
 2160SOL     OW 7378   4.851   3.602   1.280
 2160SOL    HW1 7379   4.836   3.520   1.335
 2160SOL    HW2 7380   4.919   3.584   1.209
 2161SOL     OW 7381   5.278   2.956   3.699
 2161SOL    HW1 7382   5.339   2.973   3.776
 2161SOL    HW2 7383   5.195   2.912   3.732
 2162SOL     OW 7384   3.018   0.633   0.102
 2162SOL    HW1 7385   3.059   0.576   0.031
 2162SOL    HW2 7386   3.090   0.681   0.152
 2163SOL     OW 7387   0.509   5.289   6.012
 2163SOL    HW1 7388   0.551   5.226   5.947
 2163SOL    HW2 7389   0.413   5.302   5.989
 2164SOL     OW 7390   1.635   2.244   0.229
 2164SOL    HW1 7391   1.643   2.193   0.143
 2164SOL    HW2 7392   1.636   2.180   0.305
 2165SOL     OW 7393   1.007   1.699   2.515
 2165SOL    HW1 7394   1.078   1.654   2.460
 2165SOL    HW2 7395   0.918   1.682   2.474
 2166SOL     OW 7396   2.004   1.843   5.370
 2166SOL    HW1 7397   2.041   1.801   5.287
 2166SOL    HW2 7398   2.044   1.933   5.382
 2167SOL     OW 7399   1.670   1.273   3.614
 2167SOL    HW1 7400   1.572   1.284   3.626
 2167SOL    HW2 7401   1.692   1.270   3.516
 2168SOL     OW 7402   0.367   2.285   3.506
 2168SOL    HW1 7403   0.329   2.307   3.596
 2168SOL    HW2 7404   0.359   2.187   3.489
 2169SOL     OW 7405   5.857   2.182   5.559
 2169SOL    HW1 7406   5.780   2.174   5.496
 2169SOL    HW2 7407   5.829   2.152   5.650
 2170SOL     OW 7408   5.431   4.944   5.864
 2170SOL    HW1 7409   5.512   4.940   5.806
 2170SOL    HW2 7410   5.451   4.904   5.953
 2171SOL     OW 7411   6.362   3.000   1.330
 2171SOL    HW1 7412   6.372   3.073   1.397
 2171SOL    HW2 7413   6.393   2.913   1.371
 2172SOL     OW 7414   2.807   1.473   0.499
 2172SOL    HW1 7415   2.774   1.444   0.588
 2172SOL    HW2 7416   2.730   1.494   0.439
 2173SOL     OW 7417   3.848   6.992   5.295
 2173SOL    HW1 7418   3.817   0.047   5.350
 2173SOL    HW2 7419   3.834   7.012   5.198
 2174SOL     OW 7420   5.829   5.007   6.050
 2174SOL    HW1 7421   5.747   5.063   6.045
 2174SOL    HW2 7422   5.869   4.999   5.958
 2175SOL     OW 7423   3.174   1.979   3.435
 2175SOL    HW1 7424   3.263   2.022   3.449
 2175SOL    HW2 7425   3.102   2.038   3.471
 2176SOL     OW 7426   1.088   2.997   0.214
 2176SOL    HW1 7427   1.169   3.009   0.271
 2176SOL    HW2 7428   1.035   3.081   0.213
 2177SOL     OW 7429   6.637   0.331   3.144
 2177SOL    HW1 7430   6.706   0.279   3.195
 2177SOL    HW2 7431   6.547   0.315   3.184
 2178SOL     OW 7432   1.876   4.349   0.333
 2178SOL    HW1 7433   1.910   4.255   0.341
 2178SOL    HW2 7434   1.777   4.347   0.320
 2179SOL     OW 7435   1.719   5.542   4.658
 2179SOL    HW1 7436   1.781   5.493   4.596
 2179SOL    HW2 7437   1.748   5.528   4.753
 2180SOL     OW 7438   2.892   3.527   2.103
 2180SOL    HW1 7439   2.955   3.597   2.135
 2180SOL    HW2 7440   2.815   3.570   2.055
 2181SOL     OW 7441   5.800   4.327   5.749
 2181SOL    HW1 7442   5.841   4.237   5.736
 2181SOL    HW2 7443   5.867   4.388   5.793
 2182SOL     OW 7444   6.231   3.145   4.972
 2182SOL    HW1 7445   6.228   3.160   5.071
 2182SOL    HW2 7446   6.212   3.048   4.953
 2183SOL     OW 7447   3.135   3.680   6.460
 2183SOL    HW1 7448   3.222   3.631   6.473
 2183SOL    HW2 7449   3.149   3.777   6.480
 2184SOL     OW 7450   3.715   1.389   5.282
 2184SOL    HW1 7451   3.672   1.478   5.270
 2184SOL    HW2 7452   3.658   1.332   5.342
 2185SOL     OW 7453   1.610   2.110   0.702
 2185SOL    HW1 7454   1.645   2.200   0.676
 2185SOL    HW2 7455   1.687   2.049   0.724
 2186SOL     OW 7456   6.805   4.657   2.144
 2186SOL    HW1 7457   6.740   4.723   2.107
 2186SOL    HW2 7458   6.771   4.622   2.232
 2187SOL     OW 7459   0.208   2.101   1.896
 2187SOL    HW1 7460   0.232   2.024   1.955
 2187SOL    HW2 7461   0.117   2.086   1.857
 2188SOL     OW 7462   5.468   6.098   4.303
 2188SOL    HW1 7463   5.500   6.176   4.358
 2188SOL    HW2 7464   5.445   6.022   4.364
 2189SOL     OW 7465   2.178   6.335   6.496
 2189SOL    HW1 7466   2.139   6.426   6.503
 2189SOL    HW2 7467   2.179   6.291   6.586
 2190SOL     OW 7468   0.289   2.779   2.376
 2190SOL    HW1 7469   0.260   2.786   2.281
 2190SOL    HW2 7470   0.364   2.843   2.393
 2191SOL     OW 7471   3.272   1.538   6.256
 2191SOL    HW1 7472   3.217   1.461   6.224
 2191SOL    HW2 7473   3.247   1.620   6.205
 2192SOL     OW 7474   3.810   6.845   3.974
 2192SOL    HW1 7475   3.845   6.751   3.972
 2192SOL    HW2 7476   3.761   6.864   3.889
 2193SOL     OW 7477   0.301   5.824   5.987
 2193SOL    HW1 7478   0.387   5.797   5.944
 2193SOL    HW2 7479   0.312   5.824   6.086
 2194SOL     OW 7480   2.578   4.518   6.985
 2194SOL    HW1 7481   2.479   4.529   6.993
 2194SOL    HW2 7482   2.619   4.606   6.962
 2195SOL     OW 7483   0.511   6.830   3.143
 2195SOL    HW1 7484   0.587   6.768   3.163
 2195SOL    HW2 7485   0.435   6.778   3.104
 2196SOL     OW 7486   3.147   0.457   5.444
 2196SOL    HW1 7487   3.152   0.548   5.403
 2196SOL    HW2 7488   3.145   0.388   5.371
 2197SOL     OW 7489   4.535   3.676   1.533
 2197SOL    HW1 7490   4.540   3.676   1.433
 2197SOL    HW2 7491   4.525   3.770   1.565
 2198SOL     OW 7492   6.798   1.531   6.905
 2198SOL    HW1 7493   6.783   1.479   6.821
 2198SOL    HW2 7494   6.860   1.608   6.886
 2199SOL     OW 7495   5.433   1.086   1.882
 2199SOL    HW1 7496   5.488   1.050   1.807
 2199SOL    HW2 7497   5.415   1.184   1.866
 2200SOL     OW 7498   4.432   0.325   4.491
 2200SOL    HW1 7499   4.439   0.226   4.478
 2200SOL    HW2 7500   4.358   0.345   4.555
 2201SOL     OW 7501   6.611   2.732   2.293
 2201SOL    HW1 7502   6.652   2.699   2.378
 2201SOL    HW2 7503   6.541   2.667   2.263
 2202SOL     OW 7504   3.605   4.971   4.202
 2202SOL    HW1 7505   3.628   5.066   4.180
 2202SOL    HW2 7506   3.571   4.966   4.295
 2203SOL     OW 7507   2.255   2.432   1.747
 2203SOL    HW1 7508   2.222   2.494   1.818
 2203SOL    HW2 7509   2.178   2.403   1.690
 2204SOL     OW 7510   3.496   1.163   6.853
 2204SOL    HW1 7511   3.461   1.183   6.761
 2204SOL    HW2 7512   3.469   1.235   6.916
 2205SOL     OW 7513   2.009   0.040   6.338
 2205SOL    HW1 7514   2.049   0.097   6.410
 2205SOL    HW2 7515   1.912   0.063   6.327
 2206SOL     OW 7516   2.877   3.962   5.305
 2206SOL    HW1 7517   2.936   3.989   5.228
 2206SOL    HW2 7518   2.792   4.014   5.301
 2207SOL     OW 7519   2.075   3.983   6.301
 2207SOL    HW1 7520   2.006   4.046   6.338
 2207SOL    HW2 7521   2.123   3.939   6.376
 2208SOL     OW 7522   2.113   5.009   2.398
 2208SOL    HW1 7523   2.119   4.998   2.498
 2208SOL    HW2 7524   2.157   5.095   2.372
 2209SOL     OW 7525   1.438   5.334   6.195
 2209SOL    HW1 7526   1.424   5.432   6.206
 2209SOL    HW2 7527   1.390   5.285   6.268
 2210SOL     OW 7528   0.246   4.599   3.784
 2210SOL    HW1 7529   0.237   4.610   3.883
 2210SOL    HW2 7530   0.304   4.520   3.764
 2211SOL     OW 7531   5.383   1.221   6.838
 2211SOL    HW1 7532   5.427   1.311   6.835
 2211SOL    HW2 7533   5.385   1.180   6.747
 2212SOL     OW 7534   1.738   6.068   0.782
 2212SOL    HW1 7535   1.663   6.063   0.848
 2212SOL    HW2 7536   1.753   6.163   0.756
 2213SOL     OW 7537   3.952   2.531   5.368
 2213SOL    HW1 7538   4.027   2.528   5.301
 2213SOL    HW2 7539   3.908   2.621   5.364
 2214SOL     OW 7540   4.801   1.655   5.330
 2214SOL    HW1 7541   4.810   1.573   5.273
 2214SOL    HW2 7542   4.854   1.730   5.291
 2215SOL     OW 7543   6.689   1.930   6.087
 2215SOL    HW1 7544   6.705   1.905   6.183
 2215SOL    HW2 7545   6.774   1.918   6.036
 2216SOL     OW 7546   1.946   0.635   6.908
 2216SOL    HW1 7547   1.982   0.669   6.821
 2216SOL    HW2 7548   1.957   0.536   6.912
 2217SOL     OW 7549   3.138   0.127   1.566
 2217SOL    HW1 7550   3.051   0.086   1.539
 2217SOL    HW2 7551   3.121   0.208   1.623
 2218SOL     OW 7552   1.283   6.994   1.080
 2218SOL    HW1 7553   1.295   7.005   0.981
 2218SOL    HW2 7554   1.301   6.899   1.105
 2219SOL     OW 7555   0.650   3.940   3.188
 2219SOL    HW1 7556   0.715   3.949   3.264
 2219SOL    HW2 7557   0.656   3.847   3.150
 2220SOL     OW 7558   0.235   1.353   4.356
 2220SOL    HW1 7559   0.213   1.260   4.328
 2220SOL    HW2 7560   0.201   1.417   4.288
 2221SOL     OW 7561   6.949   1.046   6.601
 2221SOL    HW1 7562   6.958   1.078   6.695
 2221SOL    HW2 7563   6.931   0.948   6.600
 2222SOL     OW 7564   3.571   0.822   1.017
 2222SOL    HW1 7565   3.657   0.802   1.062
 2222SOL    HW2 7566   3.495   0.798   1.077
 2223SOL     OW 7567   5.914   6.023   3.860
 2223SOL    HW1 7568   5.872   6.030   3.951
 2223SOL    HW2 7569   5.908   6.111   3.814
 2224SOL     OW 7570   2.262   4.670   2.152
 2224SOL    HW1 7571   2.336   4.643   2.214
 2224SOL    HW2 7572   2.179   4.690   2.204
 2225SOL     OW 7573   6.247   5.892   3.271
 2225SOL    HW1 7574   6.235   5.883   3.172
 2225SOL    HW2 7575   6.327   5.950   3.290
 2226SOL     OW 7576   4.159   4.012   0.698
 2226SOL    HW1 7577   4.193   4.011   0.792
 2226SOL    HW2 7578   4.060   4.028   0.698
 2227SOL     OW 7579   6.003   4.122   0.354
 2227SOL    HW1 7580   6.036   4.195   0.294
 2227SOL    HW2 7581   5.952   4.162   0.431
 2228SOL     OW 7582   3.020   6.025   1.005
 2228SOL    HW1 7583   3.053   6.042   1.098
 2228SOL    HW2 7584   2.933   6.073   0.991
 2229SOL     OW 7585   4.327   1.288   4.655
 2229SOL    HW1 7586   4.419   1.255   4.632
 2229SOL    HW2 7587   4.306   1.263   4.750
 2230SOL     OW 7588   0.765   5.808   5.053
 2230SOL    HW1 7589   0.718   5.813   4.965
 2230SOL    HW2 7590   0.753   5.717   5.093
 2231SOL     OW 7591   1.869   1.062   1.574
 2231SOL    HW1 7592   1.874   1.051   1.474
 2231SOL    HW2 7593   1.952   1.024   1.615
 2232SOL     OW 7594   1.048   2.166   3.876
 2232SOL    HW1 7595   1.067   2.078   3.920
 2232SOL    HW2 7596   1.107   2.176   3.796
 2233SOL     OW 7597   2.245   4.721   1.000
 2233SOL    HW1 7598   2.228   4.676   0.912
 2233SOL    HW2 7599   2.288   4.810   0.984
 2234SOL     OW 7600   4.712   1.862   1.575
 2234SOL    HW1 7601   4.655   1.882   1.655
 2234SOL    HW2 7602   4.653   1.843   1.496
 2235SOL     OW 7603   2.003   6.752   0.568
 2235SOL    HW1 7604   1.950   6.670   0.545
 2235SOL    HW2 7605   2.085   6.725   0.619
 2236SOL     OW 7606   0.343   4.497   0.331
 2236SOL    HW1 7607   0.411   4.435   0.294
 2236SOL    HW2 7608   0.357   4.589   0.293
 2237SOL     OW 7609   5.488   3.991   4.149
 2237SOL    HW1 7610   5.569   3.933   4.137
 2237SOL    HW2 7611   5.421   3.969   4.078
 2238SOL     OW 7612   6.213   5.941   2.629
 2238SOL    HW1 7613   6.222   5.900   2.720
 2238SOL    HW2 7614   6.303   5.941   2.584
 2239SOL     OW 7615   3.704   5.520   4.043
 2239SOL    HW1 7616   3.688   5.433   3.997
 2239SOL    HW2 7617   3.786   5.564   4.005
 2240SOL     OW 7618   5.573   6.167   4.040
 2240SOL    HW1 7619   5.556   6.097   3.970
 2240SOL    HW2 7620   5.505   6.158   4.113
 2241SOL     OW 7621   0.282   6.916   2.056
 2241SOL    HW1 7622   0.310   7.009   2.081
 2241SOL    HW2 7623   0.357   6.872   2.007
 2242SOL     OW 7624   5.507   2.482   2.872
 2242SOL    HW1 7625   5.441   2.492   2.946
 2242SOL    HW2 7626   5.593   2.444   2.909
 2243SOL     OW 7627   2.880   6.197   5.105
 2243SOL    HW1 7628   2.954   6.151   5.154
 2243SOL    HW2 7629   2.839   6.133   5.040
 2244SOL     OW 7630   3.598   1.005   3.139
 2244SOL    HW1 7631   3.579   0.920   3.090
 2244SOL    HW2 7632   3.522   1.026   3.200
 2245SOL     OW 7633   0.558   2.417   1.501
 2245SOL    HW1 7634   0.553   2.509   1.462
 2245SOL    HW2 7635   0.601   2.355   1.436
 2246SOL     OW 7636   1.434   1.676   4.435
 2246SOL    HW1 7637   1.442   1.766   4.477
 2246SOL    HW2 7638   1.412   1.686   4.338
 2247SOL     OW 7639   2.505   2.449   6.414
 2247SOL    HW1 7640   2.584   2.389   6.401
 2247SOL    HW2 7641   2.516   2.501   6.499
 2248SOL     OW 7642   4.706   3.665   6.616
 2248SOL    HW1 7643   4.698   3.586   6.556
 2248SOL    HW2 7644   4.803   3.689   6.628
 2249SOL     OW 7645   5.475   6.608   3.103
 2249SOL    HW1 7646   5.527   6.627   3.021
 2249SOL    HW2 7647   5.377   6.603   3.081
 2250SOL     OW 7648   5.297   3.907   1.098
 2250SOL    HW1 7649   5.374   3.844   1.083
 2250SOL    HW2 7650   5.212   3.859   1.077
 2251SOL     OW 7651   5.525   1.458   6.818
 2251SOL    HW1 7652   5.554   1.465   6.914
 2251SOL    HW2 7653   5.476   1.541   6.792
 2252SOL     OW 7654   6.762   2.580   4.322
 2252SOL    HW1 7655   6.720   2.490   4.311
 2252SOL    HW2 7656   6.716   2.646   4.263
 2253SOL     OW 7657   1.359   3.020   0.289
 2253SOL    HW1 7658   1.357   2.951   0.361
 2253SOL    HW2 7659   1.432   3.085   0.308
 2254SOL     OW 7660   2.433   3.023   5.492
 2254SOL    HW1 7661   2.459   3.088   5.421
 2254SOL    HW2 7662   2.514   2.972   5.521
 2255SOL     OW 7663   5.950   2.673   0.660
 2255SOL    HW1 7664   5.917   2.635   0.747
 2255SOL    HW2 7665   5.899   2.756   0.638
 2256SOL     OW 7666   3.990   6.062   1.609
 2256SOL    HW1 7667   4.065   6.121   1.639
 2256SOL    HW2 7668   3.913   6.072   1.672
 2257SOL     OW 7669   0.301   3.107   4.696
 2257SOL    HW1 7670   0.214   3.079   4.656
 2257SOL    HW2 7671   0.375   3.091   4.631
 2258SOL     OW 7672   1.533   5.738   5.260
 2258SOL    HW1 7673   1.566   5.774   5.348
 2258SOL    HW2 7674   1.503   5.644   5.272
 2259SOL     OW 7675   4.668   3.320   6.602
 2259SOL    HW1 7676   4.597   3.272   6.654
 2259SOL    HW2 7677   4.626   3.361   6.521
 2260SOL     OW 7678   5.140   4.375   3.237
 2260SOL    HW1 7679   5.075   4.442   3.199
 2260SOL    HW2 7680   5.233   4.407   3.221
 2261SOL     OW 7681   6.035   6.652   0.755
 2261SOL    HW1 7682   6.127   6.654   0.793
 2261SOL    HW2 7683   6.040   6.633   0.656
 2262SOL     OW 7684   6.092   3.093   2.698
 2262SOL    HW1 7685   6.083   3.020   2.766
 2262SOL    HW2 7686   6.046   3.065   2.614
 2263SOL     OW 7687   3.105   5.523   5.891
 2263SOL    HW1 7688   3.130   5.591   5.960
 2263SOL    HW2 7689   3.032   5.464   5.927
 2264SOL     OW 7690   3.051   3.724   2.441
 2264SOL    HW1 7691   3.137   3.770   2.466
 2264SOL    HW2 7692   2.986   3.731   2.517
 2265SOL     OW 7693   0.307   0.568   3.732
 2265SOL    HW1 7694   0.324   0.497   3.664
 2265SOL    HW2 7695   0.388   0.582   3.788
 2266SOL     OW 7696   6.296   1.336   0.928
 2266SOL    HW1 7697   6.368   1.287   0.880
 2266SOL    HW2 7698   6.299   1.433   0.902
 2267SOL     OW 7699   5.586   2.526   4.950
 2267SOL    HW1 7700   5.584   2.446   4.889
 2267SOL    HW2 7701   5.562   2.608   4.899
 2268SOL     OW 7702   6.593   4.894   6.931
 2268SOL    HW1 7703   6.667   4.828   6.945
 2268SOL    HW2 7704   6.505   4.850   6.948
 2269SOL     OW 7705   5.807   5.815   5.241
 2269SOL    HW1 7706   5.821   5.913   5.231
 2269SOL    HW2 7707   5.894   5.768   5.228
 2270SOL     OW 7708   3.817   2.854   6.843
 2270SOL    HW1 7709   3.860   2.839   6.932
 2270SOL    HW2 7710   3.733   2.799   6.837
 2271SOL     OW 7711   5.638   4.079   0.938
 2271SOL    HW1 7712   5.603   4.171   0.919
 2271SOL    HW2 7713   5.592   4.013   0.879
 2272SOL     OW 7714   5.990   2.195   4.921
 2272SOL    HW1 7715   6.066   2.130   4.929
 2272SOL    HW2 7716   6.008   2.258   4.845
 2273SOL     OW 7717   1.907   1.325   1.575
 2273SOL    HW1 7718   1.875   1.232   1.595
 2273SOL    HW2 7719   1.981   1.349   1.638
 2274SOL     OW 7720   0.895   2.990   5.893
 2274SOL    HW1 7721   0.982   2.950   5.923
 2274SOL    HW2 7722   0.864   2.944   5.810
 2275SOL     OW 7723   5.275   0.301   4.510
 2275SOL    HW1 7724   5.354   0.298   4.571
 2275SOL    HW2 7725   5.305   0.282   4.416
 2276SOL     OW 7726   3.051   5.011   1.209
 2276SOL    HW1 7727   3.059   5.054   1.119
 2276SOL    HW2 7728   3.051   5.082   1.280
 2277SOL     OW 7729   3.031   3.860   4.552
 2277SOL    HW1 7730   3.086   3.797   4.607
 2277SOL    HW2 7731   3.069   3.952   4.559
 2278SOL     OW 7732   4.913   6.847   4.471
 2278SOL    HW1 7733   4.832   6.870   4.524
 2278SOL    HW2 7734   4.981   6.920   4.478
 2279SOL     OW 7735   5.417   5.570   4.400
 2279SOL    HW1 7736   5.329   5.531   4.372
 2279SOL    HW2 7737   5.447   5.527   4.485
 2280SOL     OW 7738   6.665   6.553   5.018
 2280SOL    HW1 7739   6.602   6.601   4.957
 2280SOL    HW2 7740   6.742   6.516   4.965
 2281SOL     OW 7741   3.683   1.110   1.944
 2281SOL    HW1 7742   3.622   1.161   1.885
 2281SOL    HW2 7743   3.676   1.144   2.038
 2282SOL     OW 7744   5.475   0.319   4.733
 2282SOL    HW1 7745   5.453   0.396   4.794
 2282SOL    HW2 7746   5.559   0.276   4.764
 2283SOL     OW 7747   0.187   4.539   1.173
 2283SOL    HW1 7748   0.137   4.505   1.253
 2283SOL    HW2 7749   0.257   4.473   1.147
 2284SOL     OW 7750   2.131   1.516   0.282
 2284SOL    HW1 7751   2.186   1.571   0.220
 2284SOL    HW2 7752   2.167   1.524   0.375
 2285SOL     OW 7753   1.928   3.295   0.098
 2285SOL    HW1 7754   1.981   3.215   0.071
 2285SOL    HW2 7755   1.837   3.290   0.056
 2286SOL     OW 7756   6.500   6.516   4.197
 2286SOL    HW1 7757   6.572   6.578   4.229
 2286SOL    HW2 7758   6.410   6.555   4.220
 2287SOL     OW 7759   2.548   2.509   1.925
 2287SOL    HW1 7760   2.467   2.524   1.867
 2287SOL    HW2 7761   2.628   2.548   1.881
 2288SOL     OW 7762   6.792   5.017   4.439
 2288SOL    HW1 7763   6.759   4.927   4.411
 2288SOL    HW2 7764   6.714   5.076   4.459
 2289SOL     OW 7765   6.403   3.842   2.753
 2289SOL    HW1 7766   6.439   3.917   2.808
 2289SOL    HW2 7767   6.457   3.833   2.669
 2290SOL     OW 7768   2.096   3.664   1.941
 2290SOL    HW1 7769   2.005   3.625   1.925
 2290SOL    HW2 7770   2.161   3.591   1.960
 2291SOL     OW 7771   2.399   2.042   0.487
 2291SOL    HW1 7772   2.478   1.988   0.457
 2291SOL    HW2 7773   2.351   1.993   0.559
 2292SOL     OW 7774   4.776   2.444   3.228
 2292SOL    HW1 7775   4.726   2.440   3.141
 2292SOL    HW2 7776   4.761   2.360   3.279
 2293SOL     OW 7777   6.680   0.328   0.649
 2293SOL    HW1 7778   6.600   0.268   0.650
 2293SOL    HW2 7779   6.653   0.422   0.671
 2294SOL     OW 7780   3.497   1.796   6.005
 2294SOL    HW1 7781   3.504   1.697   6.018
 2294SOL    HW2 7782   3.556   1.824   5.929
 2295SOL     OW 7783   0.622   1.458   3.065
 2295SOL    HW1 7784   0.668   1.452   2.976
 2295SOL    HW2 7785   0.624   1.553   3.097
 2296SOL     OW 7786   2.760   5.018   2.994
 2296SOL    HW1 7787   2.769   5.006   3.092
 2296SOL    HW2 7788   2.673   5.062   2.973
 2297SOL     OW 7789   4.950   4.635   6.063
 2297SOL    HW1 7790   5.040   4.671   6.036
 2297SOL    HW2 7791   4.948   4.536   6.049
 2298SOL     OW 7792   3.546   3.785   2.897
 2298SOL    HW1 7793   3.640   3.815   2.911
 2298SOL    HW2 7794   3.544   3.710   2.832
 2299SOL     OW 7795   5.111   4.592   4.914
 2299SOL    HW1 7796   5.048   4.561   4.986
 2299SOL    HW2 7797   5.083   4.555   4.826
 2300SOL     OW 7798   2.790   6.599   3.478
 2300SOL    HW1 7799   2.854   6.599   3.400
 2300SOL    HW2 7800   2.747   6.509   3.486
 2301SOL     OW 7801   3.788   2.968   3.640
 2301SOL    HW1 7802   3.861   3.034   3.621
 2301SOL    HW2 7803   3.801   2.931   3.732
 2302SOL     OW 7804   3.358   0.606   1.486
 2302SOL    HW1 7805   3.433   0.545   1.510
 2302SOL    HW2 7806   3.375   0.647   1.397
 2303SOL     OW 7807   2.457   3.198   1.228
 2303SOL    HW1 7808   2.431   3.260   1.154
 2303SOL    HW2 7809   2.552   3.217   1.255
 2304SOL     OW 7810   5.697   5.968   4.528
 2304SOL    HW1 7811   5.656   6.058   4.540
 2304SOL    HW2 7812   5.629   5.898   4.552
 2305SOL     OW 7813   2.207   0.447   3.318
 2305SOL    HW1 7814   2.280   0.382   3.338
 2305SOL    HW2 7815   2.217   0.480   3.224
 2306SOL     OW 7816   1.516   5.430   1.479
 2306SOL    HW1 7817   1.534   5.489   1.557
 2306SOL    HW2 7818   1.517   5.334   1.509
 2307SOL     OW 7819   0.357   3.195   5.462
 2307SOL    HW1 7820   0.389   3.141   5.541
 2307SOL    HW2 7821   0.336   3.288   5.492
 2308SOL     OW 7822   2.665   4.902   1.302
 2308SOL    HW1 7823   2.603   4.827   1.326
 2308SOL    HW2 7824   2.615   4.989   1.306
 2309SOL     OW 7825   1.917   1.059   4.724
 2309SOL    HW1 7826   1.831   1.092   4.763
 2309SOL    HW2 7827   1.903   1.039   4.626
 2310SOL     OW 7828   5.750   6.244   2.075
 2310SOL    HW1 7829   5.815   6.198   2.136
 2310SOL    HW2 7830   5.665   6.192   2.071
 2311SOL     OW 7831   2.984   6.050   0.070
 2311SOL    HW1 7832   3.055   6.115   0.099
 2311SOL    HW2 7833   2.990   6.036   6.994
 2312SOL     OW 7834   4.315   5.764   3.589
 2312SOL    HW1 7835   4.312   5.672   3.628
 2312SOL    HW2 7836   4.387   5.817   3.634
 2313SOL     OW 7837   4.703   5.398   2.226
 2313SOL    HW1 7838   4.692   5.427   2.321
 2313SOL    HW2 7839   4.670   5.470   2.165
 2314SOL     OW 7840   4.522   6.603   2.670
 2314SOL    HW1 7841   4.433   6.565   2.645
 2314SOL    HW2 7842   4.575   6.534   2.719
 2315SOL     OW 7843   5.363   3.252   5.853
 2315SOL    HW1 7844   5.300   3.182   5.886
 2315SOL    HW2 7845   5.317   3.340   5.851
 2316SOL     OW 7846   4.832   1.955   3.900
 2316SOL    HW1 7847   4.815   2.036   3.956
 2316SOL    HW2 7848   4.848   1.983   3.805
 2317SOL     OW 7849   0.384   5.502   3.523
 2317SOL    HW1 7850   0.449   5.536   3.456
 2317SOL    HW2 7851   0.307   5.566   3.531
 2318SOL     OW 7852   0.437   3.199   3.826
 2318SOL    HW1 7853   0.524   3.235   3.792
 2318SOL    HW2 7854   0.368   3.206   3.755
 2319SOL     OW 7855   1.243   4.662   4.605
 2319SOL    HW1 7856   1.258   4.563   4.605
 2319SOL    HW2 7857   1.173   4.685   4.672
 2320SOL     OW 7858   1.018   2.538   4.234
 2320SOL    HW1 7859   1.087   2.606   4.209
 2320SOL    HW2 7860   1.049   2.447   4.207
 2321SOL     OW 7861   3.149   1.107   5.053
 2321SOL    HW1 7862   3.056   1.140   5.036
 2321SOL    HW2 7863   3.198   1.100   4.967
 2322SOL     OW 7864   2.643   1.579   5.114
 2322SOL    HW1 7865   2.673   1.512   5.046
 2322SOL    HW2 7866   2.703   1.659   5.111
 2323SOL     OW 7867   2.817   4.776   2.494
 2323SOL    HW1 7868   2.909   4.808   2.515
 2323SOL    HW2 7869   2.752   4.851   2.505
 2324SOL     OW 7870   0.599   6.509   2.875
 2324SOL    HW1 7871   0.553   6.519   2.787
 2324SOL    HW2 7872   0.696   6.531   2.864
 2325SOL     OW 7873   0.820   4.225   1.547
 2325SOL    HW1 7874   0.846   4.129   1.541
 2325SOL    HW2 7875   0.721   4.233   1.558
 2326SOL     OW 7876   2.833   4.000   6.029
 2326SOL    HW1 7877   2.884   4.038   6.106
 2326SOL    HW2 7878   2.743   4.043   6.024
 2327SOL     OW 7879   5.253   2.662   4.608
 2327SOL    HW1 7880   5.255   2.671   4.509
 2327SOL    HW2 7881   5.297   2.742   4.649
 2328SOL     OW 7882   4.978   1.543   3.906
 2328SOL    HW1 7883   5.003   1.474   3.974
 2328SOL    HW2 7884   4.904   1.600   3.942
 2329SOL     OW 7885   1.741   5.456   5.131
 2329SOL    HW1 7886   1.790   5.373   5.155
 2329SOL    HW2 7887   1.646   5.448   5.160
 2330SOL     OW 7888   0.040   4.624   2.188
 2330SOL    HW1 7889   0.052   4.558   2.114
 2330SOL    HW2 7890   6.972   4.666   2.180
 2331SOL     OW 7891   6.316   5.070   6.635
 2331SOL    HW1 7892   6.406   5.077   6.679
 2331SOL    HW2 7893   6.323   5.100   6.540
 2332SOL     OW 7894   4.818   2.083   5.144
 2332SOL    HW1 7895   4.892   2.080   5.211
 2332SOL    HW2 7896   4.730   2.090   5.192
 2333SOL     OW 7897   6.606   4.924   3.004
 2333SOL    HW1 7898   6.516   4.967   3.001
 2333SOL    HW2 7899   6.670   4.984   3.054
 2334SOL     OW 7900   2.639   0.017   0.407
 2334SOL    HW1 7901   2.677   6.947   0.403
 2334SOL    HW2 7902   2.681   0.072   0.335
 2335SOL     OW 7903   6.024   0.714   2.837
 2335SOL    HW1 7904   6.031   0.796   2.779
 2335SOL    HW2 7905   6.023   0.741   2.933
 2336SOL     OW 7906   4.653   1.631   5.571
 2336SOL    HW1 7907   4.674   1.713   5.625
 2336SOL    HW2 7908   4.666   1.651   5.474
 2337SOL     OW 7909   5.128   0.756   3.517
 2337SOL    HW1 7910   5.203   0.690   3.501
 2337SOL    HW2 7911   5.057   0.742   3.448
 2338SOL     OW 7912   1.050   0.073   6.517
 2338SOL    HW1 7913   0.989   0.097   6.592
 2338SOL    HW2 7914   1.138   0.042   6.553
 2339SOL     OW 7915   3.675   3.954   5.389
 2339SOL    HW1 7916   3.633   3.873   5.349
 2339SOL    HW2 7917   3.773   3.937   5.404
 2340SOL     OW 7918   4.402   6.602   5.572
 2340SOL    HW1 7919   4.429   6.506   5.570
 2340SOL    HW2 7920   4.479   6.659   5.543
 2341SOL     OW 7921   4.631   4.103   1.085
 2341SOL    HW1 7922   4.674   4.182   1.128
 2341SOL    HW2 7923   4.682   4.020   1.107
 2342SOL     OW 7924   0.809   6.123   5.691
 2342SOL    HW1 7925   0.763   6.039   5.662
 2342SOL    HW2 7926   0.743   6.198   5.696
 2343SOL     OW 7927   1.959   6.528   1.153
 2343SOL    HW1 7928   1.957   6.464   1.230
 2343SOL    HW2 7929   1.873   6.522   1.102
 2344SOL     OW 7930   2.139   1.370   1.297
 2344SOL    HW1 7931   2.140   1.453   1.353
 2344SOL    HW2 7932   2.163   1.291   1.353
 2345SOL     OW 7933   1.705   6.599   5.721
 2345SOL    HW1 7934   1.655   6.666   5.666
 2345SOL    HW2 7935   1.721   6.635   5.812
 2346SOL     OW 7936   4.664   2.860   5.169
 2346SOL    HW1 7937   4.645   2.832   5.075
 2346SOL    HW2 7938   4.763   2.854   5.186
 2347SOL     OW 7939   1.650   4.198   1.899
 2347SOL    HW1 7940   1.559   4.237   1.888
 2347SOL    HW2 7941   1.719   4.265   1.871
 2348SOL     OW 7942   2.320   6.113   3.512
 2348SOL    HW1 7943   2.297   6.198   3.560
 2348SOL    HW2 7944   2.413   6.118   3.477
 2349SOL     OW 7945   0.897   6.638   0.268
 2349SOL    HW1 7946   0.926   6.544   0.285
 2349SOL    HW2 7947   0.861   6.678   0.352
 2350SOL     OW 7948   4.007   6.924   5.632
 2350SOL    HW1 7949   3.921   6.915   5.682
 2350SOL    HW2 7950   4.056   7.006   5.663
 2351SOL     OW 7951   3.324   5.410   3.501
 2351SOL    HW1 7952   3.317   5.481   3.571
 2351SOL    HW2 7953   3.403   5.429   3.442
 2352SOL     OW 7954   0.700   4.689   3.191
 2352SOL    HW1 7955   0.662   4.677   3.283
 2352SOL    HW2 7956   0.792   4.650   3.187
 2353SOL     OW 7957   2.537   4.551   4.656
 2353SOL    HW1 7958   2.493   4.591   4.737
 2353SOL    HW2 7959   2.566   4.625   4.595
 2354SOL     OW 7960   3.538   2.025   6.690
 2354SOL    HW1 7961   3.496   1.983   6.610
 2354SOL    HW2 7962   3.620   1.974   6.716
 2355SOL     OW 7963   0.484   5.950   0.581
 2355SOL    HW1 7964   0.562   5.935   0.641
 2355SOL    HW2 7965   0.422   5.871   0.587
 2356SOL     OW 7966   2.494   3.586   1.562
 2356SOL    HW1 7967   2.513   3.683   1.553
 2356SOL    HW2 7968   2.526   3.554   1.652
 2357SOL     OW 7969   4.124   5.082   3.922
 2357SOL    HW1 7970   4.143   5.165   3.870
 2357SOL    HW2 7971   4.184   5.079   4.002
 2358SOL     OW 7972   3.083   6.170   4.128
 2358SOL    HW1 7973   3.080   6.193   4.031
 2358SOL    HW2 7974   3.005   6.111   4.150
 2359SOL     OW 7975   1.870   0.620   6.181
 2359SOL    HW1 7976   1.944   0.575   6.131
 2359SOL    HW2 7977   1.872   0.718   6.161
 2360SOL     OW 7978   4.551   4.852   6.335
 2360SOL    HW1 7979   4.563   4.753   6.336
 2360SOL    HW2 7980   4.491   4.880   6.410
 2361SOL     OW 7981   2.697   6.834   4.233
 2361SOL    HW1 7982   2.644   6.908   4.193
 2361SOL    HW2 7983   2.699   6.756   4.170
 2362SOL     OW 7984   4.596   6.341   5.081
 2362SOL    HW1 7985   4.582   6.422   5.023
 2362SOL    HW2 7986   4.603   6.260   5.023
 2363SOL     OW 7987   4.655   2.529   5.080
 2363SOL    HW1 7988   4.704   2.488   5.003
 2363SOL    HW2 7989   4.631   2.624   5.058
 2364SOL     OW 7990   6.088   2.188   2.391
 2364SOL    HW1 7991   6.163   2.206   2.327
 2364SOL    HW2 7992   6.009   2.152   2.341
 2365SOL     OW 7993   5.767   4.411   5.490
 2365SOL    HW1 7994   5.855   4.367   5.471
 2365SOL    HW2 7995   5.733   4.379   5.579
 2366SOL     OW 7996   0.888   4.293   5.958
 2366SOL    HW1 7997   0.895   4.320   6.054
 2366SOL    HW2 7998   0.964   4.333   5.906
 2367SOL     OW 7999   0.861   3.387   6.178
 2367SOL    HW1 8000   0.928   3.450   6.217
 2367SOL    HW2 8001   0.906   3.330   6.109
 2368SOL     OW 8002   4.333   0.942   5.157
 2368SOL    HW1 8003   4.370   0.990   5.237
 2368SOL    HW2 8004   4.316   1.008   5.084
 2369SOL     OW 8005   2.012   2.122   3.876
 2369SOL    HW1 8006   2.056   2.043   3.919
 2369SOL    HW2 8007   2.077   2.197   3.869
 2370SOL     OW 8008   4.300   3.765   0.726
 2370SOL    HW1 8009   4.290   3.864   0.719
 2370SOL    HW2 8010   4.225   3.720   0.677
 2371SOL     OW 8011   1.651   6.022   2.372
 2371SOL    HW1 8012   1.654   6.016   2.472
 2371SOL    HW2 8013   1.558   6.043   2.343
 2372SOL     OW 8014   0.423   1.482   0.109
 2372SOL    HW1 8015   0.439   1.545   0.033
 2372SOL    HW2 8016   0.326   1.481   0.131
 2373SOL     OW 8017   6.265   1.222   6.376
 2373SOL    HW1 8018   6.179   1.172   6.383
 2373SOL    HW2 8019   6.250   1.308   6.329
 2374SOL     OW 8020   6.297   5.930   3.590
 2374SOL    HW1 8021   6.331   6.024   3.597
 2374SOL    HW2 8022   6.343   5.885   3.513
 2375SOL     OW 8023   0.716   0.496   4.410
 2375SOL    HW1 8024   0.765   0.462   4.330
 2375SOL    HW2 8025   0.710   0.423   4.478
 2376SOL     OW 8026   6.182   2.764   3.351
 2376SOL    HW1 8027   6.122   2.845   3.358
 2376SOL    HW2 8028   6.176   2.712   3.436
 2377SOL     OW 8029   3.281   3.825   4.373
 2377SOL    HW1 8030   3.255   3.762   4.300
 2377SOL    HW2 8031   3.262   3.784   4.462
 2378SOL     OW 8032   5.402   1.901   0.240
 2378SOL    HW1 8033   5.413   2.000   0.246
 2378SOL    HW2 8034   5.478   1.856   0.288
 2379SOL     OW 8035   6.592   3.514   0.189
 2379SOL    HW1 8036   6.536   3.441   0.151
 2379SOL    HW2 8037   6.688   3.497   0.168
 2380SOL     OW 8038   6.422   0.664   5.476
 2380SOL    HW1 8039   6.348   0.704   5.530
 2380SOL    HW2 8040   6.456   0.731   5.410
 2381SOL     OW 8041   1.455   4.545   4.937
 2381SOL    HW1 8042   1.356   4.551   4.946
 2381SOL    HW2 8043   1.489   4.466   4.988
 2382SOL     OW 8044   2.368   5.599   2.793
 2382SOL    HW1 8045   2.368   5.501   2.807
 2382SOL    HW2 8046   2.367   5.646   2.881
 2383SOL     OW 8047   5.903   6.632   6.260
 2383SOL    HW1 8048   5.944   6.598   6.345
 2383SOL    HW2 8049   5.923   6.569   6.185
 2384SOL     OW 8050   1.149   2.165   1.688
 2384SOL    HW1 8051   1.239   2.198   1.660
 2384SOL    HW2 8052   1.125   2.084   1.634
 2385SOL     OW 8053   0.754   0.658   0.978
 2385SOL    HW1 8054   0.780   0.667   1.074
 2385SOL    HW2 8055   0.822   0.704   0.921
 2386SOL     OW 8056   2.866   5.408   4.337
 2386SOL    HW1 8057   2.861   5.358   4.423
 2386SOL    HW2 8058   2.873   5.506   4.354
 2387SOL     OW 8059   6.426   3.158   4.473
 2387SOL    HW1 8060   6.429   3.256   4.490
 2387SOL    HW2 8061   6.434   3.141   4.375
 2388SOL     OW 8062   0.887   1.852   5.830
 2388SOL    HW1 8063   0.824   1.869   5.755
 2388SOL    HW2 8064   0.902   1.936   5.881
 2389SOL     OW 8065   4.340   4.603   4.000
 2389SOL    HW1 8066   4.258   4.630   4.051
 2389SOL    HW2 8067   4.418   4.598   4.062
 2390SOL     OW 8068   3.586   3.999   4.832
 2390SOL    HW1 8069   3.571   3.919   4.773
 2390SOL    HW2 8070   3.663   4.053   4.797
 2391SOL     OW 8071   3.677   3.973   6.145
 2391SOL    HW1 8072   3.726   3.891   6.175
 2391SOL    HW2 8073   3.742   4.047   6.127
 2392SOL     OW 8074   3.184   3.950   6.229
 2392SOL    HW1 8075   3.206   3.969   6.324
 2392SOL    HW2 8076   3.170   4.035   6.180
 2393SOL     OW 8077   3.980   5.429   0.904
 2393SOL    HW1 8078   3.892   5.383   0.917
 2393SOL    HW2 8079   4.001   5.485   0.984
 2394SOL     OW 8080   0.505   3.840   4.208
 2394SOL    HW1 8081   0.598   3.805   4.222
 2394SOL    HW2 8082   0.477   3.823   4.114
 2395SOL     OW 8083   6.883   2.750   6.436
 2395SOL    HW1 8084   6.824   2.671   6.422
 2395SOL    HW2 8085   6.898   2.763   6.534
 2396SOL     OW 8086   5.597   6.417   0.773
 2396SOL    HW1 8087   5.581   6.499   0.718
 2396SOL    HW2 8088   5.517   6.400   0.830
 2397SOL     OW 8089   6.517   4.980   0.331
 2397SOL    HW1 8090   6.607   4.956   0.296
 2397SOL    HW2 8091   6.511   5.080   0.340
 2398SOL     OW 8092   2.773   4.740   4.810
 2398SOL    HW1 8093   2.843   4.808   4.785
 2398SOL    HW2 8094   2.802   4.691   4.892
 2399SOL     OW 8095   3.797   1.805   3.461
 2399SOL    HW1 8096   3.755   1.877   3.405
 2399SOL    HW2 8097   3.806   1.722   3.407
 2400SOL     OW 8098   2.854   3.808   0.882
 2400SOL    HW1 8099   2.845   3.728   0.940
 2400SOL    HW2 8100   2.803   3.794   0.797
 2401SOL     OW 8101   3.368   0.386   4.158
 2401SOL    HW1 8102   3.348   0.483   4.168
 2401SOL    HW2 8103   3.322   0.335   4.230
 2402SOL     OW 8104   0.159   1.408   4.044
 2402SOL    HW1 8105   0.096   1.446   3.977
 2402SOL    HW2 8106   0.240   1.466   4.051
 2403SOL     OW 8107   3.389   2.846   0.704
 2403SOL    HW1 8108   3.426   2.787   0.632
 2403SOL    HW2 8109   3.321   2.908   0.664
 2404SOL     OW 8110   5.758   1.607   1.944
 2404SOL    HW1 8111   5.846   1.596   1.989
 2404SOL    HW2 8112   5.742   1.704   1.925
 2405SOL     OW 8113   3.590   4.226   5.478
 2405SOL    HW1 8114   3.636   4.141   5.452
 2405SOL    HW2 8115   3.574   4.282   5.396
 2406SOL     OW 8116   2.232   0.066   3.940
 2406SOL    HW1 8117   2.181   7.015   3.896
 2406SOL    HW2 8118   2.181   0.097   4.021
 2407SOL     OW 8119   4.656   2.702   2.673
 2407SOL    HW1 8120   4.704   2.790   2.666
 2407SOL    HW2 8121   4.605   2.685   2.589
 2408SOL     OW 8122   3.223   4.890   3.158
 2408SOL    HW1 8123   3.276   4.927   3.082
 2408SOL    HW2 8124   3.191   4.798   3.135
 2409SOL     OW 8125   1.921   2.826   1.054
 2409SOL    HW1 8126   1.939   2.843   0.957
 2409SOL    HW2 8127   2.004   2.845   1.107
 2410SOL     OW 8128   6.234   3.556   5.483
 2410SOL    HW1 8129   6.302   3.629   5.475
 2410SOL    HW2 8130   6.257   3.483   5.419
 2411SOL     OW 8131   3.209   3.524   5.432
 2411SOL    HW1 8132   3.201   3.508   5.530
 2411SOL    HW2 8133   3.117   3.526   5.391
 2412SOL     OW 8134   3.290   3.067   0.344
 2412SOL    HW1 8135   3.308   3.112   0.257
 2412SOL    HW2 8136   3.312   2.969   0.336
 2413SOL     OW 8137   5.479   3.601   6.373
 2413SOL    HW1 8138   5.453   3.566   6.283
 2413SOL    HW2 8139   5.573   3.634   6.371
 2414SOL     OW 8140   5.618   3.785   3.039
 2414SOL    HW1 8141   5.641   3.694   3.003
 2414SOL    HW2 8142   5.527   3.782   3.080
 2415SOL     OW 8143   2.090   0.200   1.845
 2415SOL    HW1 8144   2.021   0.273   1.838
 2415SOL    HW2 8145   2.046   0.118   1.883
 2416SOL     OW 8146   1.387   1.619   4.977
 2416SOL    HW1 8147   1.354   1.702   4.932
 2416SOL    HW2 8148   1.377   1.629   5.076
 2417SOL     OW 8149   5.310   2.139   1.079
 2417SOL    HW1 8150   5.250   2.101   1.009
 2417SOL    HW2 8151   5.346   2.227   1.048
 2418SOL     OW 8152   2.964   3.340   5.001
 2418SOL    HW1 8153   2.922   3.352   5.091
 2418SOL    HW2 8154   2.968   3.429   4.955
 2419SOL     OW 8155   1.484   6.957   5.068
 2419SOL    HW1 8156   1.462   7.011   5.150
 2419SOL    HW2 8157   1.406   6.959   5.005
 2420SOL     OW 8158   3.919   0.027   2.168
 2420SOL    HW1 8159   3.920   6.950   2.155
 2420SOL    HW2 8160   4.013   0.060   2.175
 2421SOL     OW 8161   3.191   6.732   4.181
 2421SOL    HW1 8162   3.196   6.646   4.232
 2421SOL    HW2 8163   3.130   6.795   4.229
 2422SOL     OW 8164   4.619   0.293   0.476
 2422SOL    HW1 8165   4.695   0.352   0.450
 2422SOL    HW2 8166   4.578   0.326   0.561
 2423SOL     OW 8167   1.829   5.270   1.902
 2423SOL    HW1 8168   1.779   5.345   1.859
 2423SOL    HW2 8169   1.879   5.219   1.832
 2424SOL     OW 8170   5.626   6.473   6.667
 2424SOL    HW1 8171   5.547   6.505   6.615
 2424SOL    HW2 8172   5.662   6.390   6.625
 2425SOL     OW 8173   5.753   6.882   5.899
 2425SOL    HW1 8174   5.815   6.894   5.976
 2425SOL    HW2 8175   5.781   6.801   5.847
 2426SOL     OW 8176   0.905   5.602   4.407
 2426SOL    HW1 8177   0.891   5.520   4.351
 2426SOL    HW2 8178   0.860   5.591   4.495
 2427SOL     OW 8179   5.523   5.807   0.124
 2427SOL    HW1 8180   5.540   5.890   0.072
 2427SOL    HW2 8181   5.605   5.781   0.175
 2428SOL     OW 8182   0.461   0.727   2.989
 2428SOL    HW1 8183   0.428   0.805   2.935
 2428SOL    HW2 8184   0.516   0.761   3.066
 2429SOL     OW 8185   6.199   4.453   3.079
 2429SOL    HW1 8186   6.135   4.493   3.144
 2429SOL    HW2 8187   6.289   4.496   3.090
 2430SOL     OW 8188   5.291   2.894   0.690
 2430SOL    HW1 8189   5.332   2.823   0.747
 2430SOL    HW2 8190   5.315   2.984   0.728
 2431SOL     OW 8191   4.445   1.085   0.950
 2431SOL    HW1 8192   4.478   1.162   1.005
 2431SOL    HW2 8193   4.361   1.049   0.991
 2432SOL     OW 8194   3.283   6.292   2.456
 2432SOL    HW1 8195   3.288   6.244   2.368
 2432SOL    HW2 8196   3.201   6.348   2.459
 2433SOL     OW 8197   2.180   6.349   0.043
 2433SOL    HW1 8198   2.161   6.441   0.011
 2433SOL    HW2 8199   2.094   6.300   0.059
 2434SOL     OW 8200   5.203   1.673   3.147
 2434SOL    HW1 8201   5.262   1.619   3.207
 2434SOL    HW2 8202   5.111   1.635   3.148
 2435SOL     OW 8203   5.260   4.878   0.377
 2435SOL    HW1 8204   5.313   4.814   0.434
 2435SOL    HW2 8205   5.176   4.904   0.424
 2436SOL     OW 8206   2.076   6.907   1.461
 2436SOL    HW1 8207   2.057   6.873   1.553
 2436SOL    HW2 8208   2.082   7.007   1.463
 2437SOL     OW 8209   5.191   6.440   1.552
 2437SOL    HW1 8210   5.234   6.511   1.496
 2437SOL    HW2 8211   5.249   6.422   1.632
 2438SOL     OW 8212   4.145   1.098   4.422
 2438SOL    HW1 8213   4.223   1.035   4.429
 2438SOL    HW2 8214   4.093   1.095   4.508
 2439SOL     OW 8215   0.884   3.964   0.309
 2439SOL    HW1 8216   0.854   4.048   0.355
 2439SOL    HW2 8217   0.948   3.915   0.367
 2440SOL     OW 8218   3.938   6.491   5.491
 2440SOL    HW1 8219   3.972   6.585   5.488
 2440SOL    HW2 8220   4.014   6.429   5.507
 2441SOL     OW 8221   6.035   0.675   7.014
 2441SOL    HW1 8222   6.105   0.747   7.007
 2441SOL    HW2 8223   6.073   0.597   0.040
 2442SOL     OW 8224   5.702   5.555   2.897
 2442SOL    HW1 8225   5.626   5.522   2.953
 2442SOL    HW2 8226   5.743   5.634   2.942
 2443SOL     OW 8227   3.109   0.138   6.231
 2443SOL    HW1 8228   3.033   0.200   6.211
 2443SOL    HW2 8229   3.195   0.189   6.233
 2444SOL     OW 8230   3.422   3.676   0.215
 2444SOL    HW1 8231   3.413   3.745   0.143
 2444SOL    HW2 8232   3.517   3.645   0.218
 2445SOL     OW 8233   6.247   1.263   1.887
 2445SOL    HW1 8234   6.291   1.247   1.799
 2445SOL    HW2 8235   6.277   1.195   1.953
 2446SOL     OW 8236   0.977   3.152   4.804
 2446SOL    HW1 8237   1.045   3.213   4.764
 2446SOL    HW2 8238   1.019   3.099   4.878
 2447SOL     OW 8239   2.433   1.312   1.026
 2447SOL    HW1 8240   2.483   1.270   1.102
 2447SOL    HW2 8241   2.420   1.409   1.045
 2448SOL     OW 8242   6.484   1.440   4.012
 2448SOL    HW1 8243   6.449   1.528   3.980
 2448SOL    HW2 8244   6.434   1.412   4.095
 2449SOL     OW 8245   0.441   4.203   1.913
 2449SOL    HW1 8246   0.508   4.134   1.886
 2449SOL    HW2 8247   0.474   4.251   1.994
 2450SOL     OW 8248   3.582   4.614   6.468
 2450SOL    HW1 8249   3.682   4.619   6.471
 2450SOL    HW2 8250   3.553   4.572   6.382
 2451SOL     OW 8251   1.417   6.863   3.323
 2451SOL    HW1 8252   1.342   6.826   3.378
 2451SOL    HW2 8253   1.476   6.788   3.292
 2452SOL     OW 8254   2.836   1.996   4.024
 2452SOL    HW1 8255   2.932   2.017   4.011
 2452SOL    HW2 8256   2.796   2.059   4.090
 2453SOL     OW 8257   0.201   3.543   0.569
 2453SOL    HW1 8258   0.217   3.480   0.645
 2453SOL    HW2 8259   0.108   3.531   0.535
 2454SOL     OW 8260   3.192   0.586   6.902
 2454SOL    HW1 8261   3.184   0.588   6.802
 2454SOL    HW2 8262   3.258   0.516   6.929
 2455SOL     OW 8263   3.927   0.461   0.336
 2455SOL    HW1 8264   4.003   0.510   0.294
 2455SOL    HW2 8265   3.852   0.525   0.355
 2456SOL     OW 8266   6.552   2.552   6.997
 2456SOL    HW1 8267   6.571   2.542   6.899
 2456SOL    HW2 8268   6.599   2.479   0.024
 2457SOL     OW 8269   6.747   1.040   6.306
 2457SOL    HW1 8270   6.649   1.042   6.289
 2457SOL    HW2 8271   6.770   0.956   6.355
 2458SOL     OW 8272   1.417   6.509   3.858
 2458SOL    HW1 8273   1.494   6.468   3.907
 2458SOL    HW2 8274   1.343   6.528   3.922
 2459SOL     OW 8275   2.968   5.964   5.865
 2459SOL    HW1 8276   3.062   5.947   5.895
 2459SOL    HW2 8277   2.904   5.923   5.929
 2460SOL     OW 8278   1.314   1.451   1.379
 2460SOL    HW1 8279   1.400   1.482   1.420
 2460SOL    HW2 8280   1.334   1.395   1.298
 2461SOL     OW 8281   5.101   0.729   2.976
 2461SOL    HW1 8282   5.181   0.669   2.967
 2461SOL    HW2 8283   5.022   0.685   2.933
 2462SOL     OW 8284   1.968   5.383   6.997
 2462SOL    HW1 8285   1.985   5.347   6.905
 2462SOL    HW2 8286   2.024   5.333   0.040
 2463SOL     OW 8287   5.830   1.971   6.727
 2463SOL    HW1 8288   5.758   1.967   6.796
 2463SOL    HW2 8289   5.919   1.979   6.772
 2464SOL     OW 8290   1.971   3.906   2.411
 2464SOL    HW1 8291   2.041   3.939   2.348
 2464SOL    HW2 8292   1.993   3.813   2.440
 2465SOL     OW 8293   1.018   0.014   0.039
 2465SOL    HW1 8294   0.990   0.092   0.096
 2465SOL    HW2 8295   1.023   0.044   6.966
 2466SOL     OW 8296   2.626   1.992   3.071
 2466SOL    HW1 8297   2.612   2.026   3.164
 2466SOL    HW2 8298   2.634   1.892   3.073
 2467SOL     OW 8299   5.275   1.731   4.774
 2467SOL    HW1 8300   5.266   1.650   4.832
 2467SOL    HW2 8301   5.371   1.745   4.751
 2468SOL     OW 8302   4.417   6.531   1.672
 2468SOL    HW1 8303   4.484   6.552   1.601
 2468SOL    HW2 8304   4.325   6.549   1.636
 2469SOL     OW 8305   4.487   3.914   5.477
 2469SOL    HW1 8306   4.486   3.816   5.458
 2469SOL    HW2 8307   4.402   3.940   5.523
 2470SOL     OW 8308   4.918   4.099   6.318
 2470SOL    HW1 8309   4.982   4.051   6.258
 2470SOL    HW2 8310   4.866   4.032   6.372
 2471SOL     OW 8311   2.840   6.092   0.776
 2471SOL    HW1 8312   2.870   6.079   0.681
 2471SOL    HW2 8313   2.920   6.094   0.836
 2472SOL     OW 8314   4.786   2.301   3.454
 2472SOL    HW1 8315   4.726   2.366   3.500
 2472SOL    HW2 8316   4.778   2.211   3.498
 2473SOL     OW 8317   2.101   3.710   4.785
 2473SOL    HW1 8318   2.112   3.809   4.785
 2473SOL    HW2 8319   2.095   3.676   4.691
 2474SOL     OW 8320   0.165   6.063   1.494
 2474SOL    HW1 8321   0.262   6.047   1.512
 2474SOL    HW2 8322   0.128   6.127   1.562
 2475SOL     OW 8323   3.904   0.917   3.391
 2475SOL    HW1 8324   3.934   0.879   3.303
 2475SOL    HW2 8325   3.868   0.844   3.448
 2476SOL     OW 8326   6.783   1.421   2.853
 2476SOL    HW1 8327   6.871   1.467   2.846
 2476SOL    HW2 8328   6.794   1.324   2.830
 2477SOL     OW 8329   4.114   1.329   2.230
 2477SOL    HW1 8330   4.093   1.315   2.133
 2477SOL    HW2 8331   4.092   1.246   2.281
 2478SOL     OW 8332   6.344   1.115   1.675
 2478SOL    HW1 8333   6.285   1.046   1.716
 2478SOL    HW2 8334   6.303   1.148   1.590
 2479SOL     OW 8335   1.228   3.596   1.908
 2479SOL    HW1 8336   1.247   3.693   1.892
 2479SOL    HW2 8337   1.153   3.586   1.972
 2480SOL     OW 8338   4.903   4.110   0.799
 2480SOL    HW1 8339   4.894   4.112   0.699
 2480SOL    HW2 8340   4.828   4.057   0.838
 2481SOL     OW 8341   2.700   6.926   0.753
 2481SOL    HW1 8342   2.663   6.987   0.682
 2481SOL    HW2 8343   2.743   6.847   0.709
 2482SOL     OW 8344   5.404   3.473   6.128
 2482SOL    HW1 8345   5.361   3.400   6.182
 2482SOL    HW2 8346   5.433   3.436   6.040
 2483SOL     OW 8347   1.993   1.381   0.648
 2483SOL    HW1 8348   2.037   1.298   0.613
 2483SOL    HW2 8349   1.983   1.373   0.748
 2484SOL     OW 8350   3.563   0.865   0.271
 2484SOL    HW1 8351   3.558   0.965   0.262
 2484SOL    HW2 8352   3.555   0.839   0.367
 2485SOL     OW 8353   6.321   3.604   1.494
 2485SOL    HW1 8354   6.324   3.559   1.404
 2485SOL    HW2 8355   6.226   3.613   1.523
 2486SOL     OW 8356   1.826   4.818   4.616
 2486SOL    HW1 8357   1.879   4.743   4.578
 2486SOL    HW2 8358   1.739   4.783   4.651
 2487SOL     OW 8359   4.036   6.074   0.765
 2487SOL    HW1 8360   4.089   6.044   0.844
 2487SOL    HW2 8361   4.068   6.165   0.736
 2488SOL     OW 8362   1.591   4.551   2.209
 2488SOL    HW1 8363   1.530   4.630   2.216
 2488SOL    HW2 8364   1.553   4.476   2.263
 2489SOL     OW 8365   1.442   5.417   3.017
 2489SOL    HW1 8366   1.508   5.489   2.998
 2489SOL    HW2 8367   1.397   5.435   3.104
 2490SOL     OW 8368   6.683   4.759   1.738
 2490SOL    HW1 8369   6.733   4.731   1.656
 2490SOL    HW2 8370   6.724   4.718   1.819
 2491SOL     OW 8371   2.024   5.432   0.880
 2491SOL    HW1 8372   2.014   5.485   0.965
 2491SOL    HW2 8373   2.121   5.417   0.862
 2492SOL     OW 8374   4.140   2.351   1.032
 2492SOL    HW1 8375   4.131   2.253   1.046
 2492SOL    HW2 8376   4.094   2.378   0.947
 2493SOL     OW 8377   5.874   0.531   1.971
 2493SOL    HW1 8378   5.876   0.454   1.907
 2493SOL    HW2 8379   5.835   0.501   2.058
 2494SOL     OW 8380   5.928   4.141   2.259
 2494SOL    HW1 8381   5.958   4.114   2.351
 2494SOL    HW2 8382   6.000   4.119   2.193
 2495SOL     OW 8383   5.911   0.251   4.480
 2495SOL    HW1 8384   5.874   0.316   4.413
 2495SOL    HW2 8385   6.011   0.261   4.483
 2496SOL     OW 8386   6.601   3.556   5.982
 2496SOL    HW1 8387   6.608   3.517   6.074
 2496SOL    HW2 8388   6.693   3.560   5.941
 2497SOL     OW 8389   0.564   0.341   0.838
 2497SOL    HW1 8390   0.595   0.426   0.881
 2497SOL    HW2 8391   0.490   0.360   0.775
 2498SOL     OW 8392   2.638   1.808   4.351
 2498SOL    HW1 8393   2.696   1.736   4.388
 2498SOL    HW2 8394   2.563   1.767   4.298
 2499SOL     OW 8395   6.542   2.392   2.708
 2499SOL    HW1 8396   6.533   2.410   2.610
 2499SOL    HW2 8397   6.452   2.374   2.747
 2500SOL     OW 8398   4.454   2.830   0.164
 2500SOL    HW1 8399   4.365   2.818   0.208
 2500SOL    HW2 8400   4.509   2.895   0.217
 2501SOL     OW 8401   5.719   5.465   0.386
 2501SOL    HW1 8402   5.797   5.526   0.370
 2501SOL    HW2 8403   5.635   5.510   0.354
 2502SOL     OW 8404   1.369   5.332   3.600
 2502SOL    HW1 8405   1.282   5.309   3.645
 2502SOL    HW2 8406   1.357   5.412   3.543
 2503SOL     OW 8407   2.935   5.664   3.725
 2503SOL    HW1 8408   2.987   5.583   3.752
 2503SOL    HW2 8409   2.863   5.681   3.792
 2504SOL     OW 8410   4.053   5.400   4.446
 2504SOL    HW1 8411   3.960   5.425   4.419
 2504SOL    HW2 8412   4.071   5.305   4.418
 2505SOL     OW 8413   1.499   6.224   3.041
 2505SOL    HW1 8414   1.435   6.161   3.084
 2505SOL    HW2 8415   1.569   6.251   3.107
 2506SOL     OW 8416   6.925   3.830   5.072
 2506SOL    HW1 8417   6.986   3.908   5.080
 2506SOL    HW2 8418   6.934   3.771   5.152
 2507SOL     OW 8419   0.994   3.996   1.068
 2507SOL    HW1 8420   1.063   3.969   1.000
 2507SOL    HW2 8421   0.988   3.925   1.139
 2508SOL     OW 8422   2.061   1.557   2.393
 2508SOL    HW1 8423   2.148   1.527   2.432
 2508SOL    HW2 8424   2.070   1.650   2.358
 2509SOL     OW 8425   6.951   2.523   1.619
 2509SOL    HW1 8426   6.877   2.549   1.682
 2509SOL    HW2 8427   0.014   2.515   1.670
 2510SOL     OW 8428   2.821   4.465   1.408
 2510SOL    HW1 8429   2.737   4.468   1.462
 2510SOL    HW2 8430   2.897   4.434   1.466
 2511SOL     OW 8431   2.809   2.348   4.160
 2511SOL    HW1 8432   2.789   2.337   4.257
 2511SOL    HW2 8433   2.726   2.333   4.106
 2512SOL     OW 8434   5.315   4.278   5.015
 2512SOL    HW1 8435   5.413   4.263   5.032
 2512SOL    HW2 8436   5.298   4.279   4.917
 2513SOL     OW 8437   1.190   4.030   5.049
 2513SOL    HW1 8438   1.241   3.990   5.125
 2513SOL    HW2 8439   1.102   4.064   5.082
 2514SOL     OW 8440   6.160   3.929   4.206
 2514SOL    HW1 8441   6.126   3.926   4.300
 2514SOL    HW2 8442   6.084   3.925   4.142
 2515SOL     OW 8443   1.596   6.430   0.437
 2515SOL    HW1 8444   1.671   6.378   0.396
 2515SOL    HW2 8445   1.521   6.437   0.372
 2516SOL     OW 8446   6.320   1.048   2.856
 2516SOL    HW1 8447   6.389   0.985   2.891
 2516SOL    HW2 8448   6.231   1.024   2.894
 2517SOL     OW 8449   1.320   5.928   5.760
 2517SOL    HW1 8450   1.372   5.990   5.700
 2517SOL    HW2 8451   1.285   5.979   5.838
 2518SOL     OW 8452   1.402   4.189   0.129
 2518SOL    HW1 8453   1.420   4.096   0.162
 2518SOL    HW2 8454   1.488   4.232   0.102
 2519SOL     OW 8455   4.650   6.715   3.165
 2519SOL    HW1 8456   4.706   6.674   3.238
 2519SOL    HW2 8457   4.710   6.748   3.093
 2520SOL     OW 8458   2.457   2.104   0.025
 2520SOL    HW1 8459   2.551   2.078   0.046
 2520SOL    HW2 8460   2.413   2.032   6.994
 2521SOL     OW 8461   1.311   0.195   4.983
 2521SOL    HW1 8462   1.370   0.152   4.915
 2521SOL    HW2 8463   1.237   0.243   4.937
 2522SOL     OW 8464   0.662   3.821   4.986
 2522SOL    HW1 8465   0.631   3.732   4.951
 2522SOL    HW2 8466   0.742   3.807   5.044
 2523SOL     OW 8467   0.128   2.905   1.510
 2523SOL    HW1 8468   0.066   2.906   1.588
 2523SOL    HW2 8469   0.107   2.826   1.452
 2524SOL     OW 8470   1.362   6.272   5.218
 2524SOL    HW1 8471   1.415   6.356   5.225
 2524SOL    HW2 8472   1.388   6.224   5.135
 2525SOL     OW 8473   1.090   2.233   5.109
 2525SOL    HW1 8474   1.134   2.283   5.035
 2525SOL    HW2 8475   1.030   2.294   5.161
 2526SOL     OW 8476   1.746   3.769   5.502
 2526SOL    HW1 8477   1.795   3.682   5.499
 2526SOL    HW2 8478   1.676   3.765   5.573
 2527SOL     OW 8479   5.245   6.033   4.642
 2527SOL    HW1 8480   5.198   6.016   4.729
 2527SOL    HW2 8481   5.195   6.102   4.590
 2528SOL     OW 8482   5.314   5.072   1.275
 2528SOL    HW1 8483   5.352   5.127   1.202
 2528SOL    HW2 8484   5.382   5.059   1.347
 2529SOL     OW 8485   0.098   6.455   6.409
 2529SOL    HW1 8486   0.102   6.464   6.509
 2529SOL    HW2 8487   0.135   6.538   6.367
 2530SOL     OW 8488   2.643   6.885   5.675
 2530SOL    HW1 8489   2.658   6.979   5.705
 2530SOL    HW2 8490   2.588   6.885   5.591
 2531SOL     OW 8491   4.866   6.121   4.446
 2531SOL    HW1 8492   4.862   6.095   4.543
 2531SOL    HW2 8493   4.811   6.057   4.392
 2532SOL     OW 8494   1.353   0.194   1.225
 2532SOL    HW1 8495   1.394   0.178   1.315
 2532SOL    HW2 8496   1.343   0.107   1.177
 2533SOL     OW 8497   2.949   0.105   2.716
 2533SOL    HW1 8498   2.979   0.010   2.716
 2533SOL    HW2 8499   2.860   0.112   2.671
 2534SOL     OW 8500   3.048   0.423   3.397
 2534SOL    HW1 8501   3.105   0.470   3.465
 2534SOL    HW2 8502   2.952   0.441   3.417
 2535SOL     OW 8503   3.202   2.173   5.627
 2535SOL    HW1 8504   3.141   2.125   5.564
 2535SOL    HW2 8505   3.193   2.134   5.719
 2536SOL     OW 8506   0.377   2.173   4.791
 2536SOL    HW1 8507   0.384   2.251   4.854
 2536SOL    HW2 8508   0.418   2.197   4.703
 2537SOL     OW 8509   3.625   0.147   6.146
 2537SOL    HW1 8510   3.721   0.170   6.131
 2537SOL    HW2 8511   3.610   0.051   6.126
 2538SOL     OW 8512   1.270   4.957   5.411
 2538SOL    HW1 8513   1.214   5.019   5.466
 2538SOL    HW2 8514   1.310   4.886   5.469
 2539SOL     OW 8515   4.837   0.635   5.515
 2539SOL    HW1 8516   4.917   0.695   5.521
 2539SOL    HW2 8517   4.767   0.679   5.459
 2540SOL     OW 8518   3.627   0.631   2.621
 2540SOL    HW1 8519   3.695   0.699   2.595
 2540SOL    HW2 8520   3.645   0.546   2.570
 2541SOL     OW 8521   2.000   6.709   4.779
 2541SOL    HW1 8522   2.099   6.692   4.783
 2541SOL    HW2 8523   1.961   6.698   4.871
 2542SOL     OW 8524   4.605   0.738   5.834
 2542SOL    HW1 8525   4.569   0.677   5.764
 2542SOL    HW2 8526   4.684   0.696   5.878
 2543SOL     OW 8527   1.689   1.750   2.868
 2543SOL    HW1 8528   1.723   1.708   2.953
 2543SOL    HW2 8529   1.606   1.702   2.840
 2544SOL     OW 8530   0.383   6.280   0.983
 2544SOL    HW1 8531   0.349   6.204   1.039
 2544SOL    HW2 8532   0.316   6.354   0.983
 2545SOL     OW 8533   2.143   1.053   1.615
 2545SOL    HW1 8534   2.182   1.064   1.523
 2545SOL    HW2 8535   2.154   1.138   1.666
 2546SOL     OW 8536   0.185   2.268   1.204
 2546SOL    HW1 8537   0.181   2.170   1.183
 2546SOL    HW2 8538   0.102   2.296   1.252
 2547SOL     OW 8539   5.784   4.262   0.485
 2547SOL    HW1 8540   5.773   4.351   0.531
 2547SOL    HW2 8541   5.699   4.211   0.490
 2548SOL     OW 8542   2.490   6.478   5.455
 2548SOL    HW1 8543   2.584   6.487   5.487
 2548SOL    HW2 8544   2.482   6.515   5.363
 2549SOL     OW 8545   2.086   0.826   0.948
 2549SOL    HW1 8546   2.005   0.778   0.981
 2549SOL    HW2 8547   2.121   0.885   1.020
 2550SOL     OW 8548   6.998   0.269   6.161
 2550SOL    HW1 8549   6.977   0.331   6.085
 2550SOL    HW2 8550   0.052   0.305   6.213
 2551SOL     OW 8551   3.805   4.726   0.422
 2551SOL    HW1 8552   3.713   4.761   0.405
 2551SOL    HW2 8553   3.810   4.630   0.395
 2552SOL     OW 8554   2.128   5.818   6.068
 2552SOL    HW1 8555   2.092   5.809   5.975
 2552SOL    HW2 8556   2.100   5.906   6.107
 2553SOL     OW 8557   4.302   2.846   6.209
 2553SOL    HW1 8558   4.344   2.760   6.180
 2553SOL    HW2 8559   4.234   2.827   6.280
 2554SOL     OW 8560   2.241   5.969   0.377
 2554SOL    HW1 8561   2.163   6.031   0.366
 2554SOL    HW2 8562   2.209   5.879   0.405
 2555SOL     OW 8563   6.040   0.080   6.786
 2555SOL    HW1 8564   6.008   0.043   6.873
 2555SOL    HW2 8565   6.095   0.011   6.738
 2556SOL     OW 8566   4.626   5.476   0.064
 2556SOL    HW1 8567   4.688   5.458   7.011
 2556SOL    HW2 8568   4.634   5.403   0.133
 2557SOL     OW 8569   2.707   3.256   6.287
 2557SOL    HW1 8570   2.712   3.313   6.369
 2557SOL    HW2 8571   2.693   3.315   6.207
 2558SOL     OW 8572   4.545   2.803   5.875
 2558SOL    HW1 8573   4.612   2.736   5.907
 2558SOL    HW2 8574   4.561   2.891   5.920
 2559SOL     OW 8575   6.112   4.212   3.928
 2559SOL    HW1 8576   6.183   4.192   3.861
 2559SOL    HW2 8577   6.054   4.286   3.894
 2560SOL     OW 8578   5.521   3.194   4.223
 2560SOL    HW1 8579   5.620   3.203   4.218
 2560SOL    HW2 8580   5.494   3.103   4.192
 2561SOL     OW 8581   2.651   6.631   4.421
 2561SOL    HW1 8582   2.683   6.712   4.372
 2561SOL    HW2 8583   2.556   6.612   4.396
 2562SOL     OW 8584   1.230   5.772   2.420
 2562SOL    HW1 8585   1.173   5.817   2.352
 2562SOL    HW2 8586   1.172   5.730   2.490
 2563SOL     OW 8587   3.966   2.053   0.791
 2563SOL    HW1 8588   3.872   2.027   0.769
 2563SOL    HW2 8589   3.976   2.152   0.785
 2564SOL     OW 8590   1.987   6.050   6.199
 2564SOL    HW1 8591   2.052   6.125   6.189
 2564SOL    HW2 8592   1.967   6.036   6.296
 2565SOL     OW 8593   0.353   0.020   0.081
 2565SOL    HW1 8594   0.291   7.021   0.157
 2565SOL    HW2 8595   0.322   0.104   0.036
 2566SOL     OW 8596   2.428   0.041   1.346
 2566SOL    HW1 8597   2.451   0.055   1.443
 2566SOL    HW2 8598   2.404   0.129   1.305
 2567SOL     OW 8599   1.076   1.497   1.226
 2567SOL    HW1 8600   1.031   1.586   1.213
 2567SOL    HW2 8601   1.113   1.492   1.319
 2568SOL     OW 8602   2.996   6.432   0.189
 2568SOL    HW1 8603   3.057   6.511   0.192
 2568SOL    HW2 8604   2.905   6.462   0.161
 2569SOL     OW 8605   2.687   1.246   1.661
 2569SOL    HW1 8606   2.617   1.299   1.614
 2569SOL    HW2 8607   2.662   1.150   1.660
 2570SOL     OW 8608   5.795   0.578   6.283
 2570SOL    HW1 8609   5.831   0.487   6.303
 2570SOL    HW2 8610   5.800   0.594   6.184
 2571SOL     OW 8611   2.301   4.285   4.825
 2571SOL    HW1 8612   2.373   4.330   4.877
 2571SOL    HW2 8613   2.278   4.198   4.869
 2572SOL     OW 8614   2.042   5.185   0.148
 2572SOL    HW1 8615   1.981   5.129   0.091
 2572SOL    HW2 8616   2.041   5.149   0.242
 2573SOL     OW 8617   6.645   2.079   1.721
 2573SOL    HW1 8618   6.651   1.980   1.710
 2573SOL    HW2 8619   6.549   2.107   1.720
 2574SOL     OW 8620   6.569   3.821   6.796
 2574SOL    HW1 8621   6.527   3.755   6.858
 2574SOL    HW2 8622   6.538   3.913   6.821
 2575SOL     OW 8623   5.393   5.571   0.021
 2575SOL    HW1 8624   5.381   5.515   0.104
 2575SOL    HW2 8625   5.449   5.651   0.043
 2576SOL     OW 8626   3.273   0.115   4.077
 2576SOL    HW1 8627   3.359   0.070   4.104
 2576SOL    HW2 8628   3.257   0.195   4.135
 2577SOL     OW 8629   3.524   6.768   1.743
 2577SOL    HW1 8630   3.429   6.797   1.730
 2577SOL    HW2 8631   3.526   6.671   1.768
 2578SOL     OW 8632   5.289   1.957   3.563
 2578SOL    HW1 8633   5.212   1.953   3.500
 2578SOL    HW2 8634   5.374   1.959   3.512
 2579SOL     OW 8635   1.445   6.284   2.535
 2579SOL    HW1 8636   1.360   6.234   2.521
 2579SOL    HW2 8637   1.484   6.262   2.625
 2580SOL     OW 8638   2.750   2.739   6.469
 2580SOL    HW1 8639   2.824   2.702   6.413
 2580SOL    HW2 8640   2.722   2.828   6.432
 2581SOL     OW 8641   0.607   4.175   0.750
 2581SOL    HW1 8642   0.628   4.182   0.653
 2581SOL    HW2 8643   0.572   4.262   0.784
 2582SOL     OW 8644   0.661   5.077   2.162
 2582SOL    HW1 8645   0.609   5.005   2.208
 2582SOL    HW2 8646   0.759   5.059   2.173
 2583SOL     OW 8647   0.745   1.168   0.239
 2583SOL    HW1 8648   0.704   1.166   0.331
 2583SOL    HW2 8649   0.673   1.178   0.171
 2584SOL     OW 8650   4.191   5.502   0.322
 2584SOL    HW1 8651   4.095   5.501   0.296
 2584SOL    HW2 8652   4.248   5.511   0.241
 2585SOL     OW 8653   4.968   2.130   0.631
 2585SOL    HW1 8654   4.925   2.138   0.720
 2585SOL    HW2 8655   5.066   2.113   0.643
 2586SOL     OW 8656   3.687   1.261   3.587
 2586SOL    HW1 8657   3.733   1.221   3.508
 2586SOL    HW2 8658   3.751   1.319   3.637
 2587SOL     OW 8659   0.369   1.115   3.382
 2587SOL    HW1 8660   0.360   1.046   3.310
 2587SOL    HW2 8661   0.372   1.206   3.340
 2588SOL     OW 8662   4.253   0.536   6.394
 2588SOL    HW1 8663   4.252   0.436   6.400
 2588SOL    HW2 8664   4.216   0.565   6.305
 2589SOL     OW 8665   0.478   5.973   6.256
 2589SOL    HW1 8666   0.517   6.003   6.169
 2589SOL    HW2 8667   0.495   5.875   6.268
 2590SOL     OW 8668   3.643   5.753   0.908
 2590SOL    HW1 8669   3.647   5.796   0.998
 2590SOL    HW2 8670   3.687   5.812   0.841
 2591SOL     OW 8671   0.111   5.858   2.595
 2591SOL    HW1 8672   0.207   5.886   2.584
 2591SOL    HW2 8673   0.062   5.925   2.650
 2592SOL     OW 8674   3.870   5.263   0.387
 2592SOL    HW1 8675   3.878   5.343   0.328
 2592SOL    HW2 8676   3.775   5.250   0.414
 2593SOL     OW 8677   3.251   5.498   0.460
 2593SOL    HW1 8678   3.243   5.561   0.382
 2593SOL    HW2 8679   3.199   5.415   0.441
 2594SOL     OW 8680   1.311   5.225   6.385
 2594SOL    HW1 8681   1.223   5.193   6.419
 2594SOL    HW2 8682   1.380   5.153   6.397
 2595SOL     OW 8683   6.425   2.043   4.265
 2595SOL    HW1 8684   6.397   2.112   4.198
 2595SOL    HW2 8685   6.448   1.958   4.217
 2596SOL     OW 8686   3.009   1.821   2.078
 2596SOL    HW1 8687   3.033   1.884   2.005
 2596SOL    HW2 8688   3.092   1.775   2.111
 2597SOL     OW 8689   1.503   4.631   5.864
 2597SOL    HW1 8690   1.454   4.666   5.943
 2597SOL    HW2 8691   1.533   4.707   5.806
 2598SOL     OW 8692   6.434   1.197   3.287
 2598SOL    HW1 8693   6.379   1.192   3.371
 2598SOL    HW2 8694   6.513   1.137   3.296
 2599SOL     OW 8695   2.412   6.736   1.493
 2599SOL    HW1 8696   2.391   6.754   1.397
 2599SOL    HW2 8697   2.424   6.637   1.506
 2600SOL     OW 8698   5.540   3.064   4.862
 2600SOL    HW1 8699   5.621   3.014   4.892
 2600SOL    HW2 8700   5.565   3.158   4.840
 2601SOL     OW 8701   2.352   1.608   1.097
 2601SOL    HW1 8702   2.374   1.605   1.195
 2601SOL    HW2 8703   2.380   1.697   1.060
 2602SOL     OW 8704   0.878   3.967   4.405
 2602SOL    HW1 8705   0.913   3.887   4.455
 2602SOL    HW2 8706   0.889   3.952   4.307
 2603SOL     OW 8707   2.119   1.233   4.090
 2603SOL    HW1 8708   2.162   1.323   4.081
 2603SOL    HW2 8709   2.098   1.196   4.000
 2604SOL     OW 8710   4.565   1.808   2.708
 2604SOL    HW1 8711   4.480   1.852   2.679
 2604SOL    HW2 8712   4.640   1.840   2.649
 2605SOL     OW 8713   2.150   3.415   2.775
 2605SOL    HW1 8714   2.194   3.500   2.746
 2605SOL    HW2 8715   2.110   3.427   2.866
 2606SOL     OW 8716   5.533   4.408   2.187
 2606SOL    HW1 8717   5.534   4.508   2.189
 2606SOL    HW2 8718   5.448   4.376   2.146
 2607SOL     OW 8719   1.389   1.419   0.820
 2607SOL    HW1 8720   1.324   1.372   0.880
 2607SOL    HW2 8721   1.380   1.517   0.833
 2608SOL     OW 8722   4.428   4.902   1.714
 2608SOL    HW1 8723   4.486   4.942   1.643
 2608SOL    HW2 8724   4.456   4.938   1.804
 2609SOL     OW 8725   6.583   0.969   1.110
 2609SOL    HW1 8726   6.681   0.952   1.120
 2609SOL    HW2 8727   6.534   0.882   1.105
 2610SOL     OW 8728   1.214   4.708   5.253
 2610SOL    HW1 8729   1.281   4.781   5.238
 2610SOL    HW2 8730   1.153   4.735   5.327
 2611SOL     OW 8731   4.551   6.790   1.176
 2611SOL    HW1 8732   4.488   6.866   1.195
 2611SOL    HW2 8733   4.511   6.705   1.211
 2612SOL     OW 8734   6.393   0.125   6.175
 2612SOL    HW1 8735   6.467   0.130   6.108
 2612SOL    HW2 8736   6.315   0.179   6.144
 2613SOL     OW 8737   2.915   6.122   6.183
 2613SOL    HW1 8738   2.936   6.216   6.212
 2613SOL    HW2 8739   2.819   6.117   6.157
 2614SOL     OW 8740   6.845   0.578   5.690
 2614SOL    HW1 8741   6.901   0.656   5.663
 2614SOL    HW2 8742   6.792   0.546   5.611
 2615SOL     OW 8743   6.902   3.062   2.903
 2615SOL    HW1 8744   6.968   3.134   2.881
 2615SOL    HW2 8745   6.863   3.078   2.994
 2616SOL     OW 8746   3.425   3.108   5.468
 2616SOL    HW1 8747   3.429   3.025   5.523
 2616SOL    HW2 8748   3.459   3.088   5.376
 2617SOL     OW 8749   3.988   6.266   0.406
 2617SOL    HW1 8750   3.966   6.283   0.310
 2617SOL    HW2 8751   4.038   6.179   0.414
 2618SOL     OW 8752   0.052   0.491   4.265
 2618SOL    HW1 8753   0.090   0.400   4.277
 2618SOL    HW2 8754   6.977   0.489   4.288
 2619SOL     OW 8755   3.811   1.705   3.097
 2619SOL    HW1 8756   3.767   1.788   3.130
 2619SOL    HW2 8757   3.890   1.684   3.155
 2620SOL     OW 8758   6.444   6.843   3.639
 2620SOL    HW1 8759   6.356   6.863   3.595
 2620SOL    HW2 8760   6.428   6.810   3.732
 2621SOL     OW 8761   0.792   5.357   2.354
 2621SOL    HW1 8762   0.751   5.281   2.405
 2621SOL    HW2 8763   0.720   5.422   2.328
 2622SOL     OW 8764   1.611   3.483   5.240
 2622SOL    HW1 8765   1.640   3.516   5.329
 2622SOL    HW2 8766   1.682   3.501   5.172
 2623SOL     OW 8767   1.147   0.836   5.841
 2623SOL    HW1 8768   1.073   0.895   5.807
 2623SOL    HW2 8769   1.226   0.892   5.864
 2624SOL     OW 8770   6.443   1.329   5.340
 2624SOL    HW1 8771   6.416   1.237   5.367
 2624SOL    HW2 8772   6.365   1.391   5.348
 2625SOL     OW 8773   2.220   3.185   5.231
 2625SOL    HW1 8774   2.138   3.130   5.216
 2625SOL    HW2 8775   2.300   3.135   5.197
 2626SOL     OW 8776   0.600   0.330   6.034
 2626SOL    HW1 8777   0.519   0.274   6.013
 2626SOL    HW2 8778   0.623   0.386   5.954
 2627SOL     OW 8779   0.657   1.341   5.913
 2627SOL    HW1 8780   0.736   1.387   5.873
 2627SOL    HW2 8781   0.587   1.408   5.936
 2628SOL     OW 8782   1.993   4.741   5.798
 2628SOL    HW1 8783   2.081   4.787   5.786
 2628SOL    HW2 8784   1.994   4.689   5.884
 2629SOL     OW 8785   3.399   3.253   2.547
 2629SOL    HW1 8786   3.332   3.206   2.605
 2629SOL    HW2 8787   3.440   3.328   2.599
 2630SOL     OW 8788   3.339   2.146   2.682
 2630SOL    HW1 8789   3.351   2.089   2.600
 2630SOL    HW2 8790   3.322   2.240   2.655
 2631SOL     OW 8791   5.152   0.685   5.844
 2631SOL    HW1 8792   5.118   0.688   5.750
 2631SOL    HW2 8793   5.210   0.765   5.861
 2632SOL     OW 8794   5.316   3.286   6.293
 2632SOL    HW1 8795   5.321   3.186   6.287
 2632SOL    HW2 8796   5.375   3.318   6.367
 2633SOL     OW 8797   7.022   2.686   4.616
 2633SOL    HW1 8798   0.031   2.591   4.618
 2633SOL    HW2 8799   6.922   2.687   4.617
 2634SOL     OW 8800   0.587   4.662   3.464
 2634SOL    HW1 8801   0.561   4.712   3.547
 2634SOL    HW2 8802   0.618   4.570   3.489
 2635SOL     OW 8803   6.855   5.455   5.649
 2635SOL    HW1 8804   6.863   5.504   5.563
 2635SOL    HW2 8805   6.769   5.405   5.652
 2636SOL     OW 8806   3.706   0.357   4.620
 2636SOL    HW1 8807   3.623   0.322   4.663
 2636SOL    HW2 8808   3.739   0.435   4.672
 2637SOL     OW 8809   5.330   1.504   3.311
 2637SOL    HW1 8810   5.304   1.464   3.399
 2637SOL    HW2 8811   5.384   1.438   3.259
 2638SOL     OW 8812   6.840   0.108   3.905
 2638SOL    HW1 8813   6.775   0.032   3.908
 2638SOL    HW2 8814   6.892   0.104   3.820
 2639SOL     OW 8815   0.283   6.029   1.116
 2639SOL    HW1 8816   0.294   6.017   1.214
 2639SOL    HW2 8817   0.186   6.023   1.091
 2640SOL     OW 8818   0.604   5.932   5.650
 2640SOL    HW1 8819   0.585   5.894   5.740
 2640SOL    HW2 8820   0.535   6.000   5.627
 2641SOL     OW 8821   5.986   2.879   2.227
 2641SOL    HW1 8822   5.984   2.973   2.260
 2641SOL    HW2 8823   6.035   2.822   2.294
 2642SOL     OW 8824   4.827   6.987   3.785
 2642SOL    HW1 8825   4.905   6.979   3.723
 2642SOL    HW2 8826   4.849   6.944   3.872
 2643SOL     OW 8827   0.666   3.608   3.601
 2643SOL    HW1 8828   0.633   3.697   3.570
 2643SOL    HW2 8829   0.661   3.603   3.700
 2644SOL     OW 8830   4.896   6.549   5.443
 2644SOL    HW1 8831   4.883   6.499   5.358
 2644SOL    HW2 8832   4.975   6.513   5.492
 2645SOL     OW 8833   4.103   5.719   3.874
 2645SOL    HW1 8834   4.032   5.790   3.871
 2645SOL    HW2 8835   4.080   5.652   3.944
 2646SOL     OW 8836   5.818   1.026   6.796
 2646SOL    HW1 8837   5.766   1.067   6.721
 2646SOL    HW2 8838   5.810   1.083   6.878
 2647SOL     OW 8839   6.637   6.986   2.048
 2647SOL    HW1 8840   6.642   0.041   1.985
 2647SOL    HW2 8841   6.563   7.001   2.113
 2648SOL     OW 8842   0.680   6.865   3.732
 2648SOL    HW1 8843   0.641   6.950   3.697
 2648SOL    HW2 8844   0.768   6.884   3.776
 2649SOL     OW 8845   6.478   3.277   0.114
 2649SOL    HW1 8846   6.378   3.270   0.117
 2649SOL    HW2 8847   6.518   3.216   0.182
 2650SOL     OW 8848   0.859   4.764   4.164
 2650SOL    HW1 8849   0.881   4.803   4.074
 2650SOL    HW2 8850   0.933   4.704   4.193
 2651SOL     OW 8851   2.129   1.498   0.960
 2651SOL    HW1 8852   2.186   1.496   1.042
 2651SOL    HW2 8853   2.098   1.406   0.938
 2652SOL     OW 8854   3.964   3.869   5.133
 2652SOL    HW1 8855   3.961   3.968   5.121
 2652SOL    HW2 8856   3.887   3.828   5.083
 2653SOL     OW 8857   4.622   6.925   5.375
 2653SOL    HW1 8858   4.703   6.961   5.330
 2653SOL    HW2 8859   4.649   6.858   5.444
 2654SOL     OW 8860   4.119   0.256   2.404
 2654SOL    HW1 8861   4.112   0.352   2.431
 2654SOL    HW2 8862   4.035   0.207   2.428
 2655SOL     OW 8863   4.879   6.552   3.856
 2655SOL    HW1 8864   4.877   6.457   3.888
 2655SOL    HW2 8865   4.789   6.576   3.818
 2656SOL     OW 8866   3.615   5.199   4.538
 2656SOL    HW1 8867   3.553   5.127   4.570
 2656SOL    HW2 8868   3.689   5.211   4.604
 2657SOL     OW 8869   0.917   4.183   6.999
 2657SOL    HW1 8870   0.963   4.095   7.008
 2657SOL    HW2 8871   0.845   4.177   6.930
 2658SOL     OW 8872   4.971   4.538   1.046
 2658SOL    HW1 8873   4.980   4.477   0.967
 2658SOL    HW2 8874   5.059   4.546   1.092
 2659SOL     OW 8875   5.087   3.119   4.523
 2659SOL    HW1 8876   5.114   3.089   4.615
 2659SOL    HW2 8877   5.127   3.209   4.505
 2660SOL     OW 8878   1.995   7.003   1.963
 2660SOL    HW1 8879   1.915   0.015   2.013
 2660SOL    HW2 8880   2.016   6.910   1.994
 2661SOL     OW 8881   2.406   0.063   1.814
 2661SOL    HW1 8882   2.329   0.125   1.829
 2661SOL    HW2 8883   2.372   6.991   1.806
 2662SOL     OW 8884   4.166   6.427   5.067
 2662SOL    HW1 8885   4.120   6.516   5.069
 2662SOL    HW2 8886   4.102   6.357   5.035
 2663SOL     OW 8887   3.194   4.244   6.536
 2663SOL    HW1 8888   3.231   4.244   6.629
 2663SOL    HW2 8889   3.096   4.265   6.539
 2664SOL     OW 8890   4.593   3.419   5.509
 2664SOL    HW1 8891   4.602   3.344   5.443
 2664SOL    HW2 8892   4.618   3.386   5.600
 2665SOL     OW 8893   2.690   3.021   5.391
 2665SOL    HW1 8894   2.620   3.043   5.324
 2665SOL    HW2 8895   2.720   2.927   5.378
 2666SOL     OW 8896   6.592   5.092   1.191
 2666SOL    HW1 8897   6.615   5.185   1.163
 2666SOL    HW2 8898   6.675   5.038   1.203
 2667SOL     OW 8899   0.458   5.613   4.508
 2667SOL    HW1 8900   0.364   5.641   4.527
 2667SOL    HW2 8901   0.508   5.603   4.594
 2668SOL     OW 8902   0.419   3.548   5.035
 2668SOL    HW1 8903   0.350   3.606   4.992
 2668SOL    HW2 8904   0.469   3.497   4.965
 2669SOL     OW 8905   2.759   4.753   5.669
 2669SOL    HW1 8906   2.763   4.828   5.603
 2669SOL    HW2 8907   2.822   4.681   5.642
 2670SOL     OW 8908   5.287   3.249   5.575
 2670SOL    HW1 8909   5.316   3.344   5.581
 2670SOL    HW2 8910   5.255   3.218   5.665
 2671SOL     OW 8911   4.647   5.081   6.410
 2671SOL    HW1 8912   4.587   5.160   6.396
 2671SOL    HW2 8913   4.609   5.002   6.361
 2672SOL     OW 8914   1.877   4.768   0.384
 2672SOL    HW1 8915   1.899   4.675   0.414
 2672SOL    HW2 8916   1.880   4.830   0.462
 2673SOL     OW 8917   6.335   1.360   2.259
 2673SOL    HW1 8918   6.259   1.424   2.254
 2673SOL    HW2 8919   6.299   1.267   2.268
 2674SOL     OW 8920   1.389   4.741   3.877
 2674SOL    HW1 8921   1.459   4.670   3.880
 2674SOL    HW2 8922   1.319   4.721   3.947
 2675SOL     OW 8923   6.241   5.232   4.246
 2675SOL    HW1 8924   6.298   5.234   4.328
 2675SOL    HW2 8925   6.238   5.139   4.209
 2676SOL     OW 8926   3.903   2.628   1.192
 2676SOL    HW1 8927   3.831   2.578   1.144
 2676SOL    HW2 8928   3.878   2.724   1.200
 2677SOL     OW 8929   2.619   3.880   0.178
 2677SOL    HW1 8930   2.551   3.866   0.106
 2677SOL    HW2 8931   2.615   3.805   0.244
 2678SOL     OW 8932   0.133   2.546   1.412
 2678SOL    HW1 8933   0.199   2.476   1.439
 2678SOL    HW2 8934   0.068   2.561   1.487
 2679SOL     OW 8935   1.851   4.622   1.648
 2679SOL    HW1 8936   1.900   4.592   1.729
 2679SOL    HW2 8937   1.785   4.552   1.620
 2680SOL     OW 8938   1.366   1.715   0.657
 2680SOL    HW1 8939   1.377   1.803   0.702
 2680SOL    HW2 8940   1.277   1.711   0.612
 2681SOL     OW 8941   1.690   2.074   5.115
 2681SOL    HW1 8942   1.665   2.170   5.121
 2681SOL    HW2 8943   1.652   2.035   5.031
 2682SOL     OW 8944   4.859   4.190   3.273
 2682SOL    HW1 8945   4.836   4.238   3.188
 2682SOL    HW2 8946   4.853   4.253   3.350
 2683SOL     OW 8947   2.969   5.440   1.730
 2683SOL    HW1 8948   2.953   5.399   1.820
 2683SOL    HW2 8949   3.066   5.435   1.708
 2684SOL     OW 8950   4.706   6.121   1.658
 2684SOL    HW1 8951   4.645   6.107   1.580
 2684SOL    HW2 8952   4.690   6.212   1.697
 2685SOL     OW 8953   5.778   6.199   6.121
 2685SOL    HW1 8954   5.784   6.119   6.181
 2685SOL    HW2 8955   5.686   6.236   6.124
 2686SOL     OW 8956   2.088   1.415   5.771
 2686SOL    HW1 8957   2.061   1.511   5.760
 2686SOL    HW2 8958   2.075   1.367   5.685
 2687SOL     OW 8959   5.081   5.105   1.423
 2687SOL    HW1 8960   5.089   5.031   1.490
 2687SOL    HW2 8961   5.154   5.098   1.355
 2688SOL     OW 8962   3.039   3.685   0.510
 2688SOL    HW1 8963   2.989   3.599   0.520
 2688SOL    HW2 8964   3.001   3.736   0.432
 2689SOL     OW 8965   1.329   4.279   3.034
 2689SOL    HW1 8966   1.375   4.191   3.023
 2689SOL    HW2 8967   1.291   4.286   3.127
 2690SOL     OW 8968   3.816   2.911   5.021
 2690SOL    HW1 8969   3.868   2.983   4.975
 2690SOL    HW2 8970   3.878   2.842   5.058
 2691SOL     OW 8971   1.515   5.201   3.413
 2691SOL    HW1 8972   1.458   5.246   3.482
 2691SOL    HW2 8973   1.457   5.159   3.344
 2692SOL     OW 8974   2.941   5.882   3.053
 2692SOL    HW1 8975   3.003   5.956   3.080
 2692SOL    HW2 8976   2.859   5.922   3.011
 2693SOL     OW 8977   2.226   5.084   3.655
 2693SOL    HW1 8978   2.175   5.103   3.739
 2693SOL    HW2 8979   2.173   5.024   3.596
 2694SOL     OW 8980   4.178   6.406   3.057
 2694SOL    HW1 8981   4.241   6.483   3.048
 2694SOL    HW2 8982   4.229   6.321   3.067
 2695SOL     OW 8983   5.866   1.215   1.832
 2695SOL    HW1 8984   5.802   1.288   1.807
 2695SOL    HW2 8985   5.942   1.254   1.884
 2696SOL     OW 8986   3.557   3.212   5.732
 2696SOL    HW1 8987   3.502   3.182   5.655
 2696SOL    HW2 8988   3.578   3.310   5.722
 2697SOL     OW 8989   3.573   1.238   2.978
 2697SOL    HW1 8990   3.563   1.164   3.044
 2697SOL    HW2 8991   3.562   1.203   2.885
 2698SOL     OW 8992   1.692   5.302   0.589
 2698SOL    HW1 8993   1.594   5.294   0.571
 2698SOL    HW2 8994   1.738   5.336   0.506
 2699SOL     OW 8995   2.334   5.614   0.729
 2699SOL    HW1 8996   2.359   5.625   0.632
 2699SOL    HW2 8997   2.295   5.699   0.763
 2700SOL     OW 8998   3.216   2.969   6.992
 2700SOL    HW1 8999   3.308   2.928   6.997
 2700SOL    HW2 9000   3.175   2.946   6.904
 2701SOL     OW 9001   5.485   1.591   5.773
 2701SOL    HW1 9002   5.405   1.563   5.719
 2701SOL    HW2 9003   5.458   1.606   5.868
 2702SOL     OW 9004   0.253   3.184   3.626
 2702SOL    HW1 9005   0.207   3.105   3.666
 2702SOL    HW2 9006   0.201   3.217   3.547
 2703SOL     OW 9007   1.445   0.608   0.827
 2703SOL    HW1 9008   1.543   0.623   0.813
 2703SOL    HW2 9009   1.426   0.510   0.830
 2704SOL     OW 9010   6.749   5.393   1.723
 2704SOL    HW1 9011   6.681   5.426   1.789
 2704SOL    HW2 9012   6.724   5.423   1.631
 2705SOL     OW 9013   0.081   5.950   4.607
 2705SOL    HW1 9014   0.152   5.972   4.674
 2705SOL    HW2 9015   0.108   5.984   4.517
 2706SOL     OW 9016   6.607   5.118   2.547
 2706SOL    HW1 9017   6.584   5.115   2.450
 2706SOL    HW2 9018   6.639   5.209   2.572
 2707SOL     OW 9019   4.205   0.142   4.153
 2707SOL    HW1 9020   4.183   0.239   4.157
 2707SOL    HW2 9021   4.151   0.092   4.220
 2708SOL     OW 9022   0.129   3.074   1.069
 2708SOL    HW1 9023   0.037   3.037   1.055
 2708SOL    HW2 9024   0.170   3.096   0.980
 2709SOL     OW 9025   5.012   0.283   6.711
 2709SOL    HW1 9026   4.986   0.274   6.807
 2709SOL    HW2 9027   4.982   0.372   6.677
 2710SOL     OW 9028   1.043   3.712   4.335
 2710SOL    HW1 9029   1.088   3.652   4.270
 2710SOL    HW2 9030   1.018   3.659   4.417
 2711SOL     OW 9031   2.216   0.585   3.826
 2711SOL    HW1 9032   2.257   0.673   3.852
 2711SOL    HW2 9033   2.150   0.600   3.753
 2712SOL     OW 9034   2.560   4.299   1.637
 2712SOL    HW1 9035   2.586   4.385   1.682
 2712SOL    HW2 9036   2.466   4.275   1.662
 2713SOL     OW 9037   2.257   2.547   5.192
 2713SOL    HW1 9038   2.326   2.500   5.245
 2713SOL    HW2 9039   2.200   2.603   5.252
 2714SOL     OW 9040   3.739   2.669   0.101
 2714SOL    HW1 9041   3.665   2.675   0.168
 2714SOL    HW2 9042   3.739   2.579   0.058
 2715SOL     OW 9043   4.664   1.900   1.123
 2715SOL    HW1 9044   4.671   1.831   1.051
 2715SOL    HW2 9045   4.645   1.989   1.081
 2716SOL     OW 9046   5.737   3.302   2.432
 2716SOL    HW1 9047   5.828   3.336   2.407
 2716SOL    HW2 9048   5.718   3.325   2.527
 2717SOL     OW 9049   0.567   0.336   2.684
 2717SOL    HW1 9050   0.540   0.432   2.678
 2717SOL    HW2 9051   0.491   0.278   2.654
 2718SOL     OW 9052   1.603   1.310   4.992
 2718SOL    HW1 9053   1.543   1.373   4.942
 2718SOL    HW2 9054   1.611   1.340   5.087
 2719SOL     OW 9055   0.487   5.153   1.701
 2719SOL    HW1 9056   0.465   5.250   1.709
 2719SOL    HW2 9057   0.567   5.132   1.757
 2720SOL     OW 9058   1.963   5.667   1.879
 2720SOL    HW1 9059   1.960   5.699   1.974
 2720SOL    HW2 9060   2.051   5.623   1.861
 2721SOL     OW 9061   3.070   6.718   3.499
 2721SOL    HW1 9062   3.000   6.785   3.475
 2721SOL    HW2 9063   3.156   6.743   3.453
 2722SOL     OW 9064   6.501   5.233   0.561
 2722SOL    HW1 9065   6.438   5.156   0.548
 2722SOL    HW2 9066   6.544   5.257   0.474
 2723SOL     OW 9067   0.714   6.316   6.311
 2723SOL    HW1 9068   0.789   6.356   6.258
 2723SOL    HW2 9069   0.627   6.357   6.283
 2724SOL     OW 9070   2.412   6.189   7.017
 2724SOL    HW1 9071   2.413   6.102   0.043
 2724SOL    HW2 9072   2.320   6.228   7.021
 2725SOL     OW 9073   4.937   4.711   4.386
 2725SOL    HW1 9074   4.854   4.714   4.440
 2725SOL    HW2 9075   5.017   4.714   4.446
 2726SOL     OW 9076   6.985   2.072   1.007
 2726SOL    HW1 9077   7.020   2.038   1.095
 2726SOL    HW2 9078   6.959   2.168   1.017
 2727SOL     OW 9079   0.902   5.226   3.505
 2727SOL    HW1 9080   0.946   5.156   3.449
 2727SOL    HW2 9081   0.843   5.283   3.448
 2728SOL     OW 9082   4.088   6.258   5.518
 2728SOL    HW1 9083   3.995   6.221   5.521
 2728SOL    HW2 9084   4.141   6.210   5.449
 2729SOL     OW 9085   0.049   6.360   0.499
 2729SOL    HW1 9086   0.127   6.403   0.454
 2729SOL    HW2 9087   0.035   6.269   0.461
 2730SOL     OW 9088   2.117   5.730   1.566
 2730SOL    HW1 9089   2.165   5.681   1.494
 2730SOL    HW2 9090   2.152   5.701   1.655
 2731SOL     OW 9091   3.003   3.569   3.036
 2731SOL    HW1 9092   2.939   3.591   3.109
 2731SOL    HW2 9093   3.006   3.644   2.970
 2732SOL     OW 9094   5.374   2.358   2.023
 2732SOL    HW1 9095   5.368   2.345   2.122
 2732SOL    HW2 9096   5.470   2.368   1.997
 2733SOL     OW 9097   6.382   1.915   4.510
 2733SOL    HW1 9098   6.443   1.930   4.587
 2733SOL    HW2 9099   6.418   1.962   4.429
 2734SOL     OW 9100   3.354   5.489   0.713
 2734SOL    HW1 9101   3.449   5.520   0.720
 2734SOL    HW2 9102   3.332   5.471   0.617
 2735SOL     OW 9103   1.157   3.703   1.421
 2735SOL    HW1 9104   1.230   3.741   1.478
 2735SOL    HW2 9105   1.143   3.607   1.443
 2736SOL     OW 9106   5.382   6.449   4.993
 2736SOL    HW1 9107   5.374   6.436   5.092
 2736SOL    HW2 9108   5.476   6.473   4.970
 2737SOL     OW 9109   2.502   4.033   5.583
 2737SOL    HW1 9110   2.573   3.962   5.585
 2737SOL    HW2 9111   2.504   4.085   5.668
 2738SOL     OW 9112   5.021   6.510   1.856
 2738SOL    HW1 9113   5.019   6.471   1.764
 2738SOL    HW2 9114   5.090   6.582   1.860
 2739SOL     OW 9115   1.171   4.580   1.108
 2739SOL    HW1 9116   1.078   4.547   1.127
 2739SOL    HW2 9117   1.228   4.503   1.078
 2740SOL     OW 9118   6.940   4.014   2.049
 2740SOL    HW1 9119   6.863   4.016   1.986
 2740SOL    HW2 9120   7.022   3.980   2.002
 2741SOL     OW 9121   6.197   0.858   4.932
 2741SOL    HW1 9122   6.183   0.807   5.017
 2741SOL    HW2 9123   6.239   0.946   4.953
 2742SOL     OW 9124   2.083   4.950   0.356
 2742SOL    HW1 9125   2.125   4.948   0.447
 2742SOL    HW2 9126   2.048   4.859   0.334
 2743SOL     OW 9127   6.374   4.780   2.319
 2743SOL    HW1 9128   6.353   4.696   2.268
 2743SOL    HW2 9129   6.454   4.824   2.277
 2744SOL     OW 9130   4.108   2.059   0.374
 2744SOL    HW1 9131   4.009   2.066   0.387
 2744SOL    HW2 9132   4.155   2.071   0.462
 2745SOL     OW 9133   6.699   0.389   5.241
 2745SOL    HW1 9134   6.786   0.438   5.236
 2745SOL    HW2 9135   6.663   0.376   5.149
 2746SOL     OW 9136   1.538   2.015   4.905
 2746SOL    HW1 9137   1.536   2.082   4.831
 2746SOL    HW2 9138   1.465   1.948   4.892
 2747SOL     OW 9139   5.487   4.298   6.665
 2747SOL    HW1 9140   5.586   4.309   6.675
 2747SOL    HW2 9141   5.451   4.370   6.606
 2748SOL     OW 9142   4.955   1.356   1.970
 2748SOL    HW1 9143   5.028   1.424   1.965
 2748SOL    HW2 9144   4.980   1.284   2.034
 2749SOL     OW 9145   0.302   4.651   1.565
 2749SOL    HW1 9146   0.254   4.647   1.653
 2749SOL    HW2 9147   0.309   4.745   1.534
 2750SOL     OW 9148   1.004   4.395   1.412
 2750SOL    HW1 9149   0.969   4.424   1.323
 2750SOL    HW2 9150   0.946   4.323   1.450
 2751SOL     OW 9151   0.983   3.796   1.743
 2751SOL    HW1 9152   0.953   3.708   1.780
 2751SOL    HW2 9153   1.069   3.823   1.787
 2752SOL     OW 9154   3.788   5.202   5.459
 2752SOL    HW1 9155   3.883   5.200   5.427
 2752SOL    HW2 9156   3.753   5.109   5.468
 2753SOL     OW 9157   0.539   6.607   5.222
 2753SOL    HW1 9158   0.511   6.565   5.308
 2753SOL    HW2 9159   0.472   6.584   5.151
 2754SOL     OW 9160   0.776   0.654   1.851
 2754SOL    HW1 9161   0.847   0.584   1.844
 2754SOL    HW2 9162   0.695   0.614   1.894
 2755SOL     OW 9163   2.094   0.069   3.086
 2755SOL    HW1 9164   2.181   0.099   3.125
 2755SOL    HW2 9165   2.063   0.137   3.019
 2756SOL     OW 9166   5.796   5.607   0.052
 2756SOL    HW1 9167   5.856   5.527   0.062
 2756SOL    HW2 9168   5.747   5.600   6.988
 2757SOL     OW 9169   2.383   0.232   6.684
 2757SOL    HW1 9170   2.402   0.318   6.636
 2757SOL    HW2 9171   2.432   0.230   6.770
 2758SOL     OW 9172   3.822   6.576   4.059
 2758SOL    HW1 9173   3.742   6.534   4.016
 2758SOL    HW2 9174   3.802   6.595   4.155
 2759SOL     OW 9175   5.299   0.275   5.916
 2759SOL    HW1 9176   5.289   0.192   5.861
 2759SOL    HW2 9177   5.211   0.299   5.957
 2760SOL     OW 9178   0.312   6.003   1.821
 2760SOL    HW1 9179   0.377   6.039   1.888
 2760SOL    HW2 9180   0.341   5.912   1.792
 2761SOL     OW 9181   1.846   5.436   4.884
 2761SOL    HW1 9182   1.881   5.344   4.865
 2761SOL    HW2 9183   1.798   5.435   4.972
 2762SOL     OW 9184   1.247   1.246   4.969
 2762SOL    HW1 9185   1.203   1.328   5.006
 2762SOL    HW2 9186   1.325   1.273   4.913
 2763SOL     OW 9187   5.013   1.588   3.456
 2763SOL    HW1 9188   5.020   1.685   3.431
 2763SOL    HW2 9189   5.040   1.532   3.378
 2764SOL     OW 9190   5.592   0.637   1.117
 2764SOL    HW1 9191   5.618   0.681   1.031
 2764SOL    HW2 9192   5.513   0.577   1.101
 2765SOL     OW 9193   6.220   0.354   0.685
 2765SOL    HW1 9194   6.148   0.424   0.678
 2765SOL    HW2 9195   6.193   0.274   0.632
 2766SOL     OW 9196   4.950   2.567   1.231
 2766SOL    HW1 9197   4.935   2.505   1.154
 2766SOL    HW2 9198   4.862   2.591   1.273
 2767SOL     OW 9199   7.006   5.566   0.109
 2767SOL    HW1 9200   6.999   5.545   0.012
 2767SOL    HW2 9201   0.078   5.555   0.139
 2768SOL     OW 9202   4.167   0.488   1.135
 2768SOL    HW1 9203   4.201   0.566   1.187
 2768SOL    HW2 9204   4.183   0.404   1.186
 2769SOL     OW 9205   2.292   4.824   4.403
 2769SOL    HW1 9206   2.217   4.880   4.369
 2769SOL    HW2 9207   2.283   4.813   4.502
 2770SOL     OW 9208   4.606   6.351   6.169
 2770SOL    HW1 9209   4.529   6.297   6.136
 2770SOL    HW2 9210   4.639   6.313   6.255
 2771SOL     OW 9211   6.760   1.045   4.001
 2771SOL    HW1 9212   6.811   0.978   3.949
 2771SOL    HW2 9213   6.822   1.098   4.059
 2772SOL     OW 9214   4.209   1.558   0.549
 2772SOL    HW1 9215   4.296   1.578   0.505
 2772SOL    HW2 9216   4.219   1.474   0.604
 2773SOL     OW 9217   6.362   1.728   5.153
 2773SOL    HW1 9218   6.310   1.750   5.235
 2773SOL    HW2 9219   6.373   1.810   5.098
 2774SOL     OW 9220   5.635   3.311   2.675
 2774SOL    HW1 9221   5.537   3.315   2.693
 2774SOL    HW2 9222   5.684   3.362   2.746
 2775SOL     OW 9223   6.541   4.964   5.820
 2775SOL    HW1 9224   6.640   4.976   5.819
 2775SOL    HW2 9225   6.509   4.965   5.915
 2776SOL     OW 9226   4.423   4.714   5.736
 2776SOL    HW1 9227   4.338   4.723   5.683
 2776SOL    HW2 9228   4.485   4.651   5.688
 2777SOL     OW 9229   2.892   1.600   1.983
 2777SOL    HW1 9230   2.799   1.587   2.015
 2777SOL    HW2 9231   2.927   1.688   2.016
 2778SOL     OW 9232   1.923   0.097   5.363
 2778SOL    HW1 9233   1.909   0.185   5.409
 2778SOL    HW2 9234   1.837   0.066   5.322
 2779SOL     OW 9235   4.629   6.586   1.493
 2779SOL    HW1 9236   4.590   6.525   1.424
 2779SOL    HW2 9237   4.692   6.650   1.448
 2780SOL     OW 9238   6.347   6.758   0.019
 2780SOL    HW1 9239   6.432   6.749   6.990
 2780SOL    HW2 9240   6.313   6.852   0.010
 2781SOL     OW 9241   5.593   6.529   1.732
 2781SOL    HW1 9242   5.673   6.478   1.764
 2781SOL    HW2 9243   5.604   6.553   1.636
 2782SOL     OW 9244   4.714   1.658   6.240
 2782SOL    HW1 9245   4.762   1.606   6.311
 2782SOL    HW2 9246   4.703   1.600   6.159
 2783SOL     OW 9247   5.374   4.197   3.534
 2783SOL    HW1 9248   5.439   4.136   3.488
 2783SOL    HW2 9249   5.302   4.223   3.469
 2784SOL     OW 9250   3.194   1.767   2.380
 2784SOL    HW1 9251   3.271   1.829   2.367
 2784SOL    HW2 9252   3.110   1.811   2.346
 2785SOL     OW 9253   5.193   1.938   0.502
 2785SOL    HW1 9254   5.185   2.000   0.424
 2785SOL    HW2 9255   5.181   1.844   0.472
 2786SOL     OW 9256   4.882   0.177   2.388
 2786SOL    HW1 9257   4.841   0.235   2.457
 2786SOL    HW2 9258   4.878   0.082   2.417
 2787SOL     OW 9259   4.644   1.159   6.099
 2787SOL    HW1 9260   4.721   1.201   6.147
 2787SOL    HW2 9261   4.678   1.092   6.034
 2788SOL     OW 9262   2.082   5.451   5.987
 2788SOL    HW1 9263   1.983   5.466   5.985
 2788SOL    HW2 9264   2.110   5.402   5.904
 2789SOL     OW 9265   1.539   2.613   3.642
 2789SOL    HW1 9266   1.495   2.664   3.569
 2789SOL    HW2 9267   1.608   2.670   3.686
 2790SOL     OW 9268   3.343   5.437   2.304
 2790SOL    HW1 9269   3.421   5.455   2.245
 2790SOL    HW2 9270   3.374   5.395   2.389
 2791SOL     OW 9271   0.534   2.898   3.828
 2791SOL    HW1 9272   0.510   2.995   3.829
 2791SOL    HW2 9273   0.478   2.850   3.896
 2792SOL     OW 9274   1.601   6.835   3.825
 2792SOL    HW1 9275   1.541   6.887   3.764
 2792SOL    HW2 9276   1.615   6.744   3.787
 2793SOL     OW 9277   5.928   4.168   1.911
 2793SOL    HW1 9278   5.859   4.221   1.960
 2793SOL    HW2 9279   5.888   4.133   1.826
 2794SOL     OW 9280   0.081   2.636   6.618
 2794SOL    HW1 9281   0.105   2.644   6.715
 2794SOL    HW2 9282   7.019   2.584   6.608
 2795SOL     OW 9283   1.424   3.291   0.466
 2795SOL    HW1 9284   1.354   3.220   0.476
 2795SOL    HW2 9285   1.401   3.369   0.524
 2796SOL     OW 9286   6.872   6.136   3.277
 2796SOL    HW1 9287   6.869   6.152   3.376
 2796SOL    HW2 9288   6.967   6.144   3.245
 2797SOL     OW 9289   5.185   5.417   4.377
 2797SOL    HW1 9290   5.122   5.441   4.451
 2797SOL    HW2 9291   5.134   5.402   4.293
 2798SOL     OW 9292   0.606   5.517   1.768
 2798SOL    HW1 9293   0.536   5.503   1.837
 2798SOL    HW2 9294   0.696   5.503   1.809
 2799SOL     OW 9295   6.023   5.190   6.434
 2799SOL    HW1 9296   6.111   5.164   6.393
 2799SOL    HW2 9297   6.010   5.289   6.424
 2800SOL     OW 9298   5.013   6.176   0.042
 2800SOL    HW1 9299   4.925   6.174   0.090
 2800SOL    HW2 9300   5.042   6.270   0.030
 2801SOL     OW 9301   6.527   5.470   6.377
 2801SOL    HW1 9302   6.615   5.517   6.379
 2801SOL    HW2 9303   6.453   5.537   6.378
 2802SOL     OW 9304   4.834   0.791   5.230
 2802SOL    HW1 9305   4.818   0.869   5.291
 2802SOL    HW2 9306   4.824   0.820   5.135
 2803SOL     OW 9307   4.066   5.432   6.651
 2803SOL    HW1 9308   4.009   5.460   6.728
 2803SOL    HW2 9309   4.127   5.358   6.680
 2804SOL     OW 9310   0.400   5.014   5.332
 2804SOL    HW1 9311   0.352   4.991   5.247
 2804SOL    HW2 9312   0.335   5.013   5.408
 2805SOL     OW 9313   6.095   2.833   1.971
 2805SOL    HW1 9314   6.077   2.827   2.069
 2805SOL    HW2 9315   6.084   2.927   1.940
 2806SOL     OW 9316   0.174   4.530   6.213
 2806SOL    HW1 9317   0.253   4.508   6.155
 2806SOL    HW2 9318   0.130   4.446   6.243
 2807SOL     OW 9319   4.270   5.998   4.506
 2807SOL    HW1 9320   4.191   5.951   4.546
 2807SOL    HW2 9321   4.350   5.938   4.510
 2808SOL     OW 9322   6.077   4.788   1.677
 2808SOL    HW1 9323   6.163   4.811   1.631
 2808SOL    HW2 9324   6.009   4.762   1.609
 2809SOL     OW 9325   5.689   2.750   1.058
 2809SOL    HW1 9326   5.760   2.769   1.126
 2809SOL    HW2 9327   5.655   2.836   1.020
 2810SOL     OW 9328   3.329   4.913   4.038
 2810SOL    HW1 9329   3.261   4.949   4.103
 2810SOL    HW2 9330   3.419   4.911   4.081
 2811SOL     OW 9331   0.903   2.298   3.393
 2811SOL    HW1 9332   0.852   2.282   3.477
 2811SOL    HW2 9333   0.970   2.371   3.406
 2812SOL     OW 9334   5.374   3.853   6.784
 2812SOL    HW1 9335   5.348   3.772   6.731
 2812SOL    HW2 9336   5.464   3.886   6.753
 2813SOL     OW 9337   0.502   0.344   6.796
 2813SOL    HW1 9338   0.520   0.298   6.709
 2813SOL    HW2 9339   0.498   0.443   6.782
 2814SOL     OW 9340   4.171   3.758   5.533
 2814SOL    HW1 9341   4.224   3.706   5.600
 2814SOL    HW2 9342   4.215   3.752   5.444
 2815SOL     OW 9343   6.175   0.175   5.569
 2815SOL    HW1 9344   6.242   0.222   5.513
 2815SOL    HW2 9345   6.188   0.076   5.560
 2816SOL     OW 9346   6.540   5.341   3.429
 2816SOL    HW1 9347   6.451   5.296   3.427
 2816SOL    HW2 9348   6.587   5.319   3.515
 2817SOL     OW 9349   2.806   6.517   2.089
 2817SOL    HW1 9350   2.836   6.484   2.000
 2817SOL    HW2 9351   2.825   6.615   2.097
 2818SOL     OW 9352   0.657   0.281   1.636
 2818SOL    HW1 9353   0.730   0.346   1.612
 2818SOL    HW2 9354   0.596   0.323   1.703
 2819SOL     OW 9355   0.711   0.807   1.610
 2819SOL    HW1 9356   0.656   0.744   1.554
 2819SOL    HW2 9357   0.740   0.759   1.693
 2820SOL     OW 9358   0.715   2.845   2.887
 2820SOL    HW1 9359   0.617   2.859   2.868
 2820SOL    HW2 9360   0.725   2.777   2.960
 2821SOL     OW 9361   4.296   3.528   6.373
 2821SOL    HW1 9362   4.358   3.586   6.426
 2821SOL    HW2 9363   4.291   3.438   6.416
 2822SOL     OW 9364   3.875   2.019   0.139
 2822SOL    HW1 9365   3.857   2.031   0.237
 2822SOL    HW2 9366   3.798   1.973   0.096
 2823SOL     OW 9367   4.154   0.439   0.549
 2823SOL    HW1 9368   4.063   0.478   0.536
 2823SOL    HW2 9369   4.151   0.369   0.620
 2824SOL     OW 9370   2.119   1.468   3.409
 2824SOL    HW1 9371   2.188   1.421   3.464
 2824SOL    HW2 9372   2.028   1.439   3.436
 2825SOL     OW 9373   5.857   0.403   6.503
 2825SOL    HW1 9374   5.785   0.428   6.568
 2825SOL    HW2 9375   5.849   0.306   6.481
 2826SOL     OW 9376   4.535   0.880   6.657
 2826SOL    HW1 9377   4.541   0.848   6.563
 2826SOL    HW2 9378   4.626   0.902   6.691
 2827SOL     OW 9379   0.410   1.202   5.552
 2827SOL    HW1 9380   0.478   1.132   5.572
 2827SOL    HW2 9381   0.363   1.228   5.637
 2828SOL     OW 9382   2.190   1.010   0.309
 2828SOL    HW1 9383   2.116   0.950   0.280
 2828SOL    HW2 9384   2.171   1.104   0.279
 2829SOL     OW 9385   3.502   3.397   5.054
 2829SOL    HW1 9386   3.433   3.469   5.058
 2829SOL    HW2 9387   3.568   3.419   4.981
 2830SOL     OW 9388   1.745   2.868   5.692
 2830SOL    HW1 9389   1.741   2.820   5.780
 2830SOL    HW2 9390   1.835   2.852   5.650
 2831SOL     OW 9391   0.889   4.516   3.856
 2831SOL    HW1 9392   0.934   4.437   3.897
 2831SOL    HW2 9393   0.934   4.600   3.887
 2832SOL     OW 9394   1.078   3.296   2.164
 2832SOL    HW1 9395   1.057   3.387   2.128
 2832SOL    HW2 9396   1.014   3.230   2.127
 2833SOL     OW 9397   3.344   2.020   2.437
 2833SOL    HW1 9398   3.412   2.060   2.376
 2833SOL    HW2 9399   3.257   2.067   2.426
 2834SOL     OW 9400   3.962   5.826   6.138
 2834SOL    HW1 9401   3.988   5.867   6.225
 2834SOL    HW2 9402   4.026   5.751   6.116
 2835SOL     OW 9403   0.662   6.615   2.159
 2835SOL    HW1 9404   0.617   6.560   2.229
 2835SOL    HW2 9405   0.604   6.623   2.079
 2836SOL     OW 9406   6.947   0.154   2.329
 2836SOL    HW1 9407   6.848   0.156   2.346
 2836SOL    HW2 9408   6.979   0.059   2.331
 2837SOL     OW 9409   4.909   5.077   2.442
 2837SOL    HW1 9410   4.907   5.004   2.374
 2837SOL    HW2 9411   4.949   5.159   2.402
 2838SOL     OW 9412   3.045   4.040   0.919
 2838SOL    HW1 9413   3.058   4.065   1.015
 2838SOL    HW2 9414   2.972   3.971   0.913
 2839SOL     OW 9415   6.700   2.474   3.274
 2839SOL    HW1 9416   6.714   2.567   3.309
 2839SOL    HW2 9417   6.616   2.470   3.220
 2840SOL     OW 9418   1.169   0.325   3.174
 2840SOL    HW1 9419   1.243   0.270   3.136
 2840SOL    HW2 9420   1.135   0.283   3.258
 2841SOL     OW 9421   0.434   0.946   6.290
 2841SOL    HW1 9422   0.387   1.006   6.225
 2841SOL    HW2 9423   0.510   0.900   6.243
 2842SOL     OW 9424   0.153   4.044   4.058
 2842SOL    HW1 9425   0.105   3.962   4.090
 2842SOL    HW2 9426   0.122   4.123   4.111
 2843SOL     OW 9427   2.292   2.584   2.612
 2843SOL    HW1 9428   2.249   2.494   2.608
 2843SOL    HW2 9429   2.274   2.633   2.527
 2844SOL     OW 9430   6.742   4.897   0.217
 2844SOL    HW1 9431   6.807   4.829   0.184
 2844SOL    HW2 9432   6.769   4.987   0.182
 2845SOL     OW 9433   6.084   2.793   1.575
 2845SOL    HW1 9434   6.066   2.882   1.533
 2845SOL    HW2 9435   6.168   2.798   1.628
 2846SOL     OW 9436   4.026   1.384   0.039
 2846SOL    HW1 9437   4.009   1.433   6.976
 2846SOL    HW2 9438   4.046   1.449   0.112
 2847SOL     OW 9439   5.049   3.600   3.502
 2847SOL    HW1 9440   5.130   3.575   3.556
 2847SOL    HW2 9441   5.064   3.690   3.460
 2848SOL     OW 9442   1.790   2.535   5.070
 2848SOL    HW1 9443   1.889   2.537   5.053
 2848SOL    HW2 9444   1.772   2.566   5.163
 2849SOL     OW 9445   3.930   6.694   0.654
 2849SOL    HW1 9446   4.018   6.671   0.612
 2849SOL    HW2 9447   3.924   6.654   0.745
 2850SOL     OW 9448   1.440   0.198   2.664
 2850SOL    HW1 9449   1.399   0.277   2.618
 2850SOL    HW2 9450   1.419   0.201   2.761
 2851SOL     OW 9451   6.026   1.259   5.895
 2851SOL    HW1 9452   6.032   1.218   5.804
 2851SOL    HW2 9453   5.946   1.224   5.942
 2852SOL     OW 9454   6.232   3.741   6.760
 2852SOL    HW1 9455   6.160   3.753   6.828
 2852SOL    HW2 9456   6.308   3.689   6.800
 2853SOL     OW 9457   1.447   1.050   6.373
 2853SOL    HW1 9458   1.366   1.023   6.320
 2853SOL    HW2 9459   1.435   1.024   6.468
 2854SOL     OW 9460   4.174   1.284   4.919
 2854SOL    HW1 9461   4.108   1.209   4.911
 2854SOL    HW2 9462   4.202   1.294   5.015
 2855SOL     OW 9463   2.200   1.289   6.200
 2855SOL    HW1 9464   2.286   1.321   6.238
 2855SOL    HW2 9465   2.152   1.366   6.156
 2856SOL     OW 9466   0.757   2.847   5.423
 2856SOL    HW1 9467   0.734   2.750   5.431
 2856SOL    HW2 9468   0.821   2.872   5.496
 2857SOL     OW 9469   2.288   2.323   2.272
 2857SOL    HW1 9470   2.215   2.391   2.268
 2857SOL    HW2 9471   2.370   2.364   2.313
 2858SOL     OW 9472   4.712   4.287   2.246
 2858SOL    HW1 9473   4.634   4.272   2.185
 2858SOL    HW2 9474   4.782   4.340   2.197
 2859SOL     OW 9475   5.842   0.746   6.802
 2859SOL    HW1 9476   5.857   0.844   6.786
 2859SOL    HW2 9477   5.902   0.715   6.876
 2860SOL     OW 9478   2.920   1.352   1.565
 2860SOL    HW1 9479   2.853   1.307   1.624
 2860SOL    HW2 9480   2.877   1.377   1.479
 2861SOL     OW 9481   4.098   4.376   5.973
 2861SOL    HW1 9482   4.045   4.355   5.891
 2861SOL    HW2 9483   4.081   4.471   6.000
 2862SOL     OW 9484   5.700   1.693   2.704
 2862SOL    HW1 9485   5.683   1.596   2.690
 2862SOL    HW2 9486   5.670   1.744   2.623
 2863SOL     OW 9487   4.922   1.129   6.761
 2863SOL    HW1 9488   5.009   1.137   6.714
 2863SOL    HW2 9489   4.869   1.054   6.721
 2864SOL     OW 9490   4.321   1.608   2.054
 2864SOL    HW1 9491   4.331   1.683   2.119
 2864SOL    HW2 9492   4.302   1.523   2.104
 2865SOL     OW 9493   3.925   5.141   6.197
 2865SOL    HW1 9494   3.967   5.205   6.263
 2865SOL    HW2 9495   3.880   5.067   6.247
 2866SOL     OW 9496   6.743   5.627   6.443
 2866SOL    HW1 9497   6.756   5.699   6.375
 2866SOL    HW2 9498   6.686   5.662   6.518
 2867SOL     OW 9499   0.026   5.971   2.925
 2867SOL    HW1 9500   0.112   5.997   2.969
 2867SOL    HW2 9501   0.009   6.030   2.846
 2868SOL     OW 9502   0.977   1.060   5.346
 2868SOL    HW1 9503   0.990   1.084   5.250
 2868SOL    HW2 9504   0.893   1.102   5.380
 2869SOL     OW 9505   6.821   1.503   3.655
 2869SOL    HW1 9506   6.757   1.562   3.704
 2869SOL    HW2 9507   6.894   1.559   3.615
 2870SOL     OW 9508   0.500   1.177   4.996
 2870SOL    HW1 9509   0.527   1.272   5.011
 2870SOL    HW2 9510   0.488   1.161   4.898
 2871SOL     OW 9511   0.167   1.970   6.554
 2871SOL    HW1 9512   0.228   1.990   6.630
 2871SOL    HW2 9513   0.079   1.936   6.588
 2872SOL     OW 9514   2.607   2.145   2.310
 2872SOL    HW1 9515   2.639   2.126   2.403
 2872SOL    HW2 9516   2.554   2.229   2.309
 2873SOL     OW 9517   0.230   5.551   2.875
 2873SOL    HW1 9518   0.140   5.594   2.866
 2873SOL    HW2 9519   0.235   5.500   2.962
 2874SOL     OW 9520   4.499   6.504   3.101
 2874SOL    HW1 9521   4.530   6.597   3.118
 2874SOL    HW2 9522   4.577   6.441   3.108
 2875SOL     OW 9523   4.677   0.165   1.003
 2875SOL    HW1 9524   4.683   0.071   0.970
 2875SOL    HW2 9525   4.624   0.166   1.089
 2876SOL     OW 9526   1.693   0.242   2.482
 2876SOL    HW1 9527   1.617   0.259   2.544
 2876SOL    HW2 9528   1.678   0.292   2.397
 2877SOL     OW 9529   2.965   2.489   5.313
 2877SOL    HW1 9530   3.063   2.471   5.322
 2877SOL    HW2 9531   2.933   2.457   5.224
 2878SOL     OW 9532   3.323   4.767   5.207
 2878SOL    HW1 9533   3.236   4.746   5.253
 2878SOL    HW2 9534   3.399   4.747   5.269
 2879SOL     OW 9535   5.425   5.089   0.141
 2879SOL    HW1 9536   5.488   5.104   0.064
 2879SOL    HW2 9537   5.366   5.011   0.121
 2880SOL     OW 9538   6.991   0.982   1.692
 2880SOL    HW1 9539   7.003   1.002   1.789
 2880SOL    HW2 9540   6.900   0.943   1.676
 2881SOL     OW 9541   5.508   6.065   6.514
 2881SOL    HW1 9542   5.468   6.115   6.437
 2881SOL    HW2 9543   5.435   6.019   6.565
 2882SOL     OW 9544   0.426   5.361   2.540
 2882SOL    HW1 9545   0.341   5.310   2.552
 2882SOL    HW2 9546   0.441   5.420   2.619
 2883SOL     OW 9547   5.297   0.243   3.058
 2883SOL    HW1 9548   5.267   0.239   2.963
 2883SOL    HW2 9549   5.375   0.182   3.072
 2884SOL     OW 9550   0.933   0.039   2.296
 2884SOL    HW1 9551   0.857   0.093   2.332
 2884SOL    HW2 9552   0.906   6.965   2.293
 2885SOL     OW 9553   1.017   3.652   3.599
 2885SOL    HW1 9554   0.940   3.620   3.543
 2885SOL    HW2 9555   1.058   3.732   3.557
 2886SOL     OW 9556   1.512   3.880   5.920
 2886SOL    HW1 9557   1.585   3.821   5.955
 2886SOL    HW2 9558   1.527   3.897   5.822
 2887SOL     OW 9559   0.591   0.391   5.058
 2887SOL    HW1 9560   0.602   0.472   5.116
 2887SOL    HW2 9561   0.502   0.350   5.075
 2888SOL     OW 9562   0.457   4.002   0.117
 2888SOL    HW1 9563   0.369   4.009   0.069
 2888SOL    HW2 9564   0.517   3.938   0.069
 2889SOL     OW 9565   2.587   6.049   2.687
 2889SOL    HW1 9566   2.583   5.949   2.682
 2889SOL    HW2 9567   2.503   6.084   2.729
 2890SOL     OW 9568   2.212   6.122   0.604
 2890SOL    HW1 9569   2.213   6.220   0.584
 2890SOL    HW2 9570   2.227   6.071   0.520
 2891SOL     OW 9571   1.014   4.804   3.471
 2891SOL    HW1 9572   0.935   4.866   3.472
 2891SOL    HW2 9573   0.990   4.719   3.518
 2892SOL     OW 9574   5.653   3.402   0.219
 2892SOL    HW1 9575   5.583   3.331   0.209
 2892SOL    HW2 9576   5.731   3.381   0.160
 2893SOL     OW 9577   6.914   6.024   4.773
 2893SOL    HW1 9578   6.939   6.077   4.854
 2893SOL    HW2 9579   6.996   6.002   4.721
 2894SOL     OW 9580   1.295   3.647   2.376
 2894SOL    HW1 9581   1.361   3.576   2.405
 2894SOL    HW2 9582   1.331   3.694   2.296
 2895SOL     OW 9583   5.116   2.663   5.165
 2895SOL    HW1 9584   5.047   2.733   5.148
 2895SOL    HW2 9585   5.198   2.685   5.112
 2896SOL     OW 9586   4.693   5.371   5.739
 2896SOL    HW1 9587   4.711   5.283   5.696
 2896SOL    HW2 9588   4.735   5.373   5.830
 2897SOL     OW 9589   4.376   5.070   3.092
 2897SOL    HW1 9590   4.356   5.121   3.008
 2897SOL    HW2 9591   4.322   4.986   3.094
 2898SOL     OW 9592   4.546   4.881   4.495
 2898SOL    HW1 9593   4.611   4.837   4.558
 2898SOL    HW2 9594   4.454   4.851   4.517
 2899SOL     OW 9595   1.096   1.809   6.835
 2899SOL    HW1 9596   1.182   1.794   6.786
 2899SOL    HW2 9597   1.028   1.847   6.772
 2900SOL     OW 9598   2.139   3.218   5.872
 2900SOL    HW1 9599   2.200   3.282   5.827
 2900SOL    HW2 9600   2.162   3.124   5.845
 2901SOL     OW 9601   2.799   5.283   3.437
 2901SOL    HW1 9602   2.867   5.355   3.448
 2901SOL    HW2 9603   2.812   5.214   3.509
 2902SOL     OW 9604   5.373   6.517   2.785
 2902SOL    HW1 9605   5.356   6.418   2.779
 2902SOL    HW2 9606   5.342   6.561   2.701
 2903SOL     OW 9607   3.089   0.351   0.566
 2903SOL    HW1 9608   3.152   0.419   0.603
 2903SOL    HW2 9609   3.049   0.299   0.641
 2904SOL     OW 9610   2.333   4.287   4.290
 2904SOL    HW1 9611   2.365   4.290   4.384
 2904SOL    HW2 9612   2.275   4.206   4.278
 2905SOL     OW 9613   1.659   2.681   4.632
 2905SOL    HW1 9614   1.715   2.671   4.550
 2905SOL    HW2 9615   1.679   2.606   4.696
 2906SOL     OW 9616   4.062   5.661   1.746
 2906SOL    HW1 9617   3.970   5.698   1.763
 2906SOL    HW2 9618   4.064   5.619   1.656
 2907SOL     OW 9619   0.900   1.532   3.444
 2907SOL    HW1 9620   0.945   1.513   3.532
 2907SOL    HW2 9621   0.967   1.570   3.380
 2908SOL     OW 9622   4.878   6.108   3.493
 2908SOL    HW1 9623   4.968   6.098   3.535
 2908SOL    HW2 9624   4.807   6.105   3.564
 2909SOL     OW 9625   1.563   5.297   3.804
 2909SOL    HW1 9626   1.503   5.286   3.724
 2909SOL    HW2 9627   1.511   5.340   3.878
 2910SOL     OW 9628   5.074   0.456   4.623
 2910SOL    HW1 9629   5.146   0.419   4.564
 2910SOL    HW2 9630   5.090   0.427   4.717
 2911SOL     OW 9631   0.693   5.347   3.356
 2911SOL    HW1 9632   0.665   5.410   3.429
 2911SOL    HW2 9633   0.773   5.385   3.310
 2912SOL     OW 9634   4.703   0.542   6.723
 2912SOL    HW1 9635   4.737   0.484   6.797
 2912SOL    HW2 9636   4.729   0.636   6.741
 2913SOL     OW 9637   2.935   4.846   2.844
 2913SOL    HW1 9638   2.880   4.764   2.861
 2913SOL    HW2 9639   2.877   4.927   2.849
 2914SOL     OW 9640   6.452   6.664   6.743
 2914SOL    HW1 9641   6.496   6.721   6.673
 2914SOL    HW2 9642   6.452   6.569   6.713
 2915SOL     OW 9643   4.917   1.749   4.123
 2915SOL    HW1 9644   5.015   1.764   4.135
 2915SOL    HW2 9645   4.883   1.809   4.050
 2916SOL     OW 9646   1.143   6.646   0.632
 2916SOL    HW1 9647   1.148   6.547   0.647
 2916SOL    HW2 9648   1.201   6.671   0.554
 2917SOL     OW 9649   2.917   6.945   3.430
 2917SOL    HW1 9650   2.818   6.936   3.423
 2917SOL    HW2 9651   2.955   6.974   3.342
 2918SOL     OW 9652   6.354   4.894   5.059
 2918SOL    HW1 9653   6.292   4.915   4.983
 2918SOL    HW2 9654   6.324   4.810   5.104
 2919SOL     OW 9655   6.799   0.977   2.336
 2919SOL    HW1 9656   6.802   1.033   2.419
 2919SOL    HW2 9657   6.725   0.911   2.343
 2920SOL     OW 9658   2.736   1.699   1.643
 2920SOL    HW1 9659   2.807   1.752   1.690
 2920SOL    HW2 9660   2.693   1.756   1.573
 2921SOL     OW 9661   0.926   0.284   4.062
 2921SOL    HW1 9662   0.905   0.362   4.122
 2921SOL    HW2 9663   0.841   0.239   4.035
 2922SOL     OW 9664   4.830   1.066   0.409
 2922SOL    HW1 9665   4.833   1.031   0.315
 2922SOL    HW2 9666   4.749   1.032   0.455
 2923SOL     OW 9667   6.612   5.082   2.262
 2923SOL    HW1 9668   6.570   5.113   2.177
 2923SOL    HW2 9669   6.682   5.148   2.291
 2924SOL     OW 9670   6.689   2.390   5.622
 2924SOL    HW1 9671   6.619   2.412   5.553
 2924SOL    HW2 9672   6.769   2.448   5.607
 2925SOL     OW 9673   5.158   1.253   2.303
 2925SOL    HW1 9674   5.258   1.258   2.297
 2925SOL    HW2 9675   5.119   1.345   2.295
 2926SOL     OW 9676   0.202   2.124   4.196
 2926SOL    HW1 9677   0.181   2.084   4.285
 2926SOL    HW2 9678   0.235   2.053   4.134
 2927SOL     OW 9679   1.178   3.382   1.712
 2927SOL    HW1 9680   1.169   3.452   1.783
 2927SOL    HW2 9681   1.161   3.292   1.752
 2928SOL     OW 9682   6.888   1.599   6.217
 2928SOL    HW1 9683   6.981   1.603   6.254
 2928SOL    HW2 9684   6.839   1.523   6.260
 2929SOL     OW 9685   0.053   2.264   0.001
 2929SOL    HW1 9686   0.071   2.277   0.099
 2929SOL    HW2 9687   0.137   2.279   6.972
 2930SOL     OW 9688   4.142   0.647   4.827
 2930SOL    HW1 9689   4.198   0.730   4.820
 2930SOL    HW2 9690   4.046   0.673   4.840
 2931SOL     OW 9691   5.632   4.763   0.534
 2931SOL    HW1 9692   5.627   4.679   0.479
 2931SOL    HW2 9693   5.542   4.781   0.575
 2932SOL     OW 9694   1.076   6.005   1.675
 2932SOL    HW1 9695   0.982   5.994   1.645
 2932SOL    HW2 9696   1.112   6.093   1.642
 2933SOL     OW 9697   0.107   5.374   3.281
 2933SOL    HW1 9698   0.169   5.358   3.358
 2933SOL    HW2 9699   0.160   5.378   3.196
 2934SOL     OW 9700   4.578   1.050   0.097
 2934SOL    HW1 9701   4.520   0.988   0.044
 2934SOL    HW2 9702   4.671   1.014   0.099
 2935SOL     OW 9703   6.305   3.666   0.108
 2935SOL    HW1 9704   6.287   3.573   0.075
 2935SOL    HW2 9705   6.237   3.729   0.071
 2936SOL     OW 9706   3.974   6.420   1.229
 2936SOL    HW1 9707   3.952   6.517   1.218
 2936SOL    HW2 9708   3.992   6.380   1.139
 2937SOL     OW 9709   5.151   4.592   0.719
 2937SOL    HW1 9710   5.164   4.504   0.765
 2937SOL    HW2 9711   5.054   4.607   0.703
 2938SOL     OW 9712   5.182   4.654   6.616
 2938SOL    HW1 9713   5.216   4.720   6.549
 2938SOL    HW2 9714   5.214   4.562   6.592
 2939SOL     OW 9715   1.273   1.071   2.820
 2939SOL    HW1 9716   1.268   1.096   2.724
 2939SOL    HW2 9717   1.250   1.150   2.877
 2940SOL     OW 9718   5.128   4.991   6.331
 2940SOL    HW1 9719   5.047   4.945   6.292
 2940SOL    HW2 9720   5.193   5.010   6.258
 2941SOL     OW 9721   1.684   2.213   4.461
 2941SOL    HW1 9722   1.686   2.237   4.364
 2941SOL    HW2 9723   1.691   2.113   4.470
 2942SOL     OW 9724   2.815   2.701   0.436
 2942SOL    HW1 9725   2.811   2.727   0.339
 2942SOL    HW2 9726   2.852   2.608   0.444
 2943SOL     OW 9727   4.577   4.353   3.415
 2943SOL    HW1 9728   4.606   4.258   3.408
 2943SOL    HW2 9729   4.542   4.384   3.327
 2944SOL     OW 9730   2.831   6.084   4.308
 2944SOL    HW1 9731   2.891   6.094   4.387
 2944SOL    HW2 9732   2.847   5.995   4.265
 2945SOL     OW 9733   3.644   4.128   3.757
 2945SOL    HW1 9734   3.555   4.121   3.802
 2945SOL    HW2 9735   3.714   4.147   3.825
 2946SOL     OW 9736   1.070   5.061   6.140
 2946SOL    HW1 9737   0.971   5.059   6.123
 2946SOL    HW2 9738   1.095   4.985   6.200
 2947SOL     OW 9739   0.569   3.579   0.712
 2947SOL    HW1 9740   0.556   3.665   0.760
 2947SOL    HW2 9741   0.664   3.572   0.681
 2948SOL     OW 9742   0.679   4.140   5.777
 2948SOL    HW1 9743   0.735   4.199   5.835
 2948SOL    HW2 9744   0.727   4.121   5.692
 2949SOL     OW 9745   2.799   5.670   0.868
 2949SOL    HW1 9746   2.740   5.697   0.793
 2949SOL    HW2 9747   2.881   5.728   0.867
 2950SOL     OW 9748   5.101   4.065   4.288
 2950SOL    HW1 9749   5.109   4.108   4.377
 2950SOL    HW2 9750   5.191   4.064   4.243
 2951SOL     OW 9751   5.583   1.060   0.705
 2951SOL    HW1 9752   5.637   1.122   0.762
 2951SOL    HW2 9753   5.570   0.973   0.752
 2952SOL     OW 9754   0.928   4.974   5.402
 2952SOL    HW1 9755   0.987   4.893   5.404
 2952SOL    HW2 9756   0.855   4.960   5.336
 2953SOL     OW 9757   4.976   2.805   2.291
 2953SOL    HW1 9758   5.071   2.821   2.264
 2953SOL    HW2 9759   4.974   2.776   2.387
 2954SOL     OW 9760   0.964   5.561   1.650
 2954SOL    HW1 9761   0.974   5.496   1.725
 2954SOL    HW2 9762   1.049   5.563   1.597
 2955SOL     OW 9763   0.497   4.400   1.543
 2955SOL    HW1 9764   0.449   4.488   1.542
 2955SOL    HW2 9765   0.438   4.330   1.584
 2956SOL     OW 9766   5.332   6.232   3.380
 2956SOL    HW1 9767   5.350   6.222   3.478
 2956SOL    HW2 9768   5.414   6.268   3.335
 2957SOL     OW 9769   6.036   3.024   1.447
 2957SOL    HW1 9770   5.968   3.096   1.458
 2957SOL    HW2 9771   6.125   3.065   1.423
 2958SOL     OW 9772   2.381   5.250   4.181
 2958SOL    HW1 9773   2.452   5.210   4.239
 2958SOL    HW2 9774   2.307   5.286   4.238
 2959SOL     OW 9775   4.867   4.486   0.706
 2959SOL    HW1 9776   4.876   4.414   0.637
 2959SOL    HW2 9777   4.806   4.455   0.779
 2960SOL     OW 9778   3.056   0.421   6.650
 2960SOL    HW1 9779   2.968   0.451   6.685
 2960SOL    HW2 9780   3.064   0.446   6.553
 2961SOL     OW 9781   5.447   3.727   2.599
 2961SOL    HW1 9782   5.425   3.735   2.696
 2961SOL    HW2 9783   5.546   3.722   2.587
 2962SOL     OW 9784   4.963   0.335   3.189
 2962SOL    HW1 9785   4.876   0.365   3.227
 2962SOL    HW2 9786   5.034   0.344   3.259
 2963SOL     OW 9787   2.125   0.505   6.116
 2963SOL    HW1 9788   2.203   0.487   6.176
 2963SOL    HW2 9789   2.158   0.546   6.031
 2964SOL     OW 9790   0.752   0.476   3.072
 2964SOL    HW1 9791   0.667   0.434   3.042
 2964SOL    HW2 9792   0.825   0.455   3.007
 2965SOL     OW 9793   6.949   1.770   4.462
 2965SOL    HW1 9794   6.867   1.717   4.438
 2965SOL    HW2 9795   6.922   1.847   4.519
 2966SOL     OW 9796   5.511   6.008   3.844
 2966SOL    HW1 9797   5.580   5.975   3.779
 2966SOL    HW2 9798   5.420   5.984   3.810
 2967SOL     OW 9799   6.541   0.656   4.733
 2967SOL    HW1 9800   6.543   0.753   4.708
 2967SOL    HW2 9801   6.579   0.602   4.657
 2968SOL     OW 9802   1.255   2.910   6.586
 2968SOL    HW1 9803   1.336   2.950   6.629
 2968SOL    HW2 9804   1.187   2.982   6.569
 2969SOL     OW 9805   4.758   1.329   4.465
 2969SOL    HW1 9806   4.829   1.391   4.498
 2969SOL    HW2 9807   4.795   1.271   4.392
 2970SOL     OW 9808   1.909   4.721   6.124
 2970SOL    HW1 9809   1.857   4.662   6.061
 2970SOL    HW2 9810   1.861   4.808   6.134
 2971SOL     OW 9811   4.867   4.146   0.528
 2971SOL    HW1 9812   4.821   4.200   0.458
 2971SOL    HW2 9813   4.950   4.105   0.490
 2972SOL     OW 9814   6.106   4.550   6.565
 2972SOL    HW1 9815   6.183   4.493   6.593
 2972SOL    HW2 9816   6.111   4.638   6.612
 2973SOL     OW 9817   5.567   6.730   2.411
 2973SOL    HW1 9818   5.481   6.747   2.459
 2973SOL    HW2 9819   5.608   6.645   2.446
 2974SOL     OW 9820   0.912   4.578   2.603
 2974SOL    HW1 9821   1.006   4.559   2.630
 2974SOL    HW2 9822   0.911   4.628   2.516
 2975SOL     OW 9823   5.487   3.438   4.134
 2975SOL    HW1 9824   5.483   3.346   4.171
 2975SOL    HW2 9825   5.395   3.470   4.113
 2976SOL     OW 9826   4.410   2.254   3.303
 2976SOL    HW1 9827   4.363   2.309   3.234
 2976SOL    HW2 9828   4.489   2.209   3.262
 2977SOL     OW 9829   2.519   0.233   2.748
 2977SOL    HW1 9830   2.447   0.164   2.756
 2977SOL    HW2 9831   2.573   0.216   2.666
 2978SOL     OW 9832   5.012   4.354   0.284
 2978SOL    HW1 9833   4.926   4.308   0.303
 2978SOL    HW2 9834   5.017   4.439   0.336
 2979SOL     OW 9835   3.908   0.797   4.084
 2979SOL    HW1 9836   4.001   0.768   4.060
 2979SOL    HW2 9837   3.900   0.806   4.184
 2980SOL     OW 9838   1.083   5.726   4.235
 2980SOL    HW1 9839   1.177   5.712   4.265
 2980SOL    HW2 9840   1.020   5.685   4.301
 2981SOL     OW 9841   1.943   1.223   5.915
 2981SOL    HW1 9842   1.931   1.133   5.872
 2981SOL    HW2 9843   2.008   1.277   5.861
 2982SOL     OW 9844   4.043   4.860   2.878
 2982SOL    HW1 9845   3.965   4.823   2.928
 2982SOL    HW2 9846   4.063   4.802   2.799
 2983SOL     OW 9847   0.776   1.300   2.614
 2983SOL    HW1 9848   0.713   1.317   2.538
 2983SOL    HW2 9849   0.869   1.319   2.585
 2984SOL     OW 9850   5.558   5.683   1.128
 2984SOL    HW1 9851   5.616   5.756   1.092
 2984SOL    HW2 9852   5.538   5.617   1.055
 2985SOL     OW 9853   1.497   2.472   5.874
 2985SOL    HW1 9854   1.430   2.469   5.949
 2985SOL    HW2 9855   1.491   2.388   5.820
 2986SOL     OW 9856   3.141   4.126   4.643
 2986SOL    HW1 9857   3.075   4.161   4.709
 2986SOL    HW2 9858   3.233   4.131   4.682
 2987SOL     OW 9859   6.356   1.319   4.238
 2987SOL    HW1 9860   6.368   1.222   4.218
 2987SOL    HW2 9861   6.270   1.333   4.287
 2988SOL     OW 9862   1.369   6.009   3.131
 2988SOL    HW1 9863   1.363   6.016   3.231
 2988SOL    HW2 9864   1.280   5.983   3.093
 2989SOL     OW 9865   6.006   5.542   6.400
 2989SOL    HW1 9866   5.948   5.616   6.433
 2989SOL    HW2 9867   6.101   5.560   6.426
 2990SOL     OW 9868   3.679   1.932   4.715
 2990SOL    HW1 9869   3.681   1.832   4.718
 2990SOL    HW2 9870   3.617   1.967   4.785
 2991SOL     OW 9871   6.752   4.493   5.704
 2991SOL    HW1 9872   6.704   4.453   5.782
 2991SOL    HW2 9873   6.687   4.515   5.632
 2992SOL     OW 9874   2.805   5.876   4.656
 2992SOL    HW1 9875   2.867   5.944   4.618
 2992SOL    HW2 9876   2.715   5.883   4.613
 2993SOL     OW 9877   0.434   5.093   1.327
 2993SOL    HW1 9878   0.499   5.157   1.287
 2993SOL    HW2 9879   0.478   5.004   1.340
 2994SOL     OW 9880   4.750   6.393   0.045
 2994SOL    HW1 9881   4.658   6.380   0.083
 2994SOL    HW2 9882   4.818   6.380   0.116
 2995SOL     OW 9883   2.928   2.231   5.811
 2995SOL    HW1 9884   2.906   2.291   5.734
 2995SOL    HW2 9885   2.843   2.196   5.851
 2996SOL     OW 9886   1.504   0.981   3.481
 2996SOL    HW1 9887   1.413   0.944   3.462
 2996SOL    HW2 9888   1.549   1.007   3.396
 2997SOL     OW 9889   6.297   0.222   2.816
 2997SOL    HW1 9890   6.359   0.145   2.826
 2997SOL    HW2 9891   6.202   0.191   2.825
 2998SOL     OW 9892   4.275   6.802   4.476
 2998SOL    HW1 9893   4.290   6.705   4.457
 2998SOL    HW2 9894   4.271   6.817   4.575
 2999SOL     OW 9895   2.932   4.999   4.728
 2999SOL    HW1 9896   2.935   5.090   4.770
 2999SOL    HW2 9897   2.856   4.994   4.663
 3000SOL     OW 9898   2.294   3.608   6.585
 3000SOL    HW1 9899   2.353   3.689   6.580
 3000SOL    HW2 9900   2.227   3.621   6.659
 3001SOL     OW 9901   5.544   0.331   6.317
 3001SOL    HW1 9902   5.538   0.297   6.411
 3001SOL    HW2 9903   5.575   0.258   6.257
 3002SOL     OW 9904   3.686   1.447   6.856
 3002SOL    HW1 9905   3.781   1.441   6.825
 3002SOL    HW2 9906   3.648   1.355   6.866
 3003SOL     OW 9907   2.028   6.188   0.312
 3003SOL    HW1 9908   1.928   6.191   0.305
 3003SOL    HW2 9909   2.059   6.261   0.372
 3004SOL     OW 9910   1.378   4.738   2.557
 3004SOL    HW1 9911   1.457   4.774   2.507
 3004SOL    HW2 9912   1.317   4.813   2.580
 3005SOL     OW 9913   3.260   1.733   0.478
 3005SOL    HW1 9914   3.234   1.765   0.387
 3005SOL    HW2 9915   3.288   1.812   0.534
 3006SOL     OW 9916   5.106   1.512   5.317
 3006SOL    HW1 9917   5.163   1.530   5.238
 3006SOL    HW2 9918   5.012   1.539   5.297
 3007SOL     OW 9919   5.642   5.349   1.415
 3007SOL    HW1 9920   5.696   5.348   1.330
 3007SOL    HW2 9921   5.671   5.273   1.473
 3008SOL     OW 9922   4.112   1.917   6.007
 3008SOL    HW1 9923   4.068   1.932   6.096
 3008SOL    HW2 9924   4.100   1.822   5.980
 3009SOL     OW 9925   0.511   1.812   2.710
 3009SOL    HW1 9926   0.448   1.871   2.660
 3009SOL    HW2 9927   0.605   1.831   2.680
 3010SOL     OW 9928   3.639   5.203   3.494
 3010SOL    HW1 9929   3.577   5.124   3.496
 3010SOL    HW2 9930   3.730   5.174   3.524
 3011SOL     OW 9931   6.198   1.578   1.647
 3011SOL    HW1 9932   6.144   1.495   1.663
 3011SOL    HW2 9933   6.144   1.643   1.594
 3012SOL     OW 9934   1.736   3.666   6.024
 3012SOL    HW1 9935   1.788   3.750   6.041
 3012SOL    HW2 9936   1.764   3.626   5.937
 3013SOL     OW 9937   5.666   6.059   4.818
 3013SOL    HW1 9938   5.728   6.113   4.761
 3013SOL    HW2 9939   5.708   5.971   4.838
 3014SOL     OW 9940   4.315   2.422   4.408
 3014SOL    HW1 9941   4.314   2.398   4.311
 3014SOL    HW2 9942   4.221   2.426   4.443
 3015SOL     OW 9943   3.473   1.778   0.693
 3015SOL    HW1 9944   3.551   1.743   0.744
 3015SOL    HW2 9945   3.504   1.837   0.619
 3016SOL     OW 9946   2.267   6.348   3.662
 3016SOL    HW1 9947   2.298   6.384   3.750
 3016SOL    HW2 9948   2.170   6.369   3.649
 3017SOL     OW 9949   6.726   4.867   2.428
 3017SOL    HW1 9950   6.750   4.923   2.349
 3017SOL    HW2 9951   6.665   4.918   2.489
 3018SOL     OW 9952   3.217   6.274   6.141
 3018SOL    HW1 9953   3.241   6.181   6.171
 3018SOL    HW2 9954   3.147   6.269   6.070
 3019SOL     OW 9955   0.889   6.992   6.798
 3019SOL    HW1 9956   0.823   6.989   6.874
 3019SOL    HW2 9957   0.891   0.061   6.760
 3020SOL     OW 9958   3.964   2.947   1.463
 3020SOL    HW1 9959   3.990   2.924   1.370
 3020SOL    HW2 9960   3.983   2.870   1.524
 3021SOL     OW 9961   3.100   6.780   6.727
 3021SOL    HW1 9962   3.167   6.765   6.655
 3021SOL    HW2 9963   3.033   6.849   6.697
 3022SOL     OW 9964   3.625   5.652   4.263
 3022SOL    HW1 9965   3.643   5.616   4.172
 3022SOL    HW2 9966   3.608   5.750   4.258
 3023SOL     OW 9967   3.918   0.416   2.644
 3023SOL    HW1 9968   3.858   0.475   2.697
 3023SOL    HW2 9969   3.917   0.324   2.683
 3024SOL     OW 9970   4.364   6.904   4.871
 3024SOL    HW1 9971   4.386   7.000   4.884
 3024SOL    HW2 9972   4.419   6.848   4.934
 3025SOL     OW 9973   3.209   0.652   0.430
 3025SOL    HW1 9974   3.219   0.725   0.363
 3025SOL    HW2 9975   3.116   0.652   0.466
 3026SOL     OW 9976   1.574   0.475   0.144
 3026SOL    HW1 9977   1.560   0.469   0.243
 3026SOL    HW2 9978   1.493   0.516   0.102
 3027SOL     OW 9979   4.000   0.529   3.120
 3027SOL    HW1 9980   3.918   0.577   3.151
 3027SOL    HW2 9981   4.044   0.484   3.197
 3028SOL     OW 9982   1.271   3.952   5.612
 3028SOL    HW1 9983   1.174   3.939   5.632
 3028SOL    HW2 9984   1.282   3.978   5.516
 3029SOL     OW 9985   0.040   2.787   5.488
 3029SOL    HW1 9986   0.064   2.715   5.424
 3029SOL    HW2 9987   0.124   2.833   5.519
 3030SOL     OW 9988   0.143   3.313   6.759
 3030SOL    HW1 9989   0.048   3.302   6.790
 3030SOL    HW2 9990   0.157   3.407   6.728
 3031SOL     OW 9991   0.491   3.959   0.399
 3031SOL    HW1 9992   0.482   3.973   0.300
 3031SOL    HW2 9993   0.480   3.862   0.420
 3032SOL     OW 9994   3.237   0.239   1.200
 3032SOL    HW1 9995   3.271   0.151   1.233
 3032SOL    HW2 9996   3.311   0.288   1.153
 3033SOL     OW 9997   6.115   2.139   1.571
 3033SOL    HW1 9998   6.135   2.104   1.479
 3033SOL    HW2 9999   6.076   2.065   1.626
 3034SOL     OW10000   1.641   5.667   3.057
 3034SOL    HW110001   1.577   5.684   3.131
 3034SOL    HW210002   1.713   5.605   3.088
 3035SOL     OW10003   0.388   3.211   6.843
 3035SOL    HW110004   0.311   3.243   6.788
 3035SOL    HW210005   0.467   3.195   6.783
 3036SOL     OW10006   1.651   1.338   6.651
 3036SOL    HW110007   1.669   1.243   6.677
 3036SOL    HW210008   1.683   1.354   6.557
 3037SOL     OW10009   6.067   5.727   5.134
 3037SOL    HW110010   6.090   5.813   5.089
 3037SOL    HW210011   6.144   5.697   5.191
 3038SOL     OW10012   5.517   6.293   6.090
 3038SOL    HW110013   5.471   6.254   6.010
 3038SOL    HW210014   5.533   6.390   6.075
 3039SOL     OW10015   6.874   3.902   0.662
 3039SOL    HW110016   6.918   3.969   0.603
 3039SOL    HW210017   6.944   3.851   0.713
 3040SOL     OW10018   3.808   3.705   5.919
 3040SOL    HW110019   3.847   3.662   5.838
 3040SOL    HW210020   3.861   3.786   5.943
 3041SOL     OW10021   2.340   2.876   4.238
 3041SOL    HW110022   2.298   2.802   4.185
 3041SOL    HW210023   2.295   2.963   4.215
 3042SOL     OW10024   4.664   5.846   1.974
 3042SOL    HW110025   4.660   5.821   1.877
 3042SOL    HW210026   4.716   5.931   1.984
 3043SOL     OW10027   2.502   4.813   1.710
 3043SOL    HW110028   2.474   4.884   1.645
 3043SOL    HW210029   2.580   4.846   1.763
 3044SOL     OW10030   3.786   3.929   5.721
 3044SOL    HW110031   3.844   3.931   5.803
 3044SOL    HW210032   3.748   4.021   5.705
 3045SOL     OW10033   4.860   0.612   2.913
 3045SOL    HW110034   4.825   0.661   2.833
 3045SOL    HW210035   4.796   0.622   2.989
 3046SOL     OW10036   2.489   0.840   6.286
 3046SOL    HW110037   2.445   0.757   6.323
 3046SOL    HW210038   2.419   0.908   6.266
 3047SOL     OW10039   6.409   0.442   1.900
 3047SOL    HW110040   6.314   0.431   1.869
 3047SOL    HW210041   6.471   0.432   1.822
 3048SOL     OW10042   3.913   2.180   1.819
 3048SOL    HW110043   3.840   2.242   1.846
 3048SOL    HW210044   3.907   2.163   1.720
 3049SOL     OW10045   1.551   6.821   2.442
 3049SOL    HW110046   1.587   6.734   2.477
 3049SOL    HW210047   1.539   6.885   2.518
 3050SOL     OW10048   3.119   1.452   1.872
 3050SOL    HW110049   3.153   1.511   1.799
 3050SOL    HW210050   3.025   1.478   1.894
 3051SOL     OW10051   2.302   3.879   0.063
 3051SOL    HW110052   2.286   3.829   7.001
 3051SOL    HW210053   2.215   3.902   0.107
 3052SOL     OW10054   5.444   6.807   1.506
 3052SOL    HW110055   5.407   6.862   1.581
 3052SOL    HW210056   5.410   6.713   1.514
 3053SOL     OW10057   0.049   1.671   6.945
 3053SOL    HW110058   0.091   1.742   6.888
 3053SOL    HW210059   0.117   1.637   7.011
 3054SOL     OW10060   6.612   2.060   0.582
 3054SOL    HW110061   6.666   2.145   0.587
 3054SOL    HW210062   6.590   2.029   0.675
 3055SOL     OW10063   5.370   0.378   4.267
 3055SOL    HW110064   5.431   0.442   4.221
 3055SOL    HW210065   5.275   0.403   4.248
 3056SOL     OW10066   6.118   0.494   4.974
 3056SOL    HW110067   6.175   0.518   4.896
 3056SOL    HW210068   6.107   0.574   5.033
 3057SOL     OW10069   4.145   5.805   2.616
 3057SOL    HW110070   4.121   5.718   2.573
 3057SOL    HW210071   4.093   5.816   2.701
 3058SOL     OW10072   0.348   4.936   1.584
 3058SOL    HW110073   0.252   4.952   1.559
 3058SOL    HW210074   0.399   5.022   1.580
 3059SOL     OW10075   2.467   2.497   4.020
 3059SOL    HW110076   2.479   2.398   4.016
 3059SOL    HW210077   2.505   2.531   4.106
 3060SOL     OW10078   0.885   5.735   0.449
 3060SOL    HW110079   0.954   5.785   0.501
 3060SOL    HW210080   0.819   5.800   0.411
 3061SOL     OW10081   0.103   0.110   5.030
 3061SOL    HW110082   0.067   0.019   5.053
 3061SOL    HW210083   0.077   0.133   4.936
 3062SOL     OW10084   1.979   0.228   0.405
 3062SOL    HW110085   1.966   0.220   0.503
 3062SOL    HW210086   1.996   0.324   0.381
 3063SOL     OW10087   2.589   5.156   1.840
 3063SOL    HW110088   2.611   5.097   1.918
 3063SOL    HW210089   2.494   5.185   1.846
 3064SOL     OW10090   5.860   4.069   2.817
 3064SOL    HW110091   5.873   4.096   2.912
 3064SOL    HW210092   5.872   4.148   2.757
 3065SOL     OW10093   2.287   0.833   0.526
 3065SOL    HW110094   2.207   0.776   0.547
 3065SOL    HW210095   2.262   0.901   0.456
 3066SOL     OW10096   4.951   5.297   0.876
 3066SOL    HW110097   4.911   5.299   0.784
 3066SOL    HW210098   4.959   5.203   0.907
 3067SOL     OW10099   3.403   2.240   5.256
 3067SOL    HW110100   3.463   2.319   5.275
 3067SOL    HW210101   3.314   2.273   5.224
 3068SOL     OW10102   6.482   0.158   0.657
 3068SOL    HW110103   6.458   0.131   0.563
 3068SOL    HW210104   6.433   0.100   0.722
 3069SOL     OW10105   6.479   6.632   1.660
 3069SOL    HW110106   6.443   6.704   1.720
 3069SOL    HW210107   6.478   6.664   1.565
 3070SOL     OW10108   2.377   1.557   0.777
 3070SOL    HW110109   2.444   1.625   0.806
 3070SOL    HW210110   2.288   1.578   0.816
 3071SOL     OW10111   5.578   6.382   3.239
 3071SOL    HW110112   5.544   6.467   3.200
 3071SOL    HW210113   5.593   6.394   3.337
 3072SOL     OW10114   1.996   6.096   0.050
 3072SOL    HW110115   2.032   6.120   0.140
 3072SOL    HW210116   2.067   6.050   7.019
 3073SOL     OW10117   5.870   3.261   3.993
 3073SOL    HW110118   5.929   3.282   4.071
 3073SOL    HW210119   5.806   3.336   3.978
 3074SOL     OW10120   5.935   4.154   1.358
 3074SOL    HW110121   5.853   4.100   1.374
 3074SOL    HW210122   6.007   4.125   1.421
 3075SOL     OW10123   2.794   6.142   1.760
 3075SOL    HW110124   2.727   6.083   1.807
 3075SOL    HW210125   2.773   6.145   1.663
 3076SOL     OW10126   6.810   0.413   4.296
 3076SOL    HW110127   6.783   0.372   4.209
 3076SOL    HW210128   6.820   0.341   4.365
 3077SOL     OW10129   5.273   6.213   2.236
 3077SOL    HW110130   5.197   6.157   2.203
 3077SOL    HW210131   5.289   6.289   2.173
 3078SOL     OW10132   0.216   2.818   2.845
 3078SOL    HW110133   0.241   2.747   2.779
 3078SOL    HW210134   0.116   2.819   2.855
 3079SOL     OW10135   2.328   2.845   2.971
 3079SOL    HW110136   2.249   2.852   3.032
 3079SOL    HW210137   2.383   2.766   2.998
 3080SOL     OW10138   4.778   4.082   2.804
 3080SOL    HW110139   4.813   4.025   2.730
 3080SOL    HW210140   4.810   4.046   2.892
 3081SOL     OW10141   0.644   2.595   5.477
 3081SOL    HW110142   0.644   2.537   5.395
 3081SOL    HW210143   0.712   2.561   5.542
 3082SOL     OW10144   3.098   5.889   3.758
 3082SOL    HW110145   3.045   5.824   3.705
 3082SOL    HW210146   3.037   5.946   3.813
 3083SOL     OW10147   3.425   5.736   3.883
 3083SOL    HW110148   3.393   5.768   3.794
 3083SOL    HW210149   3.432   5.636   3.882
 3084SOL     OW10150   6.690   4.222   4.966
 3084SOL    HW110151   6.722   4.214   5.060
 3084SOL    HW210152   6.630   4.146   4.944
 3085SOL     OW10153   6.179   4.118   1.039
 3085SOL    HW110154   6.235   4.168   0.972
 3085SOL    HW210155   6.083   4.122   1.012
 3086SOL     OW10156   4.390   1.387   1.176
 3086SOL    HW110157   4.485   1.374   1.148
 3086SOL    HW210158   4.329   1.352   1.105
 3087SOL     OW10159   0.461   5.339   3.870
 3087SOL    HW110160   0.511   5.423   3.888
 3087SOL    HW210161   0.476   5.311   3.775
 3088SOL     OW10162   1.891   4.960   5.058
 3088SOL    HW110163   1.880   5.035   5.123
 3088SOL    HW210164   1.941   4.885   5.102
 3089SOL     OW10165   1.230   3.245   6.684
 3089SOL    HW110166   1.312   3.285   6.643
 3089SOL    HW210167   1.252   3.215   6.777
 3090SOL     OW10168   2.411   2.194   1.502
 3090SOL    HW110169   2.387   2.276   1.451
 3090SOL    HW210170   2.420   2.216   1.599
 3091SOL     OW10171   1.714   0.942   0.945
 3091SOL    HW110172   1.626   0.986   0.957
 3091SOL    HW210173   1.740   0.945   0.848
 3092SOL     OW10174   4.761   0.705   0.359
 3092SOL    HW110175   4.779   0.770   0.285
 3092SOL    HW210176   4.823   0.725   0.435
 3093SOL     OW10177   5.559   6.595   5.890
 3093SOL    HW110178   5.587   6.689   5.910
 3093SOL    HW210179   5.475   6.596   5.836
 3094SOL     OW10180   1.860   6.592   4.440
 3094SOL    HW110181   1.948   6.625   4.406
 3094SOL    HW210182   1.814   6.667   4.488
 3095SOL     OW10183   2.043   5.177   5.366
 3095SOL    HW110184   2.006   5.089   5.396
 3095SOL    HW210185   2.124   5.162   5.309
 3096SOL     OW10186   1.817   6.045   5.411
 3096SOL    HW110187   1.896   5.987   5.392
 3096SOL    HW210188   1.798   6.101   5.331
 3097SOL     OW10189   5.934   2.014   0.113
 3097SOL    HW110190   5.966   2.067   0.035
 3097SOL    HW210191   6.008   1.954   0.145
 3098SOL     OW10192   2.486   3.017   0.995
 3098SOL    HW110193   2.390   2.993   0.981
 3098SOL    HW210194   2.504   3.030   1.092
 3099SOL     OW10195   0.553   0.090   3.167
 3099SOL    HW110196   0.536   7.016   3.145
 3099SOL    HW210197   0.563   0.142   3.083
 3100SOL     OW10198   6.441   6.076   4.307
 3100SOL    HW110199   6.422   6.150   4.242
 3100SOL    HW210200   6.374   6.081   4.382
 3101SOL     OW10201   5.423   6.794   6.790
 3101SOL    HW110202   5.347   6.774   6.852
 3101SOL    HW210203   5.397   6.770   6.697
 3102SOL     OW10204   0.056   5.183   1.918
 3102SOL    HW110205   6.989   5.170   1.876
 3102SOL    HW210206   0.115   5.106   1.895
 3103SOL     OW10207   4.285   0.934   2.646
 3103SOL    HW110208   4.277   0.864   2.575
 3103SOL    HW210209   4.218   0.916   2.718
 3104SOL     OW10210   4.953   0.640   4.875
 3104SOL    HW110211   4.976   0.569   4.808
 3104SOL    HW210212   5.017   0.716   4.865
 3105SOL     OW10213   6.334   4.473   1.469
 3105SOL    HW110214   6.292   4.433   1.388
 3105SOL    HW210215   6.414   4.526   1.443
 3106SOL     OW10216   6.389   0.889   3.404
 3106SOL    HW110217   6.368   0.976   3.449
 3106SOL    HW210218   6.473   0.898   3.350
 3107SOL     OW10219   4.577   1.190   4.628
 3107SOL    HW110220   4.587   1.191   4.528
 3107SOL    HW210221   4.637   1.259   4.668
 3108SOL     OW10222   1.016   5.981   4.407
 3108SOL    HW110223   1.035   5.883   4.401
 3108SOL    HW210224   0.998   6.017   4.316
 3109SOL     OW10225   5.675   6.269   3.004
 3109SOL    HW110226   5.634   6.320   3.081
 3109SOL    HW210227   5.636   6.177   3.001
 3110SOL     OW10228   1.310   2.387   2.400
 3110SOL    HW110229   1.336   2.383   2.304
 3110SOL    HW210230   1.293   2.295   2.435
 3111SOL     OW10231   6.473   5.555   3.918
 3111SOL    HW110232   6.485   5.586   3.823
 3111SOL    HW210233   6.376   5.541   3.936
 3112SOL     OW10234   4.957   2.695   6.924
 3112SOL    HW110235   4.904   2.759   6.979
 3112SOL    HW210236   4.916   2.604   6.932
 3113SOL     OW10237   2.715   5.616   3.550
 3113SOL    HW110238   2.751   5.626   3.642
 3113SOL    HW210239   2.787   5.633   3.483
 3114SOL     OW10240   4.207   1.452   0.916
 3114SOL    HW110241   4.164   1.523   0.972
 3114SOL    HW210242   4.302   1.476   0.898
 3115SOL     OW10243   3.804   3.575   6.381
 3115SOL    HW110244   3.898   3.556   6.351
 3115SOL    HW210245   3.759   3.489   6.405
 3116SOL     OW10246   0.966   2.953   6.754
 3116SOL    HW110247   0.927   2.864   6.729
 3116SOL    HW210248   0.993   3.002   6.671
 3117SOL     OW10249   4.519   3.670   5.348
 3117SOL    HW110250   4.550   3.588   5.396
 3117SOL    HW210251   4.561   3.674   5.257
 3118SOL     OW10252   0.896   5.591   2.110
 3118SOL    HW110253   0.963   5.657   2.078
 3118SOL    HW210254   0.922   5.559   2.202
 3119SOL     OW10255   2.002   3.499   6.007
 3119SOL    HW110256   2.045   3.422   5.960
 3119SOL    HW210257   1.938   3.544   5.945
 3120SOL     OW10258   3.122   6.813   4.608
 3120SOL    HW110259   3.066   6.751   4.553
 3120SOL    HW210260   3.125   6.781   4.703
 3121SOL     OW10261   0.353   0.926   3.565
 3121SOL    HW110262   0.369   1.004   3.505
 3121SOL    HW210263   0.280   0.949   3.630
 3122SOL     OW10264   3.928   6.261   6.019
 3122SOL    HW110265   4.019   6.218   6.014
 3122SOL    HW210266   3.935   6.349   6.066
 3123SOL     OW10267   3.179   1.790   3.735
 3123SOL    HW110268   3.170   1.883   3.700
 3123SOL    HW210269   3.266   1.751   3.705
 3124SOL     OW10270   4.000   0.019   4.802
 3124SOL    HW110271   4.047   0.015   4.890
 3124SOL    HW210272   4.027   6.964   4.746
 3125SOL     OW10273   6.713   2.179   5.052
 3125SOL    HW110274   6.718   2.092   5.100
 3125SOL    HW210275   6.788   2.186   4.986
 3126SOL     OW10276   4.977   4.799   5.627
 3126SOL    HW110277   4.975   4.852   5.712
 3126SOL    HW210278   4.963   4.702   5.649
 3127SOL     OW10279   1.470   3.067   4.703
 3127SOL    HW110280   1.487   3.165   4.710
 3127SOL    HW210281   1.551   3.017   4.734
 3128SOL     OW10282   2.527   0.543   5.921
 3128SOL    HW110283   2.545   0.628   5.871
 3128SOL    HW210284   2.569   0.548   6.011
 3129SOL     OW10285   6.237   3.529   6.025
 3129SOL    HW110286   6.264   3.606   6.082
 3129SOL    HW210287   6.315   3.467   6.013
 3130SOL     OW10288   1.682   4.039   1.501
 3130SOL    HW110289   1.637   4.018   1.414
 3130SOL    HW210290   1.632   4.112   1.547
 3131SOL     OW10291   0.289   2.540   1.188
 3131SOL    HW110292   0.270   2.445   1.165
 3131SOL    HW210293   0.224   2.571   1.258
 3132SOL     OW10294   3.992   5.398   6.008
 3132SOL    HW110295   4.051   5.320   6.030
 3132SOL    HW210296   3.984   5.406   5.909
 3133SOL     OW10297   3.442   1.833   4.227
 3133SOL    HW110298   3.501   1.752   4.234
 3133SOL    HW210299   3.395   1.848   4.313
 3134SOL     OW10300   4.775   4.202   1.918
 3134SOL    HW110301   4.693   4.240   1.961
 3134SOL    HW210302   4.749   4.154   1.834
 3135SOL     OW10303   4.593   0.703   5.383
 3135SOL    HW110304   4.625   0.767   5.313
 3135SOL    HW210305   4.505   0.734   5.419
 3136SOL     OW10306   5.147   0.861   0.984
 3136SOL    HW110307   5.146   0.778   0.928
 3136SOL    HW210308   5.239   0.875   1.022
 3137SOL     OW10309   6.657   0.598   3.316
 3137SOL    HW110310   6.630   0.635   3.228
 3137SOL    HW210311   6.737   0.538   3.304
 3138SOL     OW10312   6.109   4.542   3.938
 3138SOL    HW110313   6.020   4.499   3.927
 3138SOL    HW210314   6.121   4.612   3.867
 3139SOL     OW10315   5.104   6.555   0.519
 3139SOL    HW110316   5.187   6.592   0.561
 3139SOL    HW210317   5.112   6.456   0.511
 3140SOL     OW10318   6.516   0.341   0.187
 3140SOL    HW110319   6.487   0.396   0.108
 3140SOL    HW210320   6.463   0.367   0.267
 3141SOL     OW10321   6.953   6.037   6.229
 3141SOL    HW110322   6.890   6.088   6.287
 3141SOL    HW210323   0.024   6.065   6.250
 3142SOL     OW10324   3.960   6.773   2.137
 3142SOL    HW110325   4.014   6.742   2.059
 3142SOL    HW210326   3.882   6.712   2.149
 3143SOL     OW10327   6.487   1.665   6.658
 3143SOL    HW110328   6.489   1.676   6.558
 3143SOL    HW210329   6.411   1.605   6.683
 3144SOL     OW10330   4.551   4.025   1.698
 3144SOL    HW110331   4.504   4.095   1.751
 3144SOL    HW210332   4.488   3.987   1.630
 3145SOL     OW10333   2.134   6.017   1.197
 3145SOL    HW110334   2.187   6.074   1.133
 3145SOL    HW210335   2.180   6.016   1.286
 3146SOL     OW10336   1.090   0.234   3.414
 3146SOL    HW110337   1.125   0.277   3.497
 3146SOL    HW210338   1.036   0.153   3.439
 3147SOL     OW10339   3.650   5.057   0.847
 3147SOL    HW110340   3.620   4.978   0.901
 3147SOL    HW210341   3.577   5.082   0.783
 3148SOL     OW10342   5.502   6.167   4.620
 3148SOL    HW110343   5.417   6.116   4.604
 3148SOL    HW210344   5.540   6.142   4.709
 3149SOL     OW10345   2.320   0.967   5.883
 3149SOL    HW110346   2.378   0.994   5.807
 3149SOL    HW210347   2.355   1.007   5.968
 3150SOL     OW10348   5.972   5.840   4.144
 3150SOL    HW110349   5.935   5.932   4.152
 3150SOL    HW210350   5.925   5.780   4.209
 3151SOL     OW10351   5.589   1.623   5.211
 3151SOL    HW110352   5.557   1.674   5.291
 3151SOL    HW210353   5.532   1.542   5.198
 3152SOL     OW10354   1.290   5.511   0.434
 3152SOL    HW110355   1.278   5.500   0.533
 3152SOL    HW210356   1.382   5.547   0.415
 3153SOL     OW10357   5.756   5.118   1.621
 3153SOL    HW110358   5.689   5.144   1.691
 3153SOL    HW210359   5.830   5.065   1.663
 3154SOL     OW10360   5.942   1.180   6.362
 3154SOL    HW110361   5.977   1.088   6.380
 3154SOL    HW210362   5.858   1.195   6.414
 3155SOL     OW10363   6.326   4.409   0.973
 3155SOL    HW110364   6.261   4.480   0.996
 3155SOL    HW210365   6.356   4.420   0.878
 3156SOL     OW10366   3.342   2.945   3.452
 3156SOL    HW110367   3.305   2.990   3.534
 3156SOL    HW210368   3.441   2.933   3.463
 3157SOL     OW10369   2.446   2.007   4.681
 3157SOL    HW110370   2.386   2.085   4.661
 3157SOL    HW210371   2.529   2.015   4.625
 3158SOL     OW10372   4.585   0.842   2.802
 3158SOL    HW110373   4.508   0.787   2.837
 3158SOL    HW210374   4.608   0.913   2.869
 3159SOL     OW10375   5.558   1.499   6.413
 3159SOL    HW110376   5.617   1.537   6.342
 3159SOL    HW210377   5.483   1.563   6.432
 3160SOL     OW10378   0.461   6.354   5.406
 3160SOL    HW110379   0.408   6.408   5.471
 3160SOL    HW210380   0.442   6.257   5.422
 3161SOL     OW10381   1.835   1.592   3.075
 3161SOL    HW110382   1.816   1.528   3.149
 3161SOL    HW210383   1.848   1.684   3.113
 3162SOL     OW10384   1.142   6.424   2.049
 3162SOL    HW110385   1.225   6.371   2.063
 3162SOL    HW210386   1.161   6.521   2.064
 3163SOL     OW10387   4.299   2.665   6.491
 3163SOL    HW110388   4.257   2.576   6.473
 3163SOL    HW210389   4.232   2.737   6.470
 3164SOL     OW10390   4.577   4.934   1.484
 3164SOL    HW110391   4.648   4.864   1.490
 3164SOL    HW210392   4.500   4.900   1.431
 3165SOL     OW10393   0.707   6.624   1.125
 3165SOL    HW110394   0.777   6.650   1.191
 3165SOL    HW210395   0.637   6.695   1.121
 3166SOL     OW10396   4.454   1.855   4.749
 3166SOL    HW110397   4.506   1.771   4.736
 3166SOL    HW210398   4.476   1.895   4.838
 3167SOL     OW10399   6.648   3.693   1.135
 3167SOL    HW110400   6.700   3.726   1.056
 3167SOL    HW210401   6.557   3.735   1.134
 3168SOL     OW10402   4.430   2.444   6.854
 3168SOL    HW110403   4.351   2.466   6.798
 3168SOL    HW210404   4.448   2.520   6.917
 3169SOL     OW10405   1.650   3.623   4.901
 3169SOL    HW110406   1.691   3.539   4.937
 3169SOL    HW210407   1.632   3.686   4.976
 3170SOL     OW10408   3.815   0.767   1.163
 3170SOL    HW110409   3.837   0.675   1.131
 3170SOL    HW210410   3.899   0.813   1.192
 3171SOL     OW10411   0.586   0.307   1.317
 3171SOL    HW110412   0.584   0.234   1.385
 3171SOL    HW210413   0.530   0.280   1.238
 3172SOL     OW10414   0.224   4.796   0.039
 3172SOL    HW110415   0.206   4.720   7.000
 3172SOL    HW210416   0.234   4.881   7.009
 3173SOL     OW10417   2.683   2.131   0.501
 3173SOL    HW110418   2.642   2.221   0.484
 3173SOL    HW210419   2.691   2.117   0.600
 3174SOL     OW10420   2.957   2.598   6.318
 3174SOL    HW110421   3.037   2.600   6.378
 3174SOL    HW210422   2.983   2.628   6.226
 3175SOL     OW10423   0.033   0.806   0.434
 3175SOL    HW110424   0.049   0.714   0.399
 3175SOL    HW210425   0.061   0.873   0.366
 3176SOL     OW10426   1.188   4.611   4.942
 3176SOL    HW110427   1.194   4.670   5.022
 3176SOL    HW210428   1.093   4.604   4.912
 3177SOL     OW10429   4.792   4.074   4.137
 3177SOL    HW110430   4.841   3.987   4.147
 3177SOL    HW210431   4.766   4.108   4.227
 3178SOL     OW10432   6.169   2.022   0.373
 3178SOL    HW110433   6.168   1.991   0.278
 3178SOL    HW210434   6.106   1.965   0.427
 3179SOL     OW10435   1.657   3.235   2.279
 3179SOL    HW110436   1.694   3.173   2.210
 3179SOL    HW210437   1.566   3.204   2.307
 3180SOL     OW10438   4.501   1.562   6.969
 3180SOL    HW110439   4.442   1.632   7.011
 3180SOL    HW210440   4.588   1.559   7.016
 3181SOL     OW10441   0.262   1.421   2.594
 3181SOL    HW110442   0.216   1.427   2.682
 3181SOL    HW210443   0.333   1.351   2.598
 3182SOL     OW10444   2.731   1.403   4.919
 3182SOL    HW110445   2.642   1.361   4.942
 3182SOL    HW210446   2.750   1.388   4.822
 3183SOL     OW10447   4.227   4.264   1.705
 3183SOL    HW110448   4.163   4.201   1.750
 3183SOL    HW210449   4.315   4.262   1.752
 3184SOL     OW10450   1.076   2.839   2.499
 3184SOL    HW110451   1.039   2.766   2.557
 3184SOL    HW210452   1.131   2.799   2.426
 3185SOL     OW10453   6.323   5.832   0.150
 3185SOL    HW110454   6.333   5.923   0.108
 3185SOL    HW210455   6.245   5.785   0.110
 3186SOL     OW10456   4.069   1.716   2.165
 3186SOL    HW110457   4.002   1.651   2.128
 3186SOL    HW210458   4.118   1.673   2.241
 3187SOL     OW10459   4.224   3.911   0.452
 3187SOL    HW110460   4.166   3.830   0.448
 3187SOL    HW210461   4.192   3.972   0.525
 3188SOL     OW10462   3.204   6.512   4.326
 3188SOL    HW110463   3.274   6.496   4.396
 3188SOL    HW210464   3.179   6.425   4.283
 3189SOL     OW10465   1.372   1.727   1.775
 3189SOL    HW110466   1.431   1.705   1.696
 3189SOL    HW210467   1.408   1.808   1.821
 3190SOL     OW10468   6.922   6.579   0.574
 3190SOL    HW110469   6.961   6.496   0.533
 3190SOL    HW210470   6.898   6.643   0.502
 3191SOL     OW10471   4.679   6.852   0.955
 3191SOL    HW110472   4.682   6.780   0.886
 3191SOL    HW210473   4.622   6.823   1.032
 3192SOL     OW10474   6.807   2.551   0.766
 3192SOL    HW110475   6.795   2.491   0.687
 3192SOL    HW210476   6.721   2.557   0.817
 3193SOL     OW10477   4.096   1.788   6.497
 3193SOL    HW110478   4.069   1.737   6.416
 3193SOL    HW210479   4.196   1.795   6.500
 3194SOL     OW10480   0.932   3.342   5.757
 3194SOL    HW110481   0.868   3.411   5.724
 3194SOL    HW210482   0.946   3.353   5.855
 3195SOL     OW10483   2.535   2.526   3.211
 3195SOL    HW110484   2.632   2.501   3.214
 3195SOL    HW210485   2.485   2.477   3.282
 3196SOL     OW10486   0.849   0.638   5.342
 3196SOL    HW110487   0.895   0.703   5.403
 3196SOL    HW210488   0.915   0.597   5.280
 3197SOL     OW10489   1.745   6.170   3.474
 3197SOL    HW110490   1.723   6.266   3.489
 3197SOL    HW210491   1.682   6.113   3.527
 3198SOL     OW10492   6.073   2.063   5.469
 3198SOL    HW110493   6.147   2.130   5.463
 3198SOL    HW210494   5.986   2.110   5.477
 3199SOL     OW10495   4.755   2.779   1.915
 3199SOL    HW110496   4.758   2.750   2.011
 3199SOL    HW210497   4.763   2.878   1.910
 3200SOL     OW10498   6.900   2.721   1.828
 3200SOL    HW110499   6.955   2.801   1.851
 3200SOL    HW210500   6.936   2.641   1.876
 3201SOL     OW10501   5.033   4.175   4.572
 3201SOL    HW110502   5.131   4.159   4.569
 3201SOL    HW210503   4.988   4.098   4.617
 3202SOL     OW10504   0.963   4.530   1.649
 3202SOL    HW110505   0.874   4.502   1.683
 3202SOL    HW210506   0.986   4.477   1.567
 3203SOL     OW10507   6.235   2.830   6.328
 3203SOL    HW110508   6.329   2.822   6.360
 3203SOL    HW210509   6.177   2.763   6.375
 3204SOL     OW10510   4.818   6.446   1.644
 3204SOL    HW110511   4.747   6.494   1.593
 3204SOL    HW210512   4.848   6.366   1.592
 3205SOL     OW10513   7.018   3.296   0.070
 3205SOL    HW110514   6.976   3.251   7.014
 3205SOL    HW210515   6.952   3.302   0.144
 3206SOL     OW10516   0.367   6.371   5.770
 3206SOL    HW110517   0.285   6.426   5.753
 3206SOL    HW210518   0.358   6.325   5.859
 3207SOL     OW10519   1.161   0.750   5.268
 3207SOL    HW110520   1.133   0.764   5.363
 3207SOL    HW210521   1.214   0.666   5.260
 3208SOL     OW10522   4.699   6.708   5.526
 3208SOL    HW110523   4.744   6.700   5.615
 3208SOL    HW210524   4.742   6.645   5.461
 3209SOL     OW10525   4.118   5.339   3.418
 3209SOL    HW110526   4.198   5.351   3.476
 3209SOL    HW210527   4.147   5.319   3.325
 3210SOL     OW10528   0.585   3.991   1.263
 3210SOL    HW110529   0.668   4.005   1.209
 3210SOL    HW210530   0.567   3.893   1.270
 3211SOL     OW10531   1.886   3.333   1.263
 3211SOL    HW110532   1.826   3.253   1.257
 3211SOL    HW210533   1.875   3.376   1.352
 3212SOL     OW10534   2.739   1.027   0.448
 3212SOL    HW110535   2.792   0.956   0.401
 3212SOL    HW210536   2.710   0.994   0.537
 3213SOL     OW10537   6.740   6.026   2.208
 3213SOL    HW110538   6.781   6.070   2.128
 3213SOL    HW210539   6.784   5.937   2.223
 3214SOL     OW10540   4.872   5.763   0.642
 3214SOL    HW110541   4.882   5.814   0.557
 3214SOL    HW210542   4.959   5.720   0.665
 3215SOL     OW10543   0.655   3.160   0.823
 3215SOL    HW110544   0.714   3.084   0.850
 3215SOL    HW210545   0.656   3.230   0.895
 3216SOL     OW10546   5.484   5.567   1.359
 3216SOL    HW110547   5.536   5.486   1.385
 3216SOL    HW210548   5.522   5.606   1.275
 3217SOL     OW10549   0.461   5.470   2.768
 3217SOL    HW110550   0.530   5.541   2.754
 3217SOL    HW210551   0.375   5.512   2.796
 3218SOL     OW10552   3.952   6.975   4.186
 3218SOL    HW110553   3.917   6.952   4.096
 3218SOL    HW210554   4.026   6.912   4.211
 3219SOL     OW10555   0.122   2.184   3.345
 3219SOL    HW110556   0.168   2.216   3.262
 3219SOL    HW210557   0.175   2.110   3.386
 3220SOL     OW10558   6.787   6.373   5.906
 3220SOL    HW110559   6.761   6.278   5.923
 3220SOL    HW210560   6.805   6.386   5.808
 3221SOL     OW10561   3.288   6.930   1.682
 3221SOL    HW110562   3.279   0.006   1.666
 3221SOL    HW210563   3.214   6.882   1.637
 3222SOL     OW10564   4.045   1.561   2.878
 3222SOL    HW110565   4.036   1.462   2.862
 3222SOL    HW210566   4.052   1.578   2.976
 3223SOL     OW10567   2.278   5.371   6.623
 3223SOL    HW110568   2.291   5.465   6.591
 3223SOL    HW210569   2.341   5.352   6.697
 3224SOL     OW10570   4.691   3.336   6.932
 3224SOL    HW110571   4.678   3.427   6.972
 3224SOL    HW210572   4.617   3.317   6.868
 3225SOL     OW10573   4.622   3.329   6.007
 3225SOL    HW110574   4.558   3.390   6.052
 3225SOL    HW210575   4.650   3.369   5.919
 3226SOL     OW10576   1.434   1.904   4.568
 3226SOL    HW110577   1.389   1.989   4.542
 3226SOL    HW210578   1.408   1.880   4.662
 3227SOL     OW10579   2.911   2.024   6.255
 3227SOL    HW110580   2.864   2.026   6.167
 3227SOL    HW210581   2.981   2.095   6.258
 3228SOL     OW10582   5.957   4.280   3.024
 3228SOL    HW110583   6.044   4.268   3.072
 3228SOL    HW210584   5.924   4.373   3.037
 3229SOL     OW10585   3.149   1.939   5.458
 3229SOL    HW110586   3.178   1.875   5.530
 3229SOL    HW210587   3.192   1.914   5.372
 3230SOL     OW10588   1.369   3.523   4.232
 3230SOL    HW110589   1.324   3.434   4.237
 3230SOL    HW210590   1.427   3.535   4.313
 3231SOL     OW10591   2.667   0.358   1.988
 3231SOL    HW110592   2.579   0.334   1.948
 3231SOL    HW210593   2.739   0.302   1.948
 3232SOL     OW10594   3.923   5.037   4.680
 3232SOL    HW110595   3.923   4.987   4.766
 3232SOL    HW210596   3.883   5.127   4.694
 3233SOL     OW10597   0.841   2.738   1.570
 3233SOL    HW110598   0.778   2.784   1.633
 3233SOL    HW210599   0.933   2.776   1.581
 3234SOL     OW10600   0.086   1.427   0.429
 3234SOL    HW110601   0.115   1.340   0.390
 3234SOL    HW210602   0.164   1.472   0.473
 3235SOL     OW10603   4.958   0.729   1.399
 3235SOL    HW110604   4.942   0.803   1.333
 3235SOL    HW210605   5.047   0.687   1.380
 3236SOL     OW10606   1.566   3.062   0.564
 3236SOL    HW110607   1.659   3.087   0.593
 3236SOL    HW210608   1.511   3.144   0.551
 3237SOL     OW10609   5.469   1.555   3.670
 3237SOL    HW110610   5.378   1.516   3.656
 3237SOL    HW210611   5.538   1.485   3.653
 3238SOL     OW10612   0.415   5.126   0.921
 3238SOL    HW110613   0.498   5.086   0.958
 3238SOL    HW210614   0.409   5.106   0.823
 3239SOL     OW10615   6.558   1.639   0.707
 3239SOL    HW110616   6.476   1.607   0.754
 3239SOL    HW210617   6.629   1.661   0.774
 3240SOL     OW10618   1.476   6.149   5.707
 3240SOL    HW110619   1.449   6.214   5.778
 3240SOL    HW210620   1.575   6.141   5.704
 3241SOL     OW10621   4.874   1.405   4.932
 3241SOL    HW110622   4.919   1.321   4.901
 3241SOL    HW210623   4.832   1.451   4.854
 3242SOL     OW10624   3.032   4.648   0.930
 3242SOL    HW110625   2.959   4.652   0.998
 3242SOL    HW210626   3.077   4.737   0.923
 3243SOL     OW10627   5.348   4.685   0.553
 3243SOL    HW110628   5.368   4.622   0.477
 3243SOL    HW210629   5.276   4.646   0.609
 3244SOL     OW10630   4.931   6.156   0.586
 3244SOL    HW110631   4.898   6.080   0.529
 3244SOL    HW210632   4.943   6.123   0.680
 3245SOL     OW10633   4.929   2.231   4.915
 3245SOL    HW110634   4.997   2.221   4.987
 3245SOL    HW210635   4.848   2.177   4.937
 3246SOL     OW10636   5.994   0.915   2.657
 3246SOL    HW110637   5.956   0.985   2.717
 3246SOL    HW210638   5.920   0.875   2.601
 3247SOL     OW10639   6.285   4.614   3.377
 3247SOL    HW110640   6.358   4.548   3.395
 3247SOL    HW210641   6.325   4.704   3.359
 3248SOL     OW10642   6.661   3.367   1.723
 3248SOL    HW110643   6.592   3.329   1.785
 3248SOL    HW210644   6.635   3.459   1.695
 3249SOL     OW10645   3.533   3.806   4.638
 3249SOL    HW110646   3.545   3.795   4.539
 3249SOL    HW210647   3.454   3.752   4.667
 3250SOL     OW10648   5.287   0.014   2.242
 3250SOL    HW110649   5.300   7.019   2.339
 3250SOL    HW210650   5.222   0.089   2.229
 3251SOL     OW10651   3.744   0.843   2.026
 3251SOL    HW110652   3.709   0.933   1.999
 3251SOL    HW210653   3.832   0.826   1.983
 3252SOL     OW10654   2.386   2.163   2.063
 3252SOL    HW110655   2.350   2.231   2.127
 3252SOL    HW210656   2.475   2.194   2.029
 3253SOL     OW10657   5.982   3.390   2.312
 3253SOL    HW110658   5.960   3.453   2.387
 3253SOL    HW210659   6.081   3.387   2.299
 3254SOL     OW10660   5.153   5.475   5.569
 3254SOL    HW110661   5.104   5.518   5.644
 3254SOL    HW210662   5.246   5.512   5.563
 3255SOL     OW10663   5.332   6.429   1.814
 3255SOL    HW110664   5.306   6.455   1.907
 3255SOL    HW210665   5.431   6.434   1.805
 3256SOL     OW10666   4.313   0.746   0.167
 3256SOL    HW110667   4.323   0.805   0.247
 3256SOL    HW210668   4.338   0.797   0.085
 3257SOL     OW10669   1.373   2.261   1.573
 3257SOL    HW110670   1.393   2.207   1.491
 3257SOL    HW210671   1.444   2.331   1.584
 3258SOL     OW10672   3.932   4.850   1.856
 3258SOL    HW110673   3.842   4.884   1.883
 3258SOL    HW210674   3.921   4.768   1.800
 3259SOL     OW10675   4.580   5.759   3.744
 3259SOL    HW110676   4.602   5.683   3.682
 3259SOL    HW210677   4.634   5.752   3.827
 3260SOL     OW10678   1.415   1.985   1.459
 3260SOL    HW110679   1.431   1.973   1.361
 3260SOL    HW210680   1.317   1.991   1.476
 3261SOL     OW10681   4.747   6.616   0.328
 3261SOL    HW110682   4.717   6.540   0.386
 3261SOL    HW210683   4.843   6.636   0.346
 3262SOL     OW10684   3.580   2.101   2.860
 3262SOL    HW110685   3.483   2.118   2.839
 3262SOL    HW210686   3.617   2.036   2.793
 3263SOL     OW10687   3.445   1.548   4.005
 3263SOL    HW110688   3.517   1.615   3.983
 3263SOL    HW210689   3.474   1.494   4.085
 3264SOL     OW10690   1.475   4.209   1.160
 3264SOL    HW110691   1.421   4.260   1.094
 3264SOL    HW210692   1.555   4.168   1.115
 3265SOL     OW10693   4.752   1.402   5.721
 3265SOL    HW110694   4.682   1.343   5.761
 3265SOL    HW210695   4.709   1.484   5.684
 3266SOL     OW10696   0.649   2.653   0.317
 3266SOL    HW110697   0.737   2.644   0.270
 3266SOL    HW210698   0.649   2.737   0.371
 3267SOL     OW10699   4.144   1.146   0.105
 3267SOL    HW110700   4.121   1.236   0.069
 3267SOL    HW210701   4.174   1.155   0.200
 3268SOL     OW10702   1.612   4.419   0.315
 3268SOL    HW110703   1.518   4.435   0.347
 3268SOL    HW210704   1.631   4.478   0.237
 3269SOL     OW10705   4.621   4.633   2.238
 3269SOL    HW110706   4.701   4.692   2.241
 3269SOL    HW210707   4.629   4.562   2.308
 3270SOL     OW10708   1.320   4.451   5.380
 3270SOL    HW110709   1.286   4.462   5.473
 3270SOL    HW210710   1.263   4.505   5.317
 3271SOL     OW10711   5.581   3.975   2.846
 3271SOL    HW110712   5.599   3.901   2.911
 3271SOL    HW210713   5.667   4.005   2.804
 3272SOL     OW10714   3.506   3.812   6.994
 3272SOL    HW110715   3.602   3.797   6.973
 3272SOL    HW210716   3.454   3.818   6.908
 3273SOL     OW10717   0.286   6.410   2.076
 3273SOL    HW110718   0.207   6.349   2.085
 3273SOL    HW210719   0.280   6.482   2.144
 3274SOL     OW10720   4.241   0.954   1.102
 3274SOL    HW110721   4.145   0.959   1.130
 3274SOL    HW210722   4.298   1.000   1.170
 3275SOL     OW10723   0.658   0.829   6.183
 3275SOL    HW110724   0.685   0.770   6.259
 3275SOL    HW210725   0.697   0.794   6.097
 3276SOL     OW10726   3.758   5.993   0.433
 3276SOL    HW110727   3.776   5.967   0.528
 3276SOL    HW210728   3.843   6.023   0.390
 3277SOL     OW10729   5.293   0.242   6.893
 3277SOL    HW110730   5.231   0.207   6.963
 3277SOL    HW210731   5.361   0.172   6.870
 3278SOL     OW10732   0.171   1.018   5.567
 3278SOL    HW110733   0.150   0.920   5.561
 3278SOL    HW210734   0.262   1.035   5.528
 3279SOL     OW10735   6.737   0.852   0.745
 3279SOL    HW110736   6.787   0.786   0.800
 3279SOL    HW210737   6.683   0.912   0.804
 3280SOL     OW10738   3.721   4.826   5.442
 3280SOL    HW110739   3.766   4.747   5.484
 3280SOL    HW210740   3.673   4.878   5.513
 3281SOL     OW10741   1.880   5.189   0.759
 3281SOL    HW110742   1.794   5.212   0.713
 3281SOL    HW210743   1.920   5.272   0.798
 3282SOL     OW10744   1.468   5.600   4.774
 3282SOL    HW110745   1.417   5.541   4.837
 3282SOL    HW210746   1.546   5.550   4.736
 3283SOL     OW10747   3.304   1.244   0.977
 3283SOL    HW110748   3.346   1.254   1.067
 3283SOL    HW210749   3.376   1.228   0.909
 3284SOL     OW10750   6.129   6.344   6.792
 3284SOL    HW110751   6.045   6.387   6.825
 3284SOL    HW210752   6.206   6.372   6.849
 3285SOL     OW10753   5.400   2.663   3.466
 3285SOL    HW110754   5.304   2.688   3.452
 3285SOL    HW210755   5.407   2.566   3.489
 3286SOL     OW10756   3.948   3.528   2.688
 3286SOL    HW110757   3.899   3.477   2.618
 3286SOL    HW210758   4.022   3.472   2.725
 3287SOL     OW10759   1.823   6.201   6.899
 3287SOL    HW110760   1.861   6.177   6.988
 3287SOL    HW210761   1.871   6.149   6.827
 3288SOL     OW10762   0.781   5.620   6.795
 3288SOL    HW110763   0.814   5.697   6.849
 3288SOL    HW210764   0.708   5.651   6.734
 3289SOL     OW10765   2.339   6.715   5.078
 3289SOL    HW110766   2.265   6.653   5.103
 3289SOL    HW210767   2.303   6.807   5.064
 3290SOL     OW10768   0.402   7.000   1.579
 3290SOL    HW110769   0.383   0.070   1.547
 3290SOL    HW210770   0.491   6.970   1.544
 3291SOL     OW10771   1.368   6.404   0.265
 3291SOL    HW110772   1.312   6.434   0.189
 3291SOL    HW210773   1.309   6.368   0.338
 3292SOL     OW10774   0.599   0.821   0.015
 3292SOL    HW110775   0.532   0.766   6.987
 3292SOL    HW210776   0.655   0.762   0.072
 3293SOL     OW10777   6.776   3.394   3.281
 3293SOL    HW110778   6.755   3.389   3.183
 3293SOL    HW210779   6.692   3.414   3.332
 3294SOL     OW10780   0.777   1.142   6.064
 3294SOL    HW110781   0.825   1.173   6.146
 3294SOL    HW210782   0.729   1.219   6.022
 3295SOL     OW10783   1.804   3.080   1.998
 3295SOL    HW110784   1.861   3.162   1.992
 3295SOL    HW210785   1.723   3.092   1.940
 3296SOL     OW10786   1.790   6.287   1.760
 3296SOL    HW110787   1.719   6.222   1.784
 3296SOL    HW210788   1.811   6.344   1.839
 3297SOL     OW10789   3.080   0.204   4.688
 3297SOL    HW110790   3.096   0.167   4.596
 3297SOL    HW210791   3.130   0.290   4.699
 3298SOL     OW10792   5.849   2.279   4.067
 3298SOL    HW110793   5.866   2.333   4.149
 3298SOL    HW210794   5.767   2.313   4.021
 3299SOL     OW10795   1.740   6.325   4.292
 3299SOL    HW110796   1.808   6.337   4.220
 3299SOL    HW210797   1.767   6.379   4.372
 3300SOL     OW10798   0.461   0.662   5.995
 3300SOL    HW110799   0.552   0.621   5.999
 3300SOL    HW210800   0.455   0.735   6.064
 3301SOL     OW10801   2.191   3.081   3.021
 3301SOL    HW110802   2.117   3.082   2.954
 3301SOL    HW210803   2.271   3.037   2.981
 3302SOL     OW10804   1.722   5.751   5.695
 3302SOL    HW110805   1.688   5.784   5.784
 3302SOL    HW210806   1.694   5.815   5.623
 3303SOL     OW10807   3.716   3.039   1.519
 3303SOL    HW110808   3.641   2.982   1.484
 3303SOL    HW210809   3.802   2.988   1.514
 3304SOL     OW10810   1.537   5.317   4.428
 3304SOL    HW110811   1.503   5.302   4.521
 3304SOL    HW210812   1.464   5.298   4.363
 3305SOL     OW10813   1.848   1.152   3.366
 3305SOL    HW110814   1.891   1.139   3.276
 3305SOL    HW210815   1.898   1.102   3.435
 3306SOL     OW10816   1.989   5.397   3.847
 3306SOL    HW110817   2.079   5.356   3.861
 3306SOL    HW210818   1.985   5.486   3.892
 3307SOL     OW10819   6.822   5.789   6.240
 3307SOL    HW110820   6.883   5.710   6.230
 3307SOL    HW210821   6.877   5.873   6.245
 3308SOL     OW10822   4.772   5.956   6.804
 3308SOL    HW110823   4.755   6.054   6.800
 3308SOL    HW210824   4.828   5.935   6.885
 3309SOL     OW10825   0.963   5.015   2.701
 3309SOL    HW110826   0.879   5.056   2.664
 3309SOL    HW210827   0.940   4.929   2.747
 3310SOL     OW10828   6.400   4.433   5.323
 3310SOL    HW110829   6.305   4.441   5.353
 3310SOL    HW210830   6.432   4.521   5.289
 3311SOL     OW10831   2.334   3.986   1.752
 3311SOL    HW110832   2.336   4.086   1.753
 3311SOL    HW210833   2.406   3.952   1.692
 3312SOL     OW10834   3.662   4.584   5.785
 3312SOL    HW110835   3.661   4.640   5.868
 3312SOL    HW210836   3.568   4.570   5.753
 3313SOL     OW10837   6.932   5.408   2.507
 3313SOL    HW110838   6.979   5.323   2.529
 3313SOL    HW210839   6.982   5.485   2.547
 3314SOL     OW10840   1.780   1.896   4.125
 3314SOL    HW110841   1.681   1.886   4.118
 3314SOL    HW210842   1.802   1.987   4.161
 3315SOL     OW10843   6.201   3.582   4.259
 3315SOL    HW110844   6.249   3.650   4.202
 3315SOL    HW210845   6.177   3.503   4.202
 3316SOL     OW10846   4.043   1.622   6.280
 3316SOL    HW110847   4.042   1.536   6.331
 3316SOL    HW210848   3.969   1.622   6.213
 3317SOL     OW10849   4.689   3.232   1.666
 3317SOL    HW110850   4.657   3.159   1.725
 3317SOL    HW210851   4.625   3.309   1.670
 3318SOL     OW10852   2.976   0.182   0.736
 3318SOL    HW110853   2.999   0.119   0.661
 3318SOL    HW210854   2.950   0.129   0.817
 3319SOL     OW10855   6.062   0.037   4.678
 3319SOL    HW110856   6.149   0.015   4.635
 3319SOL    HW210857   6.010   0.098   4.619
 3320SOL     OW10858   5.556   0.999   5.393
 3320SOL    HW110859   5.607   0.962   5.471
 3320SOL    HW210860   5.603   1.080   5.357
 3321SOL     OW10861   3.710   2.326   1.589
 3321SOL    HW110862   3.702   2.338   1.688
 3321SOL    HW210863   3.712   2.416   1.545
 3322SOL     OW10864   5.551   3.189   1.591
 3322SOL    HW110865   5.507   3.131   1.659
 3322SOL    HW210866   5.486   3.258   1.558
 3323SOL     OW10867   2.487   4.048   6.368
 3323SOL    HW110868   2.587   4.047   6.367
 3323SOL    HW210869   2.453   3.998   6.288
 3324SOL     OW10870   1.285   3.761   6.045
 3324SOL    HW110871   1.265   3.794   6.138
 3324SOL    HW210872   1.363   3.812   6.009
 3325SOL     OW10873   2.225   2.394   6.407
 3325SOL    HW110874   2.325   2.398   6.412
 3325SOL    HW210875   2.186   2.472   6.456
 3326SOL     OW10876   6.000   1.596   2.119
 3326SOL    HW110877   6.025   1.692   2.129
 3326SOL    HW210878   6.008   1.549   2.207
 3327SOL     OW10879   3.339   6.314   1.342
 3327SOL    HW110880   3.283   6.359   1.272
 3327SOL    HW210881   3.350   6.217   1.319
 3328SOL     OW10882   4.392   1.793   2.255
 3328SOL    HW110883   4.328   1.865   2.283
 3328SOL    HW210884   4.471   1.834   2.211
 3329SOL     OW10885   5.566   0.616   4.140
 3329SOL    HW110886   5.486   0.667   4.108
 3329SOL    HW210887   5.649   0.659   4.105
 3330SOL     OW10888   6.168   6.242   1.344
 3330SOL    HW110889   6.264   6.236   1.318
 3330SOL    HW210890   6.131   6.330   1.315
 3331SOL     OW10891   0.628   3.495   2.207
 3331SOL    HW110892   0.582   3.413   2.239
 3331SOL    HW210893   0.646   3.556   2.284
 3332SOL     OW10894   6.261   4.372   0.584
 3332SOL    HW110895   6.341   4.406   0.632
 3332SOL    HW210896   6.268   4.393   0.487
 3333SOL     OW10897   2.547   3.751   6.449
 3333SOL    HW110898   2.627   3.810   6.439
 3333SOL    HW210899   2.536   3.695   6.367
 3334SOL     OW10900   2.244   4.007   2.358
 3334SOL    HW110901   2.327   3.956   2.381
 3334SOL    HW210902   2.260   4.061   2.275
 3335SOL     OW10903   4.458   0.027   6.129
 3335SOL    HW110904   4.530   6.988   6.159
 3335SOL    HW210905   4.386   0.030   6.198
 3336SOL     OW10906   1.474   6.270   4.437
 3336SOL    HW110907   1.567   6.242   4.412
 3336SOL    HW210908   1.409   6.204   4.400
 3337SOL     OW10909   2.783   4.295   1.197
 3337SOL    HW110910   2.773   4.374   1.258
 3337SOL    HW210911   2.849   4.317   1.126
 3338SOL     OW10912   0.087   2.813   1.229
 3338SOL    HW110913   0.163   2.757   1.264
 3338SOL    HW210914   0.123   2.900   1.196
 3339SOL     OW10915   1.473   6.599   6.871
 3339SOL    HW110916   1.446   6.625   6.964
 3339SOL    HW210917   1.419   6.520   6.841
 3340SOL     OW10918   3.458   1.112   3.606
 3340SOL    HW110919   3.495   1.041   3.666
 3340SOL    HW210920   3.530   1.179   3.586
 3341SOL     OW10921   1.833   4.449   3.771
 3341SOL    HW110922   1.862   4.389   3.845
 3341SOL    HW210923   1.886   4.534   3.774
 3342SOL     OW10924   0.987   7.017   3.516
 3342SOL    HW110925   1.007   0.020   3.611
 3342SOL    HW210926   1.047   6.941   3.490
 3343SOL     OW10927   5.808   4.455   6.697
 3343SOL    HW110928   5.719   4.495   6.719
 3343SOL    HW210929   5.873   4.529   6.676
 3344SOL     OW10930   5.749   3.979   3.752
 3344SOL    HW110931   5.656   3.962   3.784
 3344SOL    HW210932   5.800   4.028   3.822
 3345SOL     OW10933   1.457   4.338   6.627
 3345SOL    HW110934   1.406   4.390   6.695
 3345SOL    HW210935   1.419   4.245   6.620
 3346SOL     OW10936   1.176   1.052   0.114
 3346SOL    HW110937   1.089   1.041   0.065
 3346SOL    HW210938   1.239   0.979   0.087
 3347SOL     OW10939   1.087   2.320   5.998
 3347SOL    HW110940   1.160   2.383   6.021
 3347SOL    HW210941   1.036   2.355   5.919
 3348SOL     OW10942   4.109   3.494   4.741
 3348SOL    HW110943   4.103   3.402   4.702
 3348SOL    HW210944   4.112   3.487   4.841
 3349SOL     OW10945   1.939   5.140   3.333
 3349SOL    HW110946   2.000   5.175   3.262
 3349SOL    HW210947   1.869   5.209   3.353
 3350SOL     OW10948   0.285   2.715   6.003
 3350SOL    HW110949   0.273   2.804   6.047
 3350SOL    HW210950   0.215   2.651   6.034
 3351SOL     OW10951   4.702   1.188   2.073
 3351SOL    HW110952   4.633   1.245   2.027
 3351SOL    HW210953   4.773   1.247   2.111
 3352SOL     OW10954   6.568   2.747   0.844
 3352SOL    HW110955   6.662   2.775   0.825
 3352SOL    HW210956   6.559   2.720   0.940
 3353SOL     OW10957   3.344   5.850   1.533
 3353SOL    HW110958   3.296   5.904   1.464
 3353SOL    HW210959   3.295   5.856   1.620
 3354SOL     OW10960   4.029   2.277   5.419
 3354SOL    HW110961   3.965   2.233   5.483
 3354SOL    HW210962   4.023   2.376   5.430
 3355SOL     OW10963   1.763   1.742   6.089
 3355SOL    HW110964   1.772   1.770   6.184
 3355SOL    HW210965   1.852   1.743   6.045
 3356SOL     OW10966   1.141   5.578   5.970
 3356SOL    HW110967   1.152   5.615   5.878
 3356SOL    HW210968   1.074   5.504   5.968
 3357SOL     OW10969   2.687   3.496   1.789
 3357SOL    HW110970   2.595   3.478   1.823
 3357SOL    HW210971   2.728   3.411   1.757
 3358SOL     OW10972   4.428   1.557   2.728
 3358SOL    HW110973   4.435   1.569   2.629
 3358SOL    HW210974   4.447   1.643   2.774
 3359SOL     OW10975   0.334   6.041   2.943
 3359SOL    HW110976   0.350   6.049   3.041
 3359SOL    HW210977   0.371   6.121   2.896
 3360SOL     OW10978   1.302   1.534   6.406
 3360SOL    HW110979   1.335   1.466   6.340
 3360SOL    HW210980   1.308   1.625   6.365
 3361SOL     OW10981   6.745   5.338   4.720
 3361SOL    HW110982   6.844   5.329   4.703
 3361SOL    HW210983   6.698   5.347   4.632
 3362SOL     OW10984   3.662   1.889   2.702
 3362SOL    HW110985   3.565   1.866   2.714
 3362SOL    HW210986   3.717   1.835   2.766
 3363SOL     OW10987   6.941   2.148   1.819
 3363SOL    HW110988   6.949   2.246   1.834
 3363SOL    HW210989   6.869   2.130   1.752
 3364SOL     OW10990   2.247   4.866   3.954
 3364SOL    HW110991   2.183   4.927   3.907
 3364SOL    HW210992   2.228   4.771   3.928
 3365SOL     OW10993   6.707   2.922   4.763
 3365SOL    HW110994   6.665   3.002   4.806
 3365SOL    HW210995   6.804   2.941   4.745
 3366SOL     OW10996   5.544   4.728   4.268
 3366SOL    HW110997   5.477   4.802   4.263
 3366SOL    HW210998   5.577   4.719   4.361
 3367SOL     OW10999   4.063   3.797   2.665
 3367SOL    HW111000   4.041   3.700   2.680
 3367SOL    HW211001   4.151   3.818   2.707
 3368SOL     OW11002   0.623   5.768   6.602
 3368SOL    HW111003   0.639   5.722   6.514
 3368SOL    HW211004   0.681   5.849   6.609
 3369SOL     OW11005   3.843   2.293   0.608
 3369SOL    HW111006   3.791   2.360   0.555
 3369SOL    HW211007   3.783   2.216   0.631
 3370SOL     OW11008   6.592   6.666   1.353
 3370SOL    HW111009   6.665   6.621   1.302
 3370SOL    HW211010   6.526   6.704   1.288
 3371SOL     OW11011   2.724   3.195   1.697
 3371SOL    HW111012   2.681   3.139   1.767
 3371SOL    HW211013   2.779   3.137   1.637
 3372SOL     OW11014   6.647   1.936   0.079
 3372SOL    HW111015   6.619   1.845   0.050
 3372SOL    HW211016   6.733   1.931   0.130
 3373SOL     OW11017   0.250   2.497   4.327
 3373SOL    HW111018   0.318   2.433   4.289
 3373SOL    HW211019   0.200   2.540   4.252
 3374SOL     OW11020   1.078   6.666   3.711
 3374SOL    HW111021   1.019   6.587   3.728
 3374SOL    HW211022   1.103   6.708   3.799
 3375SOL     OW11023   6.780   4.674   0.532
 3375SOL    HW111024   6.743   4.767   0.531
 3375SOL    HW211025   6.715   4.613   0.487
 3376SOL     OW11026   3.566   2.882   4.948
 3376SOL    HW111027   3.520   2.813   5.005
 3376SOL    HW211028   3.656   2.901   4.985
 3377SOL     OW11029   6.779   5.125   5.818
 3377SOL    HW111030   6.814   5.187   5.889
 3377SOL    HW211031   6.720   5.176   5.755
 3378SOL     OW11032   1.545   6.684   0.166
 3378SOL    HW111033   1.590   6.615   0.110
 3378SOL    HW211034   1.611   6.725   0.229
 3379SOL     OW11035   0.834   1.966   5.326
 3379SOL    HW111036   0.819   2.025   5.246
 3379SOL    HW211037   0.867   1.877   5.296
 3380SOL     OW11038   4.393   6.570   5.226
 3380SOL    HW111039   4.394   6.498   5.296
 3380SOL    HW211040   4.314   6.556   5.166
 3381SOL     OW11041   6.609   2.914   1.210
 3381SOL    HW111042   6.650   2.863   1.286
 3381SOL    HW211043   6.547   2.983   1.246
 3382SOL     OW11044   0.646   2.551   6.310
 3382SOL    HW111045   0.617   2.577   6.402
 3382SOL    HW211046   0.595   2.470   6.281
 3383SOL     OW11047   3.734   5.311   0.909
 3383SOL    HW111048   3.685   5.365   0.840
 3383SOL    HW211049   3.724   5.214   0.889
 3384SOL     OW11050   1.827   3.129   0.601
 3384SOL    HW111051   1.842   3.153   0.505
 3384SOL    HW211052   1.913   3.099   0.642
 3385SOL     OW11053   6.802   3.719   4.835
 3385SOL    HW111054   6.848   3.760   4.913
 3385SOL    HW211055   6.736   3.784   4.796
 3386SOL     OW11056   5.507   4.541   0.333
 3386SOL    HW111057   5.444   4.512   0.261
 3386SOL    HW211058   5.568   4.611   0.297
 3387SOL     OW11059   4.583   0.157   3.436
 3387SOL    HW111060   4.527   0.141   3.518
 3387SOL    HW211061   4.581   0.076   3.378
 3388SOL     OW11062   6.025   3.143   2.304
 3388SOL    HW111063   6.003   3.099   2.391
 3388SOL    HW211064   5.989   3.236   2.303
 3389SOL     OW11065   6.242   5.572   6.037
 3389SOL    HW111066   6.228   5.583   5.939
 3389SOL    HW211067   6.338   5.588   6.059
 3390SOL     OW11068   4.881   0.230   6.120
 3390SOL    HW111069   4.950   0.275   6.064
 3390SOL    HW211070   4.792   0.233   6.074
 3391SOL     OW11071   4.636   2.480   3.571
 3391SOL    HW111072   4.649   2.552   3.502
 3391SOL    HW211073   4.544   2.443   3.564
 3392SOL     OW11074   3.330   6.239   4.233
 3392SOL    HW111075   3.394   6.274   4.164
 3392SOL    HW211076   3.242   6.221   4.189
 3393SOL     OW11077   6.488   6.294   0.570
 3393SOL    HW111078   6.472   6.204   0.610
 3393SOL    HW211079   6.585   6.303   0.546
 3394SOL     OW11080   5.324   3.562   1.054
 3394SOL    HW111081   5.414   3.527   1.079
 3394SOL    HW211082   5.331   3.617   0.970
 3395SOL     OW11083   5.033   2.539   3.089
 3395SOL    HW111084   4.975   2.561   3.011
 3395SOL    HW211085   4.977   2.498   3.161
 3396SOL     OW11086   5.742   1.379   3.625
 3396SOL    HW111087   5.748   1.354   3.528
 3396SOL    HW211088   5.830   1.417   3.656
 3397SOL     OW11089   3.253   5.203   6.508
 3397SOL    HW111090   3.345   5.166   6.496
 3397SOL    HW211091   3.203   5.199   6.422
 3398SOL     OW11092   1.284   0.468   4.306
 3398SOL    HW111093   1.384   0.468   4.314
 3398SOL    HW211094   1.254   0.378   4.274
 3399SOL     OW11095   5.626   5.463   3.235
 3399SOL    HW111096   5.571   5.524   3.178
 3399SOL    HW211097   5.711   5.441   3.188
 3400SOL     OW11098   5.616   3.542   6.659
 3400SOL    HW111099   5.610   3.530   6.758
 3400SOL    HW211100   5.525   3.560   6.621
 3401SOL     OW11101   6.433   3.651   6.374
 3401SOL    HW111102   6.472   3.721   6.434
 3401SOL    HW211103   6.428   3.687   6.281
 3402SOL     OW11104   5.664   5.780   6.506
 3402SOL    HW111105   5.619   5.868   6.487
 3402SOL    HW211106   5.625   5.710   6.447
 3403SOL     OW11107   4.777   5.341   6.908
 3403SOL    HW111108   4.863   5.312   6.951
 3403SOL    HW211109   4.726   5.260   6.878
 3404SOL     OW11110   4.891   2.142   0.878
 3404SOL    HW111111   4.800   2.137   0.919
 3404SOL    HW211112   4.949   2.203   0.933
 3405SOL     OW11113   5.876   3.806   6.734
 3405SOL    HW111114   5.952   3.838   6.790
 3405SOL    HW211115   5.906   3.727   6.679
 3406SOL     OW11116   1.034   3.554   2.438
 3406SOL    HW111117   0.963   3.617   2.409
 3406SOL    HW211118   1.122   3.581   2.398
 3407SOL     OW11119   1.606   4.268   6.989
 3407SOL    HW111120   1.705   4.268   7.008
 3407SOL    HW211121   1.581   4.355   6.946
 3408SOL     OW11122   4.957   2.705   4.448
 3408SOL    HW111123   4.957   2.640   4.372
 3408SOL    HW211124   5.016   2.782   4.425
 3409SOL     OW11125   4.242   6.068   0.204
 3409SOL    HW111126   4.234   6.125   0.123
 3409SOL    HW211127   4.287   5.982   0.181
 3410SOL     OW11128   6.702   6.536   1.984
 3410SOL    HW111129   6.734   6.576   1.898
 3410SOL    HW211130   6.662   6.446   1.965
 3411SOL     OW11131   0.437   2.562   0.625
 3411SOL    HW111132   0.408   2.657   0.637
 3411SOL    HW211133   0.537   2.556   0.633
 3412SOL     OW11134   5.133   3.479   1.489
 3412SOL    HW111135   5.056   3.543   1.490
 3412SOL    HW211136   5.099   3.385   1.488
 3413SOL     OW11137   6.361   1.686   1.109
 3413SOL    HW111138   6.283   1.636   1.145
 3413SOL    HW211139   6.424   1.709   1.184
 3414SOL     OW11140   3.433   2.271   5.757
 3414SOL    HW111141   3.372   2.243   5.683
 3414SOL    HW211142   3.432   2.203   5.830
 3415SOL     OW11143   1.959   2.525   3.993
 3415SOL    HW111144   1.885   2.571   4.040
 3415SOL    HW211145   1.998   2.455   4.053
 3416SOL     OW11146   5.097   6.965   0.475
 3416SOL    HW111147   5.027   6.916   0.528
 3416SOL    HW211148   5.165   7.002   0.538
 3417SOL     OW11149   0.416   6.135   4.341
 3417SOL    HW111150   0.362   6.190   4.277
 3417SOL    HW211151   0.492   6.093   4.292
 3418SOL     OW11152   3.951   5.573   3.427
 3418SOL    HW111153   3.979   5.477   3.420
 3418SOL    HW211154   4.019   5.631   3.382
 3419SOL     OW11155   3.327   5.301   6.160
 3419SOL    HW111156   3.269   5.242   6.104
 3419SOL    HW211157   3.390   5.350   6.101
 3420SOL     OW11158   5.951   3.308   3.277
 3420SOL    HW111159   6.033   3.280   3.226
 3420SOL    HW211160   5.904   3.380   3.226
 3421SOL     OW11161   4.842   1.503   3.675
 3421SOL    HW111162   4.871   1.512   3.770
 3421SOL    HW211163   4.912   1.541   3.615
 3422SOL     OW11164   2.674   0.312   6.957
 3422SOL    HW111165   2.673   0.293   0.032
 3422SOL    HW211166   2.731   0.393   6.940
 3423SOL     OW11167   0.068   4.766   6.275
 3423SOL    HW111168   0.114   4.680   6.253
 3423SOL    HW211169   0.131   4.843   6.260
 3424SOL     OW11170   2.255   6.561   1.112
 3424SOL    HW111171   2.283   6.649   1.150
 3424SOL    HW211172   2.162   6.540   1.141
 3425SOL     OW11173   4.776   4.718   2.569
 3425SOL    HW111174   4.740   4.630   2.539
 3425SOL    HW211175   4.870   4.729   2.535
 3426SOL     OW11176   4.780   2.756   1.369
 3426SOL    HW111177   4.864   2.783   1.417
 3426SOL    HW211178   4.760   2.824   1.298
 3427SOL     OW11179   0.756   1.740   1.139
 3427SOL    HW111180   0.728   1.645   1.127
 3427SOL    HW211181   0.844   1.743   1.187
 3428SOL     OW11182   3.462   4.678   0.203
 3428SOL    HW111183   3.444   4.751   0.136
 3428SOL    HW211184   3.489   4.595   0.155
 3429SOL     OW11185   0.724   2.287   1.258
 3429SOL    HW111186   0.699   2.347   1.182
 3429SOL    HW211187   0.729   2.192   1.225
 3430SOL     OW11188   2.218   5.479   5.300
 3430SOL    HW111189   2.251   5.416   5.371
 3430SOL    HW211190   2.275   5.560   5.298
 3431SOL     OW11191   1.751   5.943   1.979
 3431SOL    HW111192   1.734   6.041   1.981
 3431SOL    HW211193   1.786   5.913   2.068
 3432SOL     OW11194   2.358   4.588   5.740
 3432SOL    HW111195   2.354   4.688   5.752
 3432SOL    HW211196   2.273   4.556   5.699
 3433SOL     OW11197   1.126   0.367   4.849
 3433SOL    HW111198   1.120   0.370   4.750
 3433SOL    HW211199   1.165   0.453   4.883
 3434SOL     OW11200   3.705   1.557   2.296
 3434SOL    HW111201   3.785   1.553   2.237
 3434SOL    HW211202   3.622   1.565   2.240
 3435SOL     OW11203   2.132   1.558   1.495
 3435SOL    HW111204   2.146   1.656   1.511
 3435SOL    HW211205   2.121   1.511   1.583
 3436SOL     OW11206   4.007   5.976   0.258
 3436SOL    HW111207   4.028   5.950   0.352
 3436SOL    HW211208   4.077   6.039   0.224
 3437SOL     OW11209   2.853   6.405   5.695
 3437SOL    HW111210   2.769   6.350   5.701
 3437SOL    HW211211   2.831   6.501   5.715
 3438SOL     OW11212   0.709   3.335   1.272
 3438SOL    HW111213   0.703   3.243   1.313
 3438SOL    HW211214   0.629   3.389   1.300
 3439SOL     OW11215   3.063   5.738   4.172
 3439SOL    HW111216   3.060   5.640   4.150
 3439SOL    HW211217   3.154   5.762   4.206
 3440SOL     OW11218   3.348   2.916   2.458
 3440SOL    HW111219   3.341   2.872   2.369
 3440SOL    HW211220   3.271   2.978   2.471
 3441SOL     OW11221   6.540   6.133   6.206
 3441SOL    HW111222   6.591   6.219   6.194
 3441SOL    HW211223   6.494   6.109   6.120
 3442SOL     OW11224   2.383   4.082   1.389
 3442SOL    HW111225   2.334   4.016   1.333
 3442SOL    HW211226   2.420   4.154   1.331
 3443SOL     OW11227   3.658   6.230   2.180
 3443SOL    HW111228   3.754   6.229   2.150
 3443SOL    HW211229   3.653   6.205   2.276
 3444SOL     OW11230   4.568   5.166   6.850
 3444SOL    HW111231   4.509   5.226   6.904
 3444SOL    HW211232   4.604   5.094   6.909
 3445SOL     OW11233   5.729   5.149   2.510
 3445SOL    HW111234   5.723   5.137   2.609
 3445SOL    HW211235   5.703   5.064   2.464
 3446SOL     OW11236   6.071   0.325   1.274
 3446SOL    HW111237   6.047   0.414   1.234
 3446SOL    HW211238   6.132   0.339   1.352
 3447SOL     OW11239   5.152   6.296   0.496
 3447SOL    HW111240   5.199   6.254   0.419
 3447SOL    HW211241   5.062   6.255   0.507
 3448SOL     OW11242   3.506   6.746   6.264
 3448SOL    HW111243   3.579   6.763   6.329
 3448SOL    HW211244   3.476   6.833   6.224
 3449SOL     OW11245   5.573   4.924   4.725
 3449SOL    HW111246   5.548   4.885   4.814
 3449SOL    HW211247   5.653   4.983   4.735
 3450SOL     OW11248   0.895   1.901   6.350
 3450SOL    HW111249   0.971   1.902   6.285
 3450SOL    HW211250   0.878   1.808   6.381
 3451SOL     OW11251   2.665   6.111   6.914
 3451SOL    HW111252   2.589   6.143   6.971
 3451SOL    HW211253   2.665   6.012   6.910
 3452SOL     OW11254   5.690   0.531   6.717
 3452SOL    HW111255   5.704   0.462   6.788
 3452SOL    HW211256   5.748   0.611   6.736
 3453SOL     OW11257   5.745   5.457   6.439
 3453SOL    HW111258   5.681   5.398   6.390
 3453SOL    HW211259   5.829   5.468   6.385
 3454SOL     OW11260   0.993   3.705   5.466
 3454SOL    HW111261   1.043   3.619   5.462
 3454SOL    HW211262   0.897   3.689   5.447
 3455SOL     OW11263   2.392   1.434   4.306
 3455SOL    HW111264   2.317   1.479   4.356
 3455SOL    HW211265   2.426   1.495   4.235
 3456SOL     OW11266   5.695   4.857   2.000
 3456SOL    HW111267   5.690   4.957   1.999
 3456SOL    HW211268   5.628   4.820   1.935
 3457SOL     OW11269   4.918   5.566   4.008
 3457SOL    HW111270   4.846   5.611   4.061
 3457SOL    HW211271   4.972   5.508   4.069
 3458SOL     OW11272   4.374   1.358   2.255
 3458SOL    HW111273   4.276   1.372   2.263
 3458SOL    HW211274   4.422   1.425   2.311
 3459SOL     OW11275   5.083   2.442   2.742
 3459SOL    HW111276   5.040   2.457   2.830
 3459SOL    HW211277   5.012   2.428   2.672
 3460SOL     OW11278   3.278   1.746   6.878
 3460SOL    HW111279   3.267   1.827   6.819
 3460SOL    HW211280   3.375   1.727   6.890
 3461SOL     OW11281   4.632   3.542   0.101
 3461SOL    HW111282   4.607   3.559   0.196
 3461SOL    HW211283   4.728   3.567   0.086
 3462SOL     OW11284   0.689   4.041   5.330
 3462SOL    HW111285   0.678   3.942   5.329
 3462SOL    HW211286   0.681   4.077   5.237
 3463SOL     OW11287   0.451   4.123   1.076
 3463SOL    HW111288   0.475   4.074   1.160
 3463SOL    HW211289   0.512   4.094   1.002
 3464SOL     OW11290   6.877   4.647   6.555
 3464SOL    HW111291   6.966   4.604   6.539
 3464SOL    HW211292   6.890   4.740   6.590
 3465SOL     OW11293   1.344   2.448   1.939
 3465SOL    HW111294   1.403   2.527   1.926
 3465SOL    HW211295   1.306   2.419   1.851
 3466SOL     OW11296   6.741   5.378   5.997
 3466SOL    HW111297   6.743   5.366   6.096
 3466SOL    HW211298   6.650   5.410   5.969
 3467SOL     OW11299   1.635   2.929   6.050
 3467SOL    HW111300   1.646   3.027   6.034
 3467SOL    HW211301   1.686   2.903   6.132
 3468SOL     OW11302   4.208   6.260   2.530
 3468SOL    HW111303   4.242   6.234   2.440
 3468SOL    HW211304   4.121   6.213   2.547
 3469SOL     OW11305   5.955   0.732   3.103
 3469SOL    HW111306   5.862   0.767   3.116
 3469SOL    HW211307   6.008   0.747   3.186
 3470SOL     OW11308   0.071   4.522   0.699
 3470SOL    HW111309   0.110   4.460   0.631
 3470SOL    HW211310   0.010   4.471   0.759
 3471SOL     OW11311   4.201   5.469   4.667
 3471SOL    HW111312   4.280   5.410   4.651
 3471SOL    HW211313   4.144   5.470   4.584
 3472SOL     OW11314   2.015   0.498   2.862
 3472SOL    HW111315   1.920   0.518   2.887
 3472SOL    HW211316   2.061   0.583   2.838
 3473SOL     OW11317   6.780   1.294   6.650
 3473SOL    HW111318   6.827   1.245   6.576
 3473SOL    HW211319   6.681   1.278   6.643
 3474SOL     OW11320   2.939   5.331   2.002
 3474SOL    HW111321   3.008   5.359   2.069
 3474SOL    HW211322   2.870   5.403   1.994
 3475SOL     OW11323   0.965   6.292   4.913
 3475SOL    HW111324   0.995   6.267   5.006
 3475SOL    HW211325   1.045   6.309   4.856
 3476SOL     OW11326   3.550   1.665   3.030
 3476SOL    HW111327   3.503   1.623   3.108
 3476SOL    HW211328   3.649   1.661   3.045
 3477SOL     OW11329   3.346   5.464   1.275
 3477SOL    HW111330   3.289   5.406   1.334
 3477SOL    HW211331   3.416   5.409   1.231
 3478SOL     OW11332   2.278   5.725   4.981
 3478SOL    HW111333   2.257   5.822   4.965
 3478SOL    HW211334   2.377   5.712   4.980
 3479SOL     OW11335   0.762   1.086   2.798
 3479SOL    HW111336   0.732   1.156   2.733
 3479SOL    HW211337   0.728   1.109   2.889
 3480SOL     OW11338   6.838   0.271   4.854
 3480SOL    HW111339   6.759   0.276   4.914
 3480SOL    HW211340   6.890   0.356   4.859
 3481SOL     OW11341   4.215   0.216   0.095
 3481SOL    HW111342   4.298   0.213   0.151
 3481SOL    HW211343   4.228   0.278   0.018
 3482SOL     OW11344   5.714   1.471   1.135
 3482SOL    HW111345   5.726   1.400   1.066
 3482SOL    HW211346   5.623   1.513   1.125
 3483SOL     OW11347   3.843   1.358   1.766
 3483SOL    HW111348   3.759   1.383   1.815
 3483SOL    HW211349   3.905   1.437   1.765
 3484SOL     OW11350   2.876   3.684   1.712
 3484SOL    HW111351   2.961   3.639   1.738
 3484SOL    HW211352   2.798   3.630   1.745
 3485SOL     OW11353   1.446   6.895   4.343
 3485SOL    HW111354   1.473   6.805   4.378
 3485SOL    HW211355   1.528   6.946   4.317
 3486SOL     OW11356   3.073   1.754   2.636
 3486SOL    HW111357   3.090   1.832   2.696
 3486SOL    HW211358   3.137   1.756   2.559
 3487SOL     OW11359   5.839   2.066   5.838
 3487SOL    HW111360   5.801   1.989   5.890
 3487SOL    HW211361   5.892   2.125   5.899
 3488SOL     OW11362   5.465   2.455   4.227
 3488SOL    HW111363   5.532   2.465   4.154
 3488SOL    HW211364   5.512   2.451   4.315
 3489SOL     OW11365   2.944   6.698   0.598
 3489SOL    HW111366   2.940   6.610   0.645
 3489SOL    HW211367   3.025   6.702   0.539
 3490SOL     OW11368   4.669   4.427   6.576
 3490SOL    HW111369   4.736   4.389   6.513
 3490SOL    HW211370   4.710   4.439   6.666
 3491SOL     OW11371   5.555   3.138   4.521
 3491SOL    HW111372   5.544   3.192   4.437
 3491SOL    HW211373   5.485   3.164   4.587
 3492SOL     OW11374   0.715   6.100   1.145
 3492SOL    HW111375   0.726   6.197   1.169
 3492SOL    HW211376   0.654   6.056   1.212
 3493SOL     OW11377   6.455   5.471   6.648
 3493SOL    HW111378   6.451   5.447   6.551
 3493SOL    HW211379   6.399   5.552   6.664
 3494SOL     OW11380   3.819   0.460   1.577
 3494SOL    HW111381   3.900   0.431   1.628
 3494SOL    HW211382   3.828   0.433   1.481
 3495SOL     OW11383   4.584   4.939   2.397
 3495SOL    HW111384   4.665   4.911   2.345
 3495SOL    HW211385   4.573   4.877   2.475
 3496SOL     OW11386   0.371   3.173   1.243
 3496SOL    HW111387   0.289   3.172   1.185
 3496SOL    HW211388   0.343   3.173   1.339
 3497SOL     OW11389   4.162   0.132   3.149
 3497SOL    HW111390   4.079   0.179   3.123
 3497SOL    HW211391   4.171   0.047   3.096
 3498SOL     OW11392   2.428   2.326   6.907
 3498SOL    HW111393   2.436   2.236   6.951
 3498SOL    HW211394   2.380   2.316   6.820
 3499SOL     OW11395   5.354   2.708   4.357
 3499SOL    HW111396   5.301   2.774   4.304
 3499SOL    HW211397   5.360   2.622   4.306
 3500SOL     OW11398   0.661   4.373   5.366
 3500SOL    HW111399   0.568   4.342   5.389
 3500SOL    HW211400   0.703   4.306   5.305
 3501SOL     OW11401   0.804   5.224   3.749
 3501SOL    HW111402   0.831   5.220   3.652
 3501SOL    HW211403   0.735   5.154   3.766
 3502SOL     OW11404   6.993   2.335   2.370
 3502SOL    HW111405   0.037   2.268   2.337
 3502SOL    HW211406   6.903   2.313   2.333
 3503SOL     OW11407   5.737   6.292   5.087
 3503SOL    HW111408   5.670   6.218   5.083
 3503SOL    HW211409   5.689   6.379   5.103
 3504SOL     OW11410   2.297   2.417   1.126
 3504SOL    HW111411   2.257   2.349   1.065
 3504SOL    HW211412   2.344   2.487   1.071
 3505SOL     OW11413   5.512   4.820   4.972
 3505SOL    HW111414   5.535   4.755   5.044
 3505SOL    HW211415   5.442   4.883   5.005
 3506SOL     OW11416   4.637   5.821   5.372
 3506SOL    HW111417   4.558   5.767   5.403
 3506SOL    HW211418   4.721   5.778   5.404
 3507SOL     OW11419   2.462   0.149   6.933
 3507SOL    HW111420   2.536   0.216   6.935
 3507SOL    HW211421   2.383   0.184   6.984
 3508SOL     OW11422   3.929   2.738   6.194
 3508SOL    HW111423   3.856   2.670   6.201
 3508SOL    HW211424   3.978   2.726   6.108
 3509SOL     OW11425   4.836   0.006   6.311
 3509SOL    HW111426   4.745   6.987   6.302
 3509SOL    HW211427   4.839   0.090   6.257
 3510SOL     OW11428   1.821   2.572   1.806
 3510SOL    HW111429   1.875   2.539   1.728
 3510SOL    HW211430   1.836   2.512   1.885
 3511SOL     OW11431   1.747   4.696   6.839
 3511SOL    HW111432   1.839   4.681   6.875
 3511SOL    HW211433   1.680   4.652   6.899
 3512SOL     OW11434   0.092   4.139   0.758
 3512SOL    HW111435   0.164   4.085   0.712
 3512SOL    HW211436   0.088   4.113   0.854
 3513SOL     OW11437   5.524   4.326   0.821
 3513SOL    HW111438   5.471   4.290   0.744
 3513SOL    HW211439   5.618   4.345   0.790
 3514SOL     OW11440   0.392   0.768   1.762
 3514SOL    HW111441   0.303   0.758   1.717
 3514SOL    HW211442   0.448   0.832   1.710
 3515SOL     OW11443   3.958   6.612   2.728
 3515SOL    HW111444   3.926   6.547   2.796
 3515SOL    HW211445   3.897   6.611   2.649
 3516SOL     OW11446   4.634   1.067   0.769
 3516SOL    HW111447   4.553   1.042   0.822
 3516SOL    HW211448   4.638   1.167   0.758
 3517SOL     OW11449   0.697   2.233   6.953
 3517SOL    HW111450   0.783   2.281   6.938
 3517SOL    HW211451   0.713   2.134   6.953
 3518SOL     OW11452   5.177   4.159   5.261
 3518SOL    HW111453   5.257   4.141   5.318
 3518SOL    HW211454   5.206   4.198   5.174
 3519SOL     OW11455   2.053   0.440   6.551
 3519SOL    HW111456   2.066   0.488   6.638
 3519SOL    HW211457   2.121   0.367   6.543
 3520SOL     OW11458   2.950   5.055   0.745
 3520SOL    HW111459   2.961   5.148   0.780
 3520SOL    HW211460   2.853   5.032   0.742
 3521SOL     OW11461   5.754   3.051   1.726
 3521SOL    HW111462   5.691   3.109   1.674
 3521SOL    HW211463   5.754   2.959   1.687
 3522SOL     OW11464   4.087   5.530   2.519
 3522SOL    HW111465   4.071   5.535   2.617
 3522SOL    HW211466   4.080   5.435   2.489
 3523SOL     OW11467   2.719   4.431   5.690
 3523SOL    HW111468   2.771   4.391   5.614
 3523SOL    HW211469   2.688   4.523   5.663
 3524SOL     OW11470   2.557   1.197   1.261
 3524SOL    HW111471   2.601   1.253   1.331
 3524SOL    HW211472   2.600   1.107   1.259
 3525SOL     OW11473   0.689   3.722   2.369
 3525SOL    HW111474   0.594   3.731   2.340
 3525SOL    HW211475   0.693   3.695   2.465
 3526SOL     OW11476   1.518   6.253   3.669
 3526SOL    HW111477   1.552   6.255   3.763
 3526SOL    HW211478   1.437   6.311   3.662
 3527SOL     OW11479   6.076   3.254   5.687
 3527SOL    HW111480   6.132   3.188   5.738
 3527SOL    HW211481   6.097   3.347   5.718
 3528SOL     OW11482   1.129   5.271   3.679
 3528SOL    HW111483   1.093   5.206   3.612
 3528SOL    HW211484   1.094   5.248   3.770
 3529SOL     OW11485   3.982   6.645   5.110
 3529SOL    HW111486   3.923   6.582   5.161
 3529SOL    HW211487   3.971   6.738   5.147
 3530SOL     OW11488   2.260   5.092   2.923
 3530SOL    HW111489   2.332   5.078   2.855
 3530SOL    HW211490   2.272   5.026   2.998
 3531SOL     OW11491   4.825   4.581   1.530
 3531SOL    HW111492   4.837   4.611   1.625
 3531SOL    HW211493   4.737   4.613   1.496
 3532SOL     OW11494   3.295   0.134   0.692
 3532SOL    HW111495   3.219   0.069   0.694
 3532SOL    HW211496   3.307   0.170   0.599
 3533SOL     OW11497   1.189   2.448   3.226
 3533SOL    HW111498   1.273   2.468   3.175
 3533SOL    HW211499   1.126   2.397   3.168
 3534SOL     OW11500   5.927   1.134   5.208
 3534SOL    HW111501   5.836   1.176   5.212
 3534SOL    HW211502   5.921   1.046   5.161
 3535SOL     OW11503   6.532   5.687   0.281
 3535SOL    HW111504   6.615   5.742   0.291
 3535SOL    HW211505   6.461   5.742   0.236
 3536SOL     OW11506   2.102   3.113   3.644
 3536SOL    HW111507   2.116   3.033   3.586
 3536SOL    HW211508   2.014   3.106   3.691
 3537SOL     OW11509   2.491   4.804   0.481
 3537SOL    HW111510   2.436   4.722   0.471
 3537SOL    HW211511   2.485   4.837   0.575
 3538SOL     OW11512   2.235   0.959   4.074
 3538SOL    HW111513   2.150   0.935   4.026
 3538SOL    HW211514   2.232   1.055   4.100
 3539SOL     OW11515   5.698   3.812   6.399
 3539SOL    HW111516   5.793   3.794   6.424
 3539SOL    HW211517   5.657   3.874   6.466
 3540SOL     OW11518   2.374   1.469   5.785
 3540SOL    HW111519   2.395   1.418   5.702
 3540SOL    HW211520   2.276   1.466   5.803
 3541SOL     OW11521   2.901   2.604   6.713
 3541SOL    HW111522   2.917   2.506   6.699
 3541SOL    HW211523   2.844   2.638   6.638
 3542SOL     OW11524   6.699   3.032   0.613
 3542SOL    HW111525   6.690   2.959   0.545
 3542SOL    HW211526   6.761   3.002   0.686
 3543SOL     OW11527   1.829   3.605   4.287
 3543SOL    HW111528   1.829   3.542   4.210
 3543SOL    HW211529   1.752   3.668   4.277
 3544SOL     OW11530   2.031   4.617   6.378
 3544SOL    HW111531   1.995   4.669   6.455
 3544SOL    HW211532   1.993   4.652   6.292
 3545SOL     OW11533   4.013   4.524   0.081
 3545SOL    HW111534   3.950   4.600   0.065
 3545SOL    HW211535   4.076   4.517   0.003
 3546SOL     OW11536   6.810   5.065   3.102
 3546SOL    HW111537   6.875   5.012   3.155
 3546SOL    HW211538   6.840   5.160   3.097
 3547SOL     OW11539   6.786   4.190   5.221
 3547SOL    HW111540   6.785   4.090   5.214
 3547SOL    HW211541   6.873   4.225   5.188
 3548SOL     OW11542   5.960   0.394   5.283
 3548SOL    HW111543   5.863   0.404   5.258
 3548SOL    HW211544   5.967   0.366   5.379
 3549SOL     OW11545   1.931   4.459   5.716
 3549SOL    HW111546   1.998   4.505   5.658
 3549SOL    HW211547   1.978   4.409   5.789
 3550SOL     OW11548   5.687   2.218   4.547
 3550SOL    HW111549   5.607   2.165   4.521
 3550SOL    HW211550   5.768   2.159   4.548
 3551SOL     OW11551   3.399   1.369   4.563
 3551SOL    HW111552   3.488   1.385   4.606
 3551SOL    HW211553   3.407   1.293   4.499
 3552SOL     OW11554   6.293   5.842   2.152
 3552SOL    HW111555   6.229   5.917   2.138
 3552SOL    HW211556   6.287   5.778   2.076
 3553SOL     OW11557   3.670   5.470   6.490
 3553SOL    HW111558   3.611   5.546   6.463
 3553SOL    HW211559   3.664   5.457   6.589
 3554SOL     OW11560   4.922   2.585   0.911
 3554SOL    HW111561   4.963   2.676   0.905
 3554SOL    HW211562   4.989   2.516   0.883
 3555SOL     OW11563   1.184   2.704   4.098
 3555SOL    HW111564   1.278   2.671   4.092
 3555SOL    HW211565   1.184   2.804   4.103
 3556SOL     OW11566   3.672   1.217   3.926
 3556SOL    HW111567   3.725   1.170   3.997
 3556SOL    HW211568   3.656   1.154   3.850
 3557SOL     OW11569   1.265   6.375   3.672
 3557SOL    HW111570   1.302   6.454   3.720
 3557SOL    HW211571   1.226   6.311   3.737
 3558SOL     OW11572   2.483   4.712   1.449
 3558SOL    HW111573   2.495   4.616   1.426
 3558SOL    HW211574   2.483   4.723   1.548
 3559SOL     OW11575   1.351   5.832   4.873
 3559SOL    HW111576   1.261   5.839   4.830
 3559SOL    HW211577   1.402   5.757   4.830
 3560SOL     OW11578   1.878   4.671   3.115
 3560SOL    HW111579   1.861   4.763   3.151
 3560SOL    HW211580   1.959   4.633   3.160
 3561SOL     OW11581   5.071   3.922   5.677
 3561SOL    HW111582   5.007   3.848   5.694
 3561SOL    HW211583   5.147   3.917   5.743
 3562SOL     OW11584   3.438   1.711   3.636
 3562SOL    HW111585   3.510   1.656   3.677
 3562SOL    HW211586   3.460   1.729   3.540
 3563SOL     OW11587   5.740   1.891   6.036
 3563SOL    HW111588   5.767   1.945   6.116
 3563SOL    HW211589   5.800   1.810   6.029
 3564SOL     OW11590   0.812   4.926   3.279
 3564SOL    HW111591   0.780   4.840   3.238
 3564SOL    HW211592   0.891   4.959   3.229
 3565SOL     OW11593   3.595   5.684   3.364
 3565SOL    HW111594   3.593   5.584   3.357
 3565SOL    HW211595   3.509   5.722   3.329
 3566SOL     OW11596   6.275   1.203   5.992
 3566SOL    HW111597   6.192   1.222   5.939
 3566SOL    HW211598   6.349   1.262   5.960
 3567SOL     OW11599   0.684   2.245   6.620
 3567SOL    HW111600   0.772   2.272   6.659
 3567SOL    HW211601   0.684   2.263   6.522
 3568SOL     OW11602   5.827   3.857   5.141
 3568SOL    HW111603   5.918   3.826   5.112
 3568SOL    HW211604   5.774   3.884   5.060
 3569SOL     OW11605   3.399   2.054   5.993
 3569SOL    HW111606   3.438   1.963   6.003
 3569SOL    HW211607   3.303   2.046   5.965
 3570SOL     OW11608   4.631   0.749   6.426
 3570SOL    HW111609   4.601   0.654   6.423
 3570SOL    HW211610   4.726   0.754   6.458
 3571SOL     OW11611   0.322   5.014   0.413
 3571SOL    HW111612   0.409   4.989   0.371
 3571SOL    HW211613   0.292   5.103   0.378
 3572SOL     OW11614   5.689   4.191   3.204
 3572SOL    HW111615   5.773   4.163   3.157
 3572SOL    HW211616   5.614   4.197   3.138
 3573SOL     OW11617   0.596   4.528   3.879
 3573SOL    HW111618   0.538   4.462   3.831
 3573SOL    HW211619   0.692   4.506   3.864
 3574SOL     OW11620   0.194   4.844   0.602
 3574SOL    HW111621   0.210   4.909   0.528
 3574SOL    HW211622   0.273   4.844   0.664
 3575SOL     OW11623   5.643   4.407   2.726
 3575SOL    HW111624   5.684   4.354   2.651
 3575SOL    HW211625   5.550   4.376   2.742
 3576SOL     OW11626   2.363   1.892   5.285
 3576SOL    HW111627   2.428   1.968   5.280
 3576SOL    HW211628   2.410   1.811   5.319
 3577SOL     OW11629   0.958   2.927   6.287
 3577SOL    HW111630   0.871   2.971   6.266
 3577SOL    HW211631   1.033   2.986   6.257
 3578SOL     OW11632   3.379   2.375   0.601
 3578SOL    HW111633   3.326   2.302   0.643
 3578SOL    HW211634   3.323   2.422   0.532
 3579SOL     OW11635   6.452   4.256   4.337
 3579SOL    HW111636   6.365   4.252   4.287
 3579SOL    HW211637   6.435   4.242   4.434
 3580SOL     OW11638   6.170   2.444   0.985
 3580SOL    HW111639   6.217   2.369   1.032
 3580SOL    HW211640   6.097   2.479   1.044
 3581SOL     OW11641   0.078   6.229   3.947
 3581SOL    HW111642   0.133   6.258   3.869
 3581SOL    HW211643   0.053   6.309   4.002
 3582SOL     OW11644   1.207   2.082   6.022
 3582SOL    HW111645   1.160   2.168   6.005
 3582SOL    HW211646   1.259   2.056   5.940
 3583SOL     OW11647   1.423   3.539   6.381
 3583SOL    HW111648   1.519   3.542   6.352
 3583SOL    HW211649   1.405   3.452   6.427
 3584SOL     OW11650   5.716   5.728   0.287
 3584SOL    HW111651   5.785   5.784   0.333
 3584SOL    HW211652   5.756   5.686   0.206
 3585SOL     OW11653   4.204   5.806   5.185
 3585SOL    HW111654   4.228   5.758   5.270
 3585SOL    HW211655   4.287   5.823   5.132
 3586SOL     OW11656   0.165   2.159   5.454
 3586SOL    HW111657   0.116   2.193   5.374
 3586SOL    HW211658   0.161   2.227   5.527
 3587SOL     OW11659   3.101   4.872   6.370
 3587SOL    HW111660   3.183   4.918   6.335
 3587SOL    HW211661   3.062   4.814   6.298
 3588SOL     OW11662   1.403   2.664   4.552
 3588SOL    HW111663   1.346   2.745   4.542
 3588SOL    HW211664   1.494   2.690   4.584
 3589SOL     OW11665   4.150   2.245   4.787
 3589SOL    HW111666   4.230   2.269   4.732
 3589SOL    HW211667   4.158   2.285   4.878
 3590SOL     OW11668   0.752   3.069   6.178
 3590SOL    HW111669   0.691   2.994   6.156
 3590SOL    HW211670   0.765   3.127   6.098
 3591SOL     OW11671   5.102   3.525   6.498
 3591SOL    HW111672   5.036   3.483   6.561
 3591SOL    HW211673   5.103   3.475   6.412
 3592SOL     OW11674   6.391   4.349   2.412
 3592SOL    HW111675   6.471   4.295   2.387
 3592SOL    HW211676   6.347   4.310   2.493
 3593SOL     OW11677   1.803   5.801   4.349
 3593SOL    HW111678   1.806   5.899   4.330
 3593SOL    HW211679   1.854   5.781   4.433
 3594SOL     OW11680   4.363   0.600   3.210
 3594SOL    HW111681   4.270   0.605   3.247
 3594SOL    HW211682   4.395   0.505   3.214
 3595SOL     OW11683   2.651   5.191   6.729
 3595SOL    HW111684   2.606   5.248   6.660
 3595SOL    HW211685   2.661   5.098   6.694
 3596SOL     OW11686   6.256   2.376   3.354
 3596SOL    HW111687   6.342   2.388   3.404
 3596SOL    HW211688   6.206   2.298   3.391
 3597SOL     OW11689   2.222   0.678   5.462
 3597SOL    HW111690   2.171   0.618   5.524
 3597SOL    HW211691   2.233   0.633   5.374
 3598SOL     OW11692   1.150   6.118   6.542
 3598SOL    HW111693   1.118   6.076   6.627
 3598SOL    HW211694   1.199   6.050   6.488
 3599SOL     OW11695   0.861   2.106   5.969
 3599SOL    HW111696   0.910   2.173   6.025
 3599SOL    HW211697   0.776   2.146   5.934
 3600SOL     OW11698   1.168   3.459   0.318
 3600SOL    HW111699   1.165   3.370   0.273
 3600SOL    HW211700   1.168   3.531   0.248
 3601SOL     OW11701   5.941   4.970   0.239
 3601SOL    HW111702   5.915   5.051   0.291
 3601SOL    HW211703   5.946   4.993   0.142
 3602SOL     OW11704   1.154   2.018   0.602
 3602SOL    HW111705   1.164   2.117   0.595
 3602SOL    HW211706   1.209   1.984   0.679
 3603SOL     OW11707   3.125   6.447   3.769
 3603SOL    HW111708   3.085   6.517   3.827
 3603SOL    HW211709   3.184   6.490   3.700
 3604SOL     OW11710   0.068   4.719   3.636
 3604SOL    HW111711   0.136   4.662   3.683
 3604SOL    HW211712   0.061   4.807   3.682
 3605SOL     OW11713   5.303   3.881   4.998
 3605SOL    HW111714   5.275   3.977   4.986
 3605SOL    HW211715   5.384   3.878   5.057
 3606SOL     OW11716   0.208   6.201   5.389
 3606SOL    HW111717   0.187   6.254   5.306
 3606SOL    HW211718   0.124   6.189   5.442
 3607SOL     OW11719   5.331   6.248   0.735
 3607SOL    HW111720   5.271   6.274   0.659
 3607SOL    HW211721   5.308   6.156   0.766
 3608SOL     OW11722   6.356   2.199   3.093
 3608SOL    HW111723   6.330   2.125   3.154
 3608SOL    HW211724   6.300   2.279   3.112
 3609SOL     OW11725   0.492   0.509   3.937
 3609SOL    HW111726   0.541   0.435   3.891
 3609SOL    HW211727   0.447   0.474   4.019
 3610SOL     OW11728   1.538   6.759   5.549
 3610SOL    HW111729   1.444   6.728   5.554
 3610SOL    HW211730   1.539   6.859   5.541
 3611SOL     OW11731   4.733   6.489   5.918
 3611SOL    HW111732   4.771   6.438   5.841
 3611SOL    HW211733   4.698   6.425   5.987
 3612SOL     OW11734   5.859   0.159   5.945
 3612SOL    HW111735   5.918   0.216   5.888
 3612SOL    HW211736   5.871   0.184   6.041
 3613SOL     OW11737   4.354   5.543   1.827
 3613SOL    HW111738   4.343   5.468   1.892
 3613SOL    HW211739   4.405   5.617   1.869
 3614SOL     OW11740   3.690   3.917   2.390
 3614SOL    HW111741   3.772   3.862   2.375
 3614SOL    HW211742   3.692   3.957   2.482
 3615SOL     OW11743   5.716   6.200   6.847
 3615SOL    HW111744   5.737   6.202   6.749
 3615SOL    HW211745   5.665   6.117   6.868
 3616SOL     OW11746   0.253   3.001   5.859
 3616SOL    HW111747   0.155   3.002   5.882
 3616SOL    HW211748   0.264   2.970   5.765
 3617SOL     OW11749   4.151   0.940   6.563
 3617SOL    HW111750   4.207   1.005   6.614
 3617SOL    HW211751   4.072   0.986   6.524
 3618SOL     OW11752   2.361   2.191   5.174
 3618SOL    HW111753   2.288   2.123   5.166
 3618SOL    HW211754   2.353   2.258   5.100
 3619SOL     OW11755   5.613   3.096   3.867
 3619SOL    HW111756   5.625   3.186   3.823
 3619SOL    HW211757   5.614   3.025   3.797
 3620SOL     OW11758   6.404   6.077   5.974
 3620SOL    HW111759   6.395   5.986   5.935
 3620SOL    HW211760   6.392   6.146   5.903
 3621SOL     OW11761   4.141   2.942   5.775
 3621SOL    HW111762   4.064   2.971   5.719
 3621SOL    HW211763   4.223   2.994   5.750
 3622SOL     OW11764   1.901   2.047   4.846
 3622SOL    HW111765   1.813   2.019   4.807
 3622SOL    HW211766   1.953   1.966   4.873
 3623SOL     OW11767   6.166   5.578   4.361
 3623SOL    HW111768   6.117   5.522   4.295
 3623SOL    HW211769   6.262   5.585   4.335
 3624SOL     OW11770   2.295   6.022   2.431
 3624SOL    HW111771   2.359   5.945   2.433
 3624SOL    HW211772   2.323   6.087   2.360
 3625SOL     OW11773   5.561   3.520   6.930
 3625SOL    HW111774   5.574   3.586   7.004
 3625SOL    HW211775   5.464   3.498   6.921
 3626SOL     OW11776   1.416   3.098   6.321
 3626SOL    HW111777   1.509   3.061   6.327
 3626SOL    HW211778   1.417   3.184   6.271
 3627SOL     OW11779   3.621   2.900   3.450
 3627SOL    HW111780   3.652   2.869   3.360
 3627SOL    HW211781   3.700   2.924   3.506
 3628SOL     OW11782   1.383   0.652   1.791
 3628SOL    HW111783   1.446   0.649   1.869
 3628SOL    HW211784   1.429   0.692   1.712
 3629SOL     OW11785   6.718   1.979   4.507
 3629SOL    HW111786   6.666   1.985   4.592
 3629SOL    HW211787   6.671   1.917   4.444
 3630SOL     OW11788   5.023   2.766   3.225
 3630SOL    HW111789   4.943   2.816   3.191
 3630SOL    HW211790   5.037   2.684   3.170
 3631SOL     OW11791   1.627   6.897   3.551
 3631SOL    HW111792   1.566   6.900   3.471
 3631SOL    HW211793   1.609   6.813   3.603
 3632SOL     OW11794   4.977   6.289   1.484
 3632SOL    HW111795   4.954   6.345   1.405
 3632SOL    HW211796   5.065   6.317   1.521
 3633SOL     OW11797   3.525   1.633   5.434
 3633SOL    HW111798   3.605   1.692   5.442
 3633SOL    HW211799   3.458   1.675   5.372
 3634SOL     OW11800   0.669   4.824   4.639
 3634SOL    HW111801   0.735   4.821   4.563
 3634SOL    HW211802   0.588   4.875   4.611
 3635SOL     OW11803   2.659   6.988   6.038
 3635SOL    HW111804   2.561   7.006   6.047
 3635SOL    HW211805   2.707   0.005   6.116
 3636SOL     OW11806   0.568   5.593   7.013
 3636SOL    HW111807   0.552   5.629   0.082
 3636SOL    HW211808   0.641   5.645   6.968
 3637SOL     OW11809   6.486   1.817   1.323
 3637SOL    HW111810   6.499   1.738   1.383
 3637SOL    HW211811   6.388   1.840   1.319
 3638SOL     OW11812   0.552   4.668   4.835
 3638SOL    HW111813   0.476   4.613   4.801
 3638SOL    HW211814   0.595   4.717   4.759
 3639SOL     OW11815   3.357   4.289   1.745
 3639SOL    HW111816   3.297   4.289   1.665
 3639SOL    HW211817   3.332   4.213   1.805
 3640SOL     OW11818   3.585   0.846   0.572
 3640SOL    HW111819   3.649   0.853   0.647
 3640SOL    HW211820   3.501   0.802   0.604
 3641SOL     OW11821   5.037   2.853   3.813
 3641SOL    HW111822   4.978   2.792   3.760
 3641SOL    HW211823   4.983   2.902   3.881
 3642SOL     OW11824   4.798   0.863   0.687
 3642SOL    HW111825   4.723   0.929   0.692
 3642SOL    HW211826   4.876   0.898   0.739
 3643SOL     OW11827   2.867   5.733   5.409
 3643SOL    HW111828   2.810   5.693   5.338
 3643SOL    HW211829   2.928   5.802   5.368
 3644SOL     OW11830   6.970   1.616   1.839
 3644SOL    HW111831   6.912   1.595   1.918
 3644SOL    HW211832   6.982   1.533   1.784
 3645SOL     OW11833   6.932   3.205   3.414
 3645SOL    HW111834   0.004   3.233   3.400
 3645SOL    HW211835   6.871   3.263   3.361
 3646SOL     OW11836   6.693   4.456   6.614
 3646SOL    HW111837   6.749   4.535   6.588
 3646SOL    HW211838   6.599   4.470   6.584
 3647SOL     OW11839   2.394   3.336   6.526
 3647SOL    HW111840   2.489   3.365   6.515
 3647SOL    HW211841   2.351   3.390   6.599
 3648SOL     OW11842   3.635   4.910   2.565
 3648SOL    HW111843   3.675   4.855   2.638
 3648SOL    HW211844   3.612   4.851   2.487
 3649SOL     OW11845   4.919   3.055   1.766
 3649SOL    HW111846   4.863   3.064   1.848
 3649SOL    HW211847   4.861   3.060   1.685
 3650SOL     OW11848   0.293   5.397   0.968
 3650SOL    HW111849   0.345   5.443   1.040
 3650SOL    HW211850   0.318   5.301   0.965
 3651SOL     OW11851   0.222   6.888   3.711
 3651SOL    HW111852   0.320   6.871   3.722
 3651SOL    HW211853   0.190   6.845   3.627
 3652SOL     OW11854   5.393   6.607   3.375
 3652SOL    HW111855   5.426   6.599   3.281
 3652SOL    HW211856   5.340   6.692   3.384
 3653SOL     OW11857   0.536   1.479   4.611
 3653SOL    HW111858   0.443   1.474   4.646
 3653SOL    HW211859   0.558   1.394   4.563
 3654SOL     OW11860   2.171   4.825   0.628
 3654SOL    HW111861   2.244   4.890   0.646
 3654SOL    HW211862   2.208   4.746   0.579
 3655SOL     OW11863   1.560   6.529   3.247
 3655SOL    HW111864   1.481   6.552   3.190
 3655SOL    HW211865   1.643   6.565   3.205
 3656SOL     OW11866   0.890   3.819   2.190
 3656SOL    HW111867   0.814   3.779   2.242
 3656SOL    HW211868   0.858   3.899   2.140
 3657SOL     OW11869   4.918   4.846   6.218
 3657SOL    HW111870   4.840   4.880   6.165
 3657SOL    HW211871   4.948   4.759   6.180
 3658SOL     OW11872   1.962   5.602   5.331
 3658SOL    HW111873   1.914   5.600   5.243
 3658SOL    HW211874   2.051   5.558   5.321
 3659SOL     OW11875   1.519   3.393   4.725
 3659SOL    HW111876   1.612   3.362   4.704
 3659SOL    HW211877   1.499   3.476   4.673
 3660SOL     OW11878   5.317   0.564   3.441
 3660SOL    HW111879   5.361   0.573   3.352
 3660SOL    HW211880   5.233   0.512   3.431
 3661SOL     OW11881   5.459   1.867   5.334
 3661SOL    HW111882   5.495   1.856   5.426
 3661SOL    HW211883   5.426   1.960   5.322
 3662SOL     OW11884   4.356   6.959   4.011
 3662SOL    HW111885   4.323   0.022   4.051
 3662SOL    HW211886   4.287   6.923   3.948
 3663SOL     OW11887   1.773   2.329   0.602
 3663SOL    HW111888   1.703   2.375   0.547
 3663SOL    HW211889   1.863   2.356   0.570
 3664SOL     OW11890   5.797   1.924   2.152
 3664SOL    HW111891   5.776   1.850   2.216
 3664SOL    HW211892   5.892   1.918   2.124
 3665SOL     OW11893   2.412   6.219   5.335
 3665SOL    HW111894   2.400   6.298   5.395
 3665SOL    HW211895   2.333   6.158   5.343
 3666SOL     OW11896   1.129   4.362   3.648
 3666SOL    HW111897   1.195   4.420   3.694
 3666SOL    HW211898   1.055   4.418   3.610
 3667SOL     OW11899   0.600   1.131   2.189
 3667SOL    HW111900   0.526   1.101   2.129
 3667SOL    HW211901   0.667   1.183   2.135
 3668SOL     OW11902   1.469   1.028   2.360
 3668SOL    HW111903   1.384   1.026   2.307
 3668SOL    HW211904   1.546   1.039   2.297
 3669SOL     OW11905   5.148   1.025   3.587
 3669SOL    HW111906   5.203   1.042   3.505
 3669SOL    HW211907   5.129   0.927   3.594
 3670SOL     OW11908   2.719   5.158   0.420
 3670SOL    HW111909   2.681   5.141   0.511
 3670SOL    HW211910   2.803   5.106   0.409
 3671SOL     OW11911   6.005   1.030   3.753
 3671SOL    HW111912   5.984   0.964   3.825
 3671SOL    HW211913   6.005   1.122   3.792
 3672SOL     OW11914   5.601   1.812   1.560
 3672SOL    HW111915   5.653   1.754   1.497
 3672SOL    HW211916   5.601   1.906   1.526
 3673SOL     OW11917   4.281   6.399   6.742
 3673SOL    HW111918   4.334   6.463   6.798
 3673SOL    HW211919   4.183   6.416   6.757
 3674SOL     OW11920   1.168   6.973   5.209
 3674SOL    HW111921   1.149   0.032   5.153
 3674SOL    HW211922   1.149   6.891   5.155
 3675SOL     OW11923   2.180   3.225   4.485
 3675SOL    HW111924   2.206   3.286   4.410
 3675SOL    HW211925   2.177   3.278   4.570
 3676SOL     OW11926   5.331   4.184   3.807
 3676SOL    HW111927   5.362   4.269   3.852
 3676SOL    HW211928   5.333   4.197   3.707
 3677SOL     OW11929   1.845   5.866   3.265
 3677SOL    HW111930   1.758   5.909   3.244
 3677SOL    HW211931   1.892   5.841   3.180
 3678SOL     OW11932   0.420   2.135   5.307
 3678SOL    HW111933   0.394   2.047   5.268
 3678SOL    HW211934   0.359   2.157   5.383
 3679SOL     OW11935   1.181   0.723   3.240
 3679SOL    HW111936   1.119   0.729   3.318
 3679SOL    HW211937   1.276   0.730   3.272
 3680SOL     OW11938   5.666   2.497   3.507
 3680SOL    HW111939   5.678   2.595   3.523
 3680SOL    HW211940   5.569   2.477   3.492
 3681SOL     OW11941   0.704   7.009   5.985
 3681SOL    HW111942   0.627   7.000   6.047
 3681SOL    HW211943   0.773   0.047   6.025
 3682SOL     OW11944   5.647   2.100   0.178
 3682SOL    HW111945   5.636   2.140   0.087
 3682SOL    HW211946   5.742   2.070   0.190
 3683SOL     OW11947   0.013   0.561   2.848
 3683SOL    HW111948   0.079   0.584   2.919
 3683SOL    HW211949   0.041   0.477   2.802
 3684SOL     OW11950   2.147   4.282   6.880
 3684SOL    HW111951   2.246   4.277   6.875
 3684SOL    HW211952   2.117   4.259   6.973
 3685SOL     OW11953   6.734   6.340   6.187
 3685SOL    HW111954   6.798   6.324   6.262
 3685SOL    HW211955   6.783   6.373   6.107
 3686SOL     OW11956   5.721   5.896   3.720
 3686SOL    HW111957   5.719   5.802   3.753
 3686SOL    HW211958   5.802   5.943   3.757
 3687SOL     OW11959   3.430   5.621   5.067
 3687SOL    HW111960   3.446   5.541   5.009
 3687SOL    HW211961   3.416   5.592   5.161
 3688SOL     OW11962   6.577   3.443   6.239
 3688SOL    HW111963   6.547   3.500   6.316
 3688SOL    HW211964   6.657   3.390   6.267
 3689SOL     OW11965   2.304   0.322   6.257
 3689SOL    HW111966   2.285   0.271   6.341
 3689SOL    HW211967   2.340   0.259   6.188
 3690SOL     OW11968   4.905   5.938   0.421
 3690SOL    HW111969   4.975   5.954   0.351
 3690SOL    HW211970   4.838   5.873   0.387
 3691SOL     OW11971   2.609   3.136   6.658
 3691SOL    HW111972   2.514   3.166   6.659
 3691SOL    HW211973   2.631   3.098   6.568
 3692SOL     OW11974   0.387   5.696   5.387
 3692SOL    HW111975   0.338   5.771   5.343
 3692SOL    HW211976   0.484   5.717   5.391
 3693SOL     OW11977   2.077   3.183   2.614
 3693SOL    HW111978   2.088   3.275   2.653
 3693SOL    HW211979   2.039   3.190   2.522
 3694SOL     OW11980   1.252   5.776   2.740
 3694SOL    HW111981   1.325   5.733   2.687
 3694SOL    HW211982   1.260   5.875   2.733
 3695SOL     OW11983   6.640   2.962   1.612
 3695SOL    HW111984   6.679   2.986   1.701
 3695SOL    HW211985   6.625   3.046   1.559
 3696SOL     OW11986   3.375   5.507   5.305
 3696SOL    HW111987   3.422   5.419   5.299
 3696SOL    HW211988   3.325   5.512   5.391
 3697SOL     OW11989   0.201   6.743   2.754
 3697SOL    HW111990   0.109   6.708   2.768
 3697SOL    HW211991   0.200   6.815   2.685
 3698SOL     OW11992   2.230   1.113   4.472
 3698SOL    HW111993   2.302   1.043   4.468
 3698SOL    HW211994   2.220   1.154   4.381
 3699SOL     OW11995   0.777   2.197   3.855
 3699SOL    HW111996   0.863   2.152   3.874
 3699SOL    HW211997   0.794   2.289   3.820
 3700SOL     OW11998   0.245   6.641   5.105
 3700SOL    HW111999   0.316   6.674   5.043
 3700SOL    HW212000   0.205   6.719   5.154
 3701SOL     OW12001   1.257   0.584   3.845
 3701SOL    HW112002   1.343   0.532   3.846
 3701SOL    HW212003   1.236   0.615   3.938
 3702SOL     OW12004   5.686   6.945   2.216
 3702SOL    HW112005   5.605   6.902   2.176
 3702SOL    HW212006   5.658   7.007   2.290
 3703SOL     OW12007   5.337   1.316   5.678
 3703SOL    HW112008   5.315   1.225   5.643
 3703SOL    HW212009   5.264   1.379   5.655
 3704SOL     OW12010   3.401   1.747   1.563
 3704SOL    HW112011   3.354   1.827   1.526
 3704SOL    HW212012   3.345   1.705   1.635
 3705SOL     OW12013   4.502   5.066   3.602
 3705SOL    HW112014   4.501   5.014   3.517
 3705SOL    HW212015   4.597   5.087   3.628
 3706SOL     OW12016   1.324   3.062   6.891
 3706SOL    HW112017   1.377   3.033   6.812
 3706SOL    HW212018   1.326   2.992   6.962
 3707SOL     OW12019   5.324   4.346   4.750
 3707SOL    HW112020   5.278   4.376   4.666
 3707SOL    HW212021   5.376   4.422   4.788
 3708SOL     OW12022   0.057   0.615   6.084
 3708SOL    HW112023   0.147   0.573   6.096
 3708SOL    HW212024   7.019   0.552   6.035
 3709SOL     OW12025   3.032   0.649   0.878
 3709SOL    HW112026   2.963   0.590   0.836
 3709SOL    HW212027   2.995   0.741   0.889
 3710SOL     OW12028   6.482   5.228   6.238
 3710SOL    HW112029   6.490   5.316   6.285
 3710SOL    HW212030   6.568   5.208   6.190
 3711SOL     OW12031   0.437   0.113   3.893
 3711SOL    HW112032   0.353   0.167   3.892
 3711SOL    HW212033   0.469   0.098   3.800
 3712SOL     OW12034   0.160   5.967   6.971
 3712SOL    HW112035   0.209   6.051   6.994
 3712SOL    HW212036   0.225   5.898   6.939
 3713SOL     OW12037   1.067   6.237   5.147
 3713SOL    HW112038   1.050   6.142   5.174
 3713SOL    HW212039   1.160   6.263   5.170
 3714SOL     OW12040   5.265   5.735   5.866
 3714SOL    HW112041   5.290   5.641   5.889
 3714SOL    HW212042   5.325   5.768   5.793
 3715SOL     OW12043   6.755   4.206   2.600
 3715SOL    HW112044   6.811   4.287   2.581
 3715SOL    HW212045   6.696   4.188   2.522
 3716SOL     OW12046   6.343   0.279   4.843
 3716SOL    HW112047   6.269   0.342   4.865
 3716SOL    HW212048   6.323   0.189   4.880
 3717SOL     OW12049   6.057   6.549   6.479
 3717SOL    HW112050   6.051   6.452   6.453
 3717SOL    HW212051   6.151   6.571   6.503
 3718SOL     OW12052   1.657   0.905   0.510
 3718SOL    HW112053   1.644   0.841   0.434
 3718SOL    HW212054   1.725   0.868   0.573
 3719SOL     OW12055   5.130   4.908   1.130
 3719SOL    HW112056   5.186   4.952   1.199
 3719SOL    HW212057   5.165   4.816   1.112
 3720SOL     OW12058   5.943   2.759   6.710
 3720SOL    HW112059   6.020   2.701   6.683
 3720SOL    HW212060   5.977   2.849   6.738
 3721SOL     OW12061   5.880   4.504   1.706
 3721SOL    HW112062   5.828   4.521   1.622
 3721SOL    HW212063   5.962   4.562   1.707
 3722SOL     OW12064   6.641   5.947   0.630
 3722SOL    HW112065   6.677   5.904   0.548
 3722SOL    HW212066   6.543   5.963   0.619
 3723SOL     OW12067   6.431   5.631   1.697
 3723SOL    HW112068   6.353   5.689   1.718
 3723SOL    HW212069   6.430   5.551   1.758
 3724SOL     OW12070   1.525   4.295   5.028
 3724SOL    HW112071   1.621   4.271   5.010
 3724SOL    HW212072   1.465   4.235   4.976
 3725SOL     OW12073   5.875   5.341   0.963
 3725SOL    HW112074   5.897   5.438   0.971
 3725SOL    HW212075   5.811   5.315   1.035
 3726SOL     OW12076   5.624   3.741   0.116
 3726SOL    HW112077   5.589   3.827   0.079
 3726SOL    HW212078   5.715   3.723   0.077
 3727SOL     OW12079   6.797   2.411   5.273
 3727SOL    HW112080   6.816   2.342   5.343
 3727SOL    HW212081   6.752   2.368   5.195
 3728SOL     OW12082   1.271   3.752   6.315
 3728SOL    HW112083   1.317   3.663   6.320
 3728SOL    HW212084   1.200   3.756   6.386
 3729SOL     OW12085   1.025   2.541   3.440
 3729SOL    HW112086   1.033   2.617   3.505
 3729SOL    HW212087   1.091   2.554   3.366
 3730SOL     OW12088   2.962   5.257   5.745
 3730SOL    HW112089   2.944   5.320   5.821
 3730SOL    HW212090   2.908   5.173   5.759
 3731SOL     OW12091   6.667   0.577   0.649
 3731SOL    HW112092   6.615   0.610   0.571
 3731SOL    HW212093   6.711   0.655   0.695
 3732SOL     OW12094   2.838   1.556   6.328
 3732SOL    HW112095   2.876   1.644   6.300
 3732SOL    HW212096   2.738   1.558   6.318
 3733SOL     OW12097   1.211   3.866   1.899
 3733SOL    HW112098   1.225   3.859   1.997
 3733SOL    HW212099   1.284   3.921   1.859
 3734SOL     OW12100   5.414   1.327   2.278
 3734SOL    HW112101   5.435   1.403   2.339
 3734SOL    HW212102   5.461   1.341   2.190
 3735SOL     OW12103   2.004   0.957   3.456
 3735SOL    HW112104   2.087   0.974   3.402
 3735SOL    HW212105   2.011   0.866   3.498
 3736SOL     OW12106   0.275   2.197   0.479
 3736SOL    HW112107   0.270   2.255   0.560
 3736SOL    HW212108   0.345   2.127   0.492
 3737SOL     OW12109   5.050   0.482   3.405
 3737SOL    HW112110   4.984   0.492   3.479
 3737SOL    HW212111   5.046   0.563   3.346
 3738SOL     OW12112   6.492   6.398   2.316
 3738SOL    HW112113   6.423   6.471   2.309
 3738SOL    HW212114   6.459   6.317   2.268
 3739SOL     OW12115   2.636   4.540   1.709
 3739SOL    HW112116   2.722   4.531   1.760
 3739SOL    HW212117   2.603   4.634   1.716
 3740SOL     OW12118   5.967   0.514   0.572
 3740SOL    HW112119   5.877   0.476   0.592
 3740SOL    HW212120   5.990   0.584   0.640
 3741SOL     OW12121   5.444   3.141   1.193
 3741SOL    HW112122   5.366   3.176   1.141
 3741SOL    HW212123   5.454   3.195   1.277
 3742SOL     OW12124   2.734   1.408   6.674
 3742SOL    HW112125   2.834   1.404   6.676
 3742SOL    HW212126   2.702   1.482   6.732
 3743SOL     OW12127   5.390   2.922   1.338
 3743SOL    HW112128   5.294   2.949   1.348
 3743SOL    HW212129   5.439   2.993   1.286
 3744SOL     OW12130   1.240   5.422   2.805
 3744SOL    HW112131   1.237   5.460   2.713
 3744SOL    HW212132   1.297   5.479   2.864
 3745SOL     OW12133   3.820   4.967   1.620
 3745SOL    HW112134   3.857   4.884   1.579
 3745SOL    HW212135   3.720   4.961   1.623
 3746SOL     OW12136   5.486   1.361   3.126
 3746SOL    HW112137   5.528   1.299   3.060
 3746SOL    HW212138   5.420   1.420   3.079
 3747SOL     OW12139   2.604   6.817   5.272
 3747SOL    HW112140   2.589   6.729   5.227
 3747SOL    HW212141   2.523   6.842   5.325
 3748SOL     OW12142   6.101   0.921   0.805
 3748SOL    HW112143   6.037   0.952   0.734
 3748SOL    HW212144   6.182   0.980   0.805
 3749SOL     OW12145   1.718   5.726   3.849
 3749SOL    HW112146   1.660   5.769   3.919
 3749SOL    HW212147   1.696   5.766   3.760
 3750SOL     OW12148   1.077   3.837   0.481
 3750SOL    HW112149   1.040   3.751   0.447
 3750SOL    HW212150   1.119   3.822   0.570
 3751SOL     OW12151   0.308   3.500   1.635
 3751SOL    HW112152   0.237   3.432   1.653
 3751SOL    HW212153   0.277   3.562   1.563
 3752SOL     OW12154   5.384   0.405   6.666
 3752SOL    HW112155   5.483   0.395   6.661
 3752SOL    HW212156   5.351   0.363   6.750
 3753SOL     OW12157   6.341   0.020   4.944
 3753SOL    HW112158   6.427   0.068   4.926
 3753SOL    HW212159   6.350   6.988   5.027
 3754SOL     OW12160   2.229   1.097   1.346
 3754SOL    HW112161   2.176   1.089   1.262
 3754SOL    HW212162   2.297   1.024   1.350
 3755SOL     OW12163   4.761   4.882   5.006
 3755SOL    HW112164   4.787   4.788   5.032
 3755SOL    HW212165   4.662   4.890   5.007
 3756SOL     OW12166   3.138   5.144   5.964
 3756SOL    HW112167   3.054   5.187   5.995
 3756SOL    HW212168   3.168   5.186   5.878
 3757SOL     OW12169   6.181   5.101   1.118
 3757SOL    HW112170   6.194   5.176   1.054
 3757SOL    HW212171   6.083   5.091   1.140
 3758SOL     OW12172   2.508   1.536   4.682
 3758SOL    HW112173   2.472   1.613   4.629
 3758SOL    HW212174   2.530   1.461   4.621
 3759SOL     OW12175   4.125   0.217   6.055
 3759SOL    HW112176   4.055   0.211   5.985
 3759SOL    HW212177   4.184   0.295   6.037
 3760SOL     OW12178   1.234   1.245   4.324
 3760SOL    HW112179   1.327   1.241   4.288
 3760SOL    HW212180   1.188   1.158   4.306
 3761SOL     OW12181   0.327   1.050   5.178
 3761SOL    HW112182   0.236   1.033   5.139
 3761SOL    HW212183   0.386   1.090   5.108
 3762SOL     OW12184   1.502   4.601   0.854
 3762SOL    HW112185   1.527   4.586   0.758
 3762SOL    HW212186   1.577   4.647   0.901
 3763SOL     OW12187   0.593   3.290   7.003
 3763SOL    HW112188   0.560   3.331   0.065
 3763SOL    HW212189   0.516   3.275   6.941
 3764SOL     OW12190   1.571   6.961   2.671
 3764SOL    HW112191   1.561   0.037   2.659
 3764SOL    HW212192   1.499   6.928   2.733
 3765SOL     OW12193   5.086   1.745   1.162
 3765SOL    HW112194   4.995   1.772   1.195
 3765SOL    HW212195   5.080   1.721   1.065
 3766SOL     OW12196   1.691   1.920   4.455
 3766SOL    HW112197   1.727   1.857   4.524
 3766SOL    HW212198   1.593   1.935   4.471
 3767SOL     OW12199   2.772   4.165   6.775
 3767SOL    HW112200   2.756   4.263   6.780
 3767SOL    HW212201   2.824   4.136   6.856
 3768SOL     OW12202   0.474   6.886   4.603
 3768SOL    HW112203   0.467   6.812   4.536
 3768SOL    HW212204   0.568   6.921   4.604
 3769SOL     OW12205   5.890   5.016   5.076
 3769SOL    HW112206   5.904   5.108   5.114
 3769SOL    HW212207   5.843   4.960   5.143
 3770SOL     OW12208   1.197   0.635   6.448
 3770SOL    HW112209   1.194   0.539   6.476
 3770SOL    HW212210   1.188   0.642   6.349
 3771SOL     OW12211   4.960   3.376   0.393
 3771SOL    HW112212   4.969   3.422   0.481
 3771SOL    HW212213   4.975   3.278   0.404
 3772SOL     OW12214   0.441   0.778   0.347
 3772SOL    HW112215   0.536   0.782   0.380
 3772SOL    HW212216   0.426   0.852   0.281
 3773SOL     OW12217   5.762   3.382   5.699
 3773SOL    HW112218   5.710   3.319   5.641
 3773SOL    HW212219   5.802   3.453   5.642
 3774SOL     OW12220   6.006   5.563   1.399
 3774SOL    HW112221   5.950   5.563   1.316
 3774SOL    HW212222   6.095   5.605   1.379
 3775SOL     OW12223   4.685   5.613   2.688
 3775SOL    HW112224   4.613   5.595   2.754
 3775SOL    HW212225   4.773   5.621   2.736
 3776SOL     OW12226   3.963   2.017   6.524
 3776SOL    HW112227   4.022   2.091   6.555
 3776SOL    HW212228   4.014   1.931   6.527
 3777SOL     OW12229   3.222   4.996   3.406
 3777SOL    HW112230   3.148   4.988   3.473
 3777SOL    HW212231   3.194   4.953   3.320
 3778SOL     OW12232   2.625   4.967   2.550
 3778SOL    HW112233   2.662   5.039   2.609
 3778SOL    HW212234   2.598   5.007   2.462
 3779SOL     OW12235   0.846   4.986   0.574
 3779SOL    HW112236   0.875   5.038   0.654
 3779SOL    HW212237   0.787   5.043   0.517
 3780SOL     OW12238   5.860   4.710   4.732
 3780SOL    HW112239   5.799   4.685   4.807
 3780SOL    HW212240   5.937   4.647   4.729
 3781SOL     OW12241   0.445   6.730   3.728
 3781SOL    HW112242   0.475   6.691   3.641
 3781SOL    HW212243   0.525   6.756   3.782
 3782SOL     OW12244   2.353   0.648   3.103
 3782SOL    HW112245   2.263   0.691   3.106
 3782SOL    HW212246   2.405   0.684   3.026
 3783SOL     OW12247   5.788   5.088   4.062
 3783SOL    HW112248   5.869   5.073   4.004
 3783SOL    HW212249   5.785   5.184   4.090
 3784SOL     OW12250   5.686   3.018   2.630
 3784SOL    HW112251   5.647   3.108   2.650
 3784SOL    HW212252   5.751   2.993   2.701
 3785SOL     OW12253   1.586   3.397   5.676
 3785SOL    HW112254   1.626   3.340   5.747
 3785SOL    HW212255   1.506   3.445   5.712
 3786SOL     OW12256   2.544   4.674   3.163
 3786SOL    HW112257   2.568   4.630   3.250
 3786SOL    HW212258   2.543   4.773   3.176
 3787SOL     OW12259   6.588   1.453   2.284
 3787SOL    HW112260   6.615   1.430   2.378
 3787SOL    HW212261   6.506   1.402   2.259
 3788SOL     OW12262   0.444   4.372   5.107
 3788SOL    HW112263   0.393   4.304   5.054
 3788SOL    HW212264   0.531   4.391   5.061
 3789SOL     OW12265   0.473   4.214   4.792
 3789SOL    HW112266   0.518   4.290   4.840
 3789SOL    HW212267   0.534   4.135   4.788
 3790SOL     OW12268   1.122   4.717   6.187
 3790SOL    HW112269   1.166   4.768   6.113
 3790SOL    HW212270   1.142   4.620   6.177
 3791SOL     OW12271   4.970   1.096   6.397
 3791SOL    HW112272   5.048   1.061   6.345
 3791SOL    HW212273   4.906   1.140   6.334
 3792SOL     OW12274   1.359   2.135   3.317
 3792SOL    HW112275   1.350   2.128   3.217
 3792SOL    HW212276   1.354   2.232   3.343
 3793SOL     OW12277   4.629   7.018   2.457
 3793SOL    HW112278   4.628   6.976   2.366
 3793SOL    HW212279   4.568   0.075   2.458
 3794SOL     OW12280   2.039   2.465   1.383
 3794SOL    HW112281   2.139   2.471   1.378
 3794SOL    HW212282   2.006   2.397   1.318
 3795SOL     OW12283   4.940   6.020   1.410
 3795SOL    HW112284   4.919   5.979   1.322
 3795SOL    HW212285   4.937   6.120   1.402
 3796SOL     OW12286   4.066   1.783   2.608
 3796SOL    HW112287   3.984   1.815   2.559
 3796SOL    HW212288   4.049   1.691   2.644
 3797SOL     OW12289   0.851   3.288   2.381
 3797SOL    HW112290   0.818   3.353   2.312
 3797SOL    HW212291   0.947   3.265   2.362
 3798SOL     OW12292   2.486   5.710   3.414
 3798SOL    HW112293   2.425   5.741   3.488
 3798SOL    HW212294   2.577   5.694   3.451
 3799SOL     OW12295   6.274   3.036   3.910
 3799SOL    HW112296   6.174   3.031   3.903
 3799SOL    HW212297   6.305   2.978   3.986
 3800SOL     OW12298   5.396   1.918   3.797
 3800SOL    HW112299   5.324   1.869   3.847
 3800SOL    HW212300   5.373   1.920   3.700
 3801SOL     OW12301   6.200   6.603   1.504
 3801SOL    HW112302   6.212   6.696   1.540
 3801SOL    HW212303   6.182   6.540   1.580
 3802SOL     OW12304   1.661   2.312   1.693
 3802SOL    HW112305   1.608   2.393   1.667
 3802SOL    HW212306   1.671   2.252   1.613
 3803SOL     OW12307   4.104   3.528   2.327
 3803SOL    HW112308   4.087   3.459   2.397
 3803SOL    HW212309   4.149   3.485   2.248
 3804SOL     OW12310   4.635   1.022   3.040
 3804SOL    HW112311   4.675   1.048   3.128
 3804SOL    HW212312   4.669   1.083   2.969
 3805SOL     OW12313   1.691   3.019   1.258
 3805SOL    HW112314   1.762   3.019   1.329
 3805SOL    HW212315   1.606   2.984   1.297
 3806SOL     OW12316   4.151   3.660   6.028
 3806SOL    HW112317   4.228   3.634   5.970
 3806SOL    HW212318   4.176   3.740   6.083
 3807SOL     OW12319   1.838   5.570   2.837
 3807SOL    HW112320   1.883   5.537   2.919
 3807SOL    HW212321   1.801   5.661   2.853
 3808SOL     OW12322   4.173   0.822   0.451
 3808SOL    HW112323   4.114   0.769   0.511
 3808SOL    HW212324   4.120   0.858   0.374
 3809SOL     OW12325   5.520   2.067   1.882
 3809SOL    HW112326   5.513   2.156   1.928
 3809SOL    HW212327   5.444   2.008   1.912
 3810SOL     OW12328   5.130   2.719   3.475
 3810SOL    HW112329   5.076   2.802   3.472
 3810SOL    HW212330   5.088   2.649   3.417
 3811SOL     OW12331   6.699   5.959   4.347
 3811SOL    HW112332   6.600   5.975   4.341
 3811SOL    HW212333   6.738   6.015   4.419
 3812SOL     OW12334   4.716   5.108   5.361
 3812SOL    HW112335   4.712   5.142   5.455
 3812SOL    HW212336   4.727   5.009   5.362
 3813SOL     OW12337   4.633   3.298   0.526
 3813SOL    HW112338   4.536   3.282   0.508
 3813SOL    HW212339   4.688   3.251   0.458
 3814SOL     OW12340   6.114   0.026   6.035
 3814SOL    HW112341   6.067   0.094   5.978
 3814SOL    HW212342   6.046   6.992   6.081
 3815SOL     OW12343   3.469   2.262   1.063
 3815SOL    HW112344   3.495   2.345   1.014
 3815SOL    HW212345   3.503   2.266   1.157
 3816SOL     OW12346   1.142   5.399   6.676
 3816SOL    HW112347   1.102   5.311   6.701
 3816SOL    HW212348   1.132   5.413   6.577
 3817SOL     OW12349   5.195   3.706   2.321
 3817SOL    HW112350   5.152   3.685   2.233
 3817SOL    HW212351   5.236   3.797   2.317
 3818SOL     OW12352   6.656   0.843   6.710
 3818SOL    HW112353   6.675   0.750   6.741
 3818SOL    HW212354   6.667   0.906   6.787
 3819SOL     OW12355   5.802   5.478   2.101
 3819SOL    HW112356   5.739   5.528   2.160
 3819SOL    HW212357   5.755   5.452   2.017
 3820SOL     OW12358   5.116   0.182   3.916
 3820SOL    HW112359   5.170   0.152   3.994
 3820SOL    HW212360   5.103   0.105   3.853
 3821SOL     OW12361   2.375   0.919   1.923
 3821SOL    HW112362   2.421   0.972   1.994
 3821SOL    HW212363   2.276   0.919   1.940
 3822SOL     OW12364   2.294   0.110   0.647
 3822SOL    HW112365   2.219   0.078   0.589
 3822SOL    HW212366   2.257   0.145   0.733
 3823SOL     OW12367   2.937   3.807   6.233
 3823SOL    HW112368   2.932   3.760   6.145
 3823SOL    HW212369   3.013   3.873   6.231
 3824SOL     OW12370   0.621   3.258   0.288
 3824SOL    HW112371   0.557   3.194   0.246
 3824SOL    HW212372   0.609   3.257   0.387
 3825SOL     OW12373   0.332   5.720   0.582
 3825SOL    HW112374   0.367   5.643   0.635
 3825SOL    HW212375   0.305   5.687   0.491
 3826SOL     OW12376   0.947   3.614   0.391
 3826SOL    HW112377   0.857   3.574   0.371
 3826SOL    HW212378   1.019   3.551   0.362
 3827SOL     OW12379   1.972   1.246   1.929
 3827SOL    HW112380   2.031   1.197   1.994
 3827SOL    HW212381   1.881   1.258   1.968
 3828SOL     OW12382   3.533   3.541   3.425
 3828SOL    HW112383   3.503   3.617   3.482
 3828SOL    HW212384   3.632   3.529   3.433
 3829SOL     OW12385   1.396   5.028   2.149
 3829SOL    HW112386   1.326   5.097   2.132
 3829SOL    HW212387   1.484   5.060   2.112
 3830SOL     OW12388   0.913   0.164   5.256
 3830SOL    HW112389   0.932   0.086   5.314
 3830SOL    HW212390   0.831   0.146   5.202
 3831SOL     OW12391   4.528   2.518   2.845
 3831SOL    HW112392   4.482   2.470   2.770
 3831SOL    HW212393   4.585   2.592   2.808
 3832SOL     OW12394   6.993   0.874   3.131
 3832SOL    HW112395   7.019   0.788   3.086
 3832SOL    HW212396   6.941   0.854   3.214
 3833SOL     OW12397   0.196   6.194   6.486
 3833SOL    HW112398   0.205   6.292   6.470
 3833SOL    HW212399   0.214   6.144   6.401
 3834SOL     OW12400   4.028   4.189   1.256
 3834SOL    HW112401   4.050   4.097   1.225
 3834SOL    HW212402   4.106   4.226   1.307
 3835SOL     OW12403   3.693   5.719   4.755
 3835SOL    HW112404   3.745   5.722   4.670
 3835SOL    HW212405   3.736   5.779   4.823
 3836SOL     OW12406   0.346   4.604   5.998
 3836SOL    HW112407   0.350   4.621   5.900
 3836SOL    HW212408   0.399   4.675   6.046
 3837SOL     OW12409   4.556   4.093   6.091
 3837SOL    HW112410   4.464   4.129   6.075
 3837SOL    HW212411   4.552   4.024   6.163
 3838SOL     OW12412   0.968   3.512   4.574
 3838SOL    HW112413   0.922   3.505   4.662
 3838SOL    HW212414   0.940   3.436   4.515
 3839SOL     OW12415   5.932   1.137   3.084
 3839SOL    HW112416   5.906   1.212   3.145
 3839SOL    HW212417   6.024   1.106   3.107
 3840SOL     OW12418   2.297   1.123   6.763
 3840SOL    HW112419   2.366   1.173   6.710
 3840SOL    HW212420   2.300   1.154   6.858
 3841SOL     OW12421   0.235   3.945   4.819
 3841SOL    HW112422   0.182   3.999   4.884
 3841SOL    HW212423   0.191   3.948   4.729
 3842SOL     OW12424   2.659   2.848   1.709
 3842SOL    HW112425   2.714   2.765   1.707
 3842SOL    HW212426   2.676   2.901   1.626
 3843SOL     OW12427   5.614   4.937   2.343
 3843SOL    HW112428   5.619   4.974   2.250
 3843SOL    HW212429   5.667   4.852   2.347
 3844SOL     OW12430   1.048   2.747   5.439
 3844SOL    HW112431   1.054   2.845   5.455
 3844SOL    HW212432   1.050   2.699   5.527
 3845SOL     OW12433   2.910   4.053   5.554
 3845SOL    HW112434   2.847   4.130   5.543
 3845SOL    HW212435   2.936   4.018   5.464
 3846SOL     OW12436   6.846   5.281   3.290
 3846SOL    HW112437   6.937   5.323   3.288
 3846SOL    HW212438   6.783   5.335   3.235
 3847SOL     OW12439   5.161   1.960   3.957
 3847SOL    HW112440   5.134   1.894   3.887
 3847SOL    HW212441   5.165   1.915   4.046
 3848SOL     OW12442   4.590   5.459   2.477
 3848SOL    HW112443   4.525   5.511   2.421
 3848SOL    HW212444   4.604   5.507   2.564
 3849SOL     OW12445   1.257   0.937   6.238
 3849SOL    HW112446   1.201   0.856   6.250
 3849SOL    HW212447   1.204   1.009   6.195
 3850SOL     OW12448   2.650   3.288   1.391
 3850SOL    HW112449   2.710   3.293   1.470
 3850SOL    HW212450   2.555   3.292   1.421
 3851SOL     OW12451   0.737   4.720   2.268
 3851SOL    HW112452   0.663   4.760   2.320
 3851SOL    HW212453   0.825   4.742   2.311
 3852SOL     OW12454   4.177   6.277   4.021
 3852SOL    HW112455   4.086   6.246   4.049
 3852SOL    HW212456   4.193   6.251   3.926
 3853SOL     OW12457   0.705   4.355   3.556
 3853SOL    HW112458   0.615   4.320   3.584
 3853SOL    HW212459   0.726   4.323   3.464
 3854SOL     OW12460   1.802   2.900   2.682
 3854SOL    HW112461   1.794   2.829   2.751
 3854SOL    HW212462   1.859   2.867   2.607
 3855SOL     OW12463   5.739   6.434   6.383
 3855SOL    HW112464   5.824   6.401   6.342
 3855SOL    HW212465   5.691   6.494   6.319
 3856SOL     OW12466   6.875   0.450   5.978
 3856SOL    HW112467   6.842   0.477   5.888
 3856SOL    HW212468   6.826   0.501   6.049
 3857SOL     OW12469   0.071   6.808   0.043
 3857SOL    HW112470   0.125   6.834   6.985
 3857SOL    HW212471   0.114   6.730   0.088
 3858SOL     OW12472   2.044   0.875   5.403
 3858SOL    HW112473   2.062   0.916   5.493
 3858SOL    HW212474   2.073   0.779   5.404
 3859SOL     OW12475   6.201   1.098   2.297
 3859SOL    HW112476   6.107   1.122   2.322
 3859SOL    HW212477   6.214   0.999   2.305
 3860SOL     OW12478   2.939   0.660   5.545
 3860SOL    HW112479   2.934   0.572   5.497
 3860SOL    HW212480   3.030   0.700   5.532
 3861SOL     OW12481   4.365   4.681   3.487
 3861SOL    HW112482   4.334   4.590   3.458
 3861SOL    HW212483   4.371   4.684   3.586
 3862SOL     OW12484   0.188   0.709   4.573
 3862SOL    HW112485   0.275   0.731   4.619
 3862SOL    HW212486   0.112   0.727   4.635
 3863SOL     OW12487   5.664   2.941   0.002
 3863SOL    HW112488   5.754   2.913   0.036
 3863SOL    HW212489   5.672   3.030   6.981
 3864SOL     OW12490   2.613   0.271   5.241
 3864SOL    HW112491   2.639   0.181   5.208
 3864SOL    HW212492   2.597   0.332   5.162
 3865SOL     OW12493   2.926   0.346   0.265
 3865SOL    HW112494   2.967   0.379   0.350
 3865SOL    HW212495   2.980   0.379   0.187
 3866SOL     OW12496   3.395   0.822   1.264
 3866SOL    HW112497   3.343   0.903   1.288
 3866SOL    HW212498   3.484   0.824   1.311
 3867SOL     OW12499   0.953   4.810   3.899
 3867SOL    HW112500   1.035   4.865   3.880
 3867SOL    HW212501   0.910   4.783   3.813
 3868SOL     OW12502   3.028   6.929   0.304
 3868SOL    HW112503   3.081   7.011   0.280
 3868SOL    HW212504   2.946   6.924   0.248
 3869SOL     OW12505   5.524   3.993   4.751
 3869SOL    HW112506   5.511   4.071   4.689
 3869SOL    HW212507   5.440   3.980   4.805
 3870SOL     OW12508   5.709   6.228   6.565
 3870SOL    HW112509   5.646   6.160   6.528
 3870SOL    HW212510   5.725   6.298   6.496
 3871SOL     OW12511   3.790   0.673   3.232
 3871SOL    HW112512   3.771   0.652   3.328
 3871SOL    HW212513   3.708   0.658   3.177
 3872SOL     OW12514   3.819   2.988   3.913
 3872SOL    HW112515   3.764   2.971   3.996
 3872SOL    HW212516   3.883   3.062   3.931
 3873SOL     OW12517   5.817   2.857   1.305
 3873SOL    HW112518   5.916   2.841   1.308
 3873SOL    HW212519   5.797   2.947   1.345
 3874SOL     OW12520   4.324   5.808   0.138
 3874SOL    HW112521   4.316   5.793   0.040
 3874SOL    HW212522   4.348   5.722   0.184
 3875SOL     OW12523   1.937   2.823   1.963
 3875SOL    HW112524   1.893   2.748   1.914
 3875SOL    HW212525   1.879   2.904   1.958
 3876SOL     OW12526   4.201   5.276   0.998
 3876SOL    HW112527   4.271   5.265   0.928
 3876SOL    HW212528   4.114   5.300   0.955
 3877SOL     OW12529   5.540   3.193   0.556
 3877SOL    HW112530   5.583   3.157   0.639
 3877SOL    HW212531   5.567   3.288   0.543
 3878SOL     OW12532   3.518   6.669   4.423
 3878SOL    HW112533   3.582   6.691   4.350
 3878SOL    HW212534   3.521   6.571   4.442
 3879SOL     OW12535   5.035   5.199   1.903
 3879SOL    HW112536   5.093   5.280   1.892
 3879SOL    HW212537   4.938   5.226   1.896
 3880SOL     OW12538   6.028   4.819   4.007
 3880SOL    HW112539   6.065   4.774   3.926
 3880SOL    HW212540   5.952   4.765   4.044
 3881SOL     OW12541   0.940   3.972   1.536
 3881SOL    HW112542   0.933   3.888   1.590
 3881SOL    HW212543   1.028   4.016   1.554
 3882SOL     OW12544   1.159   1.585   5.549
 3882SOL    HW112545   1.071   1.545   5.521
 3882SOL    HW212546   1.189   1.650   5.479
 3883SOL     OW12547   3.956   1.089   3.848
 3883SOL    HW112548   3.897   1.067   3.927
 3883SOL    HW212549   4.042   1.040   3.857
 3884SOL     OW12550   0.396   4.969   3.419
 3884SOL    HW112551   0.459   5.035   3.377
 3884SOL    HW212552   0.369   4.900   3.352
 3885SOL     OW12553   6.607   0.466   2.705
 3885SOL    HW112554   6.560   0.542   2.660
 3885SOL    HW212555   6.684   0.437   2.649
 3886SOL     OW12556   6.263   6.023   4.955
 3886SOL    HW112557   6.332   6.052   5.022
 3886SOL    HW212558   6.279   5.928   4.929
 3887SOL     OW12559   0.708   0.415   6.270
 3887SOL    HW112560   0.665   0.387   6.184
 3887SOL    HW212561   0.680   0.508   6.293
 3888SOL     OW12562   6.580   0.249   5.486
 3888SOL    HW112563   6.504   0.276   5.427
 3888SOL    HW212564   6.666   0.281   5.447
 3889SOL     OW12565   6.833   3.237   5.825
 3889SOL    HW112566   6.775   3.159   5.800
 3889SOL    HW212567   6.915   3.204   5.872
 3890SOL     OW12568   5.348   5.763   3.201
 3890SOL    HW112569   5.396   5.850   3.207
 3890SOL    HW212570   5.252   5.775   3.228
 3891SOL     OW12571   6.056   4.347   4.932
 3891SOL    HW112572   6.005   4.372   5.014
 3891SOL    HW212573   6.151   4.326   4.957
 3892SOL     OW12574   0.078   1.962   1.222
 3892SOL    HW112575   0.025   1.928   1.300
 3892SOL    HW212576   0.173   1.931   1.230
 3893SOL     OW12577   4.356   4.384   1.165
 3893SOL    HW112578   4.297   4.406   1.243
 3893SOL    HW212579   4.378   4.286   1.167
 3894SOL     OW12580   3.279   2.793   0.977
 3894SOL    HW112581   3.326   2.816   0.892
 3894SOL    HW212582   3.228   2.707   0.964
 3895SOL     OW12583   1.457   0.574   5.587
 3895SOL    HW112584   1.481   0.670   5.603
 3895SOL    HW212585   1.501   0.517   5.656
 3896SOL     OW12586   0.352   1.030   6.010
 3896SOL    HW112587   0.379   1.126   6.016
 3896SOL    HW212588   0.276   1.020   5.945
 3897SOL     OW12589   3.888   5.824   2.337
 3897SOL    HW112590   3.922   5.737   2.301
 3897SOL    HW212591   3.824   5.865   2.272
 3898SOL     OW12592   3.714   3.547   4.254
 3898SOL    HW112593   3.763   3.553   4.341
 3898SOL    HW212594   3.780   3.537   4.180
 3899SOL     OW12595   5.770   0.733   3.977
 3899SOL    HW112596   5.740   0.697   3.888
 3899SOL    HW212597   5.807   0.825   3.965
 3900SOL     OW12598   5.474   2.735   3.907
 3900SOL    HW112599   5.389   2.699   3.868
 3900SOL    HW212600   5.530   2.774   3.833
 3901SOL     OW12601   2.887   6.771   5.249
 3901SOL    HW112602   2.792   6.799   5.240
 3901SOL    HW212603   2.892   6.680   5.292
 3902SOL     OW12604   6.330   3.960   2.395
 3902SOL    HW112605   6.266   3.998   2.461
 3902SOL    HW212606   6.287   3.956   2.304
 3903SOL     OW12607   4.611   5.322   0.280
 3903SOL    HW112608   4.520   5.354   0.307
 3903SOL    HW212609   4.617   5.223   0.293
 3904SOL     OW12610   1.804   6.740   5.431
 3904SOL    HW112611   1.717   6.742   5.480
 3904SOL    HW212612   1.820   6.648   5.394
 3905SOL     OW12613   6.058   0.265   5.789
 3905SOL    HW112614   6.097   0.244   5.700
 3905SOL    HW212615   6.076   0.361   5.812
 3906SOL     OW12616   3.380   5.180   5.103
 3906SOL    HW112617   3.435   5.196   5.185
 3906SOL    HW212618   3.396   5.254   5.037
 3907SOL     OW12619   6.494   6.782   5.521
 3907SOL    HW112620   6.485   6.720   5.443
 3907SOL    HW212621   6.576   6.838   5.511
 3908SOL     OW12622   1.162   0.581   0.334
 3908SOL    HW112623   1.211   0.605   0.250
 3908SOL    HW212624   1.144   0.664   0.387
 3909SOL     OW12625   1.083   5.429   5.625
 3909SOL    HW112626   1.114   5.356   5.685
 3909SOL    HW212627   1.112   5.518   5.662
 3910SOL     OW12628   3.823   3.979   1.992
 3910SOL    HW112629   3.882   3.944   2.065
 3910SOL    HW212630   3.781   3.903   1.943
 3911SOL     OW12631   3.925   1.176   6.923
 3911SOL    HW112632   3.967   1.097   6.968
 3911SOL    HW212633   3.934   1.257   6.981
 3912SOL     OW12634   3.258   0.694   6.586
 3912SOL    HW112635   3.299   0.630   6.522
 3912SOL    HW212636   3.164   0.715   6.558
 3913SOL     OW12637   2.667   5.634   6.399
 3913SOL    HW112638   2.588   5.593   6.354
 3913SOL    HW212639   2.659   5.733   6.396
 3914SOL     OW12640   3.695   1.092   0.930
 3914SOL    HW112641   3.726   1.168   0.988
 3914SOL    HW212642   3.667   1.016   0.988
 3915SOL     OW12643   4.266   6.457   1.899
 3915SOL    HW112644   4.319   6.486   1.819
 3915SOL    HW212645   4.179   6.507   1.902
 3916SOL     OW12646   1.613   6.434   2.878
 3916SOL    HW112647   1.528   6.457   2.831
 3916SOL    HW212648   1.604   6.343   2.918
 3917SOL     OW12649   0.970   4.940   0.229
 3917SOL    HW112650   0.891   4.995   0.205
 3917SOL    HW212651   1.008   4.897   0.147
 3918SOL     OW12652   4.758   6.764   2.092
 3918SOL    HW112653   4.682   6.817   2.130
 3918SOL    HW212654   4.726   6.671   2.069
 3919SOL     OW12655   3.195   6.723   6.458
 3919SOL    HW112656   3.225   6.660   6.386
 3919SOL    HW212657   3.161   6.807   6.416
 3920SOL     OW12658   2.793   1.871   6.638
 3920SOL    HW112659   2.753   1.954   6.677
 3920SOL    HW212660   2.887   1.861   6.670
 3921SOL     OW12661   0.627   2.892   0.514
 3921SOL    HW112662   0.684   2.941   0.448
 3921SOL    HW212663   0.543   2.943   0.531
 3922SOL     OW12664   5.657   4.800   1.229
 3922SOL    HW112665   5.601   4.717   1.228
 3922SOL    HW212666   5.696   4.815   1.138
 3923SOL     OW12667   6.325   1.727   6.883
 3923SOL    HW112668   6.330   1.782   6.800
 3923SOL    HW212669   6.246   1.666   6.877
 3924SOL     OW12670   0.395   5.136   3.113
 3924SOL    HW112671   0.475   5.158   3.168
 3924SOL    HW212672   0.357   5.048   3.142
 3925SOL     OW12673   4.229   4.365   0.876
 3925SOL    HW112674   4.238   4.410   0.965
 3925SOL    HW212675   4.135   4.377   0.842
 3926SOL     OW12676   6.791   5.964   3.044
 3926SOL    HW112677   6.785   6.001   3.137
 3926SOL    HW212678   6.887   5.953   3.019
 3927SOL     OW12679   6.728   3.919   4.645
 3927SOL    HW112680   6.762   3.876   4.561
 3927SOL    HW212681   6.735   4.018   4.637
 3928SOL     OW12682   3.091   5.224   4.500
 3928SOL    HW112683   2.995   5.222   4.530
 3928SOL    HW212684   3.132   5.134   4.514
 3929SOL     OW12685   0.245   2.379   6.459
 3929SOL    HW112686   0.266   2.462   6.407
 3929SOL    HW212687   0.158   2.391   6.506
 3930SOL     OW12688   1.503   2.345   4.003
 3930SOL    HW112689   1.429   2.282   4.024
 3930SOL    HW212690   1.573   2.297   3.949
 3931SOL     OW12691   2.546   1.649   2.729
 3931SOL    HW112692   2.481   1.638   2.803
 3931SOL    HW212693   2.500   1.688   2.649
 3932SOL     OW12694   1.714   4.398   3.278
 3932SOL    HW112695   1.723   4.379   3.376
 3932SOL    HW212696   1.623   4.435   3.259
 3933SOL     OW12697   2.168   6.593   6.528
 3933SOL    HW112698   2.076   6.633   6.530
 3933SOL    HW212699   2.225   6.636   6.598
 3934SOL     OW12700   0.498   1.359   1.390
 3934SOL    HW112701   0.504   1.280   1.329
 3934SOL    HW212702   0.423   1.347   1.455
 3935SOL     OW12703   1.942   0.174   5.065
 3935SOL    HW112704   2.013   0.195   5.132
 3935SOL    HW212705   1.853   0.198   5.102
 3936SOL     OW12706   0.129   5.802   5.588
 3936SOL    HW112707   0.116   5.703   5.584
 3936SOL    HW212708   0.047   5.845   5.626
 3937SOL     OW12709   0.646   0.069   2.353
 3937SOL    HW112710   0.628   0.037   2.446
 3937SOL    HW212711   0.612   0.162   2.342
 3938SOL     OW12712   6.380   3.145   4.216
 3938SOL    HW112713   6.382   3.048   4.189
 3938SOL    HW212714   6.442   3.197   4.158
 3939SOL     OW12715   3.205   1.724   3.035
 3939SOL    HW112716   3.224   1.629   3.060
 3939SOL    HW212717   3.119   1.753   3.076
 3940SOL     OW12718   3.998   4.789   2.122
 3940SOL    HW112719   3.940   4.709   2.132
 3940SOL    HW212720   4.012   4.808   2.024
 3941SOL     OW12721   6.257   1.097   5.461
 3941SOL    HW112722   6.280   1.114   5.557
 3941SOL    HW212723   6.311   1.020   5.427
 3942SOL     OW12724   0.916   6.422   5.546
 3942SOL    HW112725   0.907   6.466   5.456
 3942SOL    HW212726   0.933   6.324   5.534
 3943SOL     OW12727   0.572   3.516   2.909
 3943SOL    HW112728   0.483   3.553   2.936
 3943SOL    HW212729   0.558   3.440   2.845
 3944SOL     OW12730   5.387   4.013   5.425
 3944SOL    HW112731   5.476   4.037   5.463
 3944SOL    HW212732   5.343   3.945   5.482
 3945SOL     OW12733   0.897   2.426   2.706
 3945SOL    HW112734   0.857   2.506   2.662
 3945SOL    HW212735   0.994   2.421   2.684
 3946SOL     OW12736   6.109   4.407   5.771
 3946SOL    HW112737   6.193   4.376   5.727
 3946SOL    HW212738   6.076   4.337   5.834
 3947SOL     OW12739   6.107   5.561   1.757
 3947SOL    HW112740   6.126   5.653   1.723
 3947SOL    HW212741   6.053   5.567   1.841
 3948SOL     OW12742   0.698   4.749   0.554
 3948SOL    HW112743   0.737   4.835   0.585
 3948SOL    HW212744   0.604   4.741   0.588
 3949SOL     OW12745   5.260   0.163   2.782
 3949SOL    HW112746   5.252   0.210   2.695
 3949SOL    HW212747   5.207   0.078   2.779
 3950SOL     OW12748   3.149   4.181   1.579
 3950SOL    HW112749   3.097   4.103   1.613
 3950SOL    HW212750   3.183   4.160   1.487
 3951SOL     OW12751   0.208   0.087   6.717
 3951SOL    HW112752   0.289   0.130   6.757
 3951SOL    HW212753   0.128   0.110   6.771
 3952SOL     OW12754   5.955   3.677   4.343
 3952SOL    HW112755   6.040   3.634   4.311
 3952SOL    HW212756   5.877   3.627   4.305
 3953SOL     OW12757   3.195   4.208   0.305
 3953SOL    HW112758   3.111   4.263   0.307
 3953SOL    HW212759   3.235   4.206   0.397
 3954SOL     OW12760   5.729   5.489   5.618
 3954SOL    HW112761   5.664   5.543   5.671
 3954SOL    HW212762   5.784   5.433   5.679
 3955SOL     OW12763   4.607   6.741   0.108
 3955SOL    HW112764   4.672   6.753   0.033
 3955SOL    HW212765   4.643   6.674   0.173
 3956SOL     OW12766   0.921   1.803   3.776
 3956SOL    HW112767   0.826   1.826   3.757
 3956SOL    HW212768   0.939   1.812   3.873
 3957SOL     OW12769   4.076   0.094   3.427
 3957SOL    HW112770   4.098   0.180   3.473
 3957SOL    HW212771   4.121   0.092   3.338
 3958SOL     OW12772   5.166   0.550   6.221
 3958SOL    HW112773   5.172   0.480   6.293
 3958SOL    HW212774   5.117   0.630   6.256
 3959SOL     OW12775   3.497   6.564   0.810
 3959SOL    HW112776   3.440   6.603   0.738
 3959SOL    HW212777   3.558   6.495   0.771
 3960SOL     OW12778   5.477   1.715   6.077
 3960SOL    HW112779   5.429   1.797   6.048
 3960SOL    HW212780   5.575   1.733   6.080
 3961SOL     OW12781   5.537   2.710   2.023
 3961SOL    HW112782   5.623   2.759   2.039
 3961SOL    HW212783   5.491   2.694   2.110
 3962SOL     OW12784   2.067   5.245   6.740
 3962SOL    HW112785   1.986   5.281   6.694
 3962SOL    HW212786   2.149   5.271   6.689
 3963SOL     OW12787   4.568   4.448   3.673
 3963SOL    HW112788   4.571   4.427   3.575
 3963SOL    HW212789   4.492   4.510   3.691
 3964SOL     OW12790   4.469   4.927   4.959
 3964SOL    HW112791   4.516   4.972   4.883
 3964SOL    HW212792   4.403   4.990   5.000
 3965SOL     OW12793   3.997   3.497   6.192
 3965SOL    HW112794   3.906   3.515   6.156
 3965SOL    HW212795   4.065   3.549   6.141
 3966SOL     OW12796   6.330   5.357   0.363
 3966SOL    HW112797   6.290   5.444   0.390
 3966SOL    HW212798   6.262   5.304   0.312
 3967SOL     OW12799   1.538   4.446   2.642
 3967SOL    HW112800   1.502   4.538   2.660
 3967SOL    HW212801   1.473   4.378   2.678
 3968SOL     OW12802   0.074   0.361   0.891
 3968SOL    HW112803   0.081   0.445   0.838
 3968SOL    HW212804   7.020   0.306   0.858
 3969SOL     OW12805   1.226   3.585   2.905
 3969SOL    HW112806   1.305   3.582   2.843
 3969SOL    HW212807   1.143   3.563   2.855
 3970SOL     OW12808   5.175   5.031   3.876
 3970SOL    HW112809   5.158   4.933   3.865
 3970SOL    HW212810   5.113   5.067   3.946
 3971SOL     OW12811   2.614   4.599   2.422
 3971SOL    HW112812   2.712   4.579   2.418
 3971SOL    HW212813   2.594   4.650   2.506
 3972SOL     OW12814   1.339   5.169   1.153
 3972SOL    HW112815   1.317   5.165   1.055
 3972SOL    HW212816   1.262   5.134   1.206
 3973SOL     OW12817   2.084   4.311   5.921
 3973SOL    HW112818   2.126   4.299   6.011
 3973SOL    HW212819   2.149   4.282   5.850
 3974SOL     OW12820   1.665   7.018   5.315
 3974SOL    HW112821   1.689   6.927   5.280
 3974SOL    HW212822   1.634   7.011   5.409
 3975SOL     OW12823   5.343   0.641   6.543
 3975SOL    HW112824   5.436   0.672   6.519
 3975SOL    HW212825   5.347   0.548   6.579
 3976SOL     OW12826   1.583   5.151   1.565
 3976SOL    HW112827   1.622   5.090   1.496
 3976SOL    HW212828   1.630   5.136   1.652
 3977SOL     OW12829   3.001   4.286   5.288
 3977SOL    HW112830   2.949   4.354   5.236
 3977SOL    HW212831   3.017   4.206   5.231
 3978SOL     OW12832   5.510   6.960   4.529
 3978SOL    HW112833   5.493   6.899   4.607
 3978SOL    HW212834   5.585   7.022   4.551
 3979SOL     OW12835   2.451   6.024   1.574
 3979SOL    HW112836   2.520   5.988   1.511
 3979SOL    HW212837   2.361   6.022   1.530
 3980SOL     OW12838   6.893   4.453   6.824
 3980SOL    HW112839   6.842   4.463   6.738
 3980SOL    HW212840   6.990   4.468   6.807
 3981SOL     OW12841   2.052   1.739   6.084
 3981SOL    HW112842   2.131   1.793   6.111
 3981SOL    HW212843   2.051   1.653   6.135
 3982SOL     OW12844   1.617   0.951   4.386
 3982SOL    HW112845   1.707   0.970   4.426
 3982SOL    HW212846   1.629   0.908   4.296
 3983SOL     OW12847   4.285   5.390   4.084
 3983SOL    HW112848   4.372   5.420   4.044
 3983SOL    HW212849   4.304   5.346   4.172
 3984SOL     OW12850   1.685   1.085   2.728
 3984SOL    HW112851   1.735   1.116   2.808
 3984SOL    HW212852   1.744   1.090   2.647
 3985SOL     OW12853   3.123   4.544   6.636
 3985SOL    HW112854   3.223   4.542   6.629
 3985SOL    HW212855   3.095   4.512   6.726
 3986SOL     OW12856   0.132   2.235   3.062
 3986SOL    HW112857   0.038   2.239   3.025
 3986SOL    HW212858   0.163   2.328   3.083
 3987SOL     OW12859   2.425   5.986   4.364
 3987SOL    HW112860   2.484   5.986   4.283
 3987SOL    HW212861   2.331   6.007   4.337
 3988SOL     OW12862   3.391   3.000   6.543
 3988SOL    HW112863   3.416   3.096   6.528
 3988SOL    HW212864   3.474   2.944   6.542
 3989SOL     OW12865   5.989   1.544   0.410
 3989SOL    HW112866   5.925   1.510   0.341
 3989SOL    HW212867   6.058   1.474   0.428
 3990SOL     OW12868   5.704   1.809   3.587
 3990SOL    HW112869   5.702   1.747   3.509
 3990SOL    HW212870   5.650   1.771   3.661
 3991SOL     OW12871   6.067   1.857   2.125
 3991SOL    HW112872   6.092   1.863   2.221
 3991SOL    HW212873   6.140   1.895   2.069
 3992SOL     OW12874   4.091   2.241   6.602
 3992SOL    HW112875   4.099   2.304   6.525
 3992SOL    HW212876   4.182   2.215   6.634
 3993SOL     OW12877   0.407   2.460   3.253
 3993SOL    HW112878   0.502   2.487   3.266
 3993SOL    HW212879   0.371   2.420   3.338
 3994SOL     OW12880   0.886   2.650   6.154
 3994SOL    HW112881   0.851   2.743   6.148
 3994SOL    HW212882   0.822   2.593   6.207
 3995SOL     OW12883   2.149   3.580   4.018
 3995SOL    HW112884   2.134   3.482   4.004
 3995SOL    HW212885   2.066   3.630   3.993
 3996SOL     OW12886   0.643   1.234   4.502
 3996SOL    HW112887   0.598   1.176   4.434
 3996SOL    HW212888   0.717   1.183   4.546
 3997SOL     OW12889   4.906   3.100   2.460
 3997SOL    HW112890   4.904   3.200   2.464
 3997SOL    HW212891   4.872   3.070   2.370
 3998SOL     OW12892   4.749   1.189   2.844
 3998SOL    HW112893   4.686   1.244   2.788
 3998SOL    HW212894   4.817   1.146   2.784
 3999SOL     OW12895   5.269   3.512   3.622
 3999SOL    HW112896   5.310   3.573   3.691
 3999SOL    HW212897   5.342   3.465   3.572
 4000SOL     OW12898   3.184   5.260   2.535
 4000SOL    HW112899   3.171   5.165   2.565
 4000SOL    HW212900   3.262   5.299   2.582
 4001SOL     OW12901   1.560   2.013   3.858
 4001SOL    HW112902   1.635   2.063   3.901
 4001SOL    HW212903   1.586   1.986   3.765
 4002SOL     OW12904   2.852   3.096   0.386
 4002SOL    HW112905   2.801   3.028   0.333
 4002SOL    HW212906   2.933   3.052   0.426
 4003SOL     OW12907   2.518   6.564   5.199
 4003SOL    HW112908   2.445   6.573   5.132
 4003SOL    HW212909   2.585   6.497   5.166
 4004SOL     OW12910   6.340   2.215   4.064
 4004SOL    HW112911   6.367   2.230   3.969
 4004SOL    HW212912   6.283   2.291   4.095
 4005SOL     OW12913   5.210   5.371   0.870
 4005SOL    HW112914   5.269   5.302   0.912
 4005SOL    HW212915   5.114   5.344   0.879
 4006SOL     OW12916   4.355   5.137   2.117
 4006SOL    HW112917   4.418   5.155   2.192
 4006SOL    HW212918   4.325   5.042   2.122
 4007SOL     OW12919   0.346   3.070   1.775
 4007SOL    HW112920   0.270   3.130   1.799
 4007SOL    HW212921   0.377   3.090   1.682
 4008SOL     OW12922   3.214   1.681   3.969
 4008SOL    HW112923   3.214   1.748   3.895
 4008SOL    HW212924   3.304   1.639   3.976
 4009SOL     OW12925   5.234   2.585   0.370
 4009SOL    HW112926   5.216   2.535   0.285
 4009SOL    HW212927   5.228   2.523   0.447
 4010SOL     OW12928   1.945   3.564   1.141
 4010SOL    HW112929   1.933   3.468   1.167
 4010SOL    HW212930   1.924   3.622   1.220
 4011SOL     OW12931   1.106   0.719   1.478
 4011SOL    HW112932   1.189   0.742   1.427
 4011SOL    HW212933   1.127   0.712   1.575
 4012SOL     OW12934   4.351   4.867   2.055
 4012SOL    HW112935   4.448   4.847   2.038
 4012SOL    HW212936   4.301   4.781   2.063
 4013SOL     OW12937   2.790   0.440   1.083
 4013SOL    HW112938   2.764   0.493   1.003
 4013SOL    HW212939   2.863   0.376   1.059
 4014SOL     OW12940   4.154   6.018   3.195
 4014SOL    HW112941   4.205   6.096   3.159
 4014SOL    HW212942   4.198   5.985   3.278
 4015SOL     OW12943   4.539   5.702   6.419
 4015SOL    HW112944   4.619   5.647   6.439
 4015SOL    HW212945   4.526   5.771   6.490
 4016SOL     OW12946   1.599   5.685   6.681
 4016SOL    HW112947   1.508   5.681   6.640
 4016SOL    HW212948   1.595   5.650   6.774
 4017SOL     OW12949   0.125   6.760   6.684
 4017SOL    HW112950   0.155   6.815   6.762
 4017SOL    HW212951   0.046   6.803   6.641
 4018SOL     OW12952   6.047   6.721   2.104
 4018SOL    HW112953   5.953   6.689   2.089
 4018SOL    HW212954   6.087   6.750   2.017
 4019SOL     OW12955   5.700   3.994   2.450
 4019SOL    HW112956   5.797   3.968   2.447
 4019SOL    HW212957   5.653   3.956   2.371
 4020SOL     OW12958   6.318   2.552   5.605
 4020SOL    HW112959   6.267   2.466   5.599
 4020SOL    HW212960   6.396   2.550   5.542
 4021SOL     OW12961   2.946   3.508   5.320
 4021SOL    HW112962   2.909   3.417   5.302
 4021SOL    HW212963   2.882   3.578   5.287
 4022SOL     OW12964   4.007   0.399   6.950
 4022SOL    HW112965   4.021   0.436   0.019
 4022SOL    HW212966   4.038   0.465   6.882
 4023SOL     OW12967   6.734   1.516   4.088
 4023SOL    HW112968   6.636   1.520   4.068
 4023SOL    HW212969   6.757   1.426   4.124
 4024SOL     OW12970   2.508   5.464   4.380
 4024SOL    HW112971   2.421   5.465   4.330
 4024SOL    HW212972   2.567   5.394   4.341
 4025SOL     OW12973   0.757   6.125   4.776
 4025SOL    HW112974   0.827   6.161   4.837
 4025SOL    HW212975   0.795   6.048   4.724
 4026SOL     OW12976   6.452   6.479   3.875
 4026SOL    HW112977   6.450   6.515   3.969
 4026SOL    HW212978   6.425   6.383   3.876
 4027SOL     OW12979   3.087   3.713   2.153
 4027SOL    HW112980   3.052   3.708   2.246
 4027SOL    HW212981   3.103   3.809   2.129
 4028SOL     OW12982   2.016   2.541   3.321
 4028SOL    HW112983   2.104   2.492   3.315
 4028SOL    HW212984   2.032   2.634   3.352
 4029SOL     OW12985   2.904   4.242   6.476
 4029SOL    HW112986   2.893   4.341   6.462
 4029SOL    HW212987   2.878   4.219   6.570
 4030SOL     OW12988   1.464   1.491   6.785
 4030SOL    HW112989   1.528   1.440   6.728
 4030SOL    HW212990   1.514   1.554   6.844
 4031SOL     OW12991   4.691   6.073   3.229
 4031SOL    HW112992   4.761   6.052   3.297
 4031SOL    HW212993   4.661   5.989   3.185
 4032SOL     OW12994   6.344   0.041   3.163
 4032SOL    HW112995   6.393   0.017   3.079
 4032SOL    HW212996   6.346   0.140   3.176
 4033SOL     OW12997   2.975   3.287   2.547
 4033SOL    HW112998   3.061   3.326   2.514
 4033SOL    HW212999   2.898   3.335   2.505
 4034SOL     OW13000   6.614   1.599   5.145
 4034SOL    HW113001   6.534   1.644   5.185
 4034SOL    HW213002   6.622   1.625   5.049
 4035SOL     OW13003   0.222   2.745   0.908
 4035SOL    HW113004   0.235   2.699   0.995
 4035SOL    HW213005   0.141   2.708   0.862
 4036SOL     OW13006   5.042   6.844   2.250
 4036SOL    HW113007   5.000   6.898   2.177
 4036SOL    HW213008   5.022   6.887   2.339
 4037SOL     OW13009   1.999   2.091   0.379
 4037SOL    HW113010   2.079   2.077   0.320
 4037SOL    HW213011   1.922   2.038   0.342
 4038SOL     OW13012   4.453   4.572   2.045
 4038SOL    HW113013   4.510   4.603   2.121
 4038SOL    HW213014   4.455   4.472   2.041
 4039SOL     OW13015   4.819   4.861   1.676
 4039SOL    HW113016   4.893   4.846   1.610
 4039SOL    HW213017   4.859   4.881   1.766
 4040SOL     OW13018   3.227   0.304   5.949
 4040SOL    HW113019   3.182   0.222   5.915
 4040SOL    HW213020   3.234   0.371   5.874
 4041SOL     OW13021   2.329   5.734   1.386
 4041SOL    HW113022   2.375   5.818   1.413
 4041SOL    HW213023   2.396   5.660   1.374
 4042SOL     OW13024   6.255   5.023   2.778
 4042SOL    HW113025   6.288   5.010   2.684
 4042SOL    HW213026   6.324   5.073   2.831
 4043SOL     OW13027   5.183   2.229   3.921
 4043SOL    HW113028   5.174   2.265   4.013
 4043SOL    HW213029   5.161   2.131   3.920
 4044SOL     OW13030   5.127   0.462   4.227
 4044SOL    HW113031   5.046   0.480   4.170
 4044SOL    HW213032   5.099   0.457   4.323
 4045SOL     OW13033   2.963   4.687   6.190
 4045SOL    HW113034   2.969   4.588   6.177
 4045SOL    HW213035   2.887   4.722   6.136
 4046SOL     OW13036   0.623   1.316   3.646
 4046SOL    HW113037   0.523   1.319   3.653
 4046SOL    HW213038   0.657   1.234   3.691
 4047SOL     OW13039   2.461   2.603   0.941
 4047SOL    HW113040   2.518   2.529   0.905
 4047SOL    HW213041   2.414   2.649   0.865
 4048SOL     OW13042   5.471   1.540   2.457
 4048SOL    HW113043   5.527   1.501   2.530
 4048SOL    HW213044   5.430   1.626   2.488
 4049SOL     OW13045   6.320   6.102   0.076
 4049SOL    HW113046   6.360   6.188   0.043
 4049SOL    HW213047   6.260   6.064   0.006
 4050SOL     OW13048   2.240   6.641   0.731
 4050SOL    HW113049   2.231   6.727   0.781
 4050SOL    HW213050   2.335   6.630   0.701
 4051SOL     OW13051   3.639   3.032   0.069
 4051SOL    HW113052   3.689   3.009   0.152
 4051SOL    HW213053   3.572   3.103   0.089
 4052SOL     OW13054   6.914   0.587   1.895
 4052SOL    HW113055   6.866   0.524   1.956
 4052SOL    HW213056   6.987   0.633   1.945
 4053SOL     OW13057   2.993   5.243   3.914
 4053SOL    HW113058   3.020   5.179   3.842
 4053SOL    HW213059   2.962   5.193   3.994
 4054SOL     OW13060   1.119   2.855   1.540
 4054SOL    HW113061   1.100   2.869   1.442
 4054SOL    HW213062   1.188   2.920   1.570
 4055SOL     OW13063   3.826   3.451   5.747
 4055SOL    HW113064   3.830   3.429   5.844
 4055SOL    HW213065   3.732   3.472   5.721
 4056SOL     OW13066   4.142   3.048   0.267
 4056SOL    HW113067   4.158   3.087   0.177
 4056SOL    HW213068   4.147   2.948   0.262
 4057SOL     OW13069   5.016   2.295   1.110
 4057SOL    HW113070   4.957   2.243   1.171
 4057SOL    HW213071   5.105   2.308   1.153
 4058SOL     OW13072   1.521   1.092   4.593
 4058SOL    HW113073   1.422   1.107   4.587
 4058SOL    HW213074   1.551   1.037   4.516
 4059SOL     OW13075   1.319   2.734   3.448
 4059SOL    HW113076   1.350   2.712   3.356
 4059SOL    HW213077   1.320   2.834   3.461
 4060SOL     OW13078   4.621   5.722   5.027
 4060SOL    HW113079   4.640   5.736   5.124
 4060SOL    HW213080   4.707   5.709   4.978
 4061SOL     OW13081   3.379   4.915   1.944
 4061SOL    HW113082   3.377   5.004   1.989
 4061SOL    HW213083   3.463   4.867   1.968
 4062SOL     OW13084   3.470   1.457   2.684
 4062SOL    HW113085   3.545   1.410   2.636
 4062SOL    HW213086   3.453   1.545   2.640
 4063SOL     OW13087   5.251   6.950   5.248
 4063SOL    HW113088   5.311   6.875   5.277
 4063SOL    HW213089   5.267   6.970   5.152
 4064SOL     OW13090   1.709   6.497   3.489
 4064SOL    HW113091   1.801   6.532   3.471
 4064SOL    HW213092   1.653   6.509   3.408
 4065SOL     OW13093   0.880   6.692   0.554
 4065SOL    HW113094   0.829   6.738   0.626
 4065SOL    HW213095   0.973   6.674   0.586
 4066SOL     OW13096   5.382   5.269   2.976
 4066SOL    HW113097   5.320   5.306   2.906
 4066SOL    HW213098   5.399   5.173   2.957
 4067SOL     OW13099   6.258   3.368   2.319
 4067SOL    HW113100   6.248   3.350   2.416
 4067SOL    HW213101   6.337   3.318   2.283
 4068SOL     OW13102   3.589   0.611   4.411
 4068SOL    HW113103   3.512   0.649   4.462
 4068SOL    HW213104   3.627   0.533   4.460
 4069SOL     OW13105   3.784   4.268   6.328
 4069SOL    HW113106   3.801   4.209   6.249
 4069SOL    HW213107   3.695   4.245   6.368
 4070SOL     OW13108   1.019   3.478   2.780
 4070SOL    HW113109   0.949   3.435   2.837
 4070SOL    HW213110   1.060   3.409   2.721
 4071SOL     OW13111   1.275   0.569   4.979
 4071SOL    HW113112   1.365   0.541   4.946
 4071SOL    HW213113   1.277   0.580   5.078
 4072SOL     OW13114   0.647   6.028   4.259
 4072SOL    HW113115   0.740   6.007   4.230
 4072SOL    HW213116   0.622   5.969   4.336
 4073SOL     OW13117   2.416   5.806   6.112
 4073SOL    HW113118   2.317   5.790   6.121
 4073SOL    HW213119   2.449   5.763   6.028
 4074SOL     OW13120   1.040   2.477   2.260
 4074SOL    HW113121   1.095   2.447   2.338
 4074SOL    HW213122   1.053   2.575   2.246
 4075SOL     OW13123   4.218   2.228   2.212
 4075SOL    HW113124   4.298   2.288   2.213
 4075SOL    HW213125   4.165   2.246   2.129
 4076SOL     OW13126   2.358   3.311   6.046
 4076SOL    HW113127   2.276   3.268   6.009
 4076SOL    HW213128   2.360   3.408   6.021
 4077SOL     OW13129   3.263   6.536   6.900
 4077SOL    HW113130   3.320   6.600   6.848
 4077SOL    HW213131   3.223   6.583   6.978
 4078SOL     OW13132   6.760   5.117   1.584
 4078SOL    HW113133   6.764   5.143   1.681
 4078SOL    HW213134   6.691   5.172   1.537
 4079SOL     OW13135   0.720   2.060   3.468
 4079SOL    HW113136   0.784   2.073   3.392
 4079SOL    HW213137   0.674   2.146   3.488
 4080SOL     OW13138   2.842   3.564   0.993
 4080SOL    HW113139   2.783   3.538   0.916
 4080SOL    HW213140   2.896   3.485   1.022
 4081SOL     OW13141   1.347   1.834   3.812
 4081SOL    HW113142   1.395   1.749   3.790
 4081SOL    HW213143   1.414   1.906   3.832
 4082SOL     OW13144   1.397   1.955   0.748
 4082SOL    HW113145   1.380   1.963   0.846
 4082SOL    HW213146   1.463   2.024   0.720
 4083SOL     OW13147   6.040   3.930   3.245
 4083SOL    HW113148   6.102   3.893   3.176
 4083SOL    HW213149   5.965   3.865   3.261
 4084SOL     OW13150   4.879   2.629   2.857
 4084SOL    HW113151   4.807   2.682   2.903
 4084SOL    HW213152   4.876   2.647   2.759
 4085SOL     OW13153   2.633   5.778   0.653
 4085SOL    HW113154   2.560   5.733   0.602
 4085SOL    HW213155   2.676   5.848   0.596
 4086SOL     OW13156   0.027   5.151   0.761
 4086SOL    HW113157   6.984   5.082   0.729
 4086SOL    HW213158   0.054   5.130   0.855
 4087SOL     OW13159   2.596   1.096   2.884
 4087SOL    HW113160   2.647   1.011   2.870
 4087SOL    HW213161   2.618   1.161   2.810
 4088SOL     OW13162   6.505   1.599   6.067
 4088SOL    HW113163   6.490   1.504   6.039
 4088SOL    HW213164   6.417   1.644   6.081
 4089SOL     OW13165   6.409   5.250   4.852
 4089SOL    HW113166   6.444   5.330   4.803
 4089SOL    HW213167   6.393   5.176   4.787
 4090SOL     OW13168   2.297   5.731   5.364
 4090SOL    HW113169   2.383   5.780   5.377
 4090SOL    HW213170   2.222   5.797   5.354
 4091SOL     OW13171   0.559   5.920   0.013
 4091SOL    HW113172   0.509   6.003   0.038
 4091SOL    HW213173   0.531   5.845   0.073
 4092SOL     OW13174   5.938   2.651   3.850
 4092SOL    HW113175   5.891   2.567   3.821
 4092SOL    HW213176   5.908   2.675   3.943
 4093SOL     OW13177   5.453   6.813   1.049
 4093SOL    HW113178   5.388   6.749   1.009
 4093SOL    HW213179   5.508   6.766   1.118
 4094SOL     OW13180   1.322   4.884   6.639
 4094SOL    HW113181   1.263   4.962   6.663
 4094SOL    HW213182   1.355   4.895   6.546
 4095SOL     OW13183   0.728   3.507   0.328
 4095SOL    HW113184   0.693   3.551   0.245
 4095SOL    HW213185   0.691   3.415   0.334
 4096SOL     OW13186   3.458   0.763   6.284
 4096SOL    HW113187   3.537   0.823   6.269
 4096SOL    HW213188   3.381   0.817   6.317
 4097SOL     OW13189   5.228   4.829   5.520
 4097SOL    HW113190   5.273   4.751   5.477
 4097SOL    HW213191   5.135   4.804   5.547
 4098SOL     OW13192   1.032   3.126   0.882
 4098SOL    HW113193   1.008   3.223   0.879
 4098SOL    HW213194   1.009   3.089   0.972
 4099SOL     OW13195   3.380   5.036   0.744
 4099SOL    HW113196   3.331   4.966   0.795
 4099SOL    HW213197   3.343   5.043   0.651
 4100SOL     OW13198   0.933   6.929   4.291
 4100SOL    HW113199   1.019   6.923   4.240
 4100SOL    HW213200   0.858   6.940   4.226
 4101SOL     OW13201   1.026   1.263   6.740
 4101SOL    HW113202   1.117   1.265   6.699
 4101SOL    HW213203   0.989   1.170   6.733
 4102SOL     OW13204   1.893   0.114   0.632
 4102SOL    HW113205   1.933   0.066   0.710
 4102SOL    HW213206   1.836   0.050   0.580
 4103SOL     OW13207   0.371   0.137   2.116
 4103SOL    HW113208   0.463   0.137   2.078
 4103SOL    HW213209   0.319   0.212   2.075
 4104SOL     OW13210   0.408   4.843   3.698
 4104SOL    HW113211   0.354   4.764   3.728
 4104SOL    HW213212   0.395   4.857   3.600
 4105SOL     OW13213   6.270   0.383   2.588
 4105SOL    HW113214   6.332   0.455   2.617
 4105SOL    HW213215   6.281   0.303   2.648
 4106SOL     OW13216   0.781   2.776   3.823
 4106SOL    HW113217   0.685   2.803   3.829
 4106SOL    HW213218   0.796   2.695   3.878
 4107SOL     OW13219   0.865   6.244   0.727
 4107SOL    HW113220   0.913   6.159   0.747
 4107SOL    HW213221   0.778   6.246   0.776
 4108SOL     OW13222   6.201   4.961   4.861
 4108SOL    HW113223   6.180   4.871   4.821
 4108SOL    HW213224   6.171   5.032   4.798
 4109SOL     OW13225   5.756   6.732   4.723
 4109SOL    HW113226   5.841   6.746   4.775
 4109SOL    HW213227   5.773   6.748   4.626
 4110SOL     OW13228   4.046   3.073   5.990
 4110SOL    HW113229   4.125   3.133   5.975
 4110SOL    HW213230   4.039   3.007   5.916
 4111SOL     OW13231   6.132   4.853   6.253
 4111SOL    HW113232   6.032   4.850   6.259
 4111SOL    HW213233   6.162   4.799   6.174
 4112SOL     OW13234   4.592   6.361   4.082
 4112SOL    HW113235   4.569   6.437   4.020
 4112SOL    HW213236   4.649   6.294   4.033
 4113SOL     OW13237   5.270   6.182   4.996
 4113SOL    HW113238   5.174   6.167   5.021
 4113SOL    HW213239   5.290   6.280   4.999
 4114SOL     OW13240   5.791   1.854   3.229
 4114SOL    HW113241   5.852   1.807   3.292
 4114SOL    HW213242   5.727   1.789   3.190
 4115SOL     OW13243   3.035   5.099   3.051
 4115SOL    HW113244   3.111   5.038   3.073
 4115SOL    HW213245   2.951   5.046   3.045
 4116SOL     OW13246   4.172   1.893   3.361
 4116SOL    HW113247   4.094   1.949   3.387
 4116SOL    HW213248   4.224   1.867   3.442
 4117SOL     OW13249   0.827   3.312   2.900
 4117SOL    HW113250   0.894   3.262   2.845
 4117SOL    HW213251   0.790   3.251   2.971
 4118SOL     OW13252   5.071   6.931   6.862
 4118SOL    HW113253   5.122   6.847   6.844
 4118SOL    HW213254   5.086   6.995   6.786
 4119SOL     OW13255   3.052   1.748   3.362
 4119SOL    HW113256   3.122   1.680   3.340
 4119SOL    HW213257   3.095   1.834   3.387
 4120SOL     OW13258   3.073   1.413   5.939
 4120SOL    HW113259   3.101   1.376   6.027
 4120SOL    HW213260   2.976   1.396   5.924
 4121SOL     OW13261   6.597   6.988   3.941
 4121SOL    HW113262   6.600   7.017   4.037
 4121SOL    HW213263   6.547   6.902   3.934
 4122SOL     OW13264   1.371   6.466   4.572
 4122SOL    HW113265   1.307   6.416   4.631
 4122SOL    HW213266   1.427   6.401   4.521
 4123SOL     OW13267   4.223   4.873   5.132
 4123SOL    HW113268   4.181   4.854   5.221
 4123SOL    HW213269   4.182   4.956   5.093
 4124SOL     OW13270   6.898   0.175   0.759
 4124SOL    HW113271   6.928   0.105   0.694
 4124SOL    HW213272   6.820   0.225   0.720
 4125SOL     OW13273   4.329   2.376   3.088
 4125SOL    HW113274   4.247   2.431   3.075
 4125SOL    HW213275   4.353   2.330   3.003
 4126SOL     OW13276   1.683   3.370   3.270
 4126SOL    HW113277   1.641   3.416   3.348
 4126SOL    HW213278   1.711   3.278   3.296
 4127SOL     OW13279   5.277   3.463   4.964
 4127SOL    HW113280   5.206   3.502   4.904
 4127SOL    HW213281   5.274   3.363   4.958
 4128SOL     OW13282   0.651   3.539   1.478
 4128SOL    HW113283   0.670   3.588   1.392
 4128SOL    HW213284   0.622   3.605   1.548
 4129SOL     OW13285   3.082   1.082   0.200
 4129SOL    HW113286   3.046   1.139   0.275
 4129SOL    HW213287   3.011   1.068   0.132
 4130SOL     OW13288   6.009   2.287   0.291
 4130SOL    HW113289   6.100   2.275   0.251
 4130SOL    HW213290   5.942   2.236   0.236
 4131SOL     OW13291   0.414   1.818   3.246
 4131SOL    HW113292   0.408   1.835   3.344
 4131SOL    HW213293   0.401   1.903   3.196
 4132SOL     OW13294   5.096   3.949   3.616
 4132SOL    HW113295   5.181   3.944   3.563
 4132SOL    HW213296   5.108   3.900   3.702
 4133SOL     OW13297   3.596   5.941   1.583
 4133SOL    HW113298   3.504   5.902   1.580
 4133SOL    HW213299   3.662   5.872   1.553
 4134SOL     OW13300   1.810   3.772   1.000
 4134SOL    HW113301   1.867   3.836   1.051
 4134SOL    HW213302   1.851   3.681   1.004
 4135SOL     OW13303   0.522   2.684   1.745
 4135SOL    HW113304   0.524   2.585   1.760
 4135SOL    HW213305   0.604   2.726   1.783
 4136SOL     OW13306   1.335   3.844   3.331
 4136SOL    HW113307   1.414   3.896   3.298
 4136SOL    HW213308   1.323   3.762   3.274
 4137SOL     OW13309   1.759   3.351   0.782
 4137SOL    HW113310   1.757   3.285   0.706
 4137SOL    HW213311   1.787   3.305   0.866
 4138SOL     OW13312   3.706   5.318   2.525
 4138SOL    HW113313   3.632   5.380   2.549
 4138SOL    HW213314   3.791   5.348   2.568
 4139SOL     OW13315   1.679   1.114   4.823
 4139SOL    HW113316   1.604   1.097   4.759
 4139SOL    HW213317   1.658   1.196   4.878
 4140SOL     OW13318   3.454   1.100   4.758
 4140SOL    HW113319   3.474   1.130   4.665
 4140SOL    HW213320   3.437   1.179   4.816
 4141SOL     OW13321   5.601   0.023   1.130
 4141SOL    HW113322   5.550   6.984   1.070
 4141SOL    HW213323   5.698   0.022   1.104
 4142SOL     OW13324   6.333   4.280   1.235
 4142SOL    HW113325   6.383   4.337   1.170
 4142SOL    HW213326   6.298   4.198   1.188
 4143SOL     OW13327   6.014   2.805   0.964
 4143SOL    HW113328   6.044   2.810   1.059
 4143SOL    HW213329   5.964   2.719   0.949
 4144SOL     OW13330   5.159   1.635   6.937
 4144SOL    HW113331   5.152   1.697   7.015
 4144SOL    HW213332   5.165   1.541   6.970
 4145SOL     OW13333   0.781   6.347   1.184
 4145SOL    HW113334   0.873   6.356   1.222
 4145SOL    HW213335   0.756   6.432   1.138
 4146SOL     OW13336   6.616   0.070   3.272
 4146SOL    HW113337   6.609   0.073   3.372
 4146SOL    HW213338   6.543   0.012   3.235
 4147SOL     OW13339   4.354   4.748   5.999
 4147SOL    HW113340   4.431   4.725   6.059
 4147SOL    HW213341   4.368   4.707   5.909
 4148SOL     OW13342   2.705   0.249   4.818
 4148SOL    HW113343   2.725   0.179   4.887
 4148SOL    HW213344   2.732   0.216   4.728
 4149SOL     OW13345   0.168   4.467   1.432
 4149SOL    HW113346   0.209   4.546   1.479
 4149SOL    HW213347   0.207   4.383   1.468
 4150SOL     OW13348   0.533   0.473   5.547
 4150SOL    HW113349   0.447   0.440   5.508
 4150SOL    HW213350   0.608   0.452   5.485
 4151SOL     OW13351   2.995   6.305   5.953
 4151SOL    HW113352   2.933   6.337   5.881
 4151SOL    HW213353   2.950   6.234   6.008
 4152SOL     OW13354   4.196   5.968   0.997
 4152SOL    HW113355   4.290   5.935   0.996
 4152SOL    HW213356   4.136   5.899   1.038
 4153SOL     OW13357   5.784   5.459   1.625
 4153SOL    HW113358   5.740   5.433   1.710
 4153SOL    HW213359   5.721   5.446   1.549
 4154SOL     OW13360   6.752   5.397   4.404
 4154SOL    HW113361   6.847   5.405   4.433
 4154SOL    HW213362   6.711   5.488   4.393
 4155SOL     OW13363   0.117   0.938   1.073
 4155SOL    HW113364   0.157   1.026   1.099
 4155SOL    HW213365   0.168   0.901   0.995
 4156SOL     OW13366   5.920   5.481   5.419
 4156SOL    HW113367   5.852   5.505   5.487
 4156SOL    HW213368   5.886   5.505   5.328
 4157SOL     OW13369   5.463   5.720   3.822
 4157SOL    HW113370   5.487   5.633   3.865
 4157SOL    HW213371   5.438   5.705   3.726
 4158SOL     OW13372   0.556   3.262   2.399
 4158SOL    HW113373   0.643   3.258   2.447
 4158SOL    HW213374   0.481   3.258   2.466
 4159SOL     OW13375   1.465   3.185   3.047
 4159SOL    HW113376   1.554   3.142   3.030
 4159SOL    HW213377   1.449   3.257   2.979
 4160SOL     OW13378   5.497   0.042   6.854
 4160SOL    HW113379   5.500   6.970   6.822
 4160SOL    HW213380   5.537   0.048   6.945
 4161SOL     OW13381   1.300   1.987   1.003
 4161SOL    HW113382   1.218   2.043   0.994
 4161SOL    HW213383   1.330   1.988   1.098
 4162SOL     OW13384   6.029   6.090   0.614
 4162SOL    HW113385   6.098   6.127   0.677
 4162SOL    HW213386   6.015   6.154   0.539
 4163SOL     OW13387   5.598   0.877   3.519
 4163SOL    HW113388   5.622   0.784   3.546
 4163SOL    HW213389   5.544   0.920   3.591
 4164SOL     OW13390   1.498   0.118   4.776
 4164SOL    HW113391   1.445   0.067   4.708
 4164SOL    HW213392   1.545   0.194   4.732
 4165SOL     OW13393   3.923   0.519   5.422
 4165SOL    HW113394   3.946   0.431   5.461
 4165SOL    HW213395   3.839   0.554   5.464
 4166SOL     OW13396   5.236   1.222   0.983
 4166SOL    HW113397   5.141   1.216   1.014
 4166SOL    HW213398   5.247   1.168   0.900
 4167SOL     OW13399   2.848   3.900   6.680
 4167SOL    HW113400   2.789   3.977   6.705
 4167SOL    HW213401   2.943   3.922   6.703
 4168SOL     OW13402   0.165   3.797   1.105
 4168SOL    HW113403   0.106   3.788   1.184
 4168SOL    HW213404   0.256   3.762   1.127
 4169SOL     OW13405   6.310   5.216   4.551
 4169SOL    HW113406   6.243   5.164   4.605
 4169SOL    HW213407   6.331   5.301   4.598
 4170SOL     OW13408   4.814   3.172   5.893
 4170SOL    HW113409   4.764   3.184   5.807
 4170SOL    HW213410   4.751   3.177   5.970
 4171SOL     OW13411   6.098   5.552   0.716
 4171SOL    HW113412   6.139   5.638   0.744
 4171SOL    HW213413   6.066   5.559   0.622
 4172SOL     OW13414   1.976   1.567   6.745
 4172SOL    HW113415   2.031   1.487   6.720
 4172SOL    HW213416   1.879   1.546   6.733
 4173SOL     OW13417   5.459   3.857   4.515
 4173SOL    HW113418   5.505   3.866   4.427
 4173SOL    HW213419   5.513   3.904   4.585
 4174SOL     OW13420   4.725   1.408   2.477
 4174SOL    HW113421   4.754   1.321   2.438
 4174SOL    HW213422   4.662   1.392   2.552
 4175SOL     OW13423   1.791   4.756   4.058
 4175SOL    HW113424   1.708   4.699   4.060
 4175SOL    HW213425   1.767   4.850   4.082
 4176SOL     OW13426   4.042   6.360   1.475
 4176SOL    HW113427   3.986   6.365   1.392
 4176SOL    HW213428   4.115   6.294   1.463
 4177SOL     OW13429   5.652   4.956   5.690
 4177SOL    HW113430   5.642   5.028   5.620
 4177SOL    HW213431   5.745   4.957   5.725
 4178SOL     OW13432   4.176   6.266   4.411
 4178SOL    HW113433   4.256   6.296   4.358
 4178SOL    HW213434   4.192   6.173   4.444
 4179SOL     OW13435   5.368   3.622   3.127
 4179SOL    HW113436   5.373   3.559   3.049
 4179SOL    HW213437   5.273   3.634   3.155
 4180SOL     OW13438   4.418   3.062   0.799
 4180SOL    HW113439   4.325   3.101   0.796
 4180SOL    HW213440   4.483   3.135   0.820
 4181SOL     OW13441   4.070   0.881   6.882
 4181SOL    HW113442   4.104   0.886   6.788
 4181SOL    HW213443   4.022   0.795   6.895
 4182SOL     OW13444   0.632   5.710   3.470
 4182SOL    HW113445   0.682   5.770   3.408
 4182SOL    HW213446   0.694   5.640   3.506
 4183SOL     OW13447   2.619   1.674   0.006
 4183SOL    HW113448   2.638   1.581   0.035
 4183SOL    HW213449   2.640   1.684   6.931
 4184SOL     OW13450   3.078   6.462   2.472
 4184SOL    HW113451   3.084   6.561   2.483
 4184SOL    HW213452   3.047   6.441   2.379
 4185SOL     OW13453   1.042   4.557   2.903
 4185SOL    HW113454   0.996   4.469   2.914
 4185SOL    HW213455   1.105   4.552   2.825
 4186SOL     OW13456   2.560   4.964   6.396
 4186SOL    HW113457   2.464   4.954   6.422
 4186SOL    HW213458   2.615   4.896   6.444
 4187SOL     OW13459   3.576   3.514   5.664
 4187SOL    HW113460   3.576   3.613   5.678
 4187SOL    HW213461   3.540   3.493   5.573
 4188SOL     OW13462   5.070   1.004   5.307
 4188SOL    HW113463   5.108   1.074   5.368
 4188SOL    HW213464   5.094   0.913   5.342
 4189SOL     OW13465   2.673   5.001   4.529
 4189SOL    HW113466   2.609   5.018   4.455
 4189SOL    HW213467   2.716   4.912   4.517
 4190SOL     OW13468   0.887   0.995   1.165
 4190SOL    HW113469   0.879   1.053   1.084
 4190SOL    HW213470   0.813   1.016   1.228
 4191SOL     OW13471   4.851   4.451   3.710
 4191SOL    HW113472   4.751   4.456   3.701
 4191SOL    HW213473   4.877   4.459   3.806
 4192SOL     OW13474   1.026   1.557   3.677
 4192SOL    HW113475   1.081   1.598   3.604
 4192SOL    HW213476   0.972   1.629   3.721
 4193SOL     OW13477   6.467   0.750   0.787
 4193SOL    HW113478   6.490   0.840   0.824
 4193SOL    HW213479   6.459   0.685   0.862
 4194SOL     OW13480   5.336   0.173   4.933
 4194SOL    HW113481   5.386   0.206   4.853
 4194SOL    HW213482   5.312   0.077   4.921
 4195SOL     OW13483   3.763   6.155   1.209
 4195SOL    HW113484   3.863   6.147   1.216
 4195SOL    HW213485   3.729   6.209   1.285
 4196SOL     OW13486   6.176   2.667   2.678
 4196SOL    HW113487   6.110   2.680   2.604
 4196SOL    HW213488   6.176   2.572   2.707
 4197SOL     OW13489   5.061   5.221   5.893
 4197SOL    HW113490   5.051   5.225   5.793
 4197SOL    HW213491   4.992   5.279   5.935
 4198SOL     OW13492   6.411   2.089   0.409
 4198SOL    HW113493   6.318   2.053   0.404
 4198SOL    HW213494   6.465   2.034   0.473
 4199SOL     OW13495   1.974   2.035   6.155
 4199SOL    HW113496   2.041   1.964   6.177
 4199SOL    HW213497   1.957   2.036   6.056
 4200SOL     OW13498   3.185   0.461   6.173
 4200SOL    HW113499   3.201   0.382   6.114
 4200SOL    HW213500   3.216   0.544   6.126
 4201SOL     OW13501   5.978   6.571   3.698
 4201SOL    HW113502   6.015   6.628   3.624
 4201SOL    HW213503   5.888   6.605   3.724
 4202SOL     OW13504   3.701   5.391   5.769
 4202SOL    HW113505   3.720   5.484   5.802
 4202SOL    HW213506   3.784   5.354   5.727
 4203SOL     OW13507   3.549   4.444   7.023
 4203SOL    HW113508   3.574   4.438   6.926
 4203SOL    HW213509   3.621   4.401   0.055
 4204SOL     OW13510   4.138   3.633   3.639
 4204SOL    HW113511   4.141   3.542   3.599
 4204SOL    HW213512   4.098   3.697   3.574
 4205SOL     OW13513   4.063   6.166   3.498
 4205SOL    HW113514   4.081   6.088   3.558
 4205SOL    HW213515   4.139   6.231   3.504
 4206SOL     OW13516   6.692   0.539   5.465
 4206SOL    HW113517   6.607   0.552   5.515
 4206SOL    HW213518   6.673   0.485   5.382
 4207SOL     OW13519   1.814   1.618   1.529
 4207SOL    HW113520   1.876   1.543   1.506
 4207SOL    HW213521   1.806   1.680   1.451
 4208SOL     OW13522   0.188   3.566   5.275
 4208SOL    HW113523   0.210   3.548   5.179
 4208SOL    HW213524   0.194   3.664   5.293
 4209SOL     OW13525   6.750   0.362   3.639
 4209SOL    HW113526   6.802   0.314   3.568
 4209SOL    HW213527   6.695   0.296   3.690
 4210SOL     OW13528   4.180   3.353   2.139
 4210SOL    HW113529   4.149   3.285   2.206
 4210SOL    HW213530   4.269   3.326   2.102
 4211SOL     OW13531   4.255   6.825   6.257
 4211SOL    HW113532   4.283   6.730   6.246
 4211SOL    HW213533   4.200   6.853   6.178
 4212SOL     OW13534   6.322   1.503   2.687
 4212SOL    HW113535   6.362   1.554   2.611
 4212SOL    HW213536   6.363   1.412   2.692
 4213SOL     OW13537   2.106   0.545   1.512
 4213SOL    HW113538   2.008   0.553   1.530
 4213SOL    HW213539   2.124   0.462   1.461
 4214SOL     OW13540   1.295   5.009   5.696
 4214SOL    HW113541   1.254   4.923   5.728
 4214SOL    HW213542   1.225   5.080   5.697
 4215SOL     OW13543   4.889   0.176   5.774
 4215SOL    HW113544   4.921   0.265   5.807
 4215SOL    HW213545   4.894   0.174   5.674
 4216SOL     OW13546   1.688   1.202   3.002
 4216SOL    HW113547   1.616   1.268   2.984
 4216SOL    HW213548   1.768   1.249   3.040
 4217SOL     OW13549   1.223   0.701   2.334
 4217SOL    HW113550   1.314   0.729   2.366
 4217SOL    HW213551   1.214   0.721   2.237
 4218SOL     OW13552   3.967   1.088   1.853
 4218SOL    HW113553   3.869   1.089   1.874
 4218SOL    HW213554   3.980   1.057   1.758
 4219SOL     OW13555   3.870   6.160   3.873
 4219SOL    HW113556   3.903   6.132   3.963
 4219SOL    HW213557   3.858   6.080   3.815
 4220SOL     OW13558   6.548   3.474   3.412
 4220SOL    HW113559   6.478   3.434   3.470
 4220SOL    HW213560   6.518   3.563   3.378
 4221SOL     OW13561   5.836   4.964   6.306
 4221SOL    HW113562   5.834   4.969   6.206
 4221SOL    HW213563   5.884   5.043   6.343
 4222SOL     OW13564   0.149   2.182   2.615
 4222SOL    HW113565   0.156   2.197   2.517
 4222SOL    HW213566   0.055   2.159   2.639
 4223SOL     OW13567   3.482   3.217   6.847
 4223SOL    HW113568   3.578   3.204   6.872
 4223SOL    HW213569   3.425   3.159   6.906
 4224SOL     OW13570   4.728   4.372   4.167
 4224SOL    HW113571   4.745   4.313   4.246
 4224SOL    HW213572   4.740   4.319   4.083
 4225SOL     OW13573   3.130   2.038   5.864
 4225SOL    HW113574   3.084   1.950   5.865
 4225SOL    HW213575   3.062   2.112   5.862
 4226SOL     OW13576   1.508   0.569   2.281
 4226SOL    HW113577   1.520   0.647   2.343
 4226SOL    HW213578   1.588   0.509   2.286
 4227SOL     OW13579   3.926   4.791   1.401
 4227SOL    HW113580   3.931   4.856   1.326
 4227SOL    HW213581   4.018   4.767   1.432
 4228SOL     OW13582   0.978   4.849   5.049
 4228SOL    HW113583   0.988   4.853   4.950
 4228SOL    HW213584   0.933   4.764   5.075
 4229SOL     OW13585   4.998   5.977   6.068
 4229SOL    HW113586   4.906   5.969   6.031
 4229SOL    HW213587   5.005   6.061   6.121
 4230SOL     OW13588   0.956   6.085   2.464
 4230SOL    HW113589   0.934   6.058   2.557
 4230SOL    HW213590   0.888   6.151   2.431
 4231SOL     OW13591   5.811   0.088   5.374
 4231SOL    HW113592   5.876   0.043   5.312
 4231SOL    HW213593   5.832   0.064   5.468
 4232SOL     OW13594   0.089   4.783   3.075
 4232SOL    HW113595   0.007   4.792   3.132
 4232SOL    HW213596   0.064   4.782   2.979
 4233SOL     OW13597   0.383   0.162   6.027
 4233SOL    HW113598   0.393   0.065   6.003
 4233SOL    HW213599   0.305   0.201   5.978
 4234SOL     OW13600   2.266   6.172   4.593
 4234SOL    HW113601   2.175   6.155   4.554
 4234SOL    HW213602   2.307   6.085   4.622
 4235SOL     OW13603   5.362   3.870   5.736
 4235SOL    HW113604   5.392   3.804   5.668
 4235SOL    HW213605   5.442   3.914   5.777
 4236SOL     OW13606   6.652   3.626   2.472
 4236SOL    HW113607   6.621   3.531   2.474
 4236SOL    HW213608   6.751   3.629   2.460
 4237SOL     OW13609   5.302   6.235   2.825
 4237SOL    HW113610   5.329   6.151   2.779
 4237SOL    HW213611   5.203   6.245   2.821
 4238SOL     OW13612   2.653   5.970   3.027
 4238SOL    HW113613   2.602   5.966   3.112
 4238SOL    HW213614   2.590   5.971   2.950
 4239SOL     OW13615   6.352   2.252   2.561
 4239SOL    HW113616   6.266   2.240   2.511
 4239SOL    HW213617   6.339   2.226   2.657
 4240SOL     OW13618   2.592   5.830   0.232
 4240SOL    HW113619   2.611   5.826   0.330
 4240SOL    HW213620   2.653   5.768   0.184
 4241SOL     OW13621   6.362   0.679   0.254
 4241SOL    HW113622   6.356   0.667   0.154
 4241SOL    HW213623   6.282   0.638   0.297
 4242SOL     OW13624   3.125   1.387   3.895
 4242SOL    HW113625   3.210   1.347   3.861
 4242SOL    HW213626   3.126   1.485   3.878
 4243SOL     OW13627   6.396   2.708   3.647
 4243SOL    HW113628   6.483   2.661   3.631
 4243SOL    HW213629   6.388   2.784   3.582
 4244SOL     OW13630   4.577   4.227   1.492
 4244SOL    HW113631   4.544   4.135   1.510
 4244SOL    HW213632   4.596   4.273   1.579
 4245SOL     OW13633   0.125   1.218   6.435
 4245SOL    HW113634   0.026   1.228   6.425
 4245SOL    HW213635   0.153   1.252   6.525
 4246SOL     OW13636   6.759   4.049   3.496
 4246SOL    HW113637   6.669   4.017   3.468
 4246SOL    HW213638   6.818   3.971   3.514
 4247SOL     OW13639   2.912   5.685   3.377
 4247SOL    HW113640   2.989   5.624   3.359
 4247SOL    HW213641   2.947   5.774   3.407
 4248SOL     OW13642   3.156   1.974   2.823
 4248SOL    HW113643   3.194   2.055   2.779
 4248SOL    HW213644   3.221   1.938   2.889
 4249SOL     OW13645   5.434   2.342   3.483
 4249SOL    HW113646   5.362   2.303   3.541
 4249SOL    HW213647   5.446   2.286   3.402
 4250SOL     OW13648   6.229   4.258   2.840
 4250SOL    HW113649   6.239   4.323   2.766
 4250SOL    HW213650   6.189   4.304   2.920
 4251SOL     OW13651   5.354   4.505   1.896
 4251SOL    HW113652   5.279   4.492   1.961
 4251SOL    HW213653   5.320   4.490   1.803
 4252SOL     OW13654   5.398   6.739   6.521
 4252SOL    HW113655   5.304   6.766   6.498
 4252SOL    HW213656   5.401   6.641   6.538
 4253SOL     OW13657   3.322   6.968   1.211
 4253SOL    HW113658   3.381   6.976   1.131
 4253SOL    HW213659   3.368   6.913   1.281
 4254SOL     OW13660   0.871   3.540   1.810
 4254SOL    HW113661   0.783   3.578   1.838
 4254SOL    HW213662   0.857   3.447   1.776
 4255SOL     OW13663   0.008   3.965   3.827
 4255SOL    HW113664   0.064   3.995   3.905
 4255SOL    HW213665   0.026   4.025   3.749
 4256SOL     OW13666   1.843   6.527   0.772
 4256SOL    HW113667   1.846   6.514   0.673
 4256SOL    HW213668   1.892   6.452   0.817
 4257SOL     OW13669   2.475   0.288   4.046
 4257SOL    HW113670   2.570   0.285   4.016
 4257SOL    HW213671   2.460   0.217   4.116
 4258SOL     OW13672   4.671   6.188   0.898
 4258SOL    HW113673   4.638   6.231   0.814
 4258SOL    HW213674   4.701   6.094   0.877
 4259SOL     OW13675   2.722   0.734   0.969
 4259SOL    HW113676   2.721   0.723   0.869
 4259SOL    HW213677   2.782   0.811   0.992
 4260SOL     OW13678   5.750   0.227   1.210
 4260SOL    HW113679   5.734   0.299   1.277
 4260SOL    HW213680   5.662   0.187   1.183
 4261SOL     OW13681   1.788   6.995   2.809
 4261SOL    HW113682   1.869   6.937   2.800
 4261SOL    HW213683   1.725   6.977   2.732
 4262SOL     OW13684   0.488   4.847   6.323
 4262SOL    HW113685   0.472   4.910   6.399
 4262SOL    HW213686   0.466   4.754   6.352
 4263SOL     OW13687   3.080   6.587   2.887
 4263SOL    HW113688   3.158   6.573   2.826
 4263SOL    HW213689   3.106   6.650   2.960
 4264SOL     OW13690   0.082   2.623   3.062
 4264SOL    HW113691   0.079   2.637   3.161
 4264SOL    HW213692   0.038   2.701   3.016
 4265SOL     OW13693   4.654   1.616   1.435
 4265SOL    HW113694   4.673   1.638   1.530
 4265SOL    HW213695   4.707   1.536   1.407
 4266SOL     OW13696   1.822   5.343   0.338
 4266SOL    HW113697   1.772   5.263   0.306
 4266SOL    HW213698   1.812   5.417   0.271
 4267SOL     OW13699   1.786   2.633   4.198
 4267SOL    HW113700   1.729   2.714   4.189
 4267SOL    HW213701   1.810   2.619   4.294
 4268SOL     OW13702   1.547   6.225   0.176
 4268SOL    HW113703   1.528   6.199   0.081
 4268SOL    HW213704   1.477   6.289   0.208
 4269SOL     OW13705   2.974   0.564   2.254
 4269SOL    HW113706   2.930   0.653   2.244
 4269SOL    HW213707   3.053   0.572   2.315
 4270SOL     OW13708   4.176   3.557   3.233
 4270SOL    HW113709   4.207   3.533   3.326
 4270SOL    HW213710   4.107   3.491   3.203
 4271SOL     OW13711   6.335   1.127   6.986
 4271SOL    HW113712   6.245   1.103   6.949
 4271SOL    HW213713   6.346   1.226   6.983
 4272SOL     OW13714   6.391   2.654   4.500
 4272SOL    HW113715   6.450   2.724   4.540
 4272SOL    HW213716   6.296   2.670   4.528
 4273SOL     OW13717   4.638   6.604   4.678
 4273SOL    HW113718   4.679   6.513   4.682
 4273SOL    HW213719   4.635   6.636   4.583
 4274SOL     OW13720   0.636   6.142   1.723
 4274SOL    HW113721   0.726   6.186   1.719
 4274SOL    HW213722   0.589   6.171   1.806
 4275SOL     OW13723   6.543   1.604   4.725
 4275SOL    HW113724   6.532   1.530   4.660
 4275SOL    HW213725   6.465   1.606   4.787
 4276SOL     OW13726   1.489   4.517   3.572
 4276SOL    HW113727   1.486   4.421   3.543
 4276SOL    HW213728   1.547   4.525   3.653
 4277SOL     OW13729   6.409   4.654   3.675
 4277SOL    HW113730   6.311   4.634   3.669
 4277SOL    HW213731   6.456   4.614   3.596
 4278SOL     OW13732   6.841   0.038   4.314
 4278SOL    HW113733   6.843   0.101   4.391
 4278SOL    HW213734   6.910   0.066   4.247
 4279SOL     OW13735   3.085   0.621   3.835
 4279SOL    HW113736   3.104   0.699   3.775
 4279SOL    HW213737   2.990   0.623   3.865
 4280SOL     OW13738   4.384   0.476   5.412
 4280SOL    HW113739   4.393   0.542   5.337
 4280SOL    HW213740   4.444   0.398   5.395
 4281SOL     OW13741   0.391   4.386   3.762
 4281SOL    HW113742   0.415   4.333   3.682
 4281SOL    HW213743   0.345   4.328   3.829
 4282SOL     OW13744   3.156   4.344   5.856
 4282SOL    HW113745   3.160   4.391   5.767
 4282SOL    HW213746   3.116   4.253   5.843
 4283SOL     OW13747   0.923   1.029   3.378
 4283SOL    HW113748   0.852   0.962   3.399
 4283SOL    HW213749   0.886   1.121   3.388
 4284SOL     OW13750   3.688   4.684   1.154
 4284SOL    HW113751   3.649   4.775   1.166
 4284SOL    HW213752   3.645   4.620   1.217
 4285SOL     OW13753   1.203   0.566   5.533
 4285SOL    HW113754   1.301   0.569   5.555
 4285SOL    HW213755   1.152   0.615   5.603
 4286SOL     OW13756   4.623   6.868   6.252
 4286SOL    HW113757   4.680   6.804   6.201
 4286SOL    HW213758   4.549   6.819   6.297
 4287SOL     OW13759   5.754   2.262   6.487
 4287SOL    HW113760   5.852   2.274   6.472
 4287SOL    HW213761   5.705   2.340   6.448
 4288SOL     OW13762   6.770   5.687   3.758
 4288SOL    HW113763   6.756   5.716   3.853
 4288SOL    HW213764   6.848   5.624   3.753
 4289SOL     OW13765   6.661   2.932   6.919
 4289SOL    HW113766   6.637   2.893   6.830
 4289SOL    HW213767   6.757   2.912   6.939
 4290SOL     OW13768   1.419   6.543   2.704
 4290SOL    HW113769   1.341   6.606   2.695
 4290SOL    HW213770   1.498   6.581   2.655
 4291SOL     OW13771   4.419   3.531   0.805
 4291SOL    HW113772   4.385   3.613   0.759
 4291SOL    HW213773   4.374   3.450   0.768
 4292SOL     OW13774   5.696   3.107   0.328
 4292SOL    HW113775   5.631   3.039   0.294
 4292SOL    HW213776   5.649   3.169   0.392
 4293SOL     OW13777   2.567   3.711   0.402
 4293SOL    HW113778   2.474   3.727   0.436
 4293SOL    HW213779   2.574   3.617   0.369
 4294SOL     OW13780   2.162   2.847   6.718
 4294SOL    HW113781   2.156   2.913   6.643
 4294SOL    HW213782   2.071   2.833   6.758
 4295SOL     OW13783   4.567   5.846   4.639
 4295SOL    HW113784   4.521   5.935   4.646
 4295SOL    HW213785   4.637   5.839   4.710
 4296SOL     OW13786   3.051   6.977   0.594
 4296SOL    HW113787   3.017   6.890   0.629
 4296SOL    HW213788   3.070   6.968   0.496
 4297SOL     OW13789   4.933   0.499   6.964
 4297SOL    HW113790   4.875   0.418   6.961
 4297SOL    HW213791   5.029   0.471   6.958
 4298SOL     OW13792   3.895   5.194   6.824
 4298SOL    HW113793   3.987   5.155   6.817
 4298SOL    HW213794   3.891   5.256   6.901
 4299SOL     OW13795   0.816   2.731   6.625
 4299SOL    HW113796   0.819   2.652   6.686
 4299SOL    HW213797   0.904   2.741   6.578
 4300SOL     OW13798   3.516   6.590   0.394
 4300SOL    HW113799   3.524   6.646   0.476
 4300SOL    HW213800   3.487   6.647   0.317
 4301SOL     OW13801   4.001   1.647   1.579
 4301SOL    HW113802   4.029   1.740   1.559
 4301SOL    HW213803   3.934   1.616   1.511
 4302SOL     OW13804   1.187   6.685   6.568
 4302SOL    HW113805   1.254   6.624   6.526
 4302SOL    HW213806   1.111   6.631   6.604
 4303SOL     OW13807   0.274   4.484   4.211
 4303SOL    HW113808   0.205   4.455   4.144
 4303SOL    HW213809   0.345   4.536   4.164
 4304SOL     OW13810   3.136   4.012   2.988
 4304SOL    HW113811   3.185   4.073   3.050
 4304SOL    HW213812   3.191   3.931   2.970
 4305SOL     OW13813   0.033   6.858   5.141
 4305SOL    HW113814   0.000   6.833   5.232
 4305SOL    HW213815   6.997   6.814   5.072
 4306SOL     OW13816   5.619   3.964   5.817
 4306SOL    HW113817   5.699   3.917   5.854
 4306SOL    HW213818   5.599   4.045   5.872
 4307SOL     OW13819   4.822   4.156   5.650
 4307SOL    HW113820   4.913   4.175   5.614
 4307SOL    HW213821   4.786   4.073   5.607
 4308SOL     OW13822   6.283   4.795   0.341
 4308SOL    HW113823   6.343   4.873   0.357
 4308SOL    HW213824   6.202   4.802   0.400
 4309SOL     OW13825   1.236   1.185   0.699
 4309SOL    HW113826   1.271   1.278   0.705
 4309SOL    HW213827   1.309   1.124   0.669
 4310SOL     OW13828   1.172   2.710   1.987
 4310SOL    HW113829   1.152   2.613   1.976
 4310SOL    HW213830   1.265   2.729   1.957
 4311SOL     OW13831   1.920   5.844   2.916
 4311SOL    HW113832   1.995   5.839   2.982
 4311SOL    HW213833   1.881   5.936   2.917
 4312SOL     OW13834   2.059   5.186   1.141
 4312SOL    HW113835   1.981   5.250   1.145
 4312SOL    HW213836   2.035   5.109   1.083
 4313SOL     OW13837   4.662   1.577   1.749
 4313SOL    HW113838   4.696   1.586   1.843
 4313SOL    HW213839   4.565   1.602   1.746
 4314SOL     OW13840   6.157   1.389   4.455
 4314SOL    HW113841   6.140   1.457   4.527
 4314SOL    HW213842   6.077   1.381   4.397
 4315SOL     OW13843   2.388   6.619   2.683
 4315SOL    HW113844   2.385   6.537   2.626
 4315SOL    HW213845   2.328   6.689   2.644
 4316SOL     OW13846   5.508   0.473   2.119
 4316SOL    HW113847   5.505   0.415   2.038
 4316SOL    HW213848   5.417   0.477   2.160
 4317SOL     OW13849   4.808   2.447   4.530
 4317SOL    HW113850   4.739   2.495   4.477
 4317SOL    HW213851   4.787   2.349   4.532
 4318SOL     OW13852   0.874   3.586   5.069
 4318SOL    HW113853   0.840   3.492   5.075
 4318SOL    HW213854   0.971   3.587   5.094
 4319SOL     OW13855   1.865   2.011   1.408
 4319SOL    HW113856   1.825   1.920   1.396
 4319SOL    HW213857   1.905   2.041   1.321
 4320SOL     OW13858   5.644   5.376   0.638
 4320SOL    HW113859   5.669   5.366   0.542
 4320SOL    HW213860   5.545   5.378   0.647
 4321SOL     OW13861   6.941   6.696   4.947
 4321SOL    HW113862   6.899   6.704   4.857
 4321SOL    HW213863   6.973   6.602   4.961
 4322SOL     OW13864   6.099   2.533   6.403
 4322SOL    HW113865   6.060   2.623   6.383
 4322SOL    HW213866   6.104   2.521   6.502
 4323SOL     OW13867   4.787   3.876   1.136
 4323SOL    HW113868   4.833   3.942   1.194
 4323SOL    HW213869   4.809   3.783   1.166
 4324SOL     OW13870   5.574   4.591   6.738
 4324SOL    HW113871   5.581   4.680   6.784
 4324SOL    HW213872   5.553   4.520   6.805
 4325SOL     OW13873   2.390   0.818   1.615
 4325SOL    HW113874   2.385   0.834   1.517
 4325SOL    HW213875   2.417   0.903   1.662
 4326SOL     OW13876   5.126   4.856   4.188
 4326SOL    HW113877   5.054   4.885   4.125
 4326SOL    HW213878   5.084   4.830   4.276
 4327SOL     OW13879   5.973   6.260   1.696
 4327SOL    HW113880   6.019   6.335   1.649
 4327SOL    HW213881   5.922   6.205   1.630
 4328SOL     OW13882   4.747   3.934   5.523
 4328SOL    HW113883   4.655   3.959   5.493
 4328SOL    HW213884   4.791   3.877   5.453
 4329SOL     OW13885   4.388   1.523   6.004
 4329SOL    HW113886   4.484   1.542   5.983
 4329SOL    HW213887   4.338   1.505   5.919
 4330SOL     OW13888   2.413   6.268   4.358
 4330SOL    HW113889   2.368   6.244   4.444
 4330SOL    HW213890   2.462   6.354   4.368
 4331SOL     OW13891   5.683   1.421   1.771
 4331SOL    HW113892   5.712   1.492   1.834
 4331SOL    HW213893   5.591   1.389   1.797
 4332SOL     OW13894   5.610   3.601   2.234
 4332SOL    HW113895   5.640   3.506   2.248
 4332SOL    HW213896   5.528   3.602   2.176
 4333SOL     OW13897   3.352   0.676   4.567
 4333SOL    HW113898   3.344   0.580   4.593
 4333SOL    HW213899   3.341   0.734   4.648
 4334SOL     OW13900   1.181   2.713   2.275
 4334SOL    HW113901   1.168   2.738   2.179
 4334SOL    HW213902   1.278   2.713   2.297
 4335SOL     OW13903   3.257   3.204   2.760
 4335SOL    HW113904   3.224   3.113   2.785
 4335SOL    HW213905   3.189   3.272   2.787
 4336SOL     OW13906   3.089   6.504   6.643
 4336SOL    HW113907   3.148   6.472   6.568
 4336SOL    HW213908   3.113   6.599   6.665
 4337SOL     OW13909   0.410   4.384   1.001
 4337SOL    HW113910   0.486   4.431   0.956
 4337SOL    HW213911   0.440   4.296   1.036
 4338SOL     OW13912   5.592   6.522   5.194
 4338SOL    HW113913   5.669   6.507   5.256
 4338SOL    HW213914   5.538   6.600   5.225
 4339SOL     OW13915   5.697   3.750   5.363
 4339SOL    HW113916   5.751   3.795   5.292
 4339SOL    HW213917   5.720   3.653   5.365
 4340SOL     OW13918   6.714   2.668   1.342
 4340SOL    HW113919   6.770   2.684   1.423
 4340SOL    HW213920   6.619   2.692   1.363
 4341SOL     OW13921   0.266   6.228   2.415
 4341SOL    HW113922   0.273   6.181   2.503
 4341SOL    HW213923   0.284   6.163   2.341
 4342SOL     OW13924   5.994   4.201   3.552
 4342SOL    HW113925   6.087   4.196   3.589
 4342SOL    HW213926   5.965   4.110   3.523
 4343SOL     OW13927   2.495   6.196   5.078
 4343SOL    HW113928   2.472   6.225   5.171
 4343SOL    HW213929   2.531   6.273   5.026
 4344SOL     OW13930   0.521   4.914   2.349
 4344SOL    HW113931   0.465   4.993   2.374
 4344SOL    HW213932   0.461   4.837   2.325
 4345SOL     OW13933   3.193   3.800   4.859
 4345SOL    HW113934   3.232   3.732   4.921
 4345SOL    HW213935   3.202   3.891   4.900
 4346SOL     OW13936   1.650   2.758   2.105
 4346SOL    HW113937   1.585   2.776   2.179
 4346SOL    HW213938   1.719   2.831   2.103
 4347SOL     OW13939   0.013   6.631   3.109
 4347SOL    HW113940   0.004   6.683   3.024
 4347SOL    HW213941   6.946   6.597   3.137
 4348SOL     OW13942   0.158   4.210   3.345
 4348SOL    HW113943   0.100   4.291   3.338
 4348SOL    HW213944   0.254   4.236   3.332
 4349SOL     OW13945   6.534   2.120   2.412
 4349SOL    HW113946   6.507   2.024   2.404
 4349SOL    HW213947   6.491   2.160   2.493
 4350SOL     OW13948   3.916   1.639   4.448
 4350SOL    HW113949   3.858   1.705   4.496
 4350SOL    HW213950   4.012   1.661   4.466
 4351SOL     OW13951   1.675   4.773   0.635
 4351SOL    HW113952   1.713   4.680   0.632
 4351SOL    HW213953   1.750   4.839   0.635
 4352SOL     OW13954   6.927   3.699   2.074
 4352SOL    HW113955   6.956   3.609   2.107
 4352SOL    HW213956   6.831   3.714   2.100
 4353SOL     OW13957   3.862   2.851   6.570
 4353SOL    HW113958   3.850   2.869   6.667
 4353SOL    HW213959   3.862   2.937   6.520
 4354SOL     OW13960   2.449   6.916   5.476
 4354SOL    HW113961   2.362   6.871   5.492
 4354SOL    HW213962   2.439   7.015   5.489
 4355SOL     OW13963   1.849   0.224   2.971
 4355SOL    HW113964   1.928   0.243   2.913
 4355SOL    HW213965   1.799   0.146   2.934
 4356SOL     OW13966   5.072   3.895   0.887
 4356SOL    HW113967   5.009   3.825   0.920
 4356SOL    HW213968   5.020   3.970   0.845
 4357SOL     OW13969   0.003   0.977   1.320
 4357SOL    HW113970   0.034   0.907   1.384
 4357SOL    HW213971   0.017   0.946   1.226
 4358SOL     OW13972   0.322   6.797   0.397
 4358SOL    HW113973   0.405   6.787   0.341
 4358SOL    HW213974   0.263   6.866   0.355
 4359SOL     OW13975   2.018   1.111   6.466
 4359SOL    HW113976   1.932   1.105   6.517
 4359SOL    HW213977   2.001   1.153   6.377
 4360SOL     OW13978   1.462   2.925   3.182
 4360SOL    HW113979   1.547   2.975   3.171
 4360SOL    HW213980   1.470   2.835   3.139
 4361SOL     OW13981   2.372   2.939   1.274
 4361SOL    HW113982   2.390   3.038   1.276
 4361SOL    HW213983   2.274   2.924   1.263
 4362SOL     OW13984   5.925   5.719   3.359
 4362SOL    HW113985   5.993   5.753   3.424
 4362SOL    HW213986   5.845   5.685   3.408
 4363SOL     OW13987   5.268   2.309   1.321
 4363SOL    HW113988   5.267   2.209   1.320
 4363SOL    HW213989   5.249   2.341   1.414
 4364SOL     OW13990   3.227   3.365   4.594
 4364SOL    HW113991   3.264   3.339   4.504
 4364SOL    HW213992   3.128   3.348   4.596
 4365SOL     OW13993   2.274   1.067   2.232
 4365SOL    HW113994   2.285   1.000   2.305
 4365SOL    HW213995   2.364   1.101   2.205
 4366SOL     OW13996   5.906   0.237   0.221
 4366SOL    HW113997   5.981   0.266   0.163
 4366SOL    HW213998   5.855   0.317   0.253
 4367SOL     OW13999   1.876   4.101   4.342
 4367SOL    HW114000   1.886   4.194   4.309
 4367SOL    HW214001   1.801   4.096   4.408
 4368SOL     OW14002   3.733   4.043   0.577
 4368SOL    HW114003   3.660   3.977   0.596
 4368SOL    HW214004   3.696   4.136   0.579
 4369SOL     OW14005   4.344   5.212   2.821
 4369SOL    HW114006   4.359   5.159   2.738
 4369SOL    HW214007   4.395   5.298   2.815
 4370SOL     OW14008   4.026   5.468   1.962
 4370SOL    HW114009   4.076   5.514   1.889
 4370SOL    HW214010   4.016   5.371   1.940
 4371SOL     OW14011   0.773   2.019   1.904
 4371SOL    HW114012   0.836   2.022   1.981
 4371SOL    HW214013   0.777   1.928   1.861
 4372SOL     OW14014   3.023   1.448   2.660
 4372SOL    HW114015   3.039   1.544   2.684
 4372SOL    HW214016   2.929   1.437   2.629
 4373SOL     OW14017   6.134   2.521   6.669
 4373SOL    HW114018   6.094   2.453   6.731
 4373SOL    HW214019   6.202   2.575   6.718
 4374SOL     OW14020   1.012   1.849   0.881
 4374SOL    HW114021   0.934   1.815   0.934
 4374SOL    HW214022   1.028   1.789   0.803
 4375SOL     OW14023   4.389   0.290   3.208
 4375SOL    HW114024   4.472   0.247   3.244
 4375SOL    HW214025   4.311   0.230   3.225
 4376SOL     OW14026   0.242   6.786   1.463
 4376SOL    HW114027   0.288   6.874   1.475
 4376SOL    HW214028   0.307   6.712   1.484
 4377SOL     OW14029   5.783   4.427   0.097
 4377SOL    HW114030   5.862   4.487   0.086
 4377SOL    HW214031   5.775   4.398   0.192
 4378SOL     OW14032   1.964   2.647   2.708
 4378SOL    HW114033   2.023   2.725   2.688
 4378SOL    HW214034   1.963   2.631   2.807
 4379SOL     OW14035   1.641   2.032   2.838
 4379SOL    HW114036   1.630   1.933   2.839
 4379SOL    HW214037   1.732   2.055   2.804
 4380SOL     OW14038   0.595   7.015   2.615
 4380SOL    HW114039   0.637   0.069   2.665
 4380SOL    HW214040   0.616   6.929   2.662
 4381SOL     OW14041   1.593   4.796   5.663
 4381SOL    HW114042   1.670   4.773   5.604
 4381SOL    HW214043   1.509   4.800   5.609
 4382SOL     OW14044   6.828   3.453   5.195
 4382SOL    HW114045   6.775   3.538   5.190
 4382SOL    HW214046   6.897   3.461   5.267
 4383SOL     OW14047   0.572   2.802   6.204
 4383SOL    HW114048   0.611   2.712   6.224
 4383SOL    HW214049   0.519   2.833   6.284
 4384SOL     OW14050   5.748   1.357   5.052
 4384SOL    HW114051   5.759   1.265   5.014
 4384SOL    HW214052   5.768   1.425   4.981
 4385SOL     OW14053   5.911   2.894   4.754
 4385SOL    HW114054   5.911   2.953   4.674
 4385SOL    HW214055   5.884   2.802   4.728
 4386SOL     OW14056   2.050   3.174   6.181
 4386SOL    HW114057   2.016   3.105   6.244
 4386SOL    HW214058   2.138   3.208   6.212
 4387SOL     OW14059   6.750   1.242   1.087
 4387SOL    HW114060   6.681   1.280   1.148
 4387SOL    HW214061   6.823   1.310   1.073
 4388SOL     OW14062   4.919   2.480   6.679
 4388SOL    HW114063   4.857   2.552   6.648
 4388SOL    HW214064   4.880   2.434   6.758
 4389SOL     OW14065   6.693   3.310   0.555
 4389SOL    HW114066   6.697   3.212   0.576
 4389SOL    HW214067   6.734   3.362   0.629
 4390SOL     OW14068   3.681   0.949   1.617
 4390SOL    HW114069   3.734   0.879   1.665
 4390SOL    HW214070   3.647   0.911   1.531
 4391SOL     OW14071   2.450   5.327   6.855
 4391SOL    HW114072   2.413   5.305   6.945
 4391SOL    HW214073   2.499   5.247   6.819
 4392SOL     OW14074   6.728   3.217   4.605
 4392SOL    HW114075   6.698   3.216   4.700
 4392SOL    HW214076   6.652   3.245   4.546
 4393SOL     OW14077   5.817   0.559   2.729
 4393SOL    HW114078   5.893   0.590   2.786
 4393SOL    HW214079   5.786   0.635   2.671
 4394SOL     OW14080   6.644   5.643   2.453
 4394SOL    HW114081   6.723   5.701   2.430
 4394SOL    HW214082   6.564   5.674   2.402
 4395SOL     OW14083   2.477   6.420   2.332
 4395SOL    HW114084   2.507   6.381   2.245
 4395SOL    HW214085   2.535   6.498   2.356
 4396SOL     OW14086   2.327   2.054   3.776
 4396SOL    HW114087   2.294   2.002   3.697
 4396SOL    HW214088   2.420   2.088   3.757
 4397SOL     OW14089   0.352   1.859   4.756
 4397SOL    HW114090   0.345   1.958   4.770
 4397SOL    HW214091   0.301   1.833   4.675
 4398SOL     OW14092   0.458   3.650   5.930
 4398SOL    HW114093   0.547   3.682   5.965
 4398SOL    HW214094   0.473   3.584   5.857
 4399SOL     OW14095   2.395   0.190   2.236
 4399SOL    HW114096   2.316   0.239   2.199
 4399SOL    HW214097   2.368   0.096   2.259
 4400SOL     OW14098   3.126   6.305   5.376
 4400SOL    HW114099   3.058   6.346   5.437
 4400SOL    HW214100   3.099   6.212   5.353
 4401SOL     OW14101   3.510   6.964   5.999
 4401SOL    HW114102   3.419   6.980   6.037
 4401SOL    HW214103   3.510   6.881   5.944
 4402SOL     OW14104   2.210   0.340   2.070
 4402SOL    HW114105   2.161   0.290   1.998
 4402SOL    HW214106   2.285   0.391   2.030
 4403SOL     OW14107   1.126   0.696   1.766
 4403SOL    HW114108   1.224   0.675   1.767
 4403SOL    HW214109   1.075   0.623   1.811
 4404SOL     OW14110   1.567   5.052   5.749
 4404SOL    HW114111   1.592   4.958   5.725
 4404SOL    HW214112   1.472   5.069   5.723
 4405SOL     OW14113   1.540   3.970   1.291
 4405SOL    HW114114   1.509   4.045   1.232
 4405SOL    HW214115   1.547   3.886   1.237
 4406SOL     OW14116   0.624   3.353   0.999
 4406SOL    HW114117   0.673   3.347   1.086
 4406SOL    HW214118   0.526   3.343   1.015
 4407SOL     OW14119   6.210   5.304   0.632
 4407SOL    HW114120   6.150   5.385   0.629
 4407SOL    HW214121   6.301   5.329   0.600
 4408SOL     OW14122   3.036   0.768   1.281
 4408SOL    HW114123   3.043   0.675   1.244
 4408SOL    HW214124   2.942   0.785   1.312
 4409SOL     OW14125   5.167   1.138   2.571
 4409SOL    HW114126   5.145   1.205   2.500
 4409SOL    HW214127   5.203   1.186   2.652
 4410SOL     OW14128   1.424   4.996   6.973
 4410SOL    HW114129   1.490   4.972   6.901
 4410SOL    HW214130   1.378   5.081   6.948
 4411SOL     OW14131   3.928   4.099   4.954
 4411SOL    HW114132   3.908   4.170   4.887
 4411SOL    HW214133   3.944   4.012   4.908
 4412SOL     OW14134   4.715   6.183   3.907
 4412SOL    HW114135   4.723   6.103   3.848
 4412SOL    HW214136   4.805   6.208   3.942
 4413SOL     OW14137   5.990   5.305   4.477
 4413SOL    HW114138   6.057   5.302   4.403
 4413SOL    HW214139   5.931   5.384   4.466
 4414SOL     OW14140   3.393   5.278   0.896
 4414SOL    HW114141   3.368   5.185   0.869
 4414SOL    HW214142   3.366   5.342   0.824
 4415SOL     OW14143   4.400   2.771   0.829
 4415SOL    HW114144   4.366   2.865   0.831
 4415SOL    HW214145   4.345   2.717   0.765
 4416SOL     OW14146   3.767   1.138   4.363
 4416SOL    HW114147   3.672   1.152   4.391
 4416SOL    HW214148   3.819   1.222   4.379
 4417SOL     OW14149   5.671   4.691   3.476
 4417SOL    HW114150   5.668   4.603   3.428
 4417SOL    HW214151   5.637   4.763   3.416
 4418SOL     OW14152   6.414   1.663   2.491
 4418SOL    HW114153   6.508   1.646   2.462
 4418SOL    HW214154   6.355   1.673   2.411
 4419SOL     OW14155   5.633   6.847   6.442
 4419SOL    HW114156   5.659   6.802   6.356
 4419SOL    HW214157   5.549   6.805   6.478
 4420SOL     OW14158   4.847   1.133   1.812
 4420SOL    HW114159   4.856   1.165   1.906
 4420SOL    HW214160   4.852   1.211   1.749
 4421SOL     OW14161   2.500   1.256   4.951
 4421SOL    HW114162   2.401   1.259   4.949
 4421SOL    HW214163   2.533   1.189   4.885
 4422SOL     OW14164   1.914   3.707   6.938
 4422SOL    HW114165   1.941   3.802   6.928
 4422SOL    HW214166   1.975   3.661   7.003
 4423SOL     OW14167   0.103   3.268   5.640
 4423SOL    HW114168   0.125   3.199   5.571
 4423SOL    HW214169   0.054   3.344   5.596
 4424SOL     OW14170   5.555   1.292   4.235
 4424SOL    HW114171   5.532   1.266   4.329
 4424SOL    HW214172   5.513   1.381   4.215
 4425SOL     OW14173   2.733   4.240   0.337
 4425SOL    HW114174   2.670   4.250   0.414
 4425SOL    HW214175   2.681   4.223   0.253
 4426SOL     OW14176   0.134   1.738   3.815
 4426SOL    HW114177   0.186   1.674   3.758
 4426SOL    HW214178   0.072   1.686   3.875
 4427SOL     OW14179   0.509   6.229   2.819
 4427SOL    HW114180   0.520   6.329   2.813
 4427SOL    HW214181   0.593   6.189   2.856
 4428SOL     OW14182   3.384   0.752   3.308
 4428SOL    HW114183   3.392   0.818   3.382
 4428SOL    HW214184   3.397   0.797   3.220
 4429SOL     OW14185   2.923   6.846   2.688
 4429SOL    HW114186   2.870   6.898   2.621
 4429SOL    HW214187   2.870   6.835   2.772
 4430SOL     OW14188   4.892   3.952   4.656
 4430SOL    HW114189   4.904   3.898   4.740
 4430SOL    HW214190   4.816   3.914   4.603
 4431SOL     OW14191   2.523   1.133   2.121
 4431SOL    HW114192   2.615   1.095   2.124
 4431SOL    HW214193   2.511   1.185   2.036
 4432SOL     OW14194   2.896   3.640   6.002
 4432SOL    HW114195   2.932   3.548   5.988
 4432SOL    HW214196   2.858   3.674   5.916
 4433SOL     OW14197   4.973   2.069   4.322
 4433SOL    HW114198   4.893   2.126   4.343
 4433SOL    HW214199   5.051   2.129   4.300
 4434SOL     OW14200   5.199   1.246   3.088
 4434SOL    HW114201   5.160   1.173   3.033
 4434SOL    HW214202   5.295   1.261   3.062
 4435SOL     OW14203   4.948   2.822   1.552
 4435SOL    HW114204   4.954   2.722   1.551
 4435SOL    HW214205   4.932   2.853   1.646
 4436SOL     OW14206   4.228   1.010   1.703
 4436SOL    HW114207   4.187   1.094   1.667
 4436SOL    HW214208   4.252   0.950   1.627
 4437SOL     OW14209   6.979   2.807   2.904
 4437SOL    HW114210   6.957   2.776   2.812
 4437SOL    HW214211   6.940   2.898   2.918
 4438SOL     OW14212   5.153   0.076   6.651
 4438SOL    HW114213   5.247   0.052   6.625
 4438SOL    HW214214   5.145   0.175   6.660
 4439SOL     OW14215   0.031   4.187   1.663
 4439SOL    HW114216   0.127   4.215   1.670
 4439SOL    HW214217   0.026   4.087   1.660
 4440SOL     OW14218   2.865   4.763   0.437
 4440SOL    HW114219   2.828   4.689   0.381
 4440SOL    HW214220   2.862   4.736   0.533
 4441SOL     OW14221   0.328   2.368   2.670
 4441SOL    HW114222   0.258   2.300   2.650
 4441SOL    HW214223   0.338   2.378   2.769
 4442SOL     OW14224   1.921   5.543   4.458
 4442SOL    HW114225   1.897   5.550   4.361
 4442SOL    HW214226   1.946   5.633   4.493
 4443SOL     OW14227   1.025   3.468   6.483
 4443SOL    HW114228   1.092   3.397   6.506
 4443SOL    HW214229   0.934   3.438   6.511
 4444SOL     OW14230   2.997   4.076   5.092
 4444SOL    HW114231   3.091   4.073   5.058
 4444SOL    HW214232   2.934   4.066   5.014
 4445SOL     OW14233   1.274   6.605   0.099
 4445SOL    HW114234   1.210   6.674   0.132
 4445SOL    HW214235   1.360   6.612   0.151
 4446SOL     OW14236   5.278   0.971   1.489
 4446SOL    HW114237   5.227   0.920   1.559
 4446SOL    HW214238   5.300   0.911   1.413
 4447SOL     OW14239   5.267   4.613   5.753
 4447SOL    HW114240   5.208   4.533   5.742
 4447SOL    HW214241   5.286   4.653   5.663
 4448SOL     OW14242   2.529   3.909   1.573
 4448SOL    HW114243   2.495   3.978   1.508
 4448SOL    HW214244   2.628   3.920   1.584
 4449SOL     OW14245   4.745   0.972   5.920
 4449SOL    HW114246   4.693   0.905   5.868
 4449SOL    HW214247   4.831   0.992   5.873
 4450SOL     OW14248   3.900   3.083   5.586
 4450SOL    HW114249   3.939   3.175   5.582
 4450SOL    HW214250   3.836   3.077   5.662
 4451SOL     OW14251   5.990   4.749   3.077
 4451SOL    HW114252   5.999   4.792   3.167
 4451SOL    HW214253   6.081   4.732   3.039
 4452SOL     OW14254   4.991   6.308   3.981
 4452SOL    HW114255   5.031   6.218   3.997
 4452SOL    HW214256   4.962   6.348   4.067
 4453SOL     OW14257   1.205   3.392   1.456
 4453SOL    HW114258   1.185   3.392   1.554
 4453SOL    HW214259   1.299   3.362   1.441
 4454SOL     OW14260   1.586   1.615   7.002
 4454SOL    HW114261   1.511   1.635   0.043
 4454SOL    HW214262   1.667   1.587   0.032
 4455SOL     OW14263   4.736   6.659   6.137
 4455SOL    HW114264   4.810   6.707   6.090
 4455SOL    HW214265   4.702   6.585   6.079
 4456SOL     OW14266   2.955   5.939   1.833
 4456SOL    HW114267   2.915   6.030   1.819
 4456SOL    HW214268   2.955   5.889   1.747
 4457SOL     OW14269   4.244   1.214   2.693
 4457SOL    HW114270   4.266   1.122   2.661
 4457SOL    HW214271   4.145   1.222   2.707
 4458SOL     OW14272   1.775   2.715   0.502
 4458SOL    HW114273   1.726   2.754   0.580
 4458SOL    HW214274   1.720   2.643   0.461
 4459SOL     OW14275   3.854   1.375   4.488
 4459SOL    HW114276   3.861   1.463   4.441
 4459SOL    HW214277   3.932   1.364   4.549
 4460SOL     OW14278   2.140   2.661   5.952
 4460SOL    HW114279   2.110   2.751   5.983
 4460SOL    HW214280   2.080   2.591   5.992
 4461SOL     OW14281   1.625   6.924   0.811
 4461SOL    HW114282   1.714   6.952   0.848
 4461SOL    HW214283   1.607   6.829   0.837
 4462SOL     OW14284   5.635   5.430   1.885
 4462SOL    HW114285   5.596   5.341   1.864
 4462SOL    HW214286   5.563   5.500   1.883
 4463SOL     OW14287   4.712   1.360   0.815
 4463SOL    HW114288   4.698   1.383   0.718
 4463SOL    HW214289   4.771   1.429   0.857
 4464SOL     OW14290   0.542   5.401   0.332
 4464SOL    HW114291   0.641   5.393   0.319
 4464SOL    HW214292   0.506   5.473   0.273
 4465SOL     OW14293   3.680   5.636   1.597
 4465SOL    HW114294   3.591   5.626   1.553
 4465SOL    HW214295   3.689   5.569   1.671
 4466SOL     OW14296   1.208   2.161   3.652
 4466SOL    HW114297   1.205   2.065   3.622
 4466SOL    HW214298   1.236   2.218   3.575
 4467SOL     OW14299   1.970   5.786   2.646
 4467SOL    HW114300   1.878   5.791   2.605
 4467SOL    HW214301   1.965   5.814   2.742
 4468SOL     OW14302   1.716   3.996   0.420
 4468SOL    HW114303   1.696   3.917   0.363
 4468SOL    HW214304   1.812   4.023   0.406
 4469SOL     OW14305   3.497   0.146   1.949
 4469SOL    HW114306   3.468   0.219   1.887
 4469SOL    HW214307   3.416   0.109   1.996
 4470SOL     OW14308   0.074   2.590   2.237
 4470SOL    HW114309   0.169   2.559   2.225
 4470SOL    HW214310   0.016   2.512   2.260
 4471SOL     OW14311   0.682   1.967   6.608
 4471SOL    HW114312   0.672   2.057   6.650
 4471SOL    HW214313   0.663   1.974   6.510
 4472SOL     OW14314   0.765   3.287   2.056
 4472SOL    HW114315   0.741   3.232   1.977
 4472SOL    HW214316   0.693   3.354   2.074
 4473SOL     OW14317   5.812   2.925   4.488
 4473SOL    HW114318   5.724   2.932   4.535
 4473SOL    HW214319   5.831   3.011   4.441
 4474SOL     OW14320   1.910   0.682   2.452
 4474SOL    HW114321   1.916   0.768   2.503
 4474SOL    HW214322   1.906   0.703   2.354
 4475SOL     OW14323   1.120   4.294   2.131
 4475SOL    HW114324   1.123   4.299   2.031
 4475SOL    HW214325   1.026   4.276   2.160
 4476SOL     OW14326   5.044   0.395   2.946
 4476SOL    HW114327   4.994   0.479   2.924
 4476SOL    HW214328   5.017   0.363   3.036
 4477SOL     OW14329   2.183   6.939   5.076
 4477SOL    HW114330   2.092   6.938   5.035
 4477SOL    HW214331   2.183   6.999   5.157
 4478SOL     OW14332   3.302   6.981   3.139
 4478SOL    HW114333   3.306   7.001   3.041
 4478SOL    HW214334   3.340   0.036   3.190
 4479SOL     OW14335   0.700   1.727   0.857
 4479SOL    HW114336   0.706   1.742   0.956
 4479SOL    HW214337   0.627   1.784   0.819
 4480SOL     OW14338   1.287   4.484   5.648
 4480SOL    HW114339   1.348   4.414   5.685
 4480SOL    HW214340   1.256   4.543   5.723
 4481SOL     OW14341   3.654   5.449   4.837
 4481SOL    HW114342   3.669   5.460   4.935
 4481SOL    HW214343   3.651   5.538   4.793
 4482SOL     OW14344   1.589   2.815   5.086
 4482SOL    HW114345   1.633   2.823   4.997
 4482SOL    HW214346   1.653   2.844   5.157
 4483SOL     OW14347   5.926   2.385   2.493
 4483SOL    HW114348   5.980   2.304   2.470
 4483SOL    HW214349   5.888   2.424   2.409
 4484SOL     OW14350   3.410   2.121   6.353
 4484SOL    HW114351   3.388   2.154   6.261
 4484SOL    HW214352   3.485   2.056   6.349
 4485SOL     OW14353   5.473   2.011   4.496
 4485SOL    HW114354   5.524   1.963   4.567
 4485SOL    HW214355   5.375   1.998   4.511
 4486SOL     OW14356   5.620   5.371   5.403
 4486SOL    HW114357   5.559   5.297   5.431
 4486SOL    HW214358   5.672   5.403   5.483
 4487SOL     OW14359   3.039   2.960   6.288
 4487SOL    HW114360   3.046   3.059   6.272
 4487SOL    HW214361   2.956   2.940   6.340
 4488SOL     OW14362   0.472   3.465   5.735
 4488SOL    HW114363   0.417   3.396   5.781
 4488SOL    HW214364   0.426   3.493   5.650
 4489SOL     OW14365   5.091   5.793   5.284
 4489SOL    HW114366   5.154   5.726   5.322
 4489SOL    HW214367   5.142   5.872   5.249
 4490SOL     OW14368   5.980   2.405   1.953
 4490SOL    HW114369   5.928   2.331   1.910
 4490SOL    HW214370   5.977   2.486   1.894
 4491SOL     OW14371   6.588   3.309   3.721
 4491SOL    HW114372   6.659   3.246   3.753
 4491SOL    HW214373   6.577   3.383   3.787
 4492SOL     OW14374   5.929   4.953   1.840
 4492SOL    HW114375   5.970   4.886   1.778
 4492SOL    HW214376   5.875   4.905   1.909
 4493SOL     OW14377   4.905   5.254   4.756
 4493SOL    HW114378   4.986   5.312   4.762
 4493SOL    HW214379   4.857   5.255   4.844
 4494SOL     OW14380   0.398   0.698   6.482
 4494SOL    HW114381   0.303   0.666   6.492
 4494SOL    HW214382   0.400   0.798   6.483
 4495SOL     OW14383   4.068   6.135   4.718
 4495SOL    HW114384   4.057   6.037   4.703
 4495SOL    HW214385   4.159   6.164   4.688
 4496SOL     OW14386   5.806   6.411   1.237
 4496SOL    HW114387   5.861   6.453   1.309
 4496SOL    HW214388   5.729   6.471   1.215
 4497SOL     OW14389   5.105   1.984   6.620
 4497SOL    HW114390   5.167   2.018   6.550
 4497SOL    HW214391   5.140   1.899   6.658
 4498SOL     OW14392   0.436   3.074   0.198
 4498SOL    HW114393   0.443   2.974   0.196
 4498SOL    HW214394   0.345   3.101   0.165
 4499SOL     OW14395   5.543   3.731   3.968
 4499SOL    HW114396   5.497   3.796   3.908
 4499SOL    HW214397   5.541   3.765   4.062
 4500SOL     OW14398   3.107   3.051   4.528
 4500SOL    HW114399   3.089   3.002   4.612
 4500SOL    HW214400   3.179   3.120   4.544
 4501SOL     OW14401   6.760   3.361   2.780
 4501SOL    HW114402   6.815   3.287   2.818
 4501SOL    HW214403   6.762   3.440   2.842
 4502SOL     OW14404   0.643   2.940   6.714
 4502SOL    HW114405   0.679   2.958   6.806
 4502SOL    HW214406   0.697   2.868   6.671
 4503SOL     OW14407   3.655   0.017   1.769
 4503SOL    HW114408   3.623   6.945   1.772
 4503SOL    HW214409   3.598   0.073   1.830
 4504SOL     OW14410   6.661   0.977   4.421
 4504SOL    HW114411   6.598   0.926   4.362
 4504SOL    HW214412   6.642   0.956   4.517
 4505SOL     OW14413   6.195   4.987   1.968
 4505SOL    HW114414   6.111   4.975   1.915
 4505SOL    HW214415   6.261   4.917   1.941
 4506SOL     OW14416   4.903   3.169   3.403
 4506SOL    HW114417   4.941   3.150   3.493
 4506SOL    HW214418   4.821   3.113   3.389
 4507SOL     OW14419   5.757   4.479   2.970
 4507SOL    HW114420   5.803   4.565   2.991
 4507SOL    HW214421   5.702   4.490   2.887
 4508SOL     OW14422   1.823   5.543   0.158
 4508SOL    HW114423   1.873   5.490   0.090
 4508SOL    HW214424   1.780   5.621   0.115
 4509SOL     OW14425   4.455   2.385   2.239
 4509SOL    HW114426   4.485   2.440   2.160
 4509SOL    HW214427   4.516   2.307   2.251
 4510SOL     OW14428   4.116   1.966   4.074
 4510SOL    HW114429   4.122   2.033   4.148
 4510SOL    HW214430   4.021   1.960   4.042
 4511SOL     OW14431   5.625   3.908   6.670
 4511SOL    HW114432   5.639   4.007   6.671
 4511SOL    HW214433   5.703   3.863   6.714
 4512SOL     OW14434   2.745   1.374   5.551
 4512SOL    HW114435   2.778   1.304   5.616
 4512SOL    HW214436   2.805   1.454   5.556
 4513SOL     OW14437   0.598   5.063   6.561
 4513SOL    HW114438   0.608   5.158   6.532
 4513SOL    HW214439   0.686   5.015   6.550
 4514SOL     OW14440   4.187   2.409   5.938
 4514SOL    HW114441   4.273   2.387   5.985
 4514SOL    HW214442   4.164   2.336   5.874
 4515SOL     OW14443   0.068   1.908   5.515
 4515SOL    HW114444   0.112   1.879   5.600
 4515SOL    HW214445   0.099   2.001   5.491
 4516SOL     OW14446   2.106   6.985   0.481
 4516SOL    HW114447   2.070   6.899   0.518
 4516SOL    HW214448   2.030   0.024   0.460
 4517SOL     OW14449   4.440   0.466   6.796
 4517SOL    HW114450   4.387   0.508   6.870
 4517SOL    HW214451   4.523   0.520   6.781
 4518SOL     OW14452   0.245   0.096   2.363
 4518SOL    HW114453   0.307   0.095   2.284
 4518SOL    HW214454   0.174   0.165   2.348
 4519SOL     OW14455   6.744   6.884   1.408
 4519SOL    HW114456   6.837   6.847   1.397
 4519SOL    HW214457   6.679   6.809   1.417
 4520SOL     OW14458   4.414   6.336   5.518
 4520SOL    HW114459   4.339   6.316   5.455
 4520SOL    HW214460   4.485   6.266   5.508
 4521SOL     OW14461   6.175   1.995   4.956
 4521SOL    HW114462   6.145   1.939   5.033
 4521SOL    HW214463   6.275   2.001   4.956
 4522SOL     OW14464   5.438   5.293   3.402
 4522SOL    HW114465   5.514   5.331   3.349
 4522SOL    HW214466   5.466   5.207   3.444
 4523SOL     OW14467   0.972   4.352   0.379
 4523SOL    HW114468   1.053   4.294   0.386
 4523SOL    HW214469   0.953   4.393   0.468
 4524SOL     OW14470   6.615   2.735   1.831
 4524SOL    HW114471   6.585   2.717   1.738
 4524SOL    HW214472   6.715   2.728   1.836
 4525SOL     OW14473   4.916   2.324   5.615
 4525SOL    HW114474   5.002   2.275   5.602
 4525SOL    HW214475   4.888   2.366   5.529
 4526SOL     OW14476   0.023   7.021   6.269
 4526SOL    HW114477   0.001   0.089   6.234
 4526SOL    HW214478   6.975   6.992   6.334
 4527SOL     OW14479   6.130   1.248   3.906
 4527SOL    HW114480   6.152   1.231   4.001
 4527SOL    HW214481   6.214   1.256   3.852
 4528SOL     OW14482   4.524   0.260   0.121
 4528SOL    HW114483   4.576   0.190   0.170
 4528SOL    HW214484   4.521   0.344   0.175
 4529SOL     OW14485   2.021   0.330   4.861
 4529SOL    HW114486   2.025   0.258   4.930
 4529SOL    HW214487   2.015   0.290   4.770
 4530SOL     OW14488   1.699   5.015   4.098
 4530SOL    HW114489   1.700   5.071   4.015
 4530SOL    HW214490   1.713   5.074   4.178
 4531SOL     OW14491   0.608   2.688   5.059
 4531SOL    HW114492   0.583   2.765   5.117
 4531SOL    HW214493   0.662   2.721   4.981
 4532SOL     OW14494   6.850   1.187   2.514
 4532SOL    HW114495   6.779   1.229   2.571
 4532SOL    HW214496   6.898   1.259   2.463
 4533SOL     OW14497   1.112   1.778   1.833
 4533SOL    HW114498   1.206   1.775   1.801
 4533SOL    HW214499   1.051   1.747   1.760
 4534SOL     OW14500   4.966   4.419   4.658
 4534SOL    HW114501   5.018   4.345   4.614
 4534SOL    HW214502   4.958   4.401   4.756
 4535SOL     OW14503   3.594   0.663   3.036
 4535SOL    HW114504   3.657   0.622   2.970
 4535SOL    HW214505   3.500   0.658   2.999
 4536SOL     OW14506   4.227   1.503   4.292
 4536SOL    HW114507   4.289   1.433   4.328
 4536SOL    HW214508   4.222   1.579   4.356
 4537SOL     OW14509   4.022   3.517   0.284
 4537SOL    HW114510   3.952   3.453   0.315
 4537SOL    HW214511   3.989   3.565   0.202
 4538SOL     OW14512   1.607   0.336   2.986
 4538SOL    HW114513   1.699   0.296   2.978
 4538SOL    HW214514   1.613   0.435   2.976
 4539SOL     OW14515   3.142   5.778   4.691
 4539SOL    HW114516   3.121   5.707   4.758
 4539SOL    HW214517   3.165   5.862   4.738
 4540SOL     OW14518   2.316   2.298   6.665
 4540SOL    HW114519   2.384   2.260   6.602
 4540SOL    HW214520   2.269   2.375   6.622
 4541SOL     OW14521   6.019   1.701   6.812
 4541SOL    HW114522   5.974   1.788   6.832
 4541SOL    HW214523   5.987   1.666   6.724
 4542SOL     OW14524   0.266   1.828   1.662
 4542SOL    HW114525   0.319   1.901   1.620
 4542SOL    HW214526   0.178   1.863   1.693
 4543SOL     OW14527   4.415   2.123   0.936
 4543SOL    HW114528   4.485   2.157   0.999
 4543SOL    HW214529   4.330   2.174   0.950
 4544SOL     OW14530   3.436   5.739   6.391
 4544SOL    HW114531   3.488   5.770   6.312
 4544SOL    HW214532   3.410   5.643   6.379
 4545SOL     OW14533   5.403   3.002   4.014
 4545SOL    HW114534   5.485   3.052   3.985
 4545SOL    HW214535   5.419   2.904   4.005
 4546SOL     OW14536   1.691   1.478   4.594
 4546SOL    HW114537   1.717   1.434   4.679
 4546SOL    HW214538   1.606   1.439   4.560
 4547SOL     OW14539   6.418   2.069   1.072
 4547SOL    HW114540   6.429   1.978   1.113
 4547SOL    HW214541   6.380   2.131   1.141
 4548SOL     OW14542   1.391   3.297   3.937
 4548SOL    HW114543   1.347   3.278   3.849
 4548SOL    HW214544   1.428   3.390   3.937
 4549SOL     OW14545   6.190   4.180   1.983
 4549SOL    HW114546   6.183   4.277   2.006
 4549SOL    HW214547   6.105   4.150   1.941
 4550SOL     OW14548   0.938   5.435   3.314
 4550SOL    HW114549   0.986   5.493   3.248
 4550SOL    HW214550   0.999   5.411   3.388
 4551SOL     OW14551   0.282   3.529   4.713
 4551SOL    HW114552   0.199   3.584   4.717
 4551SOL    HW214553   0.271   3.447   4.768
 4552SOL     OW14554   6.704   2.144   1.452
 4552SOL    HW114555   6.681   2.234   1.414
 4552SOL    HW214556   6.649   2.127   1.533
 4553SOL     OW14557   4.027   4.070   6.657
 4553SOL    HW114558   4.078   4.156   6.665
 4553SOL    HW214559   3.985   4.064   6.567
 4554SOL     OW14560   6.320   6.936   1.356
 4554SOL    HW114561   6.267   6.956   1.438
 4554SOL    HW214562   6.303   6.842   1.326
 4555SOL     OW14563   2.696   1.942   5.184
 4555SOL    HW114564   2.764   1.941   5.257
 4555SOL    HW214565   2.727   1.885   5.108
 4556SOL     OW14566   5.113   2.907   4.341
 4556SOL    HW114567   5.051   2.905   4.262
 4556SOL    HW214568   5.110   2.998   4.382
 4557SOL     OW14569   4.915   5.781   5.086
 4557SOL    HW114570   4.960   5.763   4.998
 4557SOL    HW214571   4.985   5.790   5.157
 4558SOL     OW14572   6.989   4.332   5.105
 4558SOL    HW114573   6.984   4.332   5.005
 4558SOL    HW214574   6.972   4.425   5.139
 4559SOL     OW14575   0.635   3.606   1.971
 4559SOL    HW114576   0.568   3.566   1.908
 4559SOL    HW214577   0.607   3.588   2.065
 4560SOL     OW14578   5.267   4.418   1.635
 4560SOL    HW114579   5.293   4.336   1.687
 4560SOL    HW214580   5.168   4.417   1.619
 4561SOL     OW14581   2.738   2.017   2.817
 4561SOL    HW114582   2.751   1.922   2.786
 4561SOL    HW214583   2.718   2.017   2.915
 4562SOL     OW14584   2.249   6.753   6.033
 4562SOL    HW114585   2.192   6.827   6.067
 4562SOL    HW214586   2.290   6.705   6.110
 4563SOL     OW14587   0.376   2.875   0.734
 4563SOL    HW114588   0.450   2.897   0.798
 4563SOL    HW214589   0.315   2.807   0.776
 4564SOL     OW14590   0.072   5.860   2.037
 4564SOL    HW114591   0.119   5.928   1.981
 4564SOL    HW214592   6.997   5.861   2.016
 4565SOL     OW14593   0.649   0.426   4.797
 4565SOL    HW114594   0.658   0.526   4.797
 4565SOL    HW214595   0.622   0.395   4.888
 4566SOL     OW14596   6.885   2.905   0.172
 4566SOL    HW114597   6.809   2.840   0.174
 4566SOL    HW214598   6.855   2.993   0.209
 4567SOL     OW14599   6.520   1.348   5.921
 4567SOL    HW114600   6.602   1.329   5.975
 4567SOL    HW214601   6.546   1.397   5.838
 4568SOL     OW14602   1.820   3.185   5.988
 4568SOL    HW114603   1.854   3.195   5.895
 4568SOL    HW214604   1.896   3.186   6.052
 4569SOL     OW14605   1.940   1.274   3.112
 4569SOL    HW114606   2.027   1.238   3.079
 4569SOL    HW214607   1.950   1.372   3.130
 4570SOL     OW14608   0.145   6.941   2.541
 4570SOL    HW114609   0.172   7.010   2.474
 4570SOL    HW214610   0.068   6.976   2.596
 4571SOL     OW14611   4.548   3.900   6.316
 4571SOL    HW114612   4.627   3.922   6.374
 4571SOL    HW214613   4.479   3.972   6.325
 4572SOL     OW14614   2.294   0.529   6.737
 4572SOL    HW114615   2.387   0.565   6.726
 4572SOL    HW214616   2.277   0.509   6.833
 4573SOL     OW14617   6.345   0.424   0.382
 4573SOL    HW114618   6.280   0.455   0.312
 4573SOL    HW214619   6.369   0.500   0.442
 4574SOL     OW14620   5.659   3.787   0.438
 4574SOL    HW114621   5.669   3.744   0.349
 4574SOL    HW214622   5.570   3.831   0.445
 4575SOL     OW14623   5.548   1.028   5.883
 4575SOL    HW114624   5.545   1.065   5.976
 4575SOL    HW214625   5.462   0.981   5.863
 4576SOL     OW14626   3.218   6.198   5.725
 4576SOL    HW114627   3.248   6.281   5.680
 4576SOL    HW214628   3.120   6.186   5.712
 4577SOL     OW14629   0.822   2.092   4.548
 4577SOL    HW114630   0.815   2.071   4.450
 4577SOL    HW214631   0.782   2.017   4.601
 4578SOL     OW14632   0.980   2.545   5.248
 4578SOL    HW114633   0.987   2.631   5.299
 4578SOL    HW214634   1.070   2.521   5.211
 4579SOL     OW14635   3.774   0.712   3.508
 4579SOL    HW114636   3.689   0.763   3.510
 4579SOL    HW214637   3.754   0.614   3.514
 4580SOL     OW14638   5.285   4.664   1.123
 4580SOL    HW114639   5.284   4.651   1.024
 4580SOL    HW214640   5.372   4.631   1.160
 4581SOL     OW14641   2.077   5.728   2.143
 4581SOL    HW114642   2.059   5.780   2.226
 4581SOL    HW214643   2.095   5.632   2.168
 4582SOL     OW14644   4.275   0.926   4.699
 4582SOL    HW114645   4.301   0.920   4.603
 4582SOL    HW214646   4.182   0.963   4.706
 4583SOL     OW14647   3.011   2.006   6.962
 4583SOL    HW114648   3.068   2.082   6.993
 4583SOL    HW214649   3.041   1.977   6.871
 4584SOL     OW14650   0.575   4.829   5.786
 4584SOL    HW114651   0.555   4.871   5.875
 4584SOL    HW214652   0.492   4.790   5.749
 4585SOL     OW14653   2.162   5.607   3.287
 4585SOL    HW114654   2.229   5.665   3.334
 4585SOL    HW214655   2.122   5.543   3.353
 4586SOL     OW14656   3.973   4.394   0.786
 4586SOL    HW114657   3.905   4.465   0.764
 4586SOL    HW214658   3.928   4.305   0.790
 4587SOL     OW14659   3.188   3.944   3.730
 4587SOL    HW114660   3.230   3.906   3.813
 4587SOL    HW214661   3.124   3.877   3.692
 4588SOL     OW14662   2.483   3.763   5.311
 4588SOL    HW114663   2.386   3.784   5.292
 4588SOL    HW214664   2.489   3.693   5.382
 4589SOL     OW14665   6.412   0.644   2.199
 4589SOL    HW114666   6.430   0.672   2.105
 4589SOL    HW214667   6.330   0.587   2.201
 4590SOL     OW14668   4.521   4.960   1.137
 4590SOL    HW114669   4.464   4.920   1.209
 4590SOL    HW214670   4.505   4.911   1.052
 4591SOL     OW14671   1.581   0.415   4.369
 4591SOL    HW114672   1.594   0.364   4.453
 4591SOL    HW214673   1.614   0.508   4.380
 4592SOL     OW14674   2.535   1.346   3.285
 4592SOL    HW114675   2.627   1.384   3.289
 4592SOL    HW214676   2.511   1.326   3.189
 4593SOL     OW14677   5.301   5.895   2.424
 4593SOL    HW114678   5.381   5.955   2.426
 4593SOL    HW214679   5.302   5.840   2.341
 4594SOL     OW14680   2.492   1.321   3.021
 4594SOL    HW114681   2.405   1.346   2.978
 4594SOL    HW214682   2.525   1.234   2.982
 4595SOL     OW14683   4.567   3.179   5.327
 4595SOL    HW114684   4.623   3.243   5.275
 4595SOL    HW214685   4.625   3.106   5.365
 4596SOL     OW14686   6.516   0.436   2.383
 4596SOL    HW114687   6.520   0.464   2.287
 4596SOL    HW214688   6.428   0.465   2.422
 4597SOL     OW14689   4.176   5.158   6.745
 4597SOL    HW114690   4.154   5.141   6.649
 4597SOL    HW214691   4.175   5.071   6.795
 4598SOL     OW14692   1.761   6.032   0.523
 4598SOL    HW114693   1.748   6.019   0.622
 4598SOL    HW214694   1.793   5.947   0.482
 4599SOL     OW14695   1.499   4.837   0.157
 4599SOL    HW114696   1.470   4.893   0.079
 4599SOL    HW214697   1.445   4.753   0.159
 4600SOL     OW14698   1.171   5.680   5.706
 4600SOL    HW114699   1.237   5.653   5.635
 4600SOL    HW214700   1.185   5.777   5.729
 4601SOL     OW14701   2.146   1.172   5.240
 4601SOL    HW114702   2.094   1.114   5.178
 4601SOL    HW214703   2.225   1.209   5.191
 4602SOL     OW14704   2.910   6.369   0.458
 4602SOL    HW114705   2.918   6.380   0.359
 4602SOL    HW214706   2.993   6.402   0.502
 4603SOL     OW14707   3.760   6.424   0.742
 4603SOL    HW114708   3.844   6.410   0.690
 4603SOL    HW214709   3.753   6.355   0.814
 4604SOL     OW14710   4.191   6.957   0.009
 4604SOL    HW114711   4.109   6.962   6.975
 4604SOL    HW214712   4.236   0.023   0.011
 4605SOL     OW14713   2.006   6.450   2.471
 4605SOL    HW114714   1.924   6.397   2.492
 4605SOL    HW214715   2.063   6.456   2.553
 4606SOL     OW14716   0.953   6.694   2.306
 4606SOL    HW114717   0.911   6.606   2.331
 4606SOL    HW214718   0.884   6.753   2.265
 4607SOL     OW14719   2.086   3.090   2.281
 4607SOL    HW114720   2.172   3.066   2.326
 4607SOL    HW214721   2.044   3.168   2.328
 4608SOL     OW14722   0.374   5.855   3.412
 4608SOL    HW114723   0.469   5.824   3.422
 4608SOL    HW214724   0.314   5.796   3.466
 4609SOL     OW14725   4.582   4.926   6.669
 4609SOL    HW114726   4.646   4.905   6.595
 4609SOL    HW214727   4.593   5.021   6.698
 4610SOL     OW14728   4.893   1.907   0.391
 4610SOL    HW114729   4.952   1.833   0.423
 4610SOL    HW214730   4.869   1.967   0.467
 4611SOL     OW14731   1.285   6.471   6.366
 4611SOL    HW114732   1.365   6.526   6.341
 4611SOL    HW214733   1.301   6.427   6.454
 4612SOL     OW14734   1.587   6.313   0.782
 4612SOL    HW114735   1.547   6.381   0.843
 4612SOL    HW214736   1.531   6.305   0.699
 4613SOL     OW14737   1.632   5.516   1.847
 4613SOL    HW114738   1.698   5.533   1.773
 4613SOL    HW214739   1.552   5.574   1.834
 4614SOL     OW14740   6.291   3.568   2.714
 4614SOL    HW114741   6.210   3.624   2.727
 4614SOL    HW214742   6.369   3.626   2.691
 4615SOL     OW14743   1.758   0.797   0.016
 4615SOL    HW114744   1.823   0.734   6.996
 4615SOL    HW214745   1.681   0.813   6.977
 4616SOL     OW14746   6.286   1.208   4.637
 4616SOL    HW114747   6.275   1.109   4.624
 4616SOL    HW214748   6.252   1.256   4.556
 4617SOL     OW14749   0.625   2.476   2.250
 4617SOL    HW114750   0.587   2.395   2.206
 4617SOL    HW214751   0.707   2.451   2.301
 4618SOL     OW14752   2.332   2.832   5.298
 4618SOL    HW114753   2.353   2.880   5.383
 4618SOL    HW214754   2.363   2.886   5.220
 4619SOL     OW14755   3.224   6.407   3.169
 4619SOL    HW114756   3.167   6.473   3.119
 4619SOL    HW214757   3.208   6.417   3.267
 4620SOL     OW14758   2.461   4.925   0.734
 4620SOL    HW114759   2.385   4.959   0.789
 4620SOL    HW214760   2.532   4.889   0.794
 4621SOL     OW14761   4.922   0.682   2.551
 4621SOL    HW114762   4.834   0.637   2.559
 4621SOL    HW214763   4.929   0.727   2.462
 4622SOL     OW14764   3.102   4.477   0.531
 4622SOL    HW114765   3.097   4.449   0.627
 4622SOL    HW214766   3.194   4.461   0.496
 4623SOL     OW14767   5.550   6.144   1.638
 4623SOL    HW114768   5.519   6.140   1.733
 4623SOL    HW214769   5.506   6.071   1.585
 4624SOL     OW14770   3.289   0.003   2.866
 4624SOL    HW114771   3.252   0.063   2.795
 4624SOL    HW214772   3.305   6.934   2.828
 4625SOL     OW14773   2.117   4.916   1.282
 4625SOL    HW114774   2.068   5.002   1.297
 4625SOL    HW214775   2.075   4.867   1.205
 4626SOL     OW14776   5.281   4.308   2.335
 4626SOL    HW114777   5.358   4.357   2.375
 4626SOL    HW214778   5.314   4.227   2.286
 4627SOL     OW14779   1.915   4.503   5.126
 4627SOL    HW114780   1.971   4.585   5.118
 4627SOL    HW214781   1.889   4.472   5.035
 4628SOL     OW14782   4.776   4.197   4.386
 4628SOL    HW114783   4.859   4.193   4.442
 4628SOL    HW214784   4.697   4.214   4.444
 4629SOL     OW14785   2.992   5.345   5.335
 4629SOL    HW114786   3.039   5.335   5.423
 4629SOL    HW214787   3.037   5.288   5.267
 4630SOL     OW14788   2.624   6.021   1.923
 4630SOL    HW114789   2.626   5.975   2.012
 4630SOL    HW214790   2.532   6.055   1.905
 4631SOL     OW14791   1.365   6.048   3.407
 4631SOL    HW114792   1.272   6.055   3.443
 4631SOL    HW214793   1.406   6.140   3.401
 4632SOL     OW14794   2.692   4.745   2.941
 4632SOL    HW114795   2.642   4.703   3.016
 4632SOL    HW214796   2.717   4.839   2.965
 4633SOL     OW14797   5.866   0.892   5.055
 4633SOL    HW114798   5.802   0.844   4.995
 4633SOL    HW214799   5.853   0.860   5.149
 4634SOL     OW14800   2.312   3.954   5.414
 4634SOL    HW114801   2.345   3.975   5.322
 4634SOL    HW214802   2.372   3.997   5.481
 4635SOL     OW14803   5.329   3.733   1.441
 4635SOL    HW114804   5.250   3.682   1.408
 4635SOL    HW214805   5.302   3.790   1.519
 4636SOL     OW14806   2.267   4.310   0.199
 4636SOL    HW114807   2.278   4.405   0.171
 4636SOL    HW214808   2.249   4.305   0.297
 4637SOL     OW14809   0.885   6.642   1.319
 4637SOL    HW114810   0.900   6.710   1.390
 4637SOL    HW214811   0.890   6.550   1.359
 4638SOL     OW14812   4.355   4.263   0.110
 4638SOL    HW114813   4.378   4.312   0.194
 4638SOL    HW214814   4.329   4.169   0.132
 4639SOL     OW14815   3.494   3.385   6.103
 4639SOL    HW114816   3.430   3.460   6.083
 4639SOL    HW214817   3.468   3.304   6.050
 4640SOL     OW14818   4.812   3.850   3.816
 4640SOL    HW114819   4.874   3.812   3.885
 4640SOL    HW214820   4.743   3.906   3.861
 4641SOL     OW14821   2.397   0.533   4.574
 4641SOL    HW114822   2.349   0.620   4.562
 4641SOL    HW214823   2.331   0.458   4.573
 4642SOL     OW14824   0.705   6.594   3.806
 4642SOL    HW114825   0.678   6.517   3.749
 4642SOL    HW214826   0.697   6.679   3.754
 4643SOL     OW14827   6.965   2.022   0.645
 4643SOL    HW114828   0.021   2.016   0.708
 4643SOL    HW214829   6.926   2.114   0.650
 4644SOL     OW14830   0.524   5.585   5.040
 4644SOL    HW114831   0.479   5.542   4.962
 4644SOL    HW214832   0.581   5.517   5.087
 4645SOL     OW14833   0.691   0.193   3.908
 4645SOL    HW114834   0.595   0.168   3.923
 4645SOL    HW214835   0.696   0.272   3.848
 4646SOL     OW14836   2.086   5.406   3.454
 4646SOL    HW114837   2.042   5.318   3.435
 4646SOL    HW214838   2.182   5.391   3.476
 4647SOL     OW14839   1.749   0.269   3.266
 4647SOL    HW114840   1.704   0.300   3.183
 4647SOL    HW214841   1.817   0.199   3.244
 4648SOL     OW14842   3.454   0.397   3.301
 4648SOL    HW114843   3.421   0.370   3.211
 4648SOL    HW214844   3.408   0.482   3.329
 4649SOL     OW14845   5.537   0.845   6.804
 4649SOL    HW114846   5.532   0.746   6.794
 4649SOL    HW214847   5.633   0.875   6.797
 4650SOL     OW14848   4.807   5.832   2.519
 4650SOL    HW114849   4.766   5.906   2.573
 4650SOL    HW214850   4.754   5.748   2.533
 4651SOL     OW14851   6.526   3.795   0.213
 4651SOL    HW114852   6.444   3.751   0.177
 4651SOL    HW214853   6.589   3.726   0.248
 4652SOL     OW14854   5.714   6.396   3.983
 4652SOL    HW114855   5.805   6.402   4.026
 4652SOL    HW214856   5.669   6.312   4.013
 4653SOL     OW14857   4.874   5.561   0.888
 4653SOL    HW114858   4.914   5.470   0.895
 4653SOL    HW214859   4.946   5.627   0.863
 4654SOL     OW14860   0.652   6.383   6.984
 4654SOL    HW114861   0.685   6.374   6.890
 4654SOL    HW214862   0.654   6.479   7.011
 4655SOL     OW14863   6.154   3.876   1.158
 4655SOL    HW114864   6.238   3.882   1.213
 4655SOL    HW214865   6.144   3.959   1.103
 4656SOL     OW14866   1.185   0.420   2.125
 4656SOL    HW114867   1.176   0.520   2.121
 4656SOL    HW214868   1.102   0.377   2.091
 4657SOL     OW14869   4.192   5.677   1.393
 4657SOL    HW114870   4.184   5.581   1.366
 4657SOL    HW214871   4.248   5.725   1.326
 4658SOL     OW14872   3.312   0.243   3.849
 4658SOL    HW114873   3.406   0.273   3.860
 4658SOL    HW214874   3.288   0.180   3.923
 4659SOL     OW14875   3.208   4.375   5.588
 4659SOL    HW114876   3.210   4.278   5.612
 4659SOL    HW214877   3.192   4.385   5.490
 4660SOL     OW14878   0.950   5.233   5.212
 4660SOL    HW114879   0.986   5.145   5.242
 4660SOL    HW214880   0.850   5.228   5.209
 4661SOL     OW14881   3.033   4.437   6.098
 4661SOL    HW114882   2.949   4.422   6.045
 4661SOL    HW214883   3.111   4.438   6.036
 4662SOL     OW14884   3.211   0.273   5.221
 4662SOL    HW114885   3.275   0.200   5.198
 4662SOL    HW214886   3.128   0.264   5.165
 4663SOL     OW14887   0.387   1.453   1.069
 4663SOL    HW114888   0.310   1.418   1.123
 4663SOL    HW214889   0.472   1.439   1.120
 4664SOL     OW14890   1.741   1.197   1.051
 4664SOL    HW114891   1.675   1.255   1.003
 4664SOL    HW214892   1.716   1.101   1.038
 4665SOL     OW14893   3.917   6.072   6.348
 4665SOL    HW114894   3.855   6.073   6.269
 4665SOL    HW214895   3.975   6.154   6.347
 4666SOL     OW14896   2.552   2.555   6.927
 4666SOL    HW114897   2.479   2.618   6.902
 4666SOL    HW214898   2.520   2.461   6.915
 4667SOL     OW14899   6.603   3.813   1.876
 4667SOL    HW114900   6.686   3.859   1.844
 4667SOL    HW214901   6.557   3.869   1.944
 4668SOL     OW14902   4.639   2.091   3.270
 4668SOL    HW114903   4.679   2.089   3.361
 4668SOL    HW214904   4.577   2.013   3.259
 4669SOL     OW14905   5.334   6.134   0.371
 4669SOL    HW114906   5.343   6.097   0.464
 4669SOL    HW214907   5.422   6.171   0.342
 4670SOL     OW14908   1.695   2.682   5.901
 4670SOL    HW114909   1.674   2.746   5.975
 4670SOL    HW214910   1.625   2.611   5.897
 4671SOL     OW14911   0.246   3.185   0.056
 4671SOL    HW114912   0.290   3.211   6.992
 4671SOL    HW214913   0.162   3.238   0.068
 4672SOL     OW14914   2.725   5.247   5.375
 4672SOL    HW114915   2.658   5.220   5.306
 4672SOL    HW214916   2.809   5.275   5.330
 4673SOL     OW14917   4.740   0.137   2.141
 4673SOL    HW114918   4.817   0.153   2.203
 4673SOL    HW214919   4.695   0.224   2.122
 4674SOL     OW14920   4.760   0.857   6.166
 4674SOL    HW114921   4.746   0.910   6.083
 4674SOL    HW214922   4.682   0.868   6.227
 4675SOL     OW14923   2.252   1.430   6.573
 4675SOL    HW114924   2.236   1.452   6.669
 4675SOL    HW214925   2.323   1.359   6.566
 4676SOL     OW14926   6.354   6.210   3.922
 4676SOL    HW114927   6.268   6.242   3.962
 4676SOL    HW214928   6.370   6.115   3.949
 4677SOL     OW14929   2.489   1.300   6.617
 4677SOL    HW114930   2.566   1.361   6.634
 4677SOL    HW214931   2.520   1.220   6.565
 4678SOL     OW14932   1.979   4.302   2.737
 4678SOL    HW114933   1.997   4.379   2.797
 4678SOL    HW214934   2.033   4.310   2.653
 4679SOL     OW14935   3.322   1.145   0.086
 4679SOL    HW114936   3.323   1.237   0.049
 4679SOL    HW214937   3.238   1.130   0.137
 4680SOL     OW14938   2.616   1.393   0.660
 4680SOL    HW114939   2.595   1.296   0.676
 4680SOL    HW214940   2.541   1.450   0.693
 4681SOL     OW14941   5.388   6.182   6.294
 4681SOL    HW114942   5.291   6.178   6.273
 4681SOL    HW214943   5.438   6.218   6.215
 4682SOL     OW14944   4.139   4.668   5.672
 4682SOL    HW114945   4.095   4.658   5.761
 4682SOL    HW214946   4.140   4.579   5.625
 4683SOL     OW14947   4.476   4.895   2.897
 4683SOL    HW114948   4.459   4.952   2.977
 4683SOL    HW214949   4.552   4.832   2.916
 4684SOL     OW14950   6.546   1.896   5.489
 4684SOL    HW114951   6.645   1.909   5.499
 4684SOL    HW214952   6.528   1.801   5.463
 4685SOL     OW14953   0.634   6.280   5.213
 4685SOL    HW114954   0.616   6.184   5.191
 4685SOL    HW214955   0.567   6.312   5.280
 4686SOL     OW14956   4.874   5.127   0.385
 4686SOL    HW114957   4.951   5.125   0.321
 4686SOL    HW214958   4.791   5.098   0.338
 4687SOL     OW14959   6.417   4.175   5.228
 4687SOL    HW114960   6.391   4.160   5.133
 4687SOL    HW214961   6.422   4.274   5.246
 4688SOL     OW14962   6.119   3.876   5.462
 4688SOL    HW114963   6.082   3.821   5.387
 4688SOL    HW214964   6.122   3.820   5.545
 4689SOL     OW14965   5.791   0.498   0.321
 4689SOL    HW114966   5.699   0.468   0.346
 4689SOL    HW214967   5.828   0.555   0.395
 4690SOL     OW14968   1.319   0.590   0.096
 4690SOL    HW114969   1.258   0.526   0.049
 4690SOL    HW214970   1.319   0.678   0.047
 4691SOL     OW14971   2.801   4.827   2.197
 4691SOL    HW114972   2.821   4.742   2.147
 4691SOL    HW214973   2.746   4.805   2.278
 4692SOL     OW14974   5.967   5.652   1.962
 4692SOL    HW114975   5.934   5.747   1.962
 4692SOL    HW214976   5.902   5.594   2.011
 4693SOL     OW14977   0.642   0.839   3.166
 4693SOL    HW114978   0.611   0.934   3.179
 4693SOL    HW214979   0.716   0.837   3.099
 4694SOL     OW14980   2.360   0.010   0.317
 4694SOL    HW114981   2.446   6.996   0.353
 4694SOL    HW214982   2.286   7.016   0.382
 4695SOL     OW14983   2.192   3.471   1.678
 4695SOL    HW114984   2.206   3.443   1.773
 4695SOL    HW214985   2.268   3.529   1.649
 4696SOL     OW14986   6.986   3.711   6.501
 4696SOL    HW114987   0.012   3.791   6.464
 4696SOL    HW214988   6.990   3.637   6.434
 4697SOL     OW14989   2.380   3.602   0.871
 4697SOL    HW114990   2.369   3.540   0.948
 4697SOL    HW214991   2.389   3.696   0.904
 4698SOL     OW14992   4.374   5.686   3.015
 4698SOL    HW114993   4.403   5.668   2.921
 4698SOL    HW214994   4.373   5.601   3.068
 4699SOL     OW14995   1.798   6.726   1.692
 4699SOL    HW114996   1.740   6.723   1.773
 4699SOL    HW214997   1.799   6.637   1.647
 4700SOL     OW14998   6.607   1.363   2.595
 4700SOL    HW114999   6.542   1.326   2.662
 4700SOL    HW215000   6.664   1.433   2.639
 4701SOL     OW15001   2.242   2.072   0.243
 4701SOL    HW115002   2.300   2.077   0.324
 4701SOL    HW215003   2.294   2.101   0.162
 4702SOL     OW15004   5.933   5.014   6.958
 4702SOL    HW115005   5.910   4.924   6.923
 4702SOL    HW215006   5.991   5.062   6.891
 4703SOL     OW15007   0.944   1.892   1.608
 4703SOL    HW115008   0.903   1.841   1.533
 4703SOL    HW215009   0.898   1.869   1.693
 4704SOL     OW15010   1.254   6.963   6.621
 4704SOL    HW115011   1.206   6.875   6.611
 4704SOL    HW215012   1.333   6.950   6.681
 4705SOL     OW15013   3.580   3.413   2.664
 4705SOL    HW115014   3.644   3.427   2.588
 4705SOL    HW215015   3.628   3.370   2.741
 4706SOL     OW15016   4.045   6.327   6.342
 4706SOL    HW115017   4.143   6.333   6.363
 4706SOL    HW215018   4.022   6.393   6.271
 4707SOL     OW15019   2.625   6.021   1.091
 4707SOL    HW115020   2.657   5.931   1.120
 4707SOL    HW215021   2.606   6.019   0.993
 4708SOL     OW15022   1.393   2.047   6.864
 4708SOL    HW115023   1.461   1.974   6.867
 4708SOL    HW215024   1.377   2.074   6.769
 4709SOL     OW15025   4.468   5.947   6.139
 4709SOL    HW115026   4.557   5.969   6.097
 4709SOL    HW215027   4.452   5.849   6.132
 4710SOL     OW15028   3.890   1.185   5.175
 4710SOL    HW115029   3.859   1.104   5.224
 4710SOL    HW215030   3.827   1.261   5.194
 4711SOL     OW15031   5.760   0.966   1.827
 4711SOL    HW115032   5.775   0.910   1.746
 4711SOL    HW215033   5.806   1.054   1.816
 4712SOL     OW15034   2.966   4.572   0.088
 4712SOL    HW115035   3.012   4.541   0.005
 4712SOL    HW215036   2.976   4.503   0.159
 4713SOL     OW15037   3.487   3.380   0.708
 4713SOL    HW115038   3.414   3.327   0.751
 4713SOL    HW215039   3.467   3.393   0.611
 4714SOL     OW15040   1.273   2.365   6.890
 4714SOL    HW115041   1.213   2.394   6.816
 4714SOL    HW215042   1.264   2.267   6.905
 4715SOL     OW15043   6.746   2.906   2.143
 4715SOL    HW115044   6.697   2.856   2.214
 4715SOL    HW215045   6.825   2.854   2.113
 4716SOL     OW15046   4.896   6.093   6.353
 4716SOL    HW115047   4.867   6.015   6.409
 4716SOL    HW215048   4.870   6.178   6.399
 4717SOL     OW15049   0.619   6.495   3.554
 4717SOL    HW115050   0.582   6.582   3.524
 4717SOL    HW215051   0.678   6.457   3.483
 4718SOL     OW15052   5.583   2.827   0.752
 4718SOL    HW115053   5.522   2.821   0.831
 4718SOL    HW215054   5.585   2.739   0.705
 4719SOL     OW15055   5.483   3.053   2.077
 4719SOL    HW115056   5.531   3.138   2.099
 4719SOL    HW215057   5.522   3.013   1.994
 4720SOL     OW15058   2.012   5.862   5.779
 4720SOL    HW115059   2.078   5.836   5.708
 4720SOL    HW215060   1.927   5.812   5.766
 4721SOL     OW15061   6.482   2.568   1.632
 4721SOL    HW115062   6.402   2.594   1.686
 4721SOL    HW215063   6.535   2.500   1.681
 4722SOL     OW15064   0.747   6.037   6.621
 4722SOL    HW115065   0.824   6.057   6.561
 4722SOL    HW215066   0.669   6.095   6.595
 4723SOL     OW15067   1.888   4.295   6.183
 4723SOL    HW115068   1.878   4.275   6.085
 4723SOL    HW215069   1.985   4.310   6.204
 4724SOL     OW15070   5.010   6.376   3.018
 4724SOL    HW115071   4.961   6.436   2.955
 4724SOL    HW215072   5.042   6.295   2.970
 4725SOL     OW15073   6.251   6.296   2.646
 4725SOL    HW115074   6.156   6.323   2.664
 4725SOL    HW215075   6.265   6.285   2.548
 4726SOL     OW15076   1.556   2.386   6.453
 4726SOL    HW115077   1.594   2.393   6.361
 4726SOL    HW215078   1.588   2.464   6.509
 4727SOL     OW15079   1.180   6.284   0.441
 4727SOL    HW115080   1.150   6.325   0.527
 4727SOL    HW215081   1.183   6.184   0.451
 4728SOL     OW15082   5.211   0.625   1.360
 4728SOL    HW115083   5.307   0.638   1.338
 4728SOL    HW215084   5.198   0.533   1.398
 4729SOL     OW15085   2.447   1.574   1.344
 4729SOL    HW115086   2.451   1.654   1.404
 4729SOL    HW215087   2.438   1.492   1.400
 4730SOL     OW15088   3.334   5.693   4.266
 4730SOL    HW115089   3.307   5.602   4.296
 4730SOL    HW215090   3.420   5.720   4.309
 4731SOL     OW15091   4.339   0.022   6.391
 4731SOL    HW115092   4.411   0.035   6.460
 4731SOL    HW215093   4.315   6.948   6.386
 4732SOL     OW15094   0.742   3.513   5.655
 4732SOL    HW115095   0.769   3.595   5.706
 4732SOL    HW215096   0.654   3.481   5.689
 4733SOL     OW15097   1.595   4.568   3.836
 4733SOL    HW115098   1.661   4.494   3.833
 4733SOL    HW215099   1.623   4.641   3.774
 4734SOL     OW15100   4.809   2.528   0.180
 4734SOL    HW115101   4.752   2.458   0.224
 4734SOL    HW215102   4.752   2.605   0.152
 4735SOL     OW15103   0.145   5.600   4.789
 4735SOL    HW115104   0.065   5.543   4.810
 4735SOL    HW215105   0.135   5.639   4.698
 4736SOL     OW15106   7.016   2.353   6.571
 4736SOL    HW115107   6.954   2.279   6.545
 4736SOL    HW215108   0.022   2.340   6.667
 4737SOL     OW15109   2.079   4.436   2.265
 4737SOL    HW115110   2.066   4.359   2.202
 4737SOL    HW215111   2.007   4.503   2.251
 4738SOL     OW15112   0.241   6.521   3.228
 4738SOL    HW115113   0.145   6.546   3.220
 4738SOL    HW215114   0.250   6.447   3.294
 4739SOL     OW15115   4.175   6.565   3.303
 4739SOL    HW115116   4.104   6.629   3.332
 4739SOL    HW215117   4.148   6.520   3.218
 4740SOL     OW15118   1.174   1.374   0.994
 4740SOL    HW115119   1.124   1.291   0.969
 4740SOL    HW215120   1.140   1.409   1.082
 4741SOL     OW15121   3.699   3.570   1.388
 4741SOL    HW115122   3.682   3.661   1.424
 4741SOL    HW215123   3.613   3.518   1.388
 4742SOL     OW15124   3.136   6.529   5.728
 4742SOL    HW115125   3.203   6.521   5.802
 4742SOL    HW215126   3.055   6.474   5.752
 4743SOL     OW15127   1.368   4.013   2.994
 4743SOL    HW115128   1.353   3.968   3.081
 4743SOL    HW215129   1.464   4.041   2.987
 4744SOL     OW15130   1.983   4.659   0.808
 4744SOL    HW115131   1.920   4.718   0.859
 4744SOL    HW215132   2.036   4.715   0.745
 4745SOL     OW15133   2.970   3.380   5.921
 4745SOL    HW115134   2.894   3.336   5.970
 4745SOL    HW215135   3.053   3.326   5.933
 4746SOL     OW15136   5.211   5.956   3.414
 4746SOL    HW115137   5.136   5.891   3.405
 4746SOL    HW215138   5.198   6.032   3.350
 4747SOL     OW15139   1.663   3.776   0.006
 4747SOL    HW115140   1.747   3.732   6.997
 4747SOL    HW215141   1.653   3.865   6.984
 4748SOL     OW15142   2.531   5.547   1.535
 4748SOL    HW115143   2.556   5.634   1.577
 4748SOL    HW215144   2.583   5.535   1.450
 4749SOL     OW15145   2.375   6.400   5.711
 4749SOL    HW115146   2.395   6.302   5.717
 4749SOL    HW215147   2.410   6.436   5.624
 4750SOL     OW15148   0.055   4.392   4.853
 4750SOL    HW115149   0.090   4.486   4.850
 4750SOL    HW215150   0.044   4.357   4.760
 4751SOL     OW15151   4.208   1.962   3.030
 4751SOL    HW115152   4.194   1.904   3.110
 4751SOL    HW215153   4.125   1.961   2.973
 4752SOL     OW15154   4.488   1.308   6.801
 4752SOL    HW115155   4.476   1.388   6.860
 4752SOL    HW215156   4.583   1.279   6.802
 4753SOL     OW15157   6.813   0.007   4.798
 4753SOL    HW115158   6.910   7.009   4.788
 4753SOL    HW215159   6.801   0.104   4.817
 4754SOL     OW15160   5.542   4.222   4.553
 4754SOL    HW115161   5.635   4.259   4.558
 4754SOL    HW215162   5.478   4.288   4.594
 4755SOL     OW15163   2.885   0.856   0.281
 4755SOL    HW115164   2.919   0.925   0.218
 4755SOL    HW215165   2.918   0.766   0.252
 4756SOL     OW15166   5.583   3.383   5.901
 4756SOL    HW115167   5.647   3.405   5.828
 4756SOL    HW215168   5.505   3.334   5.862
 4757SOL     OW15169   2.807   1.968   1.688
 4757SOL    HW115170   2.723   1.934   1.731
 4757SOL    HW215171   2.833   2.055   1.729
 4758SOL     OW15172   1.334   6.632   3.101
 4758SOL    HW115173   1.308   6.701   3.033
 4758SOL    HW215174   1.253   6.580   3.127
 4759SOL     OW15175   7.015   5.232   6.022
 4759SOL    HW115176   0.009   5.171   6.100
 4759SOL    HW215177   6.927   5.279   6.035
 4760SOL     OW15178   2.341   1.751   0.314
 4760SOL    HW115179   2.415   1.817   0.325
 4760SOL    HW215180   2.301   1.730   0.403
 4761SOL     OW15181   1.129   6.366   0.710
 4761SOL    HW115182   1.031   6.354   0.725
 4761SOL    HW215183   1.180   6.309   0.774
 4762SOL     OW15184   1.336   5.190   1.661
 4762SOL    HW115185   1.426   5.173   1.622
 4762SOL    HW215186   1.343   5.262   1.730
 4763SOL     OW15187   5.980   0.486   2.491
 4763SOL    HW115188   5.912   0.504   2.563
 4763SOL    HW215189   6.071   0.510   2.525
 4764SOL     OW15190   4.623   4.034   5.290
 4764SOL    HW115191   4.572   3.968   5.345
 4764SOL    HW215192   4.618   4.124   5.333
 4765SOL     OW15193   3.773   0.931   5.302
 4765SOL    HW115194   3.738   0.956   5.392
 4765SOL    HW215195   3.697   0.912   5.240
 4766SOL     OW15196   5.744   5.603   3.498
 4766SOL    HW115197   5.702   5.577   3.585
 4766SOL    HW215198   5.703   5.549   3.424
 4767SOL     OW15199   2.919   5.243   4.866
 4767SOL    HW115200   2.957   5.248   4.958
 4767SOL    HW215201   2.845   5.309   4.857
 4768SOL     OW15202   4.568   1.872   6.280
 4768SOL    HW115203   4.486   1.861   6.224
 4768SOL    HW215204   4.620   1.787   6.280
 4769SOL     OW15205   5.120   5.992   0.245
 4769SOL    HW115206   5.109   6.060   0.173
 4769SOL    HW215207   5.204   6.010   0.296
 4770SOL     OW15208   6.625   1.314   4.561
 4770SOL    HW115209   6.578   1.278   4.642
 4770SOL    HW215210   6.559   1.363   4.504
 4771SOL     OW15211   3.297   6.455   5.932
 4771SOL    HW115212   3.242   6.373   5.950
 4771SOL    HW215213   3.394   6.432   5.942
 4772SOL     OW15214   3.550   4.809   0.423
 4772SOL    HW115215   3.524   4.763   0.338
 4772SOL    HW215216   3.468   4.823   0.480
 4773SOL     OW15217   6.936   5.117   5.384
 4773SOL    HW115218   6.864   5.180   5.355
 4773SOL    HW215219   7.010   5.169   5.428
 4774SOL     OW15220   1.527   3.738   1.117
 4774SOL    HW115221   1.614   3.749   1.067
 4774SOL    HW215222   1.461   3.690   1.059
 4775SOL     OW15223   4.978   6.407   3.282
 4775SOL    HW115224   4.982   6.321   3.332
 4775SOL    HW215225   4.980   6.388   3.183
 4776SOL     OW15226   0.717   0.060   4.926
 4776SOL    HW115227   0.760   0.146   4.900
 4776SOL    HW215228   0.680   0.069   5.019
 4777SOL     OW15229   1.112   4.810   1.269
 4777SOL    HW115230   1.130   4.771   1.360
 4777SOL    HW215231   1.172   4.766   1.202
 4778SOL     OW15232   6.545   3.308   4.064
 4778SOL    HW115233   6.554   3.401   4.030
 4778SOL    HW215234   6.583   3.244   3.996
 4779SOL     OW15235   5.281   0.562   2.861
 4779SOL    HW115236   5.231   0.486   2.902
 4779SOL    HW215237   5.344   0.527   2.792
 4780SOL     OW15238   6.332   2.451   0.159
 4780SOL    HW115239   6.378   2.482   0.076
 4780SOL    HW215240   6.333   2.351   0.163
 4781SOL     OW15241   2.494   5.221   2.648
 4781SOL    HW115242   2.592   5.226   2.631
 4781SOL    HW215243   2.445   5.278   2.581
 4782SOL     OW15244   5.994   5.422   7.011
 4782SOL    HW115245   6.031   5.346   0.042
 4782SOL    HW215246   5.984   5.394   6.916
 4783SOL     OW15247   4.927   3.515   0.160
 4783SOL    HW115248   4.917   3.474   0.250
 4783SOL    HW215249   5.021   3.546   0.147
 4784SOL     OW15250   6.035   2.276   6.330
 4784SOL    HW115251   5.960   2.292   6.265
 4784SOL    HW215252   6.077   2.364   6.355
 4785SOL     OW15253   0.770   5.837   3.276
 4785SOL    HW115254   0.787   5.930   3.243
 4785SOL    HW215255   0.806   5.771   3.210
 4786SOL     OW15256   2.480   0.295   0.579
 4786SOL    HW115257   2.416   0.220   0.599
 4786SOL    HW215258   2.510   0.288   0.484
 4787SOL     OW15259   4.036   1.383   3.199
 4787SOL    HW115260   4.033   1.480   3.223
 4787SOL    HW215261   4.104   1.336   3.255
 4788SOL     OW15262   6.741   6.809   6.859
 4788SOL    HW115263   6.777   6.825   6.951
 4788SOL    HW215264   6.656   6.859   6.848
 4789SOL     OW15265   5.794   1.739   2.359
 4789SOL    HW115266   5.750   1.657   2.322
 4789SOL    HW215267   5.732   1.784   2.424
 4790SOL     OW15268   5.534   1.876   5.587
 4790SOL    HW115269   5.494   1.808   5.648
 4790SOL    HW215270   5.538   1.964   5.633
 4791SOL     OW15271   0.527   2.787   1.141
 4791SOL    HW115272   0.564   2.746   1.225
 4791SOL    HW215273   0.457   2.855   1.166
 4792SOL     OW15274   2.430   4.614   3.738
 4792SOL    HW115275   2.431   4.515   3.729
 4792SOL    HW215276   2.340   4.649   3.712
 4793SOL     OW15277   1.751   2.599   5.327
 4793SOL    HW115278   1.667   2.648   5.352
 4793SOL    HW215279   1.799   2.572   5.410
 4794SOL     OW15280   5.284   6.939   4.861
 4794SOL    HW115281   5.345   6.861   4.844
 4794SOL    HW215282   5.211   6.940   4.793
 4795SOL     OW15283   6.208   2.402   4.222
 4795SOL    HW115284   6.277   2.389   4.293
 4795SOL    HW215285   6.116   2.394   4.261
 4796SOL     OW15286   3.825   0.810   4.908
 4796SOL    HW115287   3.890   0.823   4.982
 4796SOL    HW215288   3.741   0.860   4.928
 4797SOL     OW15289   0.349   0.012   4.950
 4797SOL    HW115290   0.390   0.077   4.885
 4797SOL    HW215291   0.293   6.969   4.900
 4798SOL     OW15292   0.500   4.414   5.701
 4798SOL    HW115293   0.481   4.324   5.741
 4798SOL    HW215294   0.570   4.405   5.630
 4799SOL     OW15295   3.990   1.691   0.669
 4799SOL    HW115296   4.012   1.695   0.767
 4799SOL    HW215297   4.068   1.652   0.620
 4800SOL     OW15298   2.569   2.588   6.650
 4800SOL    HW115299   2.571   2.616   6.746
 4800SOL    HW215300   2.632   2.646   6.597
 4801SOL     OW15301   3.272   2.687   6.961
 4801SOL    HW115302   3.211   2.745   6.908
 4801SOL    HW215303   3.353   2.739   6.987
 4802SOL     OW15304   0.035   6.648   1.896
 4802SOL    HW115305   6.959   6.658   1.887
 4802SOL    HW215306   0.080   6.726   1.851
 4803SOL     OW15307   0.529   4.285   0.205
 4803SOL    HW115308   0.522   4.200   0.152
 4803SOL    HW215309   0.610   4.336   0.178
 4804SOL     OW15310   6.847   6.610   1.225
 4804SOL    HW115311   6.907   6.639   1.299
 4804SOL    HW215312   6.863   6.514   1.204
 4805SOL     OW15313   6.236   0.810   2.594
 4805SOL    HW115314   6.232   0.817   2.494
 4805SOL    HW215315   6.159   0.859   2.633
 4806SOL     OW15316   1.182   4.352   2.403
 4806SOL    HW115317   1.162   4.345   2.305
 4806SOL    HW215318   1.180   4.261   2.444
 4807SOL     OW15319   0.643   4.583   0.005
 4807SOL    HW115320   0.708   4.522   0.051
 4807SOL    HW215321   0.643   4.672   0.051
 4808SOL     OW15322   4.366   5.478   0.095
 4808SOL    HW115323   4.338   5.413   0.024
 4808SOL    HW215324   4.466   5.483   0.099
 4809SOL     OW15325   3.209   4.731   0.601
 4809SOL    HW115326   3.150   4.672   0.546
 4809SOL    HW215327   3.267   4.675   0.660
 4810SOL     OW15328   1.063   3.857   2.956
 4810SOL    HW115329   1.008   3.827   2.878
 4810SOL    HW215330   1.114   3.779   2.992
 4811SOL     OW15331   3.307   3.838   2.509
 4811SOL    HW115332   3.273   3.895   2.584
 4811SOL    HW215333   3.349   3.897   2.440
 4812SOL     OW15334   0.864   6.518   2.869
 4812SOL    HW115335   0.901   6.430   2.839
 4812SOL    HW215336   0.909   6.592   2.818
 4813SOL     OW15337   5.848   1.165   6.048
 4813SOL    HW115338   5.906   1.192   6.125
 4813SOL    HW215339   5.760   1.133   6.083
 4814SOL     OW15340   6.835   3.001   1.067
 4814SOL    HW115341   6.746   2.990   1.112
 4814SOL    HW215342   6.843   3.095   1.033
 4815SOL     OW15343   5.496   4.187   3.009
 4815SOL    HW115344   5.518   4.130   2.930
 4815SOL    HW215345   5.433   4.260   2.981
 4816SOL     OW15346   2.298   5.030   0.957
 4816SOL    HW115347   2.364   5.103   0.942
 4816SOL    HW215348   2.257   5.040   1.048
 4817SOL     OW15349   2.489   1.330   0.316
 4817SOL    HW115350   2.425   1.337   0.393
 4817SOL    HW215351   2.513   1.234   0.301
 4818SOL     OW15352   0.364   0.424   4.178
 4818SOL    HW115353   0.355   0.440   4.276
 4818SOL    HW215354   0.273   0.413   4.138
 4819SOL     OW15355   2.039   2.024   1.150
 4819SOL    HW115356   2.052   2.078   1.067
 4819SOL    HW215357   2.091   1.939   1.143
 4820SOL     OW15358   6.286   2.117   0.690
 4820SOL    HW115359   6.322   2.194   0.638
 4820SOL    HW215360   6.282   2.141   0.787
 4821SOL     OW15361   0.475   6.956   1.870
 4821SOL    HW115362   0.449   6.963   1.774
 4821SOL    HW215363   0.490   0.026   1.907
 4822SOL     OW15364   1.851   3.364   4.128
 4822SOL    HW115365   1.878   3.368   4.031
 4822SOL    HW215366   1.929   3.332   4.182
 4823SOL     OW15367   0.936   0.719   4.010
 4823SOL    HW115368   0.933   0.724   3.910
 4823SOL    HW215369   1.020   0.673   4.039
 4824SOL     OW15370   5.192   1.797   4.170
 4824SOL    HW115371   5.171   1.772   4.264
 4824SOL    HW215372   5.290   1.812   4.160
 4825SOL     OW15373   2.025   2.088   5.148
 4825SOL    HW115374   1.928   2.088   5.125
 4825SOL    HW215375   2.079   2.077   5.064
 4826SOL     OW15376   0.253   0.432   6.225
 4826SOL    HW115377   0.293   0.341   6.226
 4826SOL    HW215378   0.298   0.489   6.295
 4827SOL     OW15379   5.853   2.185   1.849
 4827SOL    HW115380   5.803   2.205   1.765
 4827SOL    HW215381   5.808   2.110   1.897
 4828SOL     OW15382   5.719   2.804   1.606
 4828SOL    HW115383   5.746   2.816   1.511
 4828SOL    HW215384   5.711   2.706   1.626
 4829SOL     OW15385   4.028   6.213   6.774
 4829SOL    HW115386   4.103   6.166   6.727
 4829SOL    HW215387   3.946   6.155   6.772
 4830SOL     OW15388   4.260   6.359   3.446
 4830SOL    HW115389   4.339   6.313   3.406
 4830SOL    HW215390   4.233   6.436   3.388
 4831SOL     OW15391   0.190   5.203   6.671
 4831SOL    HW115392   0.190   5.176   6.575
 4831SOL    HW215393   0.097   5.199   6.708
 4832SOL     OW15394   3.122   2.871   5.821
 4832SOL    HW115395   3.215   2.899   5.844
 4832SOL    HW215396   3.124   2.814   5.739
 4833SOL     OW15397   5.386   2.180   3.260
 4833SOL    HW115398   5.297   2.161   3.218
 4833SOL    HW215399   5.419   2.098   3.307
 4834SOL     OW15400   3.993   6.631   0.967
 4834SOL    HW115401   4.061   6.673   1.028
 4834SOL    HW215402   3.905   6.677   0.979
 4835SOL     OW15403   0.258   1.344   6.230
 4835SOL    HW115404   0.344   1.299   6.207
 4835SOL    HW215405   0.214   1.294   6.306
 4836SOL     OW15406   4.889   3.098   3.969
 4836SOL    HW115407   4.901   3.029   4.041
 4836SOL    HW215408   4.904   3.189   4.007
 4837SOL     OW15409   5.816   4.386   2.281
 4837SOL    HW115410   5.866   4.300   2.270
 4837SOL    HW215411   5.730   4.381   2.229
 4838SOL     OW15412   0.609   4.483   0.868
 4838SOL    HW115413   0.582   4.527   0.782
 4838SOL    HW215414   0.674   4.542   0.916
 4839SOL     OW15415   1.409   2.686   6.501
 4839SOL    HW115416   1.339   2.619   6.475
 4839SOL    HW215417   1.365   2.767   6.538
 4840SOL     OW15418   0.786   5.645   5.888
 4840SOL    HW115419   0.778   5.559   5.938
 4840SOL    HW215420   0.863   5.639   5.824
 4841SOL     OW15421   3.283   6.116   1.807
 4841SOL    HW115422   3.224   6.194   1.826
 4841SOL    HW215423   3.357   6.113   1.874
 4842SOL     OW15424   3.299   4.968   2.331
 4842SOL    HW115425   3.210   4.924   2.323
 4842SOL    HW215426   3.300   5.052   2.276
 4843SOL     OW15427   5.784   2.898   0.575
 4843SOL    HW115428   5.693   2.874   0.607
 4843SOL    HW215429   5.817   2.979   0.624
 4844SOL     OW15430   6.442   3.726   5.429
 4844SOL    HW115431   6.480   3.725   5.522
 4844SOL    HW215432   6.452   3.818   5.390
 4845SOL     OW15433   5.436   5.569   5.358
 4845SOL    HW115434   5.465   5.473   5.349
 4845SOL    HW215435   5.461   5.602   5.449
 4846SOL     OW15436   6.826   2.683   3.830
 4846SOL    HW115437   6.817   2.586   3.852
 4846SOL    HW215438   6.781   2.703   3.744
 4847SOL     OW15439   2.684   1.116   6.245
 4847SOL    HW115440   2.723   1.049   6.182
 4847SOL    HW215441   2.751   1.188   6.263
 4848SOL     OW15442   1.682   0.918   3.918
 4848SOL    HW115443   1.686   1.017   3.901
 4848SOL    HW215444   1.692   0.869   3.832
 4849SOL     OW15445   1.737   6.597   6.760
 4849SOL    HW115446   1.653   6.578   6.811
 4849SOL    HW215447   1.792   6.664   6.809
 4850SOL     OW15448   4.332   1.368   2.929
 4850SOL    HW115449   4.338   1.456   2.881
 4850SOL    HW215450   4.318   1.295   2.863
 4851SOL     OW15451   4.184   5.821   5.885
 4851SOL    HW115452   4.119   5.795   5.814
 4851SOL    HW215453   4.177   5.758   5.962
 4852SOL     OW15454   1.038   6.761   5.055
 4852SOL    HW115455   1.077   6.689   5.112
 4852SOL    HW215456   0.952   6.729   5.016
 4853SOL     OW15457   2.894   1.142   3.562
 4853SOL    HW115458   2.887   1.242   3.567
 4853SOL    HW215459   2.884   1.104   3.654
 4854SOL     OW15460   4.616   0.132   1.888
 4854SOL    HW115461   4.634   0.084   1.974
 4854SOL    HW215462   4.520   0.123   1.864
 4855SOL     OW15463   6.423   3.158   2.192
 4855SOL    HW115464   6.454   3.132   2.283
 4855SOL    HW215465   6.500   3.152   2.128
 4856SOL     OW15466   1.655   3.778   2.342
 4856SOL    HW115467   1.662   3.772   2.242
 4856SOL    HW215468   1.653   3.686   2.381
 4857SOL     OW15469   2.193   1.964   4.972
 4857SOL    HW115470   2.287   1.945   5.000
 4857SOL    HW215471   2.181   1.939   4.876
 4858SOL     OW15472   0.916   0.489   4.218
 4858SOL    HW115473   0.965   0.517   4.300
 4858SOL    HW215474   0.885   0.570   4.168
 4859SOL     OW15475   0.132   0.745   4.285
 4859SOL    HW115476   0.167   0.767   4.376
 4859SOL    HW215477   0.110   0.648   4.280
 4860SOL     OW15478   3.770   4.546   1.444
 4860SOL    HW115479   3.801   4.640   1.427
 4860SOL    HW215480   3.679   4.533   1.405
 4861SOL     OW15481   5.259   4.965   6.916
 4861SOL    HW115482   5.309   4.937   6.834
 4861SOL    HW215483   5.217   4.886   6.959
 4862SOL     OW15484   2.569   4.709   4.416
 4862SOL    HW115485   2.483   4.759   4.401
 4862SOL    HW215486   2.602   4.674   4.328
 4863SOL     OW15487   6.053   3.662   1.514
 4863SOL    HW115488   6.039   3.742   1.572
 4863SOL    HW215489   5.969   3.608   1.511
 4864SOL     OW15490   3.827   1.179   3.352
 4864SOL    HW115491   3.846   1.081   3.358
 4864SOL    HW215492   3.904   1.225   3.308
 4865SOL     OW15493   2.413   0.272   4.800
 4865SOL    HW115494   2.512   0.280   4.816
 4865SOL    HW215495   2.396   0.201   4.732
 4866SOL     OW15496   6.416   2.351   1.451
 4866SOL    HW115497   6.508   2.384   1.432
 4866SOL    HW215498   6.357   2.429   1.474
 4867SOL     OW15499   3.645   5.214   2.107
 4867SOL    HW115500   3.624   5.309   2.129
 4867SOL    HW215501   3.694   5.172   2.184
 4868SOL     OW15502   6.481   5.467   2.780
 4868SOL    HW115503   6.545   5.420   2.720
 4868SOL    HW215504   6.516   5.557   2.804
 4869SOL     OW15505   1.676   1.131   1.351
 4869SOL    HW115506   1.654   1.178   1.436
 4869SOL    HW215507   1.721   1.196   1.289
 4870SOL     OW15508   0.108   6.400   1.764
 4870SOL    HW115509   0.152   6.446   1.841
 4870SOL    HW215510   0.075   6.310   1.794
 4871SOL     OW15511   1.559   0.637   3.851
 4871SOL    HW115512   1.521   0.718   3.806
 4871SOL    HW215513   1.594   0.574   3.782
 4872SOL     OW15514   6.367   6.480   3.607
 4872SOL    HW115515   6.336   6.526   3.690
 4872SOL    HW215516   6.438   6.535   3.563
 4873SOL     OW15517   6.800   5.563   2.944
 4873SOL    HW115518   6.743   5.533   3.020
 4873SOL    HW215519   6.744   5.615   2.879
 4874SOL     OW15520   6.656   3.366   2.518
 4874SOL    HW115521   6.678   3.272   2.490
 4874SOL    HW215522   6.701   3.386   2.605
 4875SOL     OW15523   6.285   2.318   1.218
 4875SOL    HW115524   6.369   2.331   1.166
 4875SOL    HW215525   6.306   2.312   1.315
 4876SOL     OW15526   5.976   1.854   3.639
 4876SOL    HW115527   5.878   1.834   3.632
 4876SOL    HW215528   6.023   1.774   3.678
 4877SOL     OW15529   1.645   2.127   6.458
 4877SOL    HW115530   1.602   2.207   6.499
 4877SOL    HW215531   1.732   2.153   6.417
 4878SOL     OW15532   6.043   1.467   2.350
 4878SOL    HW115533   6.096   1.399   2.400
 4878SOL    HW215534   6.037   1.551   2.403
 4879SOL     OW15535   3.892   0.205   2.795
 4879SOL    HW115536   3.864   0.180   2.888
 4879SOL    HW215537   3.944   0.129   2.755
 4880SOL     OW15538   5.254   3.189   0.777
 4880SOL    HW115539   5.161   3.187   0.815
 4880SOL    HW215540   5.248   3.179   0.677
 4881SOL     OW15541   1.860   0.412   0.150
 4881SOL    HW115542   1.883   0.385   0.057
 4881SOL    HW215543   1.767   0.448   0.152
 4882SOL     OW15544   5.161   1.012   5.036
 4882SOL    HW115545   5.121   1.017   5.128
 4882SOL    HW215546   5.259   1.028   5.040
 4883SOL     OW15547   4.945   4.941   1.974
 4883SOL    HW115548   4.998   4.877   1.918
 4883SOL    HW215549   4.983   5.033   1.963
 4884SOL     OW15550   2.724   6.691   1.080
 4884SOL    HW115551   2.690   6.633   1.007
 4884SOL    HW215552   2.675   6.779   1.079
 4885SOL     OW15553   2.747   5.548   2.017
 4885SOL    HW115554   2.781   5.641   2.005
 4885SOL    HW215555   2.654   5.541   1.982
 4886SOL     OW15556   0.990   6.189   1.471
 4886SOL    HW115557   0.964   6.169   1.565
 4886SOL    HW215558   0.997   6.103   1.420
 4887SOL     OW15559   0.940   0.646   2.296
 4887SOL    HW115560   0.935   0.695   2.209
 4887SOL    HW215561   1.034   0.648   2.330
 4888SOL     OW15562   2.647   0.023   3.773
 4888SOL    HW115563   2.726   6.988   3.750
 4888SOL    HW215564   2.566   7.011   3.727
 4889SOL     OW15565   6.910   1.665   5.693
 4889SOL    HW115566   6.927   1.574   5.656
 4889SOL    HW215567   6.862   1.658   5.780
 4890SOL     OW15568   0.250   0.964   6.743
 4890SOL    HW115569   0.340   0.982   6.703
 4890SOL    HW215570   0.209   1.050   6.774
 4891SOL     OW15571   2.100   4.543   6.827
 4891SOL    HW115572   2.121   4.451   6.859
 4891SOL    HW215573   2.060   4.539   6.736
 4892SOL     OW15574   3.745   6.027   1.789
 4892SOL    HW115575   3.686   6.022   1.708
 4892SOL    HW215576   3.784   6.119   1.797
 4893SOL     OW15577   6.873   3.195   1.728
 4893SOL    HW115578   6.789   3.248   1.713
 4893SOL    HW215579   6.858   3.129   1.801
 4894SOL     OW15580   2.611   1.468   3.584
 4894SOL    HW115581   2.569   1.394   3.533
 4894SOL    HW215582   2.622   1.548   3.525
 4895SOL     OW15583   1.049   4.292   3.950
 4895SOL    HW115584   1.079   4.222   3.884
 4895SOL    HW215585   0.984   4.251   4.014
 4896SOL     OW15586   1.591   4.585   1.929
 4896SOL    HW115587   1.569   4.559   2.023
 4896SOL    HW215588   1.594   4.685   1.922
 4897SOL     OW15589   2.037   3.659   5.666
 4897SOL    HW115590   2.100   3.723   5.710
 4897SOL    HW215591   2.035   3.676   5.568
 4898SOL     OW15592   4.258   0.820   4.187
 4898SOL    HW115593   4.220   0.737   4.229
 4898SOL    HW215594   4.271   0.804   4.089
 4899SOL     OW15595   5.457   5.553   3.032
 4899SOL    HW115596   5.387   5.489   3.000
 4899SOL    HW215597   5.416   5.618   3.095
 4900SOL     OW15598   3.301   6.207   4.712
 4900SOL    HW115599   3.364   6.192   4.636
 4900SOL    HW215600   3.212   6.236   4.676
 4901SOL     OW15601   3.160   0.657   5.088
 4901SOL    HW115602   3.079   0.712   5.068
 4901SOL    HW215603   3.236   0.717   5.113
 4902SOL     OW15604   2.248   1.696   4.806
 4902SOL    HW115605   2.300   1.617   4.840
 4902SOL    HW215606   2.281   1.721   4.715
 4903SOL     OW15607   4.102   5.690   6.963
 4903SOL    HW115608   4.038   5.669   6.889
 4903SOL    HW215609   4.171   5.754   6.930
 4904SOL     OW15610   2.323   0.192   4.472
 4904SOL    HW115611   2.391   0.187   4.399
 4904SOL    HW215612   2.267   0.110   4.472
 4905SOL     OW15613   3.717   6.881   2.749
 4905SOL    HW115614   3.710   6.781   2.739
 4905SOL    HW215615   3.733   6.903   2.845
 4906SOL     OW15616   4.968   2.167   6.299
 4906SOL    HW115617   4.963   2.080   6.347
 4906SOL    HW215618   4.879   2.212   6.301
 4907SOL     OW15619   4.386   5.788   1.950
 4907SOL    HW115620   4.333   5.852   1.895
 4907SOL    HW215621   4.481   5.820   1.955
 4908SOL     OW15622   5.447   5.358   0.206
 4908SOL    HW115623   5.424   5.261   0.201
 4908SOL    HW215624   5.542   5.371   0.175
 4909SOL     OW15625   0.166   6.841   3.980
 4909SOL    HW115626   0.180   6.866   3.885
 4909SOL    HW215627   0.247   6.864   4.033
 4910SOL     OW15628   5.691   0.864   4.821
 4910SOL    HW115629   5.598   0.832   4.840
 4910SOL    HW215630   5.693   0.964   4.819
 4911SOL     OW15631   1.550   4.154   4.198
 4911SOL    HW115632   1.481   4.226   4.196
 4911SOL    HW215633   1.511   4.072   4.240
 4912SOL     OW15634   5.607   1.812   6.371
 4912SOL    HW115635   5.607   1.908   6.399
 4912SOL    HW215636   5.521   1.769   6.399
 4913SOL     OW15637   3.730   2.742   5.326
 4913SOL    HW115638   3.712   2.737   5.425
 4913SOL    HW215639   3.643   2.749   5.277
 4914SOL     OW15640   3.208   0.280   4.315
 4914SOL    HW115641   3.137   0.342   4.350
 4914SOL    HW215642   3.176   0.186   4.322
 4915SOL     OW15643   3.562   6.413   6.057
 4915SOL    HW115644   3.633   6.479   6.080
 4915SOL    HW215645   3.539   6.359   6.137
 4916SOL     OW15646   1.199   0.400   3.645
 4916SOL    HW115647   1.209   0.482   3.701
 4916SOL    HW215648   1.203   0.424   3.548
 4917SOL     OW15649   2.624   5.820   1.361
 4917SOL    HW115650   2.710   5.799   1.406
 4917SOL    HW215651   2.637   5.822   1.262
 4918SOL     OW15652   4.899   5.379   3.144
 4918SOL    HW115653   4.920   5.281   3.154
 4918SOL    HW215654   4.984   5.429   3.127
 4919SOL     OW15655   2.615   2.677   0.684
 4919SOL    HW115656   2.515   2.681   0.685
 4919SOL    HW215657   2.646   2.662   0.590
 4920SOL     OW15658   5.895   1.024   4.249
 4920SOL    HW115659   5.807   0.991   4.282
 4920SOL    HW215660   5.969   0.976   4.295
 4921SOL     OW15661   1.039   4.831   0.470
 4921SOL    HW115662   1.031   4.864   0.375
 4921SOL    HW215663   0.969   4.876   0.526
 4922SOL     OW15664   2.664   2.286   5.044
 4922SOL    HW115665   2.580   2.338   5.029
 4922SOL    HW215666   2.664   2.248   5.137
 4923SOL     OW15667   3.993   1.926   2.886
 4923SOL    HW115668   3.951   1.849   2.838
 4923SOL    HW215669   3.953   2.011   2.853
 4924SOL     OW15670   3.041   0.955   4.777
 4924SOL    HW115671   3.016   0.955   4.680
 4924SOL    HW215672   3.032   1.048   4.814
 4925SOL     OW15673   6.475   6.982   2.324
 4925SOL    HW115674   6.478   6.884   2.346
 4925SOL    HW215675   6.382   7.016   2.339
 4926SOL     OW15676   4.954   1.284   0.509
 4926SOL    HW115677   4.940   1.203   0.453
 4926SOL    HW215678   4.868   1.332   0.522
 4927SOL     OW15679   3.561   3.779   4.359
 4927SOL    HW115680   3.462   3.775   4.350
 4927SOL    HW215681   3.602   3.697   4.318
 4928SOL     OW15682   2.083   6.607   7.003
 4928SOL    HW115683   2.008   6.638   6.944
 4928SOL    HW215684   2.159   6.672   6.998
 4929SOL     OW15685   0.141   5.971   4.314
 4929SOL    HW115686   0.239   5.951   4.316
 4929SOL    HW215687   0.111   5.983   4.219
 4930SOL     OW15688   5.413   0.867   3.315
 4930SOL    HW115689   5.427   0.778   3.273
 4930SOL    HW215690   5.493   0.891   3.370
 4931SOL     OW15691   0.021   6.685   0.799
 4931SOL    HW115692   7.004   6.637   0.722
 4931SOL    HW215693   0.098   6.741   0.768
 4932SOL     OW15694   3.179   3.083   2.130
 4932SOL    HW115695   3.245   3.155   2.112
 4932SOL    HW215696   3.094   3.101   2.080
 4933SOL     OW15697   2.373   0.209   3.126
 4933SOL    HW115698   2.298   0.271   3.102
 4933SOL    HW215699   2.460   0.255   3.109
 4934SOL     OW15700   3.080   5.933   2.604
 4934SOL    HW115701   3.111   5.968   2.516
 4934SOL    HW215702   2.996   5.880   2.591
 4935SOL     OW15703   2.147   1.594   6.352
 4935SOL    HW115704   2.183   1.526   6.417
 4935SOL    HW215705   2.065   1.636   6.390
 4936SOL     OW15706   2.218   4.538   1.686
 4936SOL    HW115707   2.288   4.565   1.753
 4936SOL    HW215708   2.204   4.613   1.621
 4937SOL     OW15709   6.451   3.352   5.864
 4937SOL    HW115710   6.457   3.331   5.766
 4937SOL    HW215711   6.518   3.423   5.887
 4938SOL     OW15712   2.592   5.474   5.468
 4938SOL    HW115713   2.573   5.453   5.564
 4938SOL    HW215714   2.648   5.401   5.429
 4939SOL     OW15715   5.918   2.017   4.548
 4939SOL    HW115716   5.969   1.999   4.464
 4939SOL    HW215717   5.952   1.957   4.621
 4940SOL     OW15718   6.965   1.293   4.648
 4940SOL    HW115719   6.950   1.233   4.569
 4940SOL    HW215720   6.901   1.370   4.644
 4941SOL     OW15721   5.446   2.648   5.368
 4941SOL    HW115722   5.501   2.565   5.365
 4941SOL    HW215723   5.350   2.625   5.357
 4942SOL     OW15724   5.319   2.502   5.743
 4942SOL    HW115725   5.224   2.487   5.771
 4942SOL    HW215726   5.335   2.599   5.731
 4943SOL     OW15727   4.365   3.498   0.056
 4943SOL    HW115728   4.343   3.533   6.988
 4943SOL    HW215729   4.464   3.506   0.072
 4944SOL     OW15730   2.093   4.754   1.503
 4944SOL    HW115731   2.099   4.798   1.414
 4944SOL    HW215732   2.003   4.711   1.514
 4945SOL     OW15733   1.177   0.234   4.179
 4945SOL    HW115734   1.080   0.246   4.157
 4945SOL    HW215735   1.231   0.236   4.095
 4946SOL     OW15736   1.518   4.530   6.954
 4946SOL    HW115737   1.488   4.549   0.025
 4946SOL    HW215738   1.440   4.537   6.892
 4947SOL     OW15739   2.229   1.116   1.024
 4947SOL    HW115740   2.301   1.047   1.028
 4947SOL    HW215741   2.269   1.206   1.011
 4948SOL     OW15742   1.165   2.419   2.665
 4948SOL    HW115743   1.223   2.408   2.585
 4948SOL    HW215744   1.202   2.491   2.723
 4949SOL     OW15745   4.868   6.883   6.070
 4949SOL    HW115746   4.869   6.939   6.152
 4949SOL    HW215747   4.827   6.935   5.995
 4950SOL     OW15748   2.191   5.939   4.039
 4950SOL    HW115749   2.195   5.987   3.952
 4950SOL    HW215750   2.189   6.006   4.114
 4951SOL     OW15751   5.328   1.435   4.558
 4951SOL    HW115752   5.243   1.401   4.598
 4951SOL    HW215753   5.310   1.523   4.513
 4952SOL     OW15754   0.238   0.511   5.853
 4952SOL    HW115755   0.320   0.547   5.898
 4952SOL    HW215756   0.239   0.411   5.859
 4953SOL     OW15757   2.368   6.361   2.574
 4953SOL    HW115758   2.405   6.373   2.482
 4953SOL    HW215759   2.424   6.294   2.624
 4954SOL     OW15760   4.149   3.173   0.001
 4954SOL    HW115761   4.112   3.129   6.941
 4954SOL    HW215762   4.229   3.229   6.998
 4955SOL     OW15763   2.652   6.289   6.651
 4955SOL    HW115764   2.657   6.236   6.735
 4955SOL    HW215765   2.597   6.240   6.583
 4956SOL     OW15766   2.277   6.632   4.826
 4956SOL    HW115767   2.312   6.686   4.902
 4956SOL    HW215768   2.227   6.553   4.861
 4957SOL     OW15769   6.863   1.949   1.974
 4957SOL    HW115770   6.920   1.912   2.047
 4957SOL    HW215771   6.906   2.030   1.936
 4958SOL     OW15772   0.130   5.279   5.477
 4958SOL    HW115773   0.130   5.343   5.554
 4958SOL    HW215774   0.135   5.331   5.391
 4959SOL     OW15775   6.275   1.494   6.701
 4959SOL    HW115776   6.192   1.492   6.646
 4959SOL    HW215777   6.258   1.449   6.789
 4960SOL     OW15778   3.643   5.422   3.679
 4960SOL    HW115779   3.664   5.357   3.606
 4960SOL    HW215780   3.649   5.377   3.767
 4961SOL     OW15781   4.862   1.276   6.211
 4961SOL    HW115782   4.943   1.256   6.157
 4961SOL    HW215783   4.869   1.368   6.251
 4962SOL     OW15784   6.601   1.766   0.479
 4962SOL    HW115785   6.613   1.864   0.491
 4962SOL    HW215786   6.604   1.721   0.568
 4963SOL     OW15787   6.385   5.898   6.639
 4963SOL    HW115788   6.421   5.970   6.581
 4963SOL    HW215789   6.435   5.897   6.726
 4964SOL     OW15790   2.754   6.659   4.027
 4964SOL    HW115791   2.742   6.707   3.940
 4964SOL    HW215792   2.836   6.603   4.024
 4965SOL     OW15793   0.102   0.630   3.131
 4965SOL    HW115794   0.160   0.551   3.146
 4965SOL    HW215795   0.114   0.695   3.206
 4966SOL     OW15796   2.333   7.001   4.862
 4966SOL    HW115797   2.307   6.987   4.958
 4966SOL    HW215798   2.253   0.001   4.808
 4967SOL     OW15799   3.934   4.411   6.500
 4967SOL    HW115800   3.969   4.489   6.448
 4967SOL    HW215801   3.868   4.360   6.445
 4968SOL     OW15802   6.547   2.349   3.888
 4968SOL    HW115803   6.471   2.296   3.851
 4968SOL    HW215804   6.516   2.442   3.910
 4969SOL     OW15805   2.568   0.517   2.524
 4969SOL    HW115806   2.601   0.462   2.447
 4969SOL    HW215807   2.477   0.485   2.551
 4970SOL     OW15808   1.822   2.164   3.497
 4970SOL    HW115809   1.881   2.188   3.420
 4970SOL    HW215810   1.813   2.243   3.558
 4971SOL     OW15811   6.937   6.407   4.123
 4971SOL    HW115812   7.003   6.438   4.192
 4971SOL    HW215813   6.897   6.486   4.077
 4972SOL     OW15814   2.485   3.024   0.111
 4972SOL    HW115815   2.489   3.123   0.105
 4972SOL    HW215816   2.455   2.998   0.203
 4973SOL     OW15817   1.393   0.446   2.544
 4973SOL    HW115818   1.437   0.518   2.490
 4973SOL    HW215819   1.330   0.489   2.609
 4974SOL     OW15820   6.066   4.978   1.422
 4974SOL    HW115821   6.154   4.946   1.388
 4974SOL    HW215822   6.007   4.899   1.441
 4975SOL     OW15823   5.474   5.120   5.479
 4975SOL    HW115824   5.500   5.043   5.420
 4975SOL    HW215825   5.395   5.094   5.534
 4976SOL     OW15826   2.483   0.013   4.032
 4976SOL    HW115827   2.526   0.031   3.944
 4976SOL    HW215828   2.391   7.000   4.018
 4977SOL     OW15829   3.956   4.084   0.350
 4977SOL    HW115830   3.938   4.044   0.440
 4977SOL    HW215831   3.982   4.180   0.361
 4978SOL     OW15832   0.192   4.373   5.267
 4978SOL    HW115833   0.112   4.355   5.210
 4978SOL    HW215834   0.165   4.369   5.364
 4979SOL     OW15835   0.544   0.023   5.484
 4979SOL    HW115836   0.575   6.955   5.513
 4979SOL    HW215837   0.609   0.092   5.514
 4980SOL     OW15838   4.362   5.978   3.767
 4980SOL    HW115839   4.403   6.068   3.749
 4980SOL    HW215840   4.269   5.977   3.729
 4981SOL     OW15841   5.099   6.458   6.285
 4981SOL    HW115842   5.002   6.480   6.284
 4981SOL    HW215843   5.153   6.540   6.302
 4982SOL     OW15844   2.480   1.675   5.930
 4982SOL    HW115845   2.453   1.604   5.865
 4982SOL    HW215846   2.444   1.653   6.020
 4983SOL     OW15847   5.311   2.394   4.652
 4983SOL    HW115848   5.303   2.493   4.654
 4983SOL    HW215849   5.229   2.354   4.612
 4984SOL     OW15850   6.016   4.790   4.375
 4984SOL    HW115851   5.940   4.728   4.356
 4984SOL    HW215852   6.103   4.742   4.363
 4985SOL     OW15853   6.426   6.164   3.330
 4985SOL    HW115854   6.515   6.186   3.290
 4985SOL    HW215855   6.421   6.200   3.422
 4986SOL     OW15856   6.056   4.305   2.536
 4986SOL    HW115857   6.118   4.382   2.524
 4986SOL    HW215858   6.001   4.318   2.619
 4987SOL     OW15859   1.082   1.147   0.906
 4987SOL    HW115860   1.135   1.163   0.823
 4987SOL    HW215861   1.139   1.099   0.973
 4988SOL     OW15862   5.778   1.015   3.375
 4988SOL    HW115863   5.704   0.984   3.434
 4988SOL    HW215864   5.765   0.979   3.283
 4989SOL     OW15865   5.399   0.259   1.236
 4989SOL    HW115866   5.446   0.177   1.204
 4989SOL    HW215867   5.322   0.232   1.295
 4990SOL     OW15868   2.226   1.500   5.349
 4990SOL    HW115869   2.279   1.449   5.417
 4990SOL    HW215870   2.129   1.475   5.358
 4991SOL     OW15871   6.749   4.192   4.633
 4991SOL    HW115872   6.819   4.207   4.703
 4991SOL    HW215873   6.782   4.224   4.545
 4992SOL     OW15874   4.833   0.927   4.800
 4992SOL    HW115875   4.867   0.845   4.755
 4992SOL    HW215876   4.782   0.901   4.882
 4993SOL     OW15877   3.166   5.051   4.192
 4993SOL    HW115878   3.071   5.077   4.176
 4993SOL    HW215879   3.172   4.992   4.272
 4994SOL     OW15880   2.106   0.217   2.847
 4994SOL    HW115881   2.077   0.262   2.763
 4994SOL    HW215882   2.190   0.165   2.830
 4995SOL     OW15883   6.830   2.937   5.512
 4995SOL    HW115884   6.855   3.008   5.447
 4995SOL    HW215885   6.905   2.870   5.519
 4996SOL     OW15886   1.473   1.577   2.811
 4996SOL    HW115887   1.477   1.531   2.900
 4996SOL    HW215888   1.380   1.610   2.795
 4997SOL     OW15889   5.740   2.146   3.232
 4997SOL    HW115890   5.764   2.051   3.252
 4997SOL    HW215891   5.725   2.156   3.133
 4998SOL     OW15892   1.790   3.992   5.344
 4998SOL    HW115893   1.789   3.906   5.395
 4998SOL    HW215894   1.860   3.988   5.272
 4999SOL     OW15895   6.070   4.394   1.263
 4999SOL    HW115896   6.008   4.323   1.296
 4999SOL    HW215897   6.157   4.352   1.238
 5000SOL     OW15898   2.699   6.434   4.181
 5000SOL    HW115899   2.673   6.516   4.233
 5000SOL    HW215900   2.704   6.456   4.084
 5001SOL     OW15901   1.346   4.216   0.755
 5001SOL    HW115902   1.399   4.224   0.671
 5001SOL    HW215903   1.257   4.260   0.743
 5002SOL     OW15904   1.410   3.214   3.318
 5002SOL    HW115905   1.441   3.225   3.223
 5002SOL    HW215906   1.488   3.189   3.376
 5003SOL     OW15907   2.503   6.260   2.910
 5003SOL    HW115908   2.590   6.279   2.864
 5003SOL    HW215909   2.482   6.334   2.974
 5004SOL     OW15910   3.259   4.820   5.645
 5004SOL    HW115911   3.329   4.762   5.603
 5004SOL    HW215912   3.215   4.769   5.719
 5005SOL     OW15913   3.304   2.070   0.451
 5005SOL    HW115914   3.221   2.094   0.402
 5005SOL    HW215915   3.305   2.117   0.540
 5006SOL     OW15916   4.817   6.859   6.714
 5006SOL    HW115917   4.821   6.946   6.666
 5006SOL    HW215918   4.880   6.794   6.672
 5007SOL     OW15919   1.908   0.068   7.006
 5007SOL    HW115920   1.919   0.072   6.906
 5007SOL    HW215921   1.831   0.127   0.010
 5008SOL     OW15922   6.062   0.003   3.195
 5008SOL    HW115923   6.154   0.032   3.220
 5008SOL    HW215924   6.041   6.938   3.240
 5009SOL     OW15925   1.998   6.328   1.318
 5009SOL    HW115926   2.091   6.299   1.341
 5009SOL    HW215927   1.933   6.260   1.351
 5010SOL     OW15928   3.888   3.024   3.182
 5010SOL    HW115929   3.928   2.935   3.157
 5010SOL    HW215930   3.788   3.014   3.191
 5011SOL     OW15931   1.417   3.883   2.731
 5011SOL    HW115932   1.396   3.917   2.823
 5011SOL    HW215933   1.488   3.813   2.737
 5012SOL     OW15934   4.970   3.764   6.557
 5012SOL    HW115935   5.027   3.690   6.522
 5012SOL    HW215936   5.020   3.851   6.548
 5013SOL     OW15937   5.114   1.649   6.661
 5013SOL    HW115938   5.142   1.648   6.757
 5013SOL    HW215939   5.017   1.673   6.655
 5014SOL     OW15940   5.282   4.078   0.850
 5014SOL    HW115941   5.235   3.992   0.828
 5014SOL    HW215942   5.320   4.073   0.942
 5015SOL     OW15943   4.739   2.363   3.806
 5015SOL    HW115944   4.673   2.351   3.880
 5015SOL    HW215945   4.693   2.398   3.725
 5016SOL     OW15946   2.682   2.466   0.874
 5016SOL    HW115947   2.780   2.461   0.893
 5016SOL    HW215948   2.665   2.539   0.808
 5017SOL     OW15949   1.927   1.936   6.689
 5017SOL    HW115950   1.853   1.986   6.734
 5017SOL    HW215951   1.989   2.001   6.645
 5018SOL     OW15952   0.665   4.433   1.295
 5018SOL    HW115953   0.609   4.398   1.220
 5018SOL    HW215954   0.632   4.396   1.382
 5019SOL     OW15955   1.788   5.001   6.560
 5019SOL    HW115956   1.700   4.989   6.606
 5019SOL    HW215957   1.795   5.094   6.525
 5020SOL     OW15958   4.742   6.997   5.870
 5020SOL    HW115959   4.642   7.003   5.862
 5020SOL    HW215960   4.784   0.056   5.830
 5021SOL     OW15961   1.343   1.925   5.771
 5021SOL    HW115962   1.416   1.980   5.730
 5021SOL    HW215963   1.377   1.834   5.792
 5022SOL     OW15964   1.662   0.188   0.095
 5022SOL    HW115965   1.692   0.166   0.188
 5022SOL    HW215966   1.666   0.287   0.081
 5023SOL     OW15967   6.325   2.858   0.762
 5023SOL    HW115968   6.416   2.844   0.800
 5023SOL    HW215969   6.279   2.769   0.753
 5024SOL     OW15970   6.579   5.925   2.613
 5024SOL    HW115971   6.614   6.006   2.567
 5024SOL    HW215972   6.505   5.951   2.675
 5025SOL     OW15973   3.885   1.982   2.306
 5025SOL    HW115974   3.910   1.968   2.211
 5025SOL    HW215975   3.852   1.896   2.345
 5026SOL     OW15976   5.885   6.564   6.712
 5026SOL    HW115977   5.808   6.500   6.710
 5026SOL    HW215978   5.939   6.552   6.628
 5027SOL     OW15979   0.665   6.707   2.524
 5027SOL    HW115980   0.600   6.772   2.484
 5027SOL    HW215981   0.646   6.615   2.489
 5028SOL     OW15982   0.482   6.261   3.307
 5028SOL    HW115983   0.452   6.291   3.397
 5028SOL    HW215984   0.516   6.340   3.255
 5029SOL     OW15985   0.108   3.639   3.235
 5029SOL    HW115986   0.197   3.671   3.265
 5029SOL    HW215987   0.085   3.682   3.147
 5030SOL     OW15988   6.916   1.121   6.077
 5030SOL    HW115989   7.012   1.103   6.058
 5030SOL    HW215990   6.884   1.058   6.149
 5031SOL     OW15991   5.729   0.220   4.859
 5031SOL    HW115992   5.782   0.301   4.885
 5031SOL    HW215993   5.736   0.151   4.931
 5032SOL     OW15994   1.448   3.759   0.689
 5032SOL    HW115995   1.469   3.661   0.692
 5032SOL    HW215996   1.533   3.812   0.699
 5033SOL     OW15997   2.353   5.651   6.573
 5033SOL    HW115998   2.439   5.657   6.523
 5033SOL    HW215999   2.284   5.708   6.528
 5034SOL     OW16000   6.457   1.387   3.051
 5034SOL    HW116001   6.469   1.311   3.114
 5034SOL    HW216002   6.519   1.462   3.076
 5035SOL     OW16003   6.325   4.514   0.339
 5035SOL    HW116004   6.280   4.490   0.253
 5035SOL    HW216005   6.332   4.614   0.346
 5036SOL     OW16006   0.234   5.036   6.893
 5036SOL    HW116007   0.303   5.007   6.827
 5036SOL    HW216008   0.187   5.117   6.857
 5037SOL     OW16009   5.599   2.650   2.518
 5037SOL    HW116010   5.591   2.566   2.465
 5037SOL    HW216011   5.664   2.637   2.593
 5038SOL     OW16012   1.913   4.111   5.957
 5038SOL    HW116013   1.823   4.131   5.917
 5038SOL    HW216014   1.976   4.185   5.936
 5039SOL     OW16015   2.720   3.493   5.675
 5039SOL    HW116016   2.693   3.514   5.769
 5039SOL    HW216017   2.702   3.397   5.656
 5040SOL     OW16018   1.912   4.727   6.576
 5040SOL    HW116019   1.918   4.826   6.585
 5040SOL    HW216020   1.827   4.695   6.619
 5041SOL     OW16021   1.867   2.362   1.165
 5041SOL    HW116022   1.775   2.325   1.176
 5041SOL    HW216023   1.891   2.363   1.068
 5042SOL     OW16024   5.985   3.326   0.620
 5042SOL    HW116025   6.064   3.377   0.585
 5042SOL    HW216026   6.016   3.238   0.656
 5043SOL     OW16027   2.770   1.340   5.915
 5043SOL    HW116028   2.823   1.257   5.935
 5043SOL    HW216029   2.740   1.338   5.820
 5044SOL     OW16030   6.182   6.276   2.293
 5044SOL    HW116031   6.141   6.200   2.343
 5044SOL    HW216032   6.138   6.362   2.321
 5045SOL     OW16033   5.860   3.260   0.078
 5045SOL    HW116034   5.840   3.215   7.013
 5045SOL    HW216035   5.869   3.191   0.149
 5046SOL     OW16036   3.406   4.189   4.710
 5046SOL    HW116037   3.489   4.140   4.735
 5046SOL    HW216038   3.431   4.277   4.668
 5047SOL     OW16039   0.512   2.913   2.421
 5047SOL    HW116040   0.518   3.001   2.375
 5047SOL    HW216041   0.561   2.918   2.509
 5048SOL     OW16042   0.318   1.063   1.351
 5048SOL    HW116043   0.263   1.125   1.407
 5048SOL    HW216044   0.318   0.972   1.393
 5049SOL     OW16045   6.223   1.697   4.609
 5049SOL    HW116046   6.282   1.738   4.539
 5049SOL    HW216047   6.153   1.764   4.636
 5050SOL     OW16048   1.147   1.068   1.948
 5050SOL    HW116049   1.206   1.048   1.869
 5050SOL    HW216050   1.052   1.069   1.919
 5051SOL     OW16051   4.355   3.255   0.476
 5051SOL    HW116052   4.337   3.342   0.430
 5051SOL    HW216053   4.276   3.194   0.464
 5052SOL     OW16054   2.668   5.574   5.841
 5052SOL    HW116055   2.694   5.627   5.759
 5052SOL    HW216056   2.736   5.502   5.856
 5053SOL     OW16057   1.618   4.091   3.935
 5053SOL    HW116058   1.543   4.144   3.895
 5053SOL    HW216059   1.593   4.064   4.028
 5054SOL     OW16060   3.697   5.495   5.389
 5054SOL    HW116061   3.708   5.396   5.389
 5054SOL    HW216062   3.634   5.522   5.316
 5055SOL     OW16063   1.243   0.068   5.462
 5055SOL    HW116064   1.203   0.159   5.455
 5055SOL    HW216065   1.231   0.019   5.376
 5056SOL     OW16066   6.488   3.906   0.780
 5056SOL    HW116067   6.461   3.893   0.684
 5056SOL    HW216068   6.414   3.950   0.830
 5057SOL     OW16069   0.390   5.439   4.841
 5057SOL    HW116070   0.414   5.376   4.767
 5057SOL    HW216071   0.312   5.496   4.812
 5058SOL     OW16072   2.291   3.425   5.765
 5058SOL    HW116073   2.319   3.521   5.770
 5058SOL    HW216074   2.371   3.367   5.752
 5059SOL     OW16075   5.476   3.343   3.481
 5059SOL    HW116076   5.415   3.265   3.469
 5059SOL    HW216077   5.553   3.316   3.539
 5060SOL     OW16078   0.302   2.933   5.588
 5060SOL    HW116079   0.349   2.898   5.507
 5060SOL    HW216080   0.228   2.994   5.560
 5061SOL     OW16081   3.254   3.101   3.668
 5061SOL    HW116082   3.338   3.064   3.708
 5061SOL    HW216083   3.274   3.185   3.618
 5062SOL     OW16084   6.195   1.399   2.998
 5062SOL    HW116085   6.165   1.348   2.917
 5062SOL    HW216086   6.294   1.391   3.008
 5063SOL     OW16087   1.590   6.632   2.089
 5063SOL    HW116088   1.530   6.596   2.161
 5063SOL    HW216089   1.661   6.688   2.131
 5064SOL     OW16090   4.641   4.376   1.720
 5064SOL    HW116091   4.568   4.323   1.763
 5064SOL    HW216092   4.613   4.471   1.711
 5065SOL     OW16093   1.051   2.000   3.383
 5065SOL    HW116094   1.093   2.088   3.361
 5065SOL    HW216095   1.090   1.964   3.468
 5066SOL     OW16096   3.736   3.992   1.078
 5066SOL    HW116097   3.711   3.977   1.174
 5066SOL    HW216098   3.833   3.971   1.065
 5067SOL     OW16099   3.025   1.096   2.508
 5067SOL    HW116100   2.988   1.182   2.471
 5067SOL    HW216101   3.096   1.117   2.576
 5068SOL     OW16102   3.308   4.900   0.087
 5068SOL    HW116103   3.239   4.847   0.136
 5068SOL    HW216104   3.340   4.975   0.144
 5069SOL     OW16105   1.847   2.287   5.898
 5069SOL    HW116106   1.893   2.199   5.889
 5069SOL    HW216107   1.866   2.343   5.817
 5070SOL     OW16108   5.079   5.011   4.606
 5070SOL    HW116109   5.061   5.011   4.704
 5070SOL    HW216110   5.006   5.060   4.559
 5071SOL     OW16111   3.853   1.750   3.719
 5071SOL    HW116112   3.939   1.704   3.741
 5071SOL    HW216113   3.848   1.765   3.620
 5072SOL     OW16114   1.868   1.455   1.226
 5072SOL    HW116115   1.956   1.419   1.259
 5072SOL    HW216116   1.826   1.390   1.163
 5073SOL     OW16117   1.170   4.382   0.646
 5073SOL    HW116118   1.086   4.330   0.659
 5073SOL    HW216119   1.153   4.479   0.666
 5074SOL     OW16120   3.364   2.063   2.127
 5074SOL    HW116121   3.413   2.133   2.179
 5074SOL    HW216122   3.270   2.094   2.110
 5075SOL     OW16123   1.347   2.285   6.605
 5075SOL    HW116124   1.428   2.324   6.561
 5075SOL    HW216125   1.278   2.356   6.617
 5076SOL     OW16126   5.498   7.000   0.712
 5076SOL    HW116127   5.552   6.932   0.761
 5076SOL    HW216128   5.552   0.061   0.701
 5077SOL     OW16129   1.252   4.356   6.012
 5077SOL    HW116130   1.199   4.321   5.935
 5077SOL    HW216131   1.338   4.305   6.019
 5078SOL     OW16132   0.577   0.816   3.906
 5078SOL    HW116133   0.641   0.844   3.834
 5078SOL    HW216134   0.538   0.727   3.884
 5079SOL     OW16135   2.377   2.703   5.011
 5079SOL    HW116136   2.373   2.801   5.030
 5079SOL    HW216137   2.326   2.653   5.081
 5080SOL     OW16138   6.153   6.085   5.642
 5080SOL    HW116139   6.106   6.066   5.555
 5080SOL    HW216140   6.138   6.180   5.668
 5081SOL     OW16141   2.239   3.851   5.689
 5081SOL    HW116142   2.264   3.938   5.730
 5081SOL    HW216143   2.300   3.832   5.612
 5082SOL     OW16144   5.017   6.886   1.278
 5082SOL    HW116145   5.095   6.943   1.304
 5082SOL    HW216146   4.996   6.902   1.181
 5083SOL     OW16147   2.910   0.441   2.627
 5083SOL    HW116148   2.816   0.434   2.660
 5083SOL    HW216149   2.959   0.510   2.680
 5084SOL     OW16150   0.610   4.990   3.818
 5084SOL    HW116151   0.617   4.985   3.918
 5084SOL    HW216152   0.521   4.955   3.789
 5085SOL     OW16153   6.559   2.832   5.569
 5085SOL    HW116154   6.577   2.762   5.500
 5085SOL    HW216155   6.617   2.911   5.552
 5086SOL     OW16156   1.691   4.809   2.674
 5086SOL    HW116157   1.631   4.742   2.718
 5086SOL    HW216158   1.674   4.809   2.576
 5087SOL     OW16159   1.193   5.234   2.128
 5087SOL    HW116160   1.206   5.331   2.148
 5087SOL    HW216161   1.142   5.225   2.043
 5088SOL     OW16162   6.159   6.582   3.929
 5088SOL    HW116163   6.097   6.660   3.917
 5088SOL    HW216164   6.128   6.506   3.872
 5089SOL     OW16165   6.386   4.900   3.856
 5089SOL    HW116166   6.356   4.852   3.773
 5089SOL    HW216167   6.395   4.834   3.930
 5090SOL     OW16168   1.478   2.780   2.323
 5090SOL    HW116169   1.442   2.853   2.380
 5090SOL    HW216170   1.537   2.720   2.378
 5091SOL     OW16171   0.056   1.490   1.586
 5091SOL    HW116172   0.097   1.571   1.543
 5091SOL    HW216173   0.004   1.439   1.517
 5092SOL     OW16174   3.301   3.338   3.515
 5092SOL    HW116175   3.224   3.349   3.452
 5092SOL    HW216176   3.386   3.335   3.463
 5093SOL     OW16177   2.920   1.228   0.400
 5093SOL    HW116178   2.876   1.315   0.421
 5093SOL    HW216179   2.886   1.156   0.461
 5094SOL     OW16180   2.438   5.561   6.288
 5094SOL    HW116181   2.373   5.499   6.246
 5094SOL    HW216182   2.436   5.649   6.240
 5095SOL     OW16183   6.837   2.522   3.045
 5095SOL    HW116184   6.818   2.503   3.142
 5095SOL    HW216185   6.929   2.559   3.035
 5096SOL     OW16186   4.677   4.680   6.738
 5096SOL    HW116187   4.750   4.651   6.676
 5096SOL    HW216188   4.631   4.760   6.699
 5097SOL     OW16189   0.836   0.027   6.351
 5097SOL    HW116190   0.921   0.020   6.403
 5097SOL    HW216191   0.759   7.021   6.408
 5098SOL     OW16192   2.750   0.609   1.983
 5098SOL    HW116193   2.714   0.518   1.963
 5098SOL    HW216194   2.850   0.605   1.984
 5099SOL     OW16195   0.610   6.936   1.430
 5099SOL    HW116196   0.554   6.901   1.354
 5099SOL    HW216197   0.650   6.860   1.480
 5100SOL     OW16198   2.853   5.728   4.364
 5100SOL    HW116199   2.894   5.767   4.446
 5100SOL    HW216200   2.912   5.747   4.285
 5101SOL     OW16201   4.125   6.947   6.038
 5101SOL    HW116202   4.115   0.023   6.048
 5101SOL    HW216203   4.196   6.927   5.970
 5102SOL     OW16204   4.832   6.053   4.721
 5102SOL    HW116205   4.924   6.050   4.759
 5102SOL    HW216206   4.765   6.032   4.793
 5103SOL     OW16207   6.875   1.274   4.131
 5103SOL    HW116208   6.860   1.242   4.225
 5103SOL    HW216209   6.963   1.320   4.125
 5104SOL     OW16210   1.632   6.179   1.968
 5104SOL    HW116211   1.553   6.240   1.965
 5104SOL    HW216212   1.714   6.232   1.991
 5105SOL     OW16213   2.962   2.565   6.986
 5105SOL    HW116214   2.896   2.580   6.912
 5105SOL    HW216215   3.054   2.582   6.952
 5106SOL     OW16216   4.488   1.522   0.652
 5106SOL    HW116217   4.489   1.422   0.645
 5106SOL    HW216218   4.486   1.549   0.748
 5107SOL     OW16219   4.265   2.204   1.340
 5107SOL    HW116220   4.351   2.166   1.372
 5107SOL    HW216221   4.238   2.158   1.256
 5108SOL     OW16222   4.214   4.101   5.312
 5108SOL    HW116223   4.231   4.006   5.288
 5108SOL    HW216224   4.120   4.110   5.348
 5109SOL     OW16225   0.943   1.911   6.641
 5109SOL    HW116226   1.019   1.967   6.609
 5109SOL    HW216227   0.857   1.948   6.605
 5110SOL     OW16228   0.843   0.195   6.148
 5110SOL    HW116229   0.831   0.128   6.221
 5110SOL    HW216230   0.756   0.241   6.130
 5111SOL     OW16231   1.029   1.074   5.083
 5111SOL    HW116232   1.089   1.129   5.026
 5111SOL    HW216233   0.943   1.056   5.034
 5112SOL     OW16234   1.188   7.019   2.765
 5112SOL    HW116235   1.207   0.093   2.752
 5112SOL    HW216236   1.188   6.972   2.677
 5113SOL     OW16237   2.285   6.179   1.006
 5113SOL    HW116238   2.280   6.251   0.937
 5113SOL    HW216239   2.305   6.092   0.962
 5114SOL     OW16240   3.999   6.959   6.816
 5114SOL    HW116241   4.075   6.949   6.751
 5114SOL    HW216242   3.948   0.020   6.794
 5115SOL     OW16243   1.308   5.103   3.223
 5115SOL    HW116244   1.232   5.094   3.287
 5115SOL    HW216245   1.277   5.147   3.139
 5116SOL     OW16246   0.968   6.384   0.289
 5116SOL    HW116247   0.954   6.351   0.196
 5116SOL    HW216248   1.054   6.347   0.325
 5117SOL     OW16249   1.598   3.778   4.201
 5117SOL    HW116250   1.577   3.786   4.298
 5117SOL    HW216251   1.691   3.810   4.185
 5118SOL     OW16252   5.495   0.795   0.167
 5118SOL    HW116253   5.494   0.888   0.203
 5118SOL    HW216254   5.558   0.790   0.089
 5119SOL     OW16255   5.193   0.805   2.300
 5119SOL    HW116256   5.263   0.868   2.268
 5119SOL    HW216257   5.186   0.809   2.400
 5120SOL     OW16258   4.382   0.056   4.461
 5120SOL    HW116259   4.327   6.996   4.452
 5120SOL    HW216260   4.478   0.034   4.446
 5121SOL     OW16261   3.053   2.801   6.813
 5121SOL    HW116262   3.028   2.887   6.769
 5121SOL    HW216263   2.996   2.727   6.778
 5122SOL     OW16264   3.335   6.142   3.463
 5122SOL    HW116265   3.363   6.224   3.512
 5122SOL    HW216266   3.354   6.153   3.366
 5123SOL     OW16267   4.220   2.239   4.198
 5123SOL    HW116268   4.122   2.256   4.187
 5123SOL    HW216269   4.271   2.306   4.143
 5124SOL     OW16270   2.191   5.435   4.687
 5124SOL    HW116271   2.206   5.429   4.588
 5124SOL    HW216272   2.253   5.502   4.726
 5125SOL     OW16273   6.216   4.215   4.198
 5125SOL    HW116274   6.187   4.218   4.102
 5125SOL    HW216275   6.184   4.129   4.239
 5126SOL     OW16276   6.289   5.187   6.030
 5126SOL    HW116277   6.220   5.226   5.968
 5126SOL    HW216278   6.330   5.261   6.084
 5127SOL     OW16279   0.477   3.541   0.165
 5127SOL    HW116280   0.498   3.558   0.261
 5127SOL    HW216281   0.383   3.569   0.146
 5128SOL     OW16282   0.299   0.173   6.352
 5128SOL    HW116283   0.286   0.101   6.284
 5128SOL    HW216284   0.210   0.206   6.383
 5129SOL     OW16285   6.503   0.128   2.584
 5129SOL    HW116286   6.486   0.221   2.617
 5129SOL    HW216287   6.557   0.131   2.500
 5130SOL     OW16288   0.748   5.503   3.595
 5130SOL    HW116289   0.846   5.510   3.614
 5130SOL    HW216290   0.702   5.461   3.673
 5131SOL     OW16291   2.094   4.989   4.315
 5131SOL    HW116292   2.115   5.087   4.319
 5131SOL    HW216293   1.995   4.976   4.314
 5132SOL     OW16294   3.479   2.848   6.961
 5132SOL    HW116295   3.517   2.798   6.884
 5132SOL    HW216296   3.550   2.906   7.001
 5133SOL     OW16297   2.320   5.302   0.118
 5133SOL    HW116298   2.370   5.270   0.198
 5133SOL    HW216299   2.236   5.248   0.107
 5134SOL     OW16300   0.504   3.749   2.727
 5134SOL    HW116301   0.531   3.656   2.752
 5134SOL    HW216302   0.446   3.746   2.645
 5135SOL     OW16303   5.808   3.182   4.363
 5135SOL    HW116304   5.747   3.240   4.417
 5135SOL    HW216305   5.902   3.198   4.391
 5136SOL     OW16306   3.735   1.051   5.931
 5136SOL    HW116307   3.721   1.143   5.895
 5136SOL    HW216308   3.786   0.997   5.864
 5137SOL     OW16309   5.110   3.114   5.387
 5137SOL    HW116310   5.049   3.066   5.450
 5137SOL    HW216311   5.174   3.170   5.440
 5138SOL     OW16312   3.060   2.800   5.535
 5138SOL    HW116313   2.977   2.752   5.507
 5138SOL    HW216314   3.072   2.882   5.480
 5139SOL     OW16315   1.170   0.530   2.999
 5139SOL    HW116316   1.177   0.618   3.045
 5139SOL    HW216317   1.182   0.456   3.066
 5140SOL     OW16318   4.035   2.454   0.032
 5140SOL    HW116319   4.075   2.483   6.968
 5140SOL    HW216320   4.089   2.378   0.070
 5141SOL     OW16321   6.959   3.832   0.242
 5141SOL    HW116322   6.882   3.797   0.296
 5141SOL    HW216323   6.936   3.831   0.145
 5142SOL     OW16324   5.816   0.167   3.485
 5142SOL    HW116325   5.873   0.129   3.558
 5142SOL    HW216326   5.736   0.212   3.526
 5143SOL     OW16327   6.646   4.537   3.796
 5143SOL    HW116328   6.556   4.580   3.807
 5143SOL    HW216329   6.635   4.449   3.750
 5144SOL     OW16330   0.422   4.886   6.704
 5144SOL    HW116331   0.357   4.831   6.652
 5144SOL    HW216332   0.450   4.965   6.648
 5145SOL     OW16333   2.784   4.960   5.453
 5145SOL    HW116334   2.834   5.045   5.467
 5145SOL    HW216335   2.820   4.913   5.373
 5146SOL     OW16336   3.505   4.352   5.277
 5146SOL    HW116337   3.408   4.373   5.289
 5146SOL    HW216338   3.516   4.294   5.196
 5147SOL     OW16339   6.996   5.138   2.607
 5147SOL    HW116340   0.035   5.060   2.599
 5147SOL    HW216341   6.916   5.113   2.661
 5148SOL     OW16342   6.610   6.378   1.426
 5148SOL    HW116343   6.707   6.375   1.448
 5148SOL    HW216344   6.579   6.473   1.422
 5149SOL     OW16345   6.460   5.691   3.169
 5149SOL    HW116346   6.383   5.640   3.131
 5149SOL    HW216347   6.474   5.775   3.117
 5150SOL     OW16348   2.314   5.356   2.896
 5150SOL    HW116349   2.308   5.386   2.991
 5150SOL    HW216350   2.301   5.257   2.891
 5151SOL     OW16351   5.705   2.252   0.784
 5151SOL    HW116352   5.785   2.282   0.732
 5151SOL    HW216353   5.707   2.153   0.793
 5152SOL     OW16354   2.625   4.831   0.237
 5152SOL    HW116355   2.643   4.923   0.201
 5152SOL    HW216356   2.584   4.839   0.328
 5153SOL     OW16357   2.218   6.920   6.902
 5153SOL    HW116358   2.294   6.930   6.966
 5153SOL    HW216359   2.132   6.913   6.953
 5154SOL     OW16360   1.015   3.211   6.022
 5154SOL    HW116361   1.066   3.148   6.081
 5154SOL    HW216362   0.927   3.170   5.998
 5155SOL     OW16363   4.351   6.833   2.396
 5155SOL    HW116364   4.410   6.861   2.473
 5155SOL    HW216365   4.332   6.913   2.338
 5156SOL     OW16366   5.734   3.671   5.845
 5156SOL    HW116367   5.756   3.583   5.801
 5156SOL    HW216368   5.712   3.655   5.941
 5157SOL     OW16369   3.762   2.044   3.649
 5157SOL    HW116370   3.792   1.948   3.651
 5157SOL    HW216371   3.828   2.100   3.700
 5158SOL     OW16372   3.564   1.413   1.834
 5158SOL    HW116373   3.490   1.397   1.900
 5158SOL    HW216374   3.582   1.511   1.828
 5159SOL     OW16375   6.926   3.493   4.164
 5159SOL    HW116376   6.873   3.551   4.101
 5159SOL    HW216377   7.021   3.491   4.135
 5160SOL     OW16378   0.329   4.866   3.151
 5160SOL    HW116379   0.403   4.827   3.095
 5160SOL    HW216380   0.241   4.845   3.108
 5161SOL     OW16381   1.397   3.604   5.766
 5161SOL    HW116382   1.394   3.632   5.861
 5161SOL    HW216383   1.309   3.621   5.722
 5162SOL     OW16384   1.498   5.118   2.587
 5162SOL    HW116385   1.597   5.124   2.599
 5162SOL    HW216386   1.455   5.089   2.673
 5163SOL     OW16387   3.484   6.378   0.016
 5163SOL    HW116388   3.454   6.284   0.029
 5163SOL    HW216389   3.406   6.440   0.028
 5164SOL     OW16390   4.561   2.589   0.069
 5164SOL    HW116391   4.495   2.660   0.091
 5164SOL    HW216392   4.538   2.505   0.118
 5165SOL     OW16393   6.095   4.314   6.185
 5165SOL    HW116394   6.054   4.283   6.099
 5165SOL    HW216395   6.026   4.360   6.241
 5166SOL     OW16396   0.992   5.487   2.901
 5166SOL    HW116397   0.926   5.418   2.933
 5166SOL    HW216398   1.081   5.443   2.886
 5167SOL     OW16399   6.152   6.379   5.748
 5167SOL    HW116400   6.240   6.370   5.702
 5167SOL    HW216401   6.161   6.441   5.826
 5168SOL     OW16402   5.174   4.199   2.592
 5168SOL    HW116403   5.142   4.248   2.511
 5168SOL    HW216404   5.266   4.165   2.576
 5169SOL     OW16405   3.725   1.645   4.724
 5169SOL    HW116406   3.689   1.652   4.817
 5169SOL    HW216407   3.727   1.549   4.697
 5170SOL     OW16408   0.635   4.218   6.208
 5170SOL    HW116409   0.707   4.279   6.176
 5170SOL    HW216410   0.623   4.143   6.143
 5171SOL     OW16411   1.047   5.894   4.714
 5171SOL    HW116412   1.096   5.830   4.654
 5171SOL    HW216413   0.954   5.907   4.679
 5172SOL     OW16414   0.698   2.230   2.094
 5172SOL    HW116415   0.753   2.227   2.177
 5172SOL    HW216416   0.692   2.138   2.054
 5173SOL     OW16417   5.324   4.782   6.415
 5173SOL    HW116418   5.253   4.810   6.351
 5173SOL    HW216419   5.410   4.765   6.366
 5174SOL     OW16420   2.210   4.761   3.633
 5174SOL    HW116421   2.294   4.808   3.606
 5174SOL    HW216422   2.132   4.820   3.616
 5175SOL     OW16423   2.028   3.470   6.765
 5175SOL    HW116424   2.031   3.522   6.680
 5175SOL    HW216425   2.047   3.531   6.842
 5176SOL     OW16426   4.629   2.459   6.611
 5176SOL    HW116427   4.667   2.366   6.610
 5176SOL    HW216428   4.589   2.477   6.701
 5177SOL     OW16429   5.207   0.505   6.955
 5177SOL    HW116430   5.246   0.413   6.960
 5177SOL    HW216431   5.212   0.548   0.022
 5178SOL     OW16432   0.895   4.488   1.954
 5178SOL    HW116433   0.844   4.540   1.886
 5178SOL    HW216434   0.831   4.448   2.020
 5179SOL     OW16435   3.950   6.126   4.112
 5179SOL    HW116436   3.988   6.035   4.126
 5179SOL    HW216437   3.931   6.169   4.200
 5180SOL     OW16438   3.124   3.041   0.916
 5180SOL    HW116439   3.134   2.946   0.946
 5180SOL    HW216440   3.028   3.062   0.904
 5181SOL     OW16441   6.379   1.630   1.901
 5181SOL    HW116442   6.326   1.600   1.822
 5181SOL    HW216443   6.430   1.552   1.939
 5182SOL     OW16444   3.830   4.628   1.711
 5182SOL    HW116445   3.816   4.600   1.616
 5182SOL    HW216446   3.743   4.623   1.760
 5183SOL     OW16447   4.917   1.593   2.654
 5183SOL    HW116448   5.002   1.560   2.614
 5183SOL    HW216449   4.839   1.547   2.610
 5184SOL     OW16450   0.075   2.982   4.581
 5184SOL    HW116451   0.014   3.000   4.659
 5184SOL    HW216452   0.067   2.886   4.555
 5185SOL     OW16453   5.630   0.949   2.698
 5185SOL    HW116454   5.592   0.945   2.606
 5185SOL    HW216455   5.569   0.902   2.761
 5186SOL     OW16456   6.124   2.876   1.202
 5186SOL    HW116457   6.081   2.964   1.181
 5186SOL    HW216458   6.199   2.890   1.266
 5187SOL     OW16459   0.715   6.929   4.130
 5187SOL    HW116460   0.642   6.865   4.155
 5187SOL    HW216461   0.740   6.915   4.034
 5188SOL     OW16462   0.667   5.869   0.809
 5188SOL    HW116463   0.579   5.855   0.855
 5188SOL    HW216464   0.701   5.781   0.776
 5189SOL     OW16465   4.642   4.778   0.423
 5189SOL    HW116466   4.661   4.699   0.365
 5189SOL    HW216467   4.707   4.780   0.499
 5190SOL     OW16468   0.047   3.343   4.434
 5190SOL    HW116469   0.017   3.319   4.526
 5190SOL    HW216470   0.067   3.259   4.383
 5191SOL     OW16471   4.055   0.453   1.735
 5191SOL    HW116472   4.064   0.498   1.824
 5191SOL    HW216473   4.137   0.398   1.717
 5192SOL     OW16474   2.749   5.222   2.608
 5192SOL    HW116475   2.816   5.222   2.533
 5192SOL    HW216476   2.779   5.285   2.679
 5193SOL     OW16477   4.789   4.147   4.830
 5193SOL    HW116478   4.815   4.112   4.740
 5193SOL    HW216479   4.703   4.198   4.823
 5194SOL     OW16480   3.995   1.794   0.037
 5194SOL    HW116481   3.940   1.754   6.986
 5194SOL    HW216482   3.943   1.869   0.080
 5195SOL     OW16483   5.853   6.226   4.738
 5195SOL    HW116484   5.898   6.306   4.777
 5195SOL    HW216485   5.923   6.165   4.700
 5196SOL     OW16486   3.268   4.251   0.621
 5196SOL    HW116487   3.211   4.170   0.631
 5196SOL    HW216488   3.303   4.278   0.711
 5197SOL     OW16489   1.996   5.677   4.996
 5197SOL    HW116490   1.945   5.611   4.941
 5197SOL    HW216491   2.091   5.680   4.966
 5198SOL     OW16492   3.798   6.839   2.994
 5198SOL    HW116493   3.891   6.870   2.976
 5198SOL    HW216494   3.786   6.745   2.961
 5199SOL     OW16495   1.432   5.909   0.486
 5199SOL    HW116496   1.402   5.979   0.551
 5199SOL    HW216497   1.353   5.874   0.436
 5200SOL     OW16498   1.316   2.104   5.492
 5200SOL    HW116499   1.408   2.065   5.482
 5200SOL    HW216500   1.250   2.030   5.508
 5201SOL     OW16501   6.607   6.195   4.541
 5201SOL    HW116502   6.588   6.288   4.508
 5201SOL    HW216503   6.521   6.146   4.552
 5202SOL     OW16504   6.045   4.344   5.475
 5202SOL    HW116505   6.103   4.264   5.461
 5202SOL    HW216506   6.043   4.367   5.572
 5203SOL     OW16507   2.261   1.028   6.333
 5203SOL    HW116508   2.194   1.060   6.400
 5203SOL    HW216509   2.269   1.095   6.259
 5204SOL     OW16510   4.440   6.592   6.922
 5204SOL    HW116511   4.351   6.572   6.961
 5204SOL    HW216512   4.497   6.639   6.990
 5205SOL     OW16513   6.897   6.136   0.123
 5205SOL    HW116514   6.918   6.045   0.088
 5205SOL    HW216515   6.799   6.145   0.137
 5206SOL     OW16516   6.985   4.986   0.397
 5206SOL    HW116517   7.002   5.081   0.373
 5206SOL    HW216518   6.997   4.929   0.316
 5207SOL     OW16519   1.217   6.796   3.526
 5207SOL    HW116520   1.152   6.743   3.581
 5207SOL    HW216521   1.289   6.831   3.585
 5208SOL     OW16522   5.453   1.757   0.008
 5208SOL    HW116523   5.426   1.801   0.093
 5208SOL    HW216524   5.502   1.672   0.029
 5209SOL     OW16525   5.521   0.166   1.571
 5209SOL    HW116526   5.472   0.124   1.647
 5209SOL    HW216527   5.533   0.099   1.498
 5210SOL     OW16528   4.744   3.156   0.288
 5210SOL    HW116529   4.837   3.121   0.301
 5210SOL    HW216530   4.730   3.178   0.191
 5211SOL     OW16531   4.185   2.224   5.742
 5211SOL    HW116532   4.273   2.190   5.709
 5211SOL    HW216533   4.118   2.150   5.742
 5212SOL     OW16534   1.145   3.172   0.476
 5212SOL    HW116535   1.088   3.252   0.494
 5212SOL    HW216536   1.143   3.111   0.555
 5213SOL     OW16537   4.036   3.628   0.810
 5213SOL    HW116538   4.122   3.617   0.860
 5213SOL    HW216539   3.970   3.674   0.868
 5214SOL     OW16540   5.184   2.733   6.371
 5214SOL    HW116541   5.165   2.826   6.404
 5214SOL    HW216542   5.234   2.738   6.285
 5215SOL     OW16543   0.883   4.880   4.463
 5215SOL    HW116544   0.932   4.841   4.385
 5215SOL    HW216545   0.941   4.947   4.509
 5216SOL     OW16546   3.898   4.220   1.583
 5216SOL    HW116547   3.822   4.205   1.646
 5216SOL    HW216548   3.883   4.306   1.533
 5217SOL     OW16549   3.614   5.228   4.260
 5217SOL    HW116550   3.528   5.218   4.209
 5217SOL    HW216551   3.595   5.223   4.359
 5218SOL     OW16552   0.625   1.034   1.354
 5218SOL    HW116553   0.534   1.016   1.392
 5218SOL    HW216554   0.619   1.105   1.285
 5219SOL     OW16555   3.481   1.303   4.948
 5219SOL    HW116556   3.446   1.280   5.039
 5219SOL    HW216557   3.469   1.401   4.931
 5220SOL     OW16558   1.223   6.157   2.450
 5220SOL    HW116559   1.129   6.186   2.430
 5220SOL    HW216560   1.261   6.111   2.369
 5221SOL     OW16561   6.146   1.663   3.096
 5221SOL    HW116562   6.118   1.570   3.074
 5221SOL    HW216563   6.171   1.711   3.013
 5222SOL     OW16564   3.752   6.909   2.485
 5222SOL    HW116565   3.725   6.839   2.419
 5222SOL    HW216566   3.729   6.879   2.577
 5223SOL     OW16567   6.422   2.871   0.053
 5223SOL    HW116568   6.520   2.890   0.040
 5223SOL    HW216569   6.411   2.791   0.112
 5224SOL     OW16570   6.037   3.098   4.537
 5224SOL    HW116571   6.074   3.074   4.447
 5224SOL    HW216572   6.112   3.130   4.595
 5225SOL     OW16573   0.178   1.015   3.763
 5225SOL    HW116574   0.228   1.072   3.828
 5225SOL    HW216575   0.096   1.063   3.732
 5226SOL     OW16576   6.676   6.688   4.445
 5226SOL    HW116577   6.734   6.736   4.380
 5226SOL    HW216578   6.696   6.720   4.538
 5227SOL     OW16579   0.572   3.504   5.295
 5227SOL    HW116580   0.647   3.437   5.291
 5227SOL    HW216581   0.530   3.513   5.205
 5228SOL     OW16582   0.242   2.359   0.684
 5228SOL    HW116583   0.321   2.417   0.664
 5228SOL    HW216584   0.173   2.413   0.731
 5229SOL     OW16585   2.752   6.794   0.438
 5229SOL    HW116586   2.706   6.715   0.397
 5229SOL    HW216587   2.821   6.763   0.504
 5230SOL     OW16588   0.052   6.128   1.781
 5230SOL    HW116589   7.009   6.070   1.733
 5230SOL    HW216590   0.138   6.078   1.793
 5231SOL     OW16591   4.393   2.448   4.134
 5231SOL    HW116592   4.474   2.408   4.176
 5231SOL    HW216593   4.413   2.470   4.038
 5232SOL     OW16594   1.661   3.511   6.270
 5232SOL    HW116595   1.724   3.440   6.241
 5232SOL    HW216596   1.660   3.585   6.203
 5233SOL     OW16597   4.557   1.290   2.665
 5233SOL    HW116598   4.539   1.191   2.662
 5233SOL    HW216599   4.471   1.339   2.673
 5234SOL     OW16600   2.618   2.323   6.139
 5234SOL    HW116601   2.656   2.344   6.229
 5234SOL    HW216602   2.691   2.324   6.071
 5235SOL     OW16603   1.637   2.485   0.964
 5235SOL    HW116604   1.679   2.539   1.038
 5235SOL    HW216605   1.704   2.419   0.930
 5236SOL     OW16606   4.326   5.435   2.106
 5236SOL    HW116607   4.312   5.337   2.117
 5236SOL    HW216608   4.256   5.485   2.158
 5237SOL     OW16609   0.743   0.682   4.894
 5237SOL    HW116610   0.657   0.725   4.922
 5237SOL    HW216611   0.813   0.698   4.964
 5238SOL     OW16612   0.580   4.933   0.337
 5238SOL    HW116613   0.639   4.874   0.393
 5238SOL    HW216614   0.636   5.003   0.292
 5239SOL     OW16615   3.796   2.583   5.917
 5239SOL    HW116616   3.866   2.576   5.846
 5239SOL    HW216617   3.744   2.668   5.905
 5240SOL     OW16618   3.192   2.391   5.437
 5240SOL    HW116619   3.193   2.316   5.504
 5240SOL    HW216620   3.204   2.354   5.345
 5241SOL     OW16621   0.044   5.377   4.493
 5241SOL    HW116622   0.074   5.349   4.402
 5241SOL    HW216623   0.104   5.337   4.562
 5242SOL     OW16624   6.874   0.203   0.080
 5242SOL    HW116625   6.845   0.265   0.153
 5242SOL    HW216626   6.796   0.148   0.050
 5243SOL     OW16627   1.873   5.831   1.469
 5243SOL    HW116628   1.956   5.778   1.481
 5243SOL    HW216629   1.841   5.865   1.557
 5244SOL     OW16630   3.046   4.740   5.857
 5244SOL    HW116631   3.069   4.812   5.923
 5244SOL    HW216632   2.966   4.689   5.890
 5245SOL     OW16633   4.028   4.018   0.104
 5245SOL    HW116634   4.016   4.055   0.196
 5245SOL    HW216635   4.125   4.022   0.079
 5246SOL     OW16636   5.985   2.553   1.153
 5246SOL    HW116637   6.053   2.553   1.225
 5246SOL    HW216638   5.895   2.530   1.192
 5247SOL     OW16639   2.766   0.447   6.344
 5247SOL    HW116640   2.846   0.491   6.385
 5247SOL    HW216641   2.797   0.380   6.276
 5248SOL     OW16642   6.027   1.490   2.695
 5248SOL    HW116643   5.994   1.572   2.649
 5248SOL    HW216644   6.127   1.487   2.691
 5249SOL     OW16645   0.680   5.573   6.401
 5249SOL    HW116646   0.770   5.616   6.410
 5249SOL    HW216647   0.659   5.560   6.304
 5250SOL     OW16648   2.164   5.900   6.920
 5250SOL    HW116649   2.215   5.911   7.005
 5250SOL    HW216650   2.098   5.825   6.930
 5251SOL     OW16651   0.925   3.383   6.755
 5251SOL    HW116652   0.834   3.384   6.713
 5251SOL    HW216653   0.947   3.290   6.784
 5252SOL     OW16654   2.208   6.397   0.544
 5252SOL    HW116655   2.196   6.425   0.449
 5252SOL    HW216656   2.167   6.466   0.604
 5253SOL     OW16657   6.535   4.583   4.453
 5253SOL    HW116658   6.492   4.530   4.380
 5253SOL    HW216659   6.562   4.673   4.418
 5254SOL     OW16660   5.107   1.011   2.944
 5254SOL    HW116661   5.018   1.011   2.899
 5254SOL    HW216662   5.130   0.918   2.973
 5255SOL     OW16663   5.467   2.072   5.031
 5255SOL    HW116664   5.558   2.053   4.995
 5255SOL    HW216665   5.407   2.100   4.956
 5256SOL     OW16666   4.607   1.807   3.970
 5256SOL    HW116667   4.558   1.863   4.036
 5256SOL    HW216668   4.686   1.858   3.935
 5257SOL     OW16669   5.651   6.909   1.794
 5257SOL    HW116670   5.575   6.854   1.829
 5257SOL    HW216671   5.714   6.851   1.743
 5258SOL     OW16672   6.331   2.915   1.641
 5258SOL    HW116673   6.309   3.012   1.653
 5258SOL    HW216674   6.430   2.904   1.635
 5259SOL     OW16675   4.504   6.476   2.360
 5259SOL    HW116676   4.504   6.555   2.421
 5259SOL    HW216677   4.504   6.392   2.414
 5260SOL     OW16678   4.910   3.559   0.605
 5260SOL    HW116679   4.895   3.486   0.673
 5260SOL    HW216680   4.823   3.604   0.585
 5261SOL     OW16681   0.618   4.093   6.441
 5261SOL    HW116682   0.631   4.128   6.349
 5261SOL    HW216683   0.593   3.996   6.437
 5262SOL     OW16684   2.314   1.472   3.956
 5262SOL    HW116685   2.409   1.457   3.927
 5262SOL    HW216686   2.271   1.539   3.896
 5263SOL     OW16687   1.814   1.529   3.552
 5263SOL    HW116688   1.782   1.499   3.642
 5263SOL    HW216689   1.786   1.624   3.537
 5264SOL     OW16690   0.206   2.550   1.744
 5264SOL    HW116691   0.244   2.504   1.663
 5264SOL    HW216692   0.263   2.529   1.823
 5265SOL     OW16693   6.326   3.705   3.790
 5265SOL    HW116694   6.384   3.729   3.712
 5265SOL    HW216695   6.231   3.697   3.760
 5266SOL     OW16696   3.157   5.140   7.017
 5266SOL    HW116697   3.212   5.056   7.015
 5266SOL    HW216698   3.184   5.198   6.940
 5267SOL     OW16699   5.194   3.031   4.782
 5267SOL    HW116700   5.214   3.093   4.858
 5267SOL    HW216701   5.275   2.976   4.761
 5268SOL     OW16702   5.616   1.417   0.420
 5268SOL    HW116703   5.679   1.453   0.351
 5268SOL    HW216704   5.522   1.441   0.394
 5269SOL     OW16705   1.227   6.071   2.729
 5269SOL    HW116706   1.220   6.094   2.631
 5269SOL    HW216707   1.269   6.147   2.778
 5270SOL     OW16708   5.941   0.984   1.028
 5270SOL    HW116709   5.961   1.081   1.041
 5270SOL    HW216710   5.993   0.950   0.950
 5271SOL     OW16711   6.393   5.549   5.678
 5271SOL    HW116712   6.363   5.632   5.631
 5271SOL    HW216713   6.348   5.470   5.638
 5272SOL     OW16714   3.365   5.598   1.789
 5272SOL    HW116715   3.307   5.680   1.790
 5272SOL    HW216716   3.444   5.611   1.850
 5273SOL     OW16717   0.026   2.914   4.120
 5273SOL    HW116718   0.029   2.892   4.218
 5273SOL    HW216719   0.053   3.010   4.107
 5274SOL     OW16720   5.715   6.882   2.752
 5274SOL    HW116721   5.642   6.950   2.763
 5274SOL    HW216722   5.736   6.873   2.654
 5275SOL     OW16723   3.879   2.109   1.100
 5275SOL    HW116724   3.878   2.029   1.159
 5275SOL    HW216725   3.797   2.110   1.043
 5276SOL     OW16726   1.866   6.989   0.880
 5276SOL    HW116727   1.914   6.902   0.894
 5276SOL    HW216728   1.886   0.028   0.956
 5277SOL     OW16729   1.810   1.471   2.218
 5277SOL    HW116730   1.905   1.464   2.250
 5277SOL    HW216731   1.749   1.429   2.285
 5278SOL     OW16732   6.053   0.068   4.155
 5278SOL    HW116733   5.972   0.125   4.164
 5278SOL    HW216734   6.065   0.042   4.059
 5279SOL     OW16735   2.246   5.411   6.177
 5279SOL    HW116736   2.260   5.312   6.182
 5279SOL    HW216737   2.176   5.432   6.108
 5280SOL     OW16738   2.563   6.057   4.823
 5280SOL    HW116739   2.580   6.059   4.724
 5280SOL    HW216740   2.523   6.144   4.851
 5281SOL     OW16741   0.226   2.636   2.612
 5281SOL    HW116742   0.280   2.553   2.596
 5281SOL    HW216743   0.214   2.685   2.526
 5282SOL     OW16744   2.693   1.765   3.960
 5282SOL    HW116745   2.717   1.855   3.995
 5282SOL    HW216746   2.661   1.773   3.865
 5283SOL     OW16747   4.114   6.839   1.502
 5283SOL    HW116748   4.060   6.912   1.545
 5283SOL    HW216749   4.177   6.879   1.436
 5284SOL     OW16750   4.943   3.901   3.254
 5284SOL    HW116751   4.953   4.000   3.250
 5284SOL    HW216752   5.008   3.862   3.318
 5285SOL     OW16753   2.451   4.868   4.146
 5285SOL    HW116754   2.379   4.893   4.081
 5285SOL    HW216755   2.469   4.770   4.141
 5286SOL     OW16756   1.725   4.649   0.111
 5286SOL    HW116757   1.657   4.721   0.123
 5286SOL    HW216758   1.809   4.673   0.159
 5287SOL     OW16759   3.164   6.766   0.790
 5287SOL    HW116760   3.088   6.703   0.770
 5287SOL    HW216761   3.161   6.792   0.886
 5288SOL     OW16762   3.234   0.090   2.090
 5288SOL    HW116763   3.259   0.128   2.179
 5288SOL    HW216764   3.191   0.162   2.034
 5289SOL     OW16765   1.686   5.286   6.583
 5289SOL    HW116766   1.620   5.304   6.656
 5289SOL    HW216767   1.769   5.338   6.600
 5290SOL     OW16768   1.961   5.948   5.096
 5290SOL    HW116769   1.897   6.024   5.102
 5290SOL    HW216770   1.931   5.884   5.025
 5291SOL     OW16771   2.854   5.388   5.966
 5291SOL    HW116772   2.836   5.463   6.030
 5291SOL    HW216773   2.848   5.301   6.014
 5292SOL     OW16774   6.402   3.091   6.514
 5292SOL    HW116775   6.318   3.100   6.460
 5292SOL    HW216776   6.393   3.144   6.599
 5293SOL     OW16777   0.233   0.470   4.851
 5293SOL    HW116778   0.297   0.546   4.866
 5293SOL    HW216779   0.141   0.499   4.877
 5294SOL     OW16780   4.712   3.435   5.783
 5294SOL    HW116781   4.809   3.433   5.758
 5294SOL    HW216782   4.668   3.514   5.741
 5295SOL     OW16783   6.382   0.683   2.795
 5295SOL    HW116784   6.320   0.714   2.723
 5295SOL    HW216785   6.332   0.623   2.858
 5296SOL     OW16786   1.856   4.972   0.031
 5296SOL    HW116787   1.862   4.872   0.035
 5296SOL    HW216788   1.869   5.002   6.959
 5297SOL     OW16789   2.516   1.915   1.815
 5297SOL    HW116790   2.475   2.004   1.797
 5297SOL    HW216791   2.547   1.912   1.910
 5298SOL     OW16792   0.299   5.832   1.327
 5298SOL    HW116793   0.217   5.810   1.274
 5298SOL    HW216794   0.282   5.814   1.424
 5299SOL     OW16795   2.694   2.125   0.788
 5299SOL    HW116796   2.714   2.213   0.830
 5299SOL    HW216797   2.736   2.052   0.842
 5300SOL     OW16798   0.639   5.611   2.582
 5300SOL    HW116799   0.616   5.560   2.499
 5300SOL    HW216800   0.736   5.635   2.582
 5301SOL     OW16801   4.475   1.268   0.237
 5301SOL    HW116802   4.380   1.288   0.262
 5301SOL    HW216803   4.476   1.206   0.158
 5302SOL     OW16804   5.531   4.899   3.314
 5302SOL    HW116805   5.486   4.949   3.388
 5302SOL    HW216806   5.570   4.963   3.248
 5303SOL     OW16807   7.013   5.988   4.069
 5303SOL    HW116808   0.005   6.082   4.040
 5303SOL    HW216809   6.919   5.976   4.101
 5304SOL     OW16810   6.200   2.318   5.632
 5304SOL    HW116811   6.115   2.309   5.684
 5304SOL    HW216812   6.275   2.278   5.684
 5305SOL     OW16813   1.520   6.508   4.228
 5305SOL    HW116814   1.538   6.556   4.314
 5305SOL    HW216815   1.522   6.409   4.245
 5306SOL     OW16816   1.246   5.756   5.198
 5306SOL    HW116817   1.198   5.795   5.120
 5306SOL    HW216818   1.343   5.781   5.194
 5307SOL     OW16819   4.181   6.552   0.002
 5307SOL    HW116820   4.088   6.566   6.991
 5307SOL    HW216821   4.183   6.567   0.101
 5308SOL     OW16822   0.508   0.151   4.740
 5308SOL    HW116823   0.538   0.231   4.790
 5308SOL    HW216824   0.587   0.094   4.717
 5309SOL     OW16825   3.178   3.987   2.689
 5309SOL    HW116826   3.124   4.062   2.651
 5309SOL    HW216827   3.118   3.921   2.733
 5310SOL     OW16828   5.429   2.682   2.274
 5310SOL    HW116829   5.473   2.739   2.343
 5310SOL    HW216830   5.333   2.709   2.264
 5311SOL     OW16831   0.105   6.018   0.821
 5311SOL    HW116832   0.093   6.113   0.793
 5311SOL    HW216833   0.095   6.010   0.920
 5312SOL     OW16834   6.719   4.387   2.140
 5312SOL    HW116835   6.664   4.357   2.061
 5312SOL    HW216836   6.723   4.487   2.142
 5313SOL     OW16837   1.183   5.503   0.155
 5313SOL    HW116838   1.190   5.478   0.252
 5313SOL    HW216839   1.090   5.487   0.124
 5314SOL     OW16840   4.077   4.716   0.291
 5314SOL    HW116841   4.078   4.713   0.391
 5314SOL    HW216842   4.006   4.655   0.257
 5315SOL     OW16843   4.259   4.318   1.432
 5315SOL    HW116844   4.350   4.278   1.420
 5315SOL    HW216845   4.220   4.286   1.518
 5316SOL     OW16846   6.203   5.216   5.011
 5316SOL    HW116847   6.294   5.227   4.970
 5316SOL    HW216848   6.171   5.123   4.994
 5317SOL     OW16849   6.080   1.310   4.785
 5317SOL    HW116850   6.091   1.287   4.881
 5317SOL    HW216851   6.168   1.303   4.738
 5318SOL     OW16852   0.198   1.837   5.743
 5318SOL    HW116853   0.180   1.742   5.717
 5318SOL    HW216854   0.200   1.843   5.843
 5319SOL     OW16855   4.507   6.909   0.332
 5319SOL    HW116856   4.417   6.950   0.319
 5319SOL    HW216857   4.535   6.863   0.247
 5320SOL     OW16858   5.761   5.138   6.707
 5320SOL    HW116859   5.722   5.070   6.769
 5320SOL    HW216860   5.731   5.119   6.614
 5321SOL     OW16861   1.054   5.457   2.326
 5321SOL    HW116862   0.965   5.415   2.345
 5321SOL    HW216863   1.126   5.390   2.340
 5322SOL     OW16864   3.961   6.497   6.152
 5322SOL    HW116865   4.015   6.571   6.112
 5322SOL    HW216866   3.874   6.534   6.184
 5323SOL     OW16867   3.685   3.379   0.924
 5323SOL    HW116868   3.774   3.407   0.888
 5323SOL    HW216869   3.618   3.377   0.850
 5324SOL     OW16870   3.799   2.599   1.732
 5324SOL    HW116871   3.886   2.579   1.687
 5324SOL    HW216872   3.775   2.524   1.793
 5325SOL     OW16873   6.176   6.400   3.354
 5325SOL    HW116874   6.165   6.379   3.451
 5325SOL    HW216875   6.139   6.491   3.335
 5326SOL     OW16876   6.033   5.165   2.730
 5326SOL    HW116877   5.980   5.130   2.807
 5326SOL    HW216878   6.125   5.127   2.734
 5327SOL     OW16879   0.819   5.870   6.031
 5327SOL    HW116880   0.898   5.906   5.981
 5327SOL    HW216881   0.791   5.782   5.991
 5328SOL     OW16882   3.859   2.127   5.638
 5328SOL    HW116883   3.923   2.063   5.680
 5328SOL    HW216884   3.812   2.179   5.709
 5329SOL     OW16885   0.585   3.815   6.368
 5329SOL    HW116886   0.511   3.827   6.303
 5329SOL    HW216887   0.634   3.730   6.349
 5330SOL     OW16888   3.279   4.364   0.081
 5330SOL    HW116889   3.377   4.354   0.100
 5330SOL    HW216890   3.229   4.367   0.167
 5331SOL     OW16891   5.164   1.177   1.319
 5331SOL    HW116892   5.174   1.093   1.373
 5331SOL    HW216893   5.254   1.208   1.290
 5332SOL     OW16894   6.473   4.061   6.893
 5332SOL    HW116895   6.472   4.074   6.992
 5332SOL    HW216896   6.379   4.058   6.859
 5333SOL     OW16897   0.983   0.636   3.758
 5333SOL    HW116898   0.940   0.575   3.692
 5333SOL    HW216899   1.066   0.593   3.794
 5334SOL     OW16900   4.089   5.111   5.111
 5334SOL    HW116901   4.164   5.166   5.148
 5334SOL    HW216902   4.020   5.171   5.071
 5335SOL     OW16903   0.290   4.883   2.059
 5335SOL    HW116904   0.280   4.939   1.976
 5335SOL    HW216905   0.343   4.801   2.037
 5336SOL     OW16906   2.267   1.937   3.552
 5336SOL    HW116907   2.185   1.891   3.519
 5336SOL    HW216908   2.335   1.940   3.479
 5337SOL     OW16909   6.036   5.340   2.047
 5337SOL    HW116910   5.977   5.414   2.080
 5337SOL    HW216911   6.080   5.295   2.125
 5338SOL     OW16912   5.519   1.507   0.075
 5338SOL    HW116913   5.612   1.479   0.099
 5338SOL    HW216914   5.457   1.483   0.150
 5339SOL     OW16915   5.677   1.520   2.259
 5339SOL    HW116916   5.724   1.433   2.269
 5339SOL    HW216917   5.594   1.520   2.316
 5340SOL     OW16918   5.731   3.337   1.228
 5340SOL    HW116919   5.807   3.340   1.163
 5340SOL    HW216920   5.748   3.402   1.302
 5341SOL     OW16921   3.378   4.939   4.979
 5341SOL    HW116922   3.367   4.859   5.037
 5341SOL    HW216923   3.378   5.022   5.036
 5342SOL     OW16924   4.717   6.344   4.553
 5342SOL    HW116925   4.779   6.268   4.535
 5342SOL    HW216926   4.689   6.385   4.466
 5343SOL     OW16927   3.789   3.723   5.005
 5343SOL    HW116928   3.783   3.686   4.913
 5343SOL    HW216929   3.699   3.723   5.048
 5344SOL     OW16930   0.514   1.287   6.690
 5344SOL    HW116931   0.585   1.307   6.758
 5344SOL    HW216932   0.503   1.188   6.681
 5345SOL     OW16933   4.920   0.781   6.937
 5345SOL    HW116934   4.892   0.685   6.939
 5345SOL    HW216935   5.017   0.788   6.962
 5346SOL     OW16936   2.165   5.290   4.368
 5346SOL    HW116937   2.206   5.232   4.439
 5346SOL    HW216938   2.068   5.301   4.386
 5347SOL     OW16939   6.924   3.853   3.542
 5347SOL    HW116940   7.020   3.877   3.553
 5347SOL    HW216941   6.916   3.758   3.510
 5348SOL     OW16942   6.940   1.118   5.521
 5348SOL    HW116943   6.910   1.087   5.430
 5348SOL    HW216944   0.009   1.081   5.539
 5349SOL     OW16945   2.374   3.416   1.088
 5349SOL    HW116946   2.422   3.485   1.142
 5349SOL    HW216947   2.295   3.382   1.139
 5350SOL     OW16948   2.149   6.566   5.393
 5350SOL    HW116949   2.199   6.644   5.430
 5350SOL    HW216950   2.206   6.484   5.398
 5351SOL     OW16951   0.441   5.484   2.013
 5351SOL    HW116952   0.369   5.517   2.074
 5351SOL    HW216953   0.436   5.384   2.007
 5352SOL     OW16954   2.341   4.238   2.846
 5352SOL    HW116955   2.370   4.242   2.750
 5352SOL    HW216956   2.275   4.311   2.864
 5353SOL     OW16957   3.832   5.073   3.264
 5353SOL    HW116958   3.883   4.988   3.254
 5353SOL    HW216959   3.845   5.109   3.357
 5354SOL     OW16960   2.617   4.226   0.083
 5354SOL    HW116961   2.630   4.323   0.064
 5354SOL    HW216962   2.522   4.201   0.066
 5355SOL     OW16963   5.718   4.459   4.903
 5355SOL    HW116964   5.620   4.470   4.888
 5355SOL    HW216965   5.749   4.528   4.968
 5356SOL     OW16966   6.923   3.502   1.797
 5356SOL    HW116967   7.005   3.477   1.847
 5356SOL    HW216968   6.853   3.431   1.810
 5357SOL     OW16969   3.963   4.595   1.097
 5357SOL    HW116970   3.880   4.642   1.125
 5357SOL    HW216971   3.942   4.500   1.075
 5358SOL     OW16972   4.673   1.863   0.636
 5358SOL    HW116973   4.600   1.855   0.568
 5358SOL    HW216974   4.674   1.955   0.674
 5359SOL     OW16975   1.943   1.719   6.513
 5359SOL    HW116976   1.957   1.651   6.586
 5359SOL    HW216977   1.942   1.810   6.553
 5360SOL     OW16978   5.571   5.492   3.687
 5360SOL    HW116979   5.486   5.527   3.647
 5360SOL    HW216980   5.565   5.393   3.698
 5361SOL     OW16981   1.808   6.504   3.815
 5361SOL    HW116982   1.773   6.528   3.905
 5361SOL    HW216983   1.750   6.544   3.744
 5362SOL     OW16984   6.225   6.615   2.710
 5362SOL    HW116985   6.282   6.534   2.723
 5362SOL    HW216986   6.171   6.631   2.793
 5363SOL     OW16987   5.125   6.401   5.554
 5363SOL    HW116988   5.189   6.434   5.624
 5363SOL    HW216989   5.175   6.347   5.486
 5364SOL     OW16990   6.028   0.137   2.184
 5364SOL    HW116991   6.038   0.038   2.171
 5364SOL    HW216992   6.118   0.178   2.202
 5365SOL     OW16993   3.586   3.143   2.366
 5365SOL    HW116994   3.509   3.206   2.383
 5365SOL    HW216995   3.607   3.142   2.268
 5366SOL     OW16996   6.922   0.372   2.151
 5366SOL    HW116997   6.936   0.302   2.221
 5366SOL    HW216998   6.875   0.450   2.191
 5367SOL     OW16999   6.621   7.015   1.076
 5367SOL    HW117000   6.657   6.922   1.073
 5367SOL    HW217001   6.612   0.021   1.171
 5368SOL     OW17002   6.484   6.155   2.215
 5368SOL    HW117003   6.543   6.184   2.291
 5368SOL    HW217004   6.507   6.061   2.189
 5369SOL     OW17005   3.040   5.771   1.212
 5369SOL    HW117006   3.075   5.686   1.171
 5369SOL    HW217007   3.117   5.824   1.248
 5370SOL     OW17008   4.535   3.632   1.256
 5370SOL    HW117009   4.490   3.583   1.182
 5370SOL    HW217010   4.634   3.622   1.247
 5371SOL     OW17011   6.996   4.983   5.737
 5371SOL    HW117012   6.919   5.040   5.765
 5371SOL    HW217013   0.003   4.926   5.814
 5372SOL     OW17014   1.711   6.603   2.573
 5372SOL    HW117015   1.800   6.645   2.591
 5372SOL    HW217016   1.725   6.509   2.541
 5373SOL     OW17017   3.784   6.883   5.797
 5373SOL    HW117018   3.729   6.801   5.781
 5373SOL    HW217019   3.730   6.964   5.778
 5374SOL     OW17020   2.549   4.267   1.060
 5374SOL    HW117021   2.576   4.264   0.963
 5374SOL    HW217022   2.630   4.259   1.117
 5375SOL     OW17023   0.787   5.383   5.717
 5375SOL    HW117024   0.846   5.427   5.649
 5375SOL    HW217025   0.697   5.367   5.677
 5376SOL     OW17026   1.296   2.261   2.120
 5376SOL    HW117027   1.273   2.184   2.061
 5376SOL    HW217028   1.293   2.346   2.068
 5377SOL     OW17029   1.238   0.610   2.711
 5377SOL    HW117030   1.223   0.696   2.664
 5377SOL    HW217031   1.198   0.614   2.803
 5378SOL     OW17032   6.624   0.418   1.713
 5378SOL    HW117033   6.661   0.353   1.779
 5378SOL    HW217034   6.695   0.445   1.649
 5379SOL     OW17035   1.085   2.996   5.021
 5379SOL    HW117036   1.041   2.906   5.031
 5379SOL    HW217037   1.181   2.989   5.050
 5380SOL     OW17038   3.006   0.276   1.063
 5380SOL    HW117039   2.988   0.196   1.005
 5380SOL    HW217040   3.081   0.254   1.126
 5381SOL     OW17041   6.094   6.060   2.433
 5381SOL    HW117042   6.018   6.089   2.493
 5381SOL    HW217043   6.158   6.004   2.486
 5382SOL     OW17044   2.937   2.196   2.718
 5382SOL    HW117045   2.876   2.121   2.744
 5382SOL    HW217046   2.976   2.178   2.628
 5383SOL     OW17047   1.820   2.528   4.455
 5383SOL    HW117048   1.772   2.446   4.423
 5383SOL    HW217049   1.889   2.501   4.522
 5384SOL     OW17050   4.872   5.657   4.807
 5384SOL    HW117051   4.917   5.603   4.878
 5384SOL    HW217052   4.793   5.607   4.772
 5385SOL     OW17053   5.654   3.289   4.735
 5385SOL    HW117054   5.747   3.324   4.730
 5385SOL    HW217055   5.630   3.244   4.649
 5386SOL     OW17056   5.777   1.326   4.037
 5386SOL    HW117057   5.705   1.307   4.103
 5386SOL    HW217058   5.740   1.379   3.961
 5387SOL     OW17059   2.544   6.724   3.552
 5387SOL    HW117060   2.638   6.694   3.535
 5387SOL    HW217061   2.481   6.653   3.520
 5388SOL     OW17062   1.661   6.675   2.979
 5388SOL    HW117063   1.655   6.588   2.931
 5388SOL    HW217064   1.583   6.732   2.954
 5389SOL     OW17065   4.155   1.827   4.825
 5389SOL    HW117066   4.160   1.893   4.901
 5389SOL    HW217067   4.247   1.807   4.792
 5390SOL     OW17068   5.069   4.115   3.865
 5390SOL    HW117069   5.151   4.160   3.828
 5390SOL    HW217070   5.096   4.050   3.936
 5391SOL     OW17071   2.881   2.036   0.329
 5391SOL    HW117072   2.848   1.949   0.291
 5391SOL    HW217073   2.810   2.075   0.387
 5392SOL     OW17074   5.101   3.678   2.068
 5392SOL    HW117075   5.115   3.761   2.015
 5392SOL    HW217076   5.026   3.625   2.028
 5393SOL     OW17077   3.982   0.859   5.120
 5393SOL    HW117078   3.922   0.873   5.198
 5393SOL    HW217079   4.061   0.803   5.148
 5394SOL     OW17080   0.644   6.209   0.922
 5394SOL    HW117081   0.692   6.149   0.986
 5394SOL    HW217082   0.549   6.220   0.951
 5395SOL     OW17083   4.607   1.291   1.054
 5395SOL    HW117084   4.688   1.263   1.106
 5395SOL    HW217085   4.635   1.325   0.964
 5396SOL     OW17086   5.489   5.738   1.569
 5396SOL    HW117087   5.410   5.799   1.565
 5396SOL    HW217088   5.482   5.670   1.496
 5397SOL     OW17089   7.001   1.855   1.725
 5397SOL    HW117090   6.985   1.764   1.763
 5397SOL    HW217091   6.928   1.916   1.756
 5398SOL     OW17092   3.356   2.115   3.544
 5398SOL    HW117093   3.263   2.125   3.580
 5398SOL    HW217094   3.423   2.133   3.616
 5399SOL     OW17095   2.677   6.714   5.999
 5399SOL    HW117096   2.679   6.814   5.995
 5399SOL    HW217097   2.718   6.684   6.085
 5400SOL     OW17098   3.141   3.434   0.804
 5400SOL    HW117099   3.107   3.528   0.798
 5400SOL    HW217100   3.146   3.407   0.900
 5401SOL     OW17101   5.779   4.265   2.532
 5401SOL    HW117102   5.768   4.173   2.493
 5401SOL    HW217103   5.812   4.327   2.462
 5402SOL     OW17104   3.178   6.399   0.585
 5402SOL    HW117105   3.226   6.402   0.672
 5402SOL    HW217106   3.243   6.378   0.511
 5403SOL     OW17107   5.326   3.348   6.909
 5403SOL    HW117108   5.269   3.273   6.874
 5403SOL    HW217109   5.268   3.412   6.960
 5404SOL     OW17110   1.298   0.727   1.028
 5404SOL    HW117111   1.386   0.703   0.988
 5404SOL    HW217112   1.229   0.660   0.999
 5405SOL     OW17113   6.066   5.274   0.269
 5405SOL    HW117114   6.003   5.221   0.326
 5405SOL    HW217115   6.090   5.221   0.188
 5406SOL     OW17116   2.295   1.020   4.761
 5406SOL    HW117117   2.384   0.988   4.731
 5406SOL    HW217118   2.261   0.960   4.834
 5407SOL     OW17119   3.067   1.505   0.721
 5407SOL    HW117120   3.160   1.495   0.686
 5407SOL    HW217121   3.030   1.594   0.693
 5408SOL     OW17122   3.090   1.443   4.624
 5408SOL    HW117123   3.171   1.460   4.567
 5408SOL    HW217124   3.009   1.480   4.578
 5409SOL     OW17125   6.805   1.518   2.044
 5409SOL    HW117126   6.774   1.612   2.034
 5409SOL    HW217127   6.787   1.487   2.138
 5410SOL     OW17128   0.729   3.024   6.984
 5410SOL    HW117129   0.819   3.061   6.959
 5410SOL    HW217130   0.670   3.100   7.013
 5411SOL     OW17131   5.308   4.804   0.128
 5411SOL    HW117132   5.295   4.841   0.219
 5411SOL    HW217133   5.406   4.797   0.108
 5412SOL     OW17134   2.415   1.106   6.114
 5412SOL    HW117135   2.512   1.112   6.140
 5412SOL    HW217136   2.378   1.199   6.107
 5413SOL     OW17137   0.554   6.968   6.205
 5413SOL    HW117138   0.455   6.959   6.218
 5413SOL    HW217139   0.599   6.970   6.294
 5414SOL     OW17140   6.665   4.643   5.496
 5414SOL    HW117141   6.726   4.722   5.506
 5414SOL    HW217142   6.662   4.615   5.400
 5415SOL     OW17143   3.340   5.938   0.443
 5415SOL    HW117144   3.262   5.938   0.505
 5415SOL    HW217145   3.384   6.028   0.445
 5416SOL     OW17146   2.533   5.224   5.160
 5416SOL    HW117147   2.532   5.192   5.065
 5416SOL    HW217148   2.444   5.204   5.202
 5417SOL     OW17149   3.714   6.781   4.258
 5417SOL    HW117150   3.772   6.831   4.323
 5417SOL    HW217151   3.766   6.764   4.174
 5418SOL     OW17152   5.310   5.620   4.731
 5418SOL    HW117153   5.398   5.659   4.703
 5418SOL    HW217154   5.272   5.675   4.805
 5419SOL     OW17155   4.634   6.349   0.353
 5419SOL    HW117156   4.538   6.374   0.362
 5419SOL    HW217157   4.643   6.264   0.302
 5420SOL     OW17158   2.297   1.893   0.671
 5420SOL    HW117159   2.384   1.885   0.719
 5420SOL    HW217160   2.237   1.818   0.698
 5421SOL     OW17161   3.464   5.295   1.820
 5421SOL    HW117162   3.438   5.323   1.913
 5421SOL    HW217163   3.404   5.221   1.790
 5422SOL     OW17164   1.994   5.800   4.580
 5422SOL    HW117165   2.093   5.786   4.574
 5422SOL    HW217166   1.975   5.881   4.636
 5423SOL     OW17167   6.177   5.339   0.979
 5423SOL    HW117168   6.248   5.401   0.947
 5423SOL    HW217169   6.087   5.379   0.961
 5424SOL     OW17170   4.928   3.863   4.241
 5424SOL    HW117171   5.012   3.917   4.250
 5424SOL    HW217172   4.917   3.806   4.323
 5425SOL     OW17173   6.248   2.854   4.679
 5425SOL    HW117174   6.341   2.864   4.644
 5425SOL    HW217175   6.184   2.896   4.614
 5426SOL     OW17176   4.350   5.599   2.437
 5426SOL    HW117177   4.258   5.560   2.444
 5426SOL    HW217178   4.343   5.690   2.396
 5427SOL     OW17179   4.920   2.780   0.357
 5427SOL    HW117180   4.913   2.682   0.374
 5427SOL    HW217181   4.862   2.805   0.280
 5428SOL     OW17182   4.911   6.983   2.029
 5428SOL    HW117183   4.836   0.020   2.058
 5428SOL    HW217184   4.880   6.888   2.025
 5429SOL     OW17185   2.063   0.016   4.739
 5429SOL    HW117186   2.073   6.965   4.672
 5429SOL    HW217187   2.012   7.004   4.818
 5430SOL     OW17188   1.979   2.852   5.548
 5430SOL    HW117189   1.997   2.819   5.455
 5430SOL    HW217190   2.024   2.940   5.561
 5431SOL     OW17191   2.959   4.190   6.200
 5431SOL    HW117192   2.925   4.202   6.293
 5431SOL    HW217193   2.971   4.279   6.156
 5432SOL     OW17194   5.080   5.394   0.049
 5432SOL    HW117195   5.125   5.335   7.004
 5432SOL    HW217196   5.089   5.353   0.140
 5433SOL     OW17197   1.787   0.325   1.084
 5433SOL    HW117198   1.694   0.327   1.120
 5433SOL    HW217199   1.785   0.317   0.984
 5434SOL     OW17200   4.620   0.914   4.497
 5434SOL    HW117201   4.709   0.871   4.479
 5434SOL    HW217202   4.629   0.980   4.572
 5435SOL     OW17203   6.336   3.675   1.009
 5435SOL    HW117204   6.292   3.765   1.012
 5435SOL    HW217205   6.298   3.622   0.933
 5436SOL     OW17206   6.589   5.161   4.128
 5436SOL    HW117207   6.676   5.115   4.107
 5436SOL    HW217208   6.566   5.145   4.224
 5437SOL     OW17209   3.822   4.604   5.571
 5437SOL    HW117210   3.888   4.533   5.550
 5437SOL    HW217211   3.773   4.581   5.655
 5438SOL     OW17212   4.981   5.343   2.286
 5438SOL    HW117213   5.043   5.368   2.212
 5438SOL    HW217214   4.886   5.349   2.253
 5439SOL     OW17215   1.147   3.640   0.093
 5439SOL    HW117216   1.092   3.713   0.134
 5439SOL    HW217217   1.103   3.609   0.009
 5440SOL     OW17218   5.666   6.468   3.735
 5440SOL    HW117219   5.677   6.444   3.831
 5440SOL    HW217220   5.643   6.565   3.727
 5441SOL     OW17221   5.466   3.357   2.979
 5441SOL    HW117222   5.427   3.333   2.890
 5441SOL    HW217223   5.433   3.292   3.048
 5442SOL     OW17224   3.606   6.963   3.355
 5442SOL    HW117225   3.595   6.892   3.424
 5442SOL    HW217226   3.521   7.016   3.349
 5443SOL     OW17227   4.147   6.561   3.983
 5443SOL    HW117228   4.202   6.477   3.985
 5443SOL    HW217229   4.098   6.570   4.070
 5444SOL     OW17230   6.953   1.465   3.887
 5444SOL    HW117231   6.927   1.455   3.791
 5444SOL    HW217232   6.875   1.442   3.945
 5445SOL     OW17233   5.049   4.594   3.593
 5445SOL    HW117234   4.996   4.526   3.646
 5445SOL    HW217235   5.145   4.591   3.621
 5446SOL     OW17236   6.097   4.519   4.669
 5446SOL    HW117237   6.104   4.466   4.584
 5446SOL    HW217238   6.081   4.458   4.746
 5447SOL     OW17239   1.876   1.713   1.238
 5447SOL    HW117240   1.877   1.618   1.207
 5447SOL    HW217241   1.956   1.761   1.201
 5448SOL     OW17242   4.763   5.117   3.657
 5448SOL    HW117243   4.795   5.207   3.687
 5448SOL    HW217244   4.829   5.077   3.594
 5449SOL     OW17245   2.463   1.321   1.502
 5449SOL    HW117246   2.428   1.260   1.431
 5449SOL    HW217247   2.389   1.343   1.565
 5450SOL     OW17248   3.645   6.347   1.402
 5450SOL    HW117249   3.552   6.370   1.375
 5450SOL    HW217250   3.679   6.413   1.469
 5451SOL     OW17251   1.625   6.002   3.647
 5451SOL    HW117252   1.586   6.088   3.681
 5451SOL    HW217253   1.551   5.939   3.624
 5452SOL     OW17254   2.605   4.539   1.161
 5452SOL    HW117255   2.568   4.458   1.115
 5452SOL    HW217256   2.563   4.549   1.251
 5453SOL     OW17257   5.003   4.235   2.081
 5453SOL    HW117258   5.058   4.153   2.069
 5453SOL    HW217259   4.926   4.233   2.018
 5454SOL     OW17260   5.358   6.102   1.884
 5454SOL    HW117261   5.343   6.201   1.878
 5454SOL    HW217262   5.318   6.058   1.804
 5455SOL     OW17263   0.266   2.012   3.507
 5455SOL    HW117264   0.205   2.020   3.585
 5455SOL    HW217265   0.338   1.945   3.526
 5456SOL     OW17266   4.060   1.363   6.397
 5456SOL    HW117267   4.000   1.289   6.366
 5456SOL    HW217268   4.145   1.324   6.434
 5457SOL     OW17269   6.279   1.475   0.575
 5457SOL    HW117270   6.270   1.543   0.647
 5457SOL    HW217271   6.365   1.489   0.525
 5458SOL     OW17272   6.839   4.939   1.138
 5458SOL    HW117273   6.818   4.993   1.057
 5458SOL    HW217274   6.924   4.887   1.123
 5459SOL     OW17275   2.036   4.880   4.807
 5459SOL    HW117276   1.953   4.848   4.761
 5459SOL    HW217277   2.011   4.936   4.886
 5460SOL     OW17278   3.003   0.316   2.392
 5460SOL    HW117279   2.988   0.383   2.320
 5460SOL    HW217280   2.983   0.358   2.481
 5461SOL     OW17281   0.806   1.394   5.051
 5461SOL    HW117282   0.711   1.411   5.078
 5461SOL    HW217283   0.810   1.374   4.953
 5462SOL     OW17284   5.429   6.453   6.423
 5462SOL    HW117285   5.386   6.487   6.339
 5462SOL    HW217286   5.426   6.354   6.424
 5463SOL     OW17287   6.664   1.878   6.611
 5463SOL    HW117288   6.599   1.953   6.599
 5463SOL    HW217289   6.620   1.802   6.658
 5464SOL     OW17290   5.881   5.507   5.142
 5464SOL    HW117291   5.967   5.558   5.131
 5464SOL    HW217292   5.814   5.540   5.075
 5465SOL     OW17293   6.894   0.229   3.204
 5465SOL    HW117294   6.945   0.262   3.125
 5465SOL    HW217295   6.870   0.133   3.191
 5466SOL     OW17296   6.256   2.651   5.326
 5466SOL    HW117297   6.320   2.575   5.314
 5466SOL    HW217298   6.220   2.649   5.419
 5467SOL     OW17299   5.829   3.747   3.216
 5467SOL    HW117300   5.755   3.787   3.162
 5467SOL    HW217301   5.794   3.668   3.266
 5468SOL     OW17302   6.992   2.765   4.342
 5468SOL    HW117303   6.924   2.692   4.336
 5468SOL    HW217304   0.045   2.737   4.401
 5469SOL     OW17305   3.425   5.689   6.046
 5469SOL    HW117306   3.466   5.600   6.028
 5469SOL    HW217307   3.407   5.735   5.959
 5470SOL     OW17308   3.669   5.257   3.905
 5470SOL    HW117309   3.660   5.160   3.880
 5470SOL    HW217310   3.761   5.273   3.941
 5471SOL     OW17311   5.541   0.465   2.411
 5471SOL    HW117312   5.488   0.544   2.443
 5471SOL    HW217313   5.580   0.485   2.321
 5472SOL     OW17314   2.846   3.679   6.510
 5472SOL    HW117315   2.820   3.767   6.550
 5472SOL    HW217316   2.929   3.691   6.454
 5473SOL     OW17317   2.013   4.154   0.081
 5473SOL    HW117318   2.060   4.215   0.144
 5473SOL    HW217319   1.938   4.107   0.129
 5474SOL     OW17320   0.390   5.809   4.180
 5474SOL    HW117321   0.459   5.742   4.208
 5474SOL    HW217322   0.303   5.763   4.163
 5475SOL     OW17323   1.635   1.884   0.968
 5475SOL    HW117324   1.712   1.923   0.917
 5475SOL    HW217325   1.602   1.802   0.921
 5476SOL     OW17326   2.250   4.719   4.985
 5476SOL    HW117327   2.318   4.653   5.018
 5476SOL    HW217328   2.234   4.706   4.888
 5477SOL     OW17329   1.634   3.499   3.017
 5477SOL    HW117330   1.605   3.590   3.044
 5477SOL    HW217331   1.611   3.433   3.089
 5478SOL     OW17332   4.879   6.291   5.703
 5478SOL    HW117333   4.859   6.253   5.612
 5478SOL    HW217334   4.967   6.339   5.700
 5479SOL     OW17335   4.337   1.579   4.887
 5479SOL    HW117336   4.368   1.524   4.965
 5479SOL    HW217337   4.237   1.581   4.887
 5480SOL     OW17338   5.741   4.848   5.230
 5480SOL    HW117339   5.799   4.797   5.293
 5480SOL    HW217340   5.648   4.854   5.267
 5481SOL     OW17341   4.961   1.159   4.866
 5481SOL    HW117342   5.048   1.119   4.895
 5481SOL    HW217343   4.900   1.086   4.836
 5482SOL     OW17344   3.366   4.140   2.891
 5482SOL    HW117345   3.405   4.184   2.810
 5482SOL    HW217346   3.288   4.083   2.863
 5483SOL     OW17347   6.661   1.934   5.168
 5483SOL    HW117348   6.730   1.866   5.145
 5483SOL    HW217349   6.617   1.909   5.254
 5484SOL     OW17350   6.178   0.378   3.510
 5484SOL    HW117351   6.255   0.416   3.458
 5484SOL    HW217352   6.164   0.433   3.593
 5485SOL     OW17353   3.098   6.473   4.764
 5485SOL    HW117354   3.168   6.438   4.825
 5485SOL    HW217355   3.085   6.571   4.780
 5486SOL     OW17356   1.286   6.091   4.337
 5486SOL    HW117357   1.207   6.134   4.379
 5486SOL    HW217358   1.279   5.991   4.347
 5487SOL     OW17359   5.512   3.301   6.486
 5487SOL    HW117360   5.582   3.371   6.503
 5487SOL    HW217361   5.492   3.253   6.571
 5488SOL     OW17362   5.501   1.525   1.359
 5488SOL    HW117363   5.467   1.438   1.323
 5488SOL    HW217364   5.447   1.600   1.322
 5489SOL     OW17365   0.927   4.444   1.155
 5489SOL    HW117366   0.913   4.372   1.087
 5489SOL    HW217367   0.842   4.460   1.205
 5490SOL     OW17368   3.424   0.405   1.092
 5490SOL    HW117369   3.459   0.354   1.013
 5490SOL    HW217370   3.402   0.498   1.064
 5491SOL     OW17371   1.903   3.388   6.223
 5491SOL    HW117372   1.943   3.296   6.221
 5491SOL    HW217373   1.920   3.433   6.136
 5492SOL     OW17374   1.149   2.068   6.560
 5492SOL    HW117375   1.075   2.124   6.523
 5492SOL    HW217376   1.232   2.123   6.567
 5493SOL     OW17377   4.068   3.632   4.163
 5493SOL    HW117378   4.094   3.648   4.068
 5493SOL    HW217379   4.095   3.540   4.190
 5494SOL     OW17380   6.092   2.621   0.065
 5494SOL    HW117381   6.178   2.577   0.040
 5494SOL    HW217382   6.094   2.644   0.162
 5495SOL     OW17383   3.502   2.529   1.285
 5495SOL    HW117384   3.481   2.432   1.299
 5495SOL    HW217385   3.419   2.579   1.262
 5496SOL     OW17386   2.431   6.967   3.654
 5496SOL    HW117387   2.436   6.876   3.612
 5496SOL    HW217388   2.340   7.005   3.639
 5497SOL     OW17389   0.101   2.000   3.720
 5497SOL    HW117390   0.020   2.050   3.751
 5497SOL    HW217391   0.106   1.913   3.768
 5498SOL     OW17392   5.155   0.111   1.307
 5498SOL    HW117393   5.237   0.054   1.310
 5498SOL    HW217394   5.132   0.140   1.400
 5499SOL     OW17395   0.763   0.806   3.455
 5499SOL    HW117396   0.673   0.805   3.413
 5499SOL    HW217397   0.819   0.732   3.417
 5500SOL     OW17398   1.991   6.337   6.735
 5500SOL    HW117399   1.918   6.341   6.804
 5500SOL    HW217400   2.055   6.264   6.759
 5501SOL     OW17401   3.792   0.143   1.142
 5501SOL    HW117402   3.831   0.201   1.071
 5501SOL    HW217403   3.704   0.106   1.111
 5502SOL     OW17404   5.485   3.963   0.005
 5502SOL    HW117405   5.440   3.917   6.951
 5502SOL    HW217406   5.444   4.053   0.019
 5503SOL     OW17407   0.239   5.341   3.026
 5503SOL    HW117408   0.169   5.294   2.973
 5503SOL    HW217409   0.295   5.273   3.074
 5504SOL     OW17410   4.157   1.308   5.227
 5504SOL    HW117411   4.083   1.243   5.208
 5504SOL    HW217412   4.122   1.402   5.217
 5505SOL     OW17413   2.011   5.682   4.208
 5505SOL    HW117414   2.107   5.678   4.236
 5505SOL    HW217415   1.965   5.755   4.258
 5506SOL     OW17416   0.519   1.253   6.207
 5506SOL    HW117417   0.575   1.276   6.128
 5506SOL    HW217418   0.561   1.291   6.290
 5507SOL     OW17419   2.440   7.012   3.006
 5507SOL    HW117420   2.537   7.011   3.027
 5507SOL    HW217421   2.398   0.072   3.044
 5508SOL     OW17422   1.866   1.084   6.993
 5508SOL    HW117423   1.823   1.011   0.023
 5508SOL    HW217424   1.938   1.047   6.935
 5509SOL     OW17425   1.102   6.644   1.109
 5509SOL    HW117426   1.062   6.687   1.028
 5509SOL    HW217427   1.039   6.654   1.186
 5510SOL     OW17428   5.572   6.269   0.514
 5510SOL    HW117429   5.543   6.289   0.608
 5510SOL    HW217430   5.649   6.327   0.490
 5511SOL     OW17431   2.756   0.332   4.023
 5511SOL    HW117432   2.853   0.354   4.035
 5511SOL    HW217433   2.743   0.284   3.936
 5512SOL     OW17434   5.732   2.297   1.619
 5512SOL    HW117435   5.666   2.373   1.622
 5512SOL    HW217436   5.820   2.331   1.587
 5513SOL     OW17437   3.968   3.931   5.961
 5513SOL    HW117438   4.005   3.899   6.049
 5513SOL    HW217439   3.918   4.017   5.975
 5514SOL     OW17440   4.792   6.066   2.049
 5514SOL    HW117441   4.888   6.093   2.048
 5514SOL    HW217442   4.737   6.142   2.083
 5515SOL     OW17443   0.048   5.008   1.580
 5515SOL    HW117444   7.018   5.041   1.502
 5515SOL    HW217445   7.009   4.995   1.658
 5516SOL     OW17446   1.080   3.758   6.513
 5516SOL    HW117447   1.010   3.830   6.522
 5516SOL    HW217448   1.043   3.671   6.546
 5517SOL     OW17449   2.113   2.839   2.168
 5517SOL    HW117450   2.113   2.935   2.196
 5517SOL    HW217451   2.049   2.826   2.092
 5518SOL     OW17452   6.260   6.670   6.053
 5518SOL    HW117453   6.238   6.716   6.139
 5518SOL    HW217454   6.265   6.738   5.979
 5519SOL     OW17455   5.319   3.294   2.751
 5519SOL    HW117456   5.264   3.214   2.729
 5519SOL    HW217457   5.277   3.375   2.711
 5520SOL     OW17458   0.207   5.580   2.521
 5520SOL    HW117459   0.157   5.666   2.508
 5520SOL    HW217460   0.216   5.562   2.619
 5521SOL     OW17461   4.316   6.937   2.094
 5521SOL    HW117462   4.268   6.934   2.006
 5521SOL    HW217463   4.278   7.010   2.150
 5522SOL     OW17464   0.053   5.551   0.978
 5522SOL    HW117465   0.083   5.624   0.916
 5522SOL    HW217466   0.126   5.483   0.986
 5523SOL     OW17467   2.941   6.685   2.331
 5523SOL    HW117468   2.871   6.617   2.352
 5523SOL    HW217469   2.928   6.765   2.390
 5524SOL     OW17470   5.156   5.368   4.750
 5524SOL    HW117471   5.195   5.454   4.720
 5524SOL    HW217472   5.220   5.293   4.732
 5525SOL     OW17473   6.609   3.202   6.930
 5525SOL    HW117474   6.567   3.244   7.011
 5525SOL    HW217475   6.626   3.105   6.947
 5526SOL     OW17476   5.429   4.675   4.577
 5526SOL    HW117477   5.347   4.706   4.530
 5526SOL    HW217478   5.469   4.751   4.628
 5527SOL     OW17479   6.810   3.842   4.391
 5527SOL    HW117480   6.750   3.824   4.313
 5527SOL    HW217481   6.870   3.764   4.406
 5528SOL     OW17482   1.274   1.885   0.020
 5528SOL    HW117483   1.337   1.954   7.006
 5528SOL    HW217484   1.208   1.860   6.971
 5529SOL     OW17485   1.870   0.630   4.295
 5529SOL    HW117486   1.859   0.546   4.348
 5529SOL    HW217487   1.819   0.622   4.210
 5530SOL     OW17488   0.348   2.266   2.236
 5530SOL    HW117489   0.369   2.352   2.282
 5530SOL    HW217490   0.328   2.283   2.140
 5531SOL     OW17491   3.812   3.334   2.552
 5531SOL    HW117492   3.810   3.360   2.455
 5531SOL    HW217493   3.765   3.247   2.563
 5532SOL     OW17494   1.412   1.692   0.152
 5532SOL    HW117495   1.356   1.768   0.118
 5532SOL    HW217496   1.379   1.665   0.242
 5533SOL     OW17497   3.068   0.995   3.404
 5533SOL    HW117498   3.021   1.064   3.458
 5533SOL    HW217499   3.070   1.022   3.308
 5534SOL     OW17500   0.742   1.915   5.588
 5534SOL    HW117501   0.662   1.857   5.572
 5534SOL    HW217502   0.781   1.942   5.500
 5535SOL     OW17503   0.630   3.335   4.453
 5535SOL    HW117504   0.605   3.390   4.532
 5535SOL    HW217505   0.556   3.336   4.386
 5536SOL     OW17506   2.838   0.694   4.408
 5536SOL    HW117507   2.884   0.717   4.322
 5536SOL    HW217508   2.762   0.631   4.389
 5537SOL     OW17509   3.051   0.374   4.066
 5537SOL    HW117510   3.096   0.423   4.140
 5537SOL    HW217511   3.100   0.390   3.980
 5538SOL     OW17512   3.397   0.085   5.128
 5538SOL    HW117513   3.406   7.013   5.160
 5538SOL    HW217514   3.352   0.085   5.038
 5539SOL     OW17515   1.540   2.722   0.280
 5539SOL    HW117516   1.570   2.810   0.245
 5539SOL    HW217517   1.554   2.651   0.210
 5540SOL     OW17518   6.245   3.384   2.999
 5540SOL    HW117519   6.327   3.361   2.946
 5540SOL    HW217520   6.215   3.303   3.050
 5541SOL     OW17521   5.583   0.947   6.368
 5541SOL    HW117522   5.615   0.854   6.387
 5541SOL    HW217523   5.501   0.966   6.422
 5542SOL     OW17524   6.240   6.109   6.237
 5542SOL    HW117525   6.330   6.144   6.264
 5542SOL    HW217526   6.240   6.092   6.138
 5543SOL     OW17527   3.289   5.320   5.800
 5543SOL    HW117528   3.208   5.377   5.788
 5543SOL    HW217529   3.350   5.364   5.866
 5544SOL     OW17530   5.361   6.598   6.195
 5544SOL    HW117531   5.443   6.621   6.143
 5544SOL    HW217532   5.282   6.645   6.156
 5545SOL     OW17533   4.482   2.033   3.548
 5545SOL    HW117534   4.459   2.088   3.467
 5545SOL    HW217535   4.485   1.936   3.522
 5546SOL     OW17536   1.112   6.340   4.688
 5546SOL    HW117537   1.029   6.314   4.638
 5546SOL    HW217538   1.173   6.261   4.695
 5547SOL     OW17539   3.778   0.845   4.321
 5547SOL    HW117540   3.806   0.913   4.390
 5547SOL    HW217541   3.689   0.808   4.346
 5548SOL     OW17542   5.722   3.505   4.975
 5548SOL    HW117543   5.644   3.557   4.940
 5548SOL    HW217544   5.801   3.521   4.915
 5549SOL     OW17545   4.425   4.274   0.738
 5549SOL    HW117546   4.491   4.349   0.742
 5549SOL    HW217547   4.341   4.302   0.783
 5550SOL     OW17548   2.421   4.444   2.288
 5550SOL    HW117549   2.502   4.492   2.322
 5550SOL    HW217550   2.351   4.444   2.360
 5551SOL     OW17551   1.943   5.806   3.511
 5551SOL    HW117552   1.941   5.829   3.414
 5551SOL    HW217553   1.850   5.791   3.544
 5552SOL     OW17554   6.459   0.591   6.572
 5552SOL    HW117555   6.550   0.554   6.555
 5552SOL    HW217556   6.411   0.604   6.485
 5553SOL     OW17557   5.008   6.747   0.668
 5553SOL    HW117558   5.079   6.790   0.724
 5553SOL    HW217559   5.050   6.679   0.608
 5554SOL     OW17560   4.317   1.719   6.182
 5554SOL    HW117561   4.241   1.681   6.235
 5554SOL    HW217562   4.349   1.651   6.116
 5555SOL     OW17563   1.199   4.088   3.684
 5555SOL    HW117564   1.179   4.185   3.669
 5555SOL    HW217565   1.150   4.057   3.766
 5556SOL     OW17566   6.725   1.415   3.143
 5556SOL    HW117567   6.745   1.503   3.185
 5556SOL    HW217568   6.753   1.416   3.047
 5557SOL     OW17569   3.148   6.733   2.593
 5557SOL    HW117570   3.077   6.782   2.644
 5557SOL    HW217571   3.180   6.656   2.648
 5558SOL     OW17572   4.333   3.520   5.616
 5558SOL    HW117573   4.420   3.476   5.593
 5558SOL    HW217574   4.273   3.452   5.659
 5559SOL     OW17575   1.908   0.401   1.849
 5559SOL    HW117576   1.822   0.406   1.901
 5559SOL    HW217577   1.894   0.441   1.758
 5560SOL     OW17578   0.766   6.287   2.343
 5560SOL    HW117579   0.855   6.330   2.326
 5560SOL    HW217580   0.746   6.221   2.271
 5561SOL     OW17581   1.106   1.784   4.236
 5561SOL    HW117582   1.176   1.714   4.223
 5561SOL    HW217583   1.057   1.766   4.322
 5562SOL     OW17584   4.209   2.204   6.267
 5562SOL    HW117585   4.242   2.144   6.194
 5562SOL    HW217586   4.250   2.175   6.354
 5563SOL     OW17587   4.054   5.166   1.986
 5563SOL    HW117588   4.037   5.166   2.085
 5563SOL    HW217589   4.152   5.151   1.970
 5564SOL     OW17590   4.548   0.595   1.283
 5564SOL    HW117591   4.598   0.554   1.207
 5564SOL    HW217592   4.613   0.623   1.354
 5565SOL     OW17593   4.696   1.495   6.039
 5565SOL    HW117594   4.719   1.400   6.060
 5565SOL    HW217595   4.758   1.530   5.970
 5566SOL     OW17596   1.571   4.918   6.749
 5566SOL    HW117597   1.615   4.831   6.769
 5566SOL    HW217598   1.485   4.903   6.702
 5567SOL     OW17599   7.014   2.516   1.158
 5567SOL    HW117600   0.009   2.514   1.256
 5567SOL    HW217601   6.969   2.602   1.134
 5568SOL     OW17602   4.413   2.121   3.805
 5568SOL    HW117603   4.322   2.086   3.828
 5568SOL    HW217604   4.430   2.106   3.707
 5569SOL     OW17605   1.337   1.882   3.072
 5569SOL    HW117606   1.364   1.861   2.978
 5569SOL    HW217607   1.397   1.833   3.136
 5570SOL     OW17608   6.348   4.431   5.029
 5570SOL    HW117609   6.443   4.434   5.061
 5570SOL    HW217610   6.329   4.341   4.989
 5571SOL     OW17611   0.061   6.155   0.326
 5571SOL    HW117612   0.039   6.070   0.374
 5571SOL    HW217613   0.003   6.164   0.245
 5572SOL     OW17614   0.962   2.163   5.604
 5572SOL    HW117615   0.997   2.186   5.513
 5572SOL    HW217616   1.021   2.094   5.646
 5573SOL     OW17617   2.040   4.210   5.024
 5573SOL    HW117618   2.125   4.252   4.990
 5573SOL    HW217619   2.063   4.135   5.086
 5574SOL     OW17620   6.914   2.075   2.678
 5574SOL    HW117621   6.933   1.983   2.713
 5574SOL    HW217622   6.902   2.138   2.754
 5575SOL     OW17623   0.043   1.255   0.987
 5575SOL    HW117624   0.013   1.350   0.978
 5575SOL    HW217625   0.123   1.251   1.047
 5576SOL     OW17626   1.298   5.451   1.830
 5576SOL    HW117627   1.251   5.504   1.759
 5576SOL    HW217628   1.265   5.481   1.920
 5577SOL     OW17629   3.047   3.093   5.133
 5577SOL    HW117630   3.062   3.033   5.054
 5577SOL    HW217631   3.084   3.183   5.113
 5578SOL     OW17632   3.359   3.961   0.386
 5578SOL    HW117633   3.328   3.925   0.298
 5578SOL    HW217634   3.281   4.003   0.434
 5579SOL     OW17635   0.955   3.926   6.078
 5579SOL    HW117636   1.036   3.956   6.128
 5579SOL    HW217637   0.912   4.005   6.035
 5580SOL     OW17638   5.360   2.758   5.725
 5580SOL    HW117639   5.364   2.791   5.819
 5580SOL    HW217640   5.425   2.811   5.669
 5581SOL     OW17641   1.620   6.919   1.544
 5581SOL    HW117642   1.598   6.975   1.624
 5581SOL    HW217643   1.696   6.858   1.565
 5582SOL     OW17644   3.250   3.672   4.637
 5582SOL    HW117645   3.246   3.573   4.653
 5582SOL    HW217646   3.236   3.720   4.724
 5583SOL     OW17647   4.506   0.707   2.392
 5583SOL    HW117648   4.506   0.660   2.303
 5583SOL    HW217649   4.419   0.691   2.438
 5584SOL     OW17650   5.674   4.401   4.038
 5584SOL    HW117651   5.624   4.488   4.034
 5584SOL    HW217652   5.658   4.358   4.126
 5585SOL     OW17653   5.058   6.228   3.715
 5585SOL    HW117654   5.030   6.257   3.806
 5585SOL    HW217655   5.058   6.308   3.654
 5586SOL     OW17656   6.944   2.459   6.869
 5586SOL    HW117657   0.001   2.513   6.896
 5586SOL    HW217658   6.931   2.384   6.934
 5587SOL     OW17659   3.935   6.197   2.161
 5587SOL    HW117660   3.995   6.277   2.161
 5587SOL    HW217661   3.990   6.114   2.166
 5588SOL     OW17662   1.932   6.105   2.891
 5588SOL    HW117663   1.932   6.111   2.991
 5588SOL    HW217664   2.013   6.150   2.854
 5589SOL     OW17665   5.950   4.114   5.663
 5589SOL    HW117666   5.943   4.024   5.706
 5589SOL    HW217667   5.935   4.106   5.565
 5590SOL     OW17668   6.367   5.943   3.932
 5590SOL    HW117669   6.286   5.890   3.904
 5590SOL    HW217670   6.414   5.894   4.006
 5591SOL     OW17671   5.776   1.703   0.567
 5591SOL    HW117672   5.706   1.701   0.639
 5591SOL    HW217673   5.797   1.609   0.538
 5592SOL     OW17674   6.793   5.040   2.759
 5592SOL    HW117675   6.701   5.060   2.726
 5592SOL    HW217676   6.788   5.003   2.852
 5593SOL     OW17677   0.171   2.962   6.856
 5593SOL    HW117678   0.191   2.895   6.928
 5593SOL    HW217679   0.222   3.046   6.873
 5594SOL     OW17680   3.392   1.136   6.567
 5594SOL    HW117681   3.322   1.196   6.529
 5594SOL    HW217682   3.467   1.126   6.501
 5595SOL     OW17683   6.428   0.601   5.170
 5595SOL    HW117684   6.469   0.511   5.184
 5595SOL    HW217685   6.498   0.664   5.135
 5596SOL     OW17686   4.724   0.688   3.539
 5596SOL    HW117687   4.630   0.711   3.514
 5596SOL    HW217688   4.768   0.768   3.581
 5597SOL     OW17689   5.858   2.640   5.313
 5597SOL    HW117690   5.948   2.669   5.281
 5597SOL    HW217691   5.864   2.615   5.410
 5598SOL     OW17692   6.348   3.378   3.573
 5598SOL    HW117693   6.257   3.354   3.608
 5598SOL    HW217694   6.416   3.318   3.614
 5599SOL     OW17695   0.750   2.823   1.814
 5599SOL    HW117696   0.719   2.771   1.894
 5599SOL    HW217697   0.842   2.857   1.831
 5600SOL     OW17698   2.082   0.475   2.473
 5600SOL    HW117699   2.147   0.482   2.549
 5600SOL    HW217700   2.031   0.561   2.465
 5601SOL     OW17701   2.716   0.891   6.085
 5601SOL    HW117702   2.709   0.822   6.156
 5601SOL    HW217703   2.638   0.883   6.022
 5602SOL     OW17704   0.138   0.809   1.567
 5602SOL    HW117705   0.095   0.877   1.626
 5602SOL    HW217706   0.108   0.717   1.593
 5603SOL     OW17707   5.428   2.497   0.143
 5603SOL    HW117708   5.448   2.429   0.214
 5603SOL    HW217709   5.512   2.546   0.120
 5604SOL     OW17710   6.496   2.271   4.718
 5604SOL    HW117711   6.417   2.270   4.778
 5604SOL    HW217712   6.567   2.331   4.756
 5605SOL     OW17713   0.440   0.782   4.692
 5605SOL    HW117714   0.467   0.865   4.643
 5605SOL    HW217715   0.494   0.773   4.775
 5606SOL     OW17716   5.203   6.905   0.780
 5606SOL    HW117717   5.287   6.881   0.732
 5606SOL    HW217718   5.223   6.973   0.851
 5607SOL     OW17719   5.989   1.433   3.757
 5607SOL    HW117720   6.044   1.449   3.675
 5607SOL    HW217721   6.023   1.353   3.806
 5608SOL     OW17722   6.836   0.849   3.355
 5608SOL    HW117723   6.766   0.782   3.330
 5608SOL    HW217724   6.794   0.940   3.362
 5609SOL     OW17725   4.232   5.951   1.802
 5609SOL    HW117726   4.136   5.926   1.797
 5609SOL    HW217727   4.241   6.044   1.837
 5610SOL     OW17728   4.609   4.913   1.971
 5610SOL    HW117729   4.637   4.843   2.036
 5610SOL    HW217730   4.632   5.004   2.007
 5611SOL     OW17731   0.799   5.268   3.010
 5611SOL    HW117732   0.819   5.175   3.040
 5611SOL    HW217733   0.713   5.269   2.959
 5612SOL     OW17734   4.416   3.113   6.331
 5612SOL    HW117735   4.356   3.038   6.303
 5612SOL    HW217736   4.362   3.185   6.374
 5613SOL     OW17737   5.549   5.783   5.278
 5613SOL    HW117738   5.645   5.777   5.248
 5613SOL    HW217739   5.513   5.691   5.294
 5614SOL     OW17740   4.995   2.626   4.731
 5614SOL    HW117741   4.946   2.584   4.655
 5614SOL    HW217742   5.093   2.612   4.720
 5615SOL     OW17743   6.464   1.896   3.834
 5615SOL    HW117744   6.389   1.830   3.846
 5615SOL    HW217745   6.467   1.926   3.739
 5616SOL     OW17746   2.536   2.386   5.670
 5616SOL    HW117747   2.484   2.301   5.662
 5616SOL    HW217748   2.558   2.403   5.767
 5617SOL     OW17749   2.305   6.102   5.689
 5617SOL    HW117750   2.237   6.107   5.762
 5617SOL    HW217751   2.263   6.129   5.602
 5618SOL     OW17752   6.682   4.809   4.337
 5618SOL    HW117753   6.587   4.839   4.331
 5618SOL    HW217754   6.708   4.763   4.252
 5619SOL     OW17755   3.930   3.978   4.514
 5619SOL    HW117756   3.984   3.922   4.576
 5619SOL    HW217757   3.954   3.957   4.420
 5620SOL     OW17758   3.708   3.644   0.269
 5620SOL    HW117759   3.745   3.737   0.263
 5620SOL    HW217760   3.714   3.611   0.363
 5621SOL     OW17761   2.290   2.426   0.087
 5621SOL    HW117762   2.364   2.400   0.149
 5621SOL    HW217763   2.322   2.422   7.015
 5622SOL     OW17764   3.988   0.195   5.828
 5622SOL    HW117765   3.915   0.184   5.760
 5622SOL    HW217766   4.066   0.241   5.786
 5623SOL     OW17767   4.833   6.398   5.236
 5623SOL    HW117768   4.738   6.376   5.216
 5623SOL    HW217769   4.888   6.391   5.153
 5624SOL     OW17770   0.845   4.173   3.744
 5624SOL    HW117771   0.878   4.216   3.660
 5624SOL    HW217772   0.754   4.206   3.765
 5625SOL     OW17773   6.672   7.013   5.516
 5625SOL    HW117774   6.618   0.074   5.522
 5625SOL    HW217775   6.705   6.988   5.607
 5626SOL     OW17776   2.580   6.414   3.836
 5626SOL    HW117777   2.546   6.323   3.858
 5626SOL    HW217778   2.671   6.407   3.795
 5627SOL     OW17779   1.041   5.151   6.755
 5627SOL    HW117780   0.964   5.215   6.752
 5627SOL    HW217781   1.005   5.057   6.760
 5628SOL     OW17782   2.075   2.509   2.262
 5628SOL    HW117783   2.137   2.579   2.226
 5628SOL    HW217784   1.992   2.506   2.207
 5629SOL     OW17785   4.343   3.222   1.754
 5629SOL    HW117786   4.384   3.308   1.726
 5629SOL    HW217787   4.415   3.154   1.770
 5630SOL     OW17788   1.970   3.551   6.482
 5630SOL    HW117789   1.923   3.535   6.395
 5630SOL    HW217790   1.918   3.617   6.536
 5631SOL     OW17791   4.749   1.543   2.012
 5631SOL    HW117792   4.806   1.465   1.986
 5631SOL    HW217793   4.767   1.568   2.107
 5632SOL     OW17794   3.218   2.584   5.661
 5632SOL    HW117795   3.179   2.666   5.620
 5632SOL    HW217796   3.209   2.507   5.597
 5633SOL     OW17797   5.767   4.965   4.332
 5633SOL    HW117798   5.866   4.949   4.336
 5633SOL    HW217799   5.742   4.988   4.238
 5634SOL     OW17800   1.924   4.714   3.816
 5634SOL    HW117801   2.021   4.692   3.822
 5634SOL    HW217802   1.893   4.753   3.903
 5635SOL     OW17803   2.253   5.524   7.004
 5635SOL    HW117804   2.323   5.566   6.947
 5635SOL    HW217805   2.297   5.459   0.044
 5636SOL     OW17806   4.995   6.936   4.771
 5636SOL    HW117807   4.950   6.888   4.695
 5636SOL    HW217808   4.957   0.005   4.781
 5637SOL     OW17809   4.581   6.963   3.258
 5637SOL    HW117810   4.482   6.955   3.242
 5637SOL    HW217811   4.623   6.872   3.252
 5638SOL     OW17812   0.145   3.793   0.660
 5638SOL    HW117813   0.215   3.863   0.642
 5638SOL    HW217814   0.187   3.703   0.654
 5639SOL     OW17815   1.996   0.383   2.240
 5639SOL    HW117816   2.024   0.424   2.327
 5639SOL    HW217817   2.072   0.388   2.175
 5640SOL     OW17818   3.165   0.638   3.057
 5640SOL    HW117819   3.226   0.717   3.055
 5640SOL    HW217820   3.213   0.558   3.020
 5641SOL     OW17821   0.681   4.956   5.272
 5641SOL    HW117822   0.607   4.964   5.339
 5641SOL    HW217823   0.651   4.898   5.196
 5642SOL     OW17824   1.027   5.866   4.997
 5642SOL    HW117825   0.927   5.862   5.004
 5642SOL    HW217826   1.053   5.878   4.901
 5643SOL     OW17827   4.184   1.367   3.955
 5643SOL    HW117828   4.197   1.289   4.016
 5643SOL    HW217829   4.115   1.428   3.992
 5644SOL     OW17830   3.372   6.836   5.278
 5644SOL    HW117831   3.281   6.862   5.310
 5644SOL    HW217832   3.437   6.840   5.354
 5645SOL     OW17833   5.883   4.792   2.632
 5645SOL    HW117834   5.979   4.820   2.630
 5645SOL    HW217835   5.850   4.792   2.726
 5646SOL     OW17836   0.798   5.888   4.052
 5646SOL    HW117837   0.819   5.796   4.087
 5646SOL    HW217838   0.815   5.891   3.954
 5647SOL     OW17839   4.770   6.533   0.911
 5647SOL    HW117840   4.672   6.549   0.922
 5647SOL    HW217841   4.784   6.448   0.861
 5648SOL     OW17842   1.354   0.178   3.496
 5648SOL    HW117843   1.274   0.194   3.554
 5648SOL    HW217844   1.323   0.149   3.405
 5649SOL     OW17845   0.322   1.031   4.517
 5649SOL    HW117846   0.414   1.010   4.483
 5649SOL    HW217847   0.265   1.061   4.441
 5650SOL     OW17848   0.621   5.182   0.496
 5650SOL    HW117849   0.623   5.279   0.472
 5650SOL    HW217850   0.531   5.158   0.533
 5651SOL     OW17851   1.602   1.337   1.549
 5651SOL    HW117852   1.692   1.380   1.538
 5651SOL    HW217853   1.591   1.306   1.644
 5652SOL     OW17854   6.164   6.916   2.273
 5652SOL    HW117855   6.177   6.884   2.367
 5652SOL    HW217856   6.110   6.849   2.222
 5653SOL     OW17857   6.559   6.376   6.696
 5653SOL    HW117858   6.598   6.285   6.711
 5653SOL    HW217859   6.592   6.439   6.765
 5654SOL     OW17860   6.238   6.873   5.464
 5654SOL    HW117861   6.172   6.845   5.533
 5654SOL    HW217862   6.331   6.861   5.500
 5655SOL     OW17863   1.207   3.746   4.813
 5655SOL    HW117864   1.182   3.691   4.892
 5655SOL    HW217865   1.247   3.833   4.844
 5656SOL     OW17866   0.157   3.580   6.695
 5656SOL    HW117867   0.154   3.657   6.759
 5656SOL    HW217868   0.098   3.598   6.617
 5657SOL     OW17869   5.586   1.768   0.381
 5657SOL    HW117870   5.656   1.799   0.316
 5657SOL    HW217871   5.631   1.729   0.462
 5658SOL     OW17872   3.712   3.665   6.622
 5658SOL    HW117873   3.734   3.617   6.537
 5658SOL    HW217874   3.697   3.762   6.602
 5659SOL     OW17875   3.936   3.135   4.872
 5659SOL    HW117876   3.968   3.164   4.782
 5659SOL    HW217877   3.945   3.212   4.936
 5660SOL     OW17878   4.814   7.012   0.596
 5660SOL    HW117879   4.785   6.923   0.634
 5660SOL    HW217880   4.814   7.007   0.497
 5661SOL     OW17881   1.615   5.888   5.498
 5661SOL    HW117882   1.527   5.933   5.513
 5661SOL    HW217883   1.680   5.953   5.458
 5662SOL     OW17884   2.601   6.111   3.453
 5662SOL    HW117885   2.635   6.112   3.359
 5662SOL    HW217886   2.651   6.042   3.506
 5663SOL     OW17887   1.596   3.211   0.093
 5663SOL    HW117888   1.603   3.310   0.101
 5663SOL    HW217889   1.641   3.182   0.009
 5664SOL     OW17890   6.792   4.346   4.009
 5664SOL    HW117891   6.799   4.422   3.945
 5664SOL    HW217892   6.793   4.259   3.959
 5665SOL     OW17893   1.973   0.830   0.256
 5665SOL    HW117894   1.966   0.760   0.328
 5665SOL    HW217895   1.886   0.833   0.205
 5666SOL     OW17896   6.048   6.657   2.945
 5666SOL    HW117897   5.981   6.584   2.932
 5666SOL    HW217898   6.081   6.654   3.039
 5667SOL     OW17899   1.668   5.159   4.639
 5667SOL    HW117900   1.763   5.165   4.608
 5667SOL    HW217901   1.661   5.092   4.713
 5668SOL     OW17902   5.021   2.427   3.789
 5668SOL    HW117903   4.922   2.414   3.786
 5668SOL    HW217904   5.063   2.354   3.844
 5669SOL     OW17905   6.710   3.496   6.918
 5669SOL    HW117906   6.723   3.398   6.906
 5669SOL    HW217907   6.747   3.544   6.838
 5670SOL     OW17908   6.882   3.070   4.421
 5670SOL    HW117909   6.843   3.137   4.484
 5670SOL    HW217910   6.972   3.041   4.455
 5671SOL     OW17911   6.393   6.440   6.475
 5671SOL    HW117912   6.431   6.503   6.408
 5671SOL    HW217913   6.462   6.418   6.545
 5672SOL     OW17914   4.310   3.917   6.593
 5672SOL    HW117915   4.304   3.865   6.678
 5672SOL    HW217916   4.297   4.014   6.612
 5673SOL     OW17917   1.185   0.756   2.067
 5673SOL    HW117918   1.214   0.787   1.976
 5673SOL    HW217919   1.088   0.777   2.079
 5674SOL     OW17920   0.420   5.167   4.955
 5674SOL    HW117921   0.349   5.237   4.956
 5674SOL    HW217922   0.392   5.091   5.014
 5675SOL     OW17923   4.228   2.791   6.940
 5675SOL    HW117924   4.205   2.728   6.867
 5675SOL    HW217925   4.160   2.864   6.944
 5676SOL     OW17926   2.402   2.573   2.154
 5676SOL    HW117927   2.476   2.557   2.088
 5676SOL    HW217928   2.314   2.572   2.107
 5677SOL     OW17929   1.015   1.460   0.330
 5677SOL    HW117930   1.015   1.404   0.248
 5677SOL    HW217931   1.091   1.435   0.389
 5678SOL     OW17932   4.212   6.511   2.633
 5678SOL    HW117933   4.222   6.413   2.616
 5678SOL    HW217934   4.134   6.526   2.694
 5679SOL     OW17935   0.306   1.170   3.955
 5679SOL    HW117936   0.250   1.230   4.012
 5679SOL    HW217937   0.303   1.077   3.990
 5680SOL     OW17938   1.646   5.118   6.318
 5680SOL    HW117939   1.648   5.206   6.367
 5680SOL    HW217940   1.739   5.086   6.303
 5681SOL     OW17941   0.170   4.077   1.013
 5681SOL    HW117942   0.259   4.119   1.030
 5681SOL    HW217943   0.167   3.985   1.052
 5682SOL     OW17944   2.295   4.732   5.401
 5682SOL    HW117945   2.372   4.699   5.455
 5682SOL    HW217946   2.320   4.818   5.357
 5683SOL     OW17947   4.569   1.050   6.351
 5683SOL    HW117948   4.580   1.090   6.260
 5683SOL    HW217949   4.486   0.995   6.354
 5684SOL     OW17950   2.771   3.729   5.245
 5684SOL    HW117951   2.817   3.815   5.267
 5684SOL    HW217952   2.672   3.743   5.247
 5685SOL     OW17953   2.184   2.113   2.460
 5685SOL    HW117954   2.219   2.180   2.395
 5685SOL    HW217955   2.245   2.107   2.539
 5686SOL     OW17956   2.857   0.980   6.553
 5686SOL    HW117957   2.830   1.025   6.639
 5686SOL    HW217958   2.908   0.897   6.574
 5687SOL     OW17959   0.739   5.087   0.179
 5687SOL    HW117960   0.762   5.166   0.236
 5687SOL    HW217961   0.743   5.114   0.083
 5688SOL     OW17962   0.286   2.349   1.528
 5688SOL    HW117963   0.265   2.266   1.476
 5688SOL    HW217964   0.383   2.349   1.553
 5689SOL     OW17965   3.492   1.212   0.727
 5689SOL    HW117966   3.549   1.146   0.776
 5689SOL    HW217967   3.444   1.165   0.653
 5690SOL     OW17968   2.467   5.534   0.238
 5690SOL    HW117969   2.548   5.562   0.188
 5690SOL    HW217970   2.413   5.472   0.181
 5691SOL     OW17971   3.386   0.449   2.103
 5691SOL    HW117972   3.358   0.411   2.015
 5691SOL    HW217973   3.333   0.406   2.176
 5692SOL     OW17974   5.583   3.491   1.049
 5692SOL    HW117975   5.622   3.448   1.131
 5692SOL    HW217976   5.590   3.428   0.972
 5693SOL     OW17977   5.379   2.426   2.652
 5693SOL    HW117978   5.284   2.447   2.675
 5693SOL    HW217979   5.436   2.432   2.733
 5694SOL     OW17980   0.683   1.724   3.466
 5694SOL    HW117981   0.758   1.789   3.453
 5694SOL    HW217982   0.705   1.638   3.419
 5695SOL     OW17983   1.657   1.901   3.147
 5695SOL    HW117984   1.625   1.964   3.077
 5695SOL    HW217985   1.750   1.927   3.175
 5696SOL     OW17986   1.042   1.081   3.110
 5696SOL    HW117987   0.987   1.023   3.050
 5696SOL    HW217988   1.018   1.062   3.205
 5697SOL     OW17989   5.464   2.368   0.944
 5697SOL    HW117990   5.497   2.366   1.039
 5697SOL    HW217991   5.541   2.354   0.882
 5698SOL     OW17992   1.271   4.433   3.940
 5698SOL    HW117993   1.300   4.403   4.031
 5698SOL    HW217994   1.173   4.418   3.930
 5699SOL     OW17995   0.478   2.988   3.502
 5699SOL    HW117996   0.407   2.971   3.433
 5699SOL    HW217997   0.481   3.086   3.523
 5700SOL     OW17998   6.984   6.900   3.016
 5700SOL    HW117999   6.954   6.972   2.952
 5700SOL    HW218000   6.914   6.886   3.086
 5701SOL     OW18001   1.555   0.681   2.026
 5701SOL    HW118002   1.508   0.769   2.017
 5701SOL    HW218003   1.530   0.639   2.114
 5702SOL     OW18004   2.580   5.685   4.492
 5702SOL    HW118005   2.680   5.688   4.485
 5702SOL    HW218006   2.547   5.599   4.453
 5703SOL     OW18007   6.494   4.562   1.964
 5703SOL    HW118008   6.454   4.561   2.056
 5703SOL    HW218009   6.514   4.469   1.936
 5704SOL     OW18010   4.787   4.419   3.120
 5704SOL    HW118011   4.831   4.450   3.036
 5704SOL    HW218012   4.830   4.463   3.199
 5705SOL     OW18013   4.875   0.092   0.126
 5705SOL    HW118014   4.801   0.116   0.189
 5705SOL    HW218015   4.835   0.058   0.040
 5706SOL     OW18016   6.876   3.918   1.183
 5706SOL    HW118017   6.822   3.874   1.112
 5706SOL    HW218018   6.898   4.012   1.156
 5707SOL     OW18019   0.224   6.530   0.396
 5707SOL    HW118020   0.236   6.628   0.405
 5707SOL    HW218021   0.310   6.483   0.418
 5708SOL     OW18022   5.315   5.762   2.169
 5708SOL    HW118023   5.233   5.730   2.216
 5708SOL    HW218024   5.292   5.786   2.075
 5709SOL     OW18025   1.078   0.914   2.494
 5709SOL    HW118026   1.117   0.823   2.483
 5709SOL    HW218027   1.127   0.978   2.435
 5710SOL     OW18028   2.325   2.696   0.718
 5710SOL    HW118029   2.239   2.656   0.687
 5710SOL    HW218030   2.310   2.790   0.749
 5711SOL     OW18031   5.577   0.896   2.402
 5711SOL    HW118032   5.513   0.973   2.404
 5711SOL    HW218033   5.574   0.853   2.312
 5712SOL     OW18034   6.356   0.911   6.398
 5712SOL    HW118035   6.408   0.984   6.354
 5712SOL    HW218036   6.350   0.930   6.496
 5713SOL     OW18037   3.589   3.026   2.001
 5713SOL    HW118038   3.517   2.970   2.042
 5713SOL    HW218039   3.645   2.968   1.942
 5714SOL     OW18040   0.507   5.686   0.243
 5714SOL    HW118041   0.573   5.723   0.308
 5714SOL    HW218042   0.414   5.713   0.271
 5715SOL     OW18043   0.838   0.752   2.518
 5715SOL    HW118044   0.867   0.696   2.440
 5715SOL    HW218045   0.908   0.821   2.536
 5716SOL     OW18046   1.866   4.124   6.408
 5716SOL    HW118047   1.875   4.197   6.340
 5716SOL    HW218048   1.773   4.088   6.405
 5717SOL     OW18049   1.679   4.951   1.372
 5717SOL    HW118050   1.680   4.978   1.275
 5717SOL    HW218051   1.614   4.877   1.385
 5718SOL     OW18052   0.156   3.244   5.168
 5718SOL    HW118053   0.115   3.322   5.217
 5718SOL    HW218054   0.165   3.267   5.071
 5719SOL     OW18055   2.709   2.012   6.425
 5719SOL    HW118056   2.743   1.954   6.498
 5719SOL    HW218057   2.783   2.033   6.361
 5720SOL     OW18058   1.645   5.884   4.811
 5720SOL    HW118059   1.698   5.825   4.872
 5720SOL    HW218060   1.562   5.914   4.858
 5721SOL     OW18061   6.627   3.440   1.220
 5721SOL    HW118062   6.666   3.517   1.169
 5721SOL    HW218063   6.529   3.457   1.234
 5722SOL     OW18064   6.866   1.350   4.944
 5722SOL    HW118065   6.767   1.354   4.950
 5722SOL    HW218066   6.905   1.332   5.034
 5723SOL     OW18067   4.641   2.684   0.728
 5723SOL    HW118068   4.561   2.706   0.785
 5723SOL    HW218069   4.724   2.719   0.772
 5724SOL     OW18070   5.559   2.637   4.658
 5724SOL    HW118071   5.656   2.624   4.679
 5724SOL    HW218072   5.550   2.689   4.573
 5725SOL     OW18073   5.056   5.724   4.590
 5725SOL    HW118074   5.110   5.667   4.653
 5725SOL    HW218075   4.994   5.782   4.643
 5726SOL     OW18076   0.190   5.218   4.652
 5726SOL    HW118077   0.183   5.133   4.704
 5726SOL    HW218078   0.277   5.221   4.604
 5727SOL     OW18079   6.972   1.734   4.044
 5727SOL    HW118080   7.019   1.747   4.131
 5727SOL    HW218081   6.918   1.650   4.047
 5728SOL     OW18082   3.868   0.437   6.002
 5728SOL    HW118083   3.930   0.468   6.075
 5728SOL    HW218084   3.773   0.451   6.031
 5729SOL     OW18085   1.336   0.811   0.662
 5729SOL    HW118086   1.381   0.899   0.677
 5729SOL    HW218087   1.375   0.742   0.723
 5730SOL     OW18088   5.420   4.893   6.644
 5730SOL    HW118089   5.352   4.961   6.618
 5730SOL    HW218090   5.378   4.802   6.644
 5731SOL     OW18091   0.278   6.426   3.728
 5731SOL    HW118092   0.305   6.514   3.766
 5731SOL    HW218093   0.293   6.426   3.629
 5732SOL     OW18094   6.736   5.550   4.885
 5732SOL    HW118095   6.728   5.474   4.821
 5732SOL    HW218096   6.784   5.626   4.842
 5733SOL     OW18097   4.115   6.696   5.486
 5733SOL    HW118098   4.197   6.665   5.534
 5733SOL    HW218099   4.070   6.767   5.540
 5734SOL     OW18100   1.288   6.739   5.676
 5734SOL    HW118101   1.217   6.809   5.685
 5734SOL    HW218102   1.256   6.654   5.718
 5735SOL     OW18103   4.256   2.030   1.768
 5735SOL    HW118104   4.229   2.123   1.792
 5735SOL    HW218105   4.233   1.967   1.842
 5736SOL     OW18106   6.151   4.108   7.022
 5736SOL    HW118107   6.189   4.018   0.022
 5736SOL    HW218108   6.084   4.098   6.948
 5737SOL     OW18109   5.855   6.865   1.212
 5737SOL    HW118110   5.897   6.781   1.245
 5737SOL    HW218111   5.876   6.940   1.275
 5738SOL     OW18112   2.546   2.848   5.951
 5738SOL    HW118113   2.507   2.760   5.977
 5738SOL    HW218114   2.641   2.853   5.982
 5739SOL     OW18115   1.620   0.458   6.074
 5739SOL    HW118116   1.689   0.521   6.108
 5739SOL    HW218117   1.552   0.440   6.145
 5740SOL     OW18118   4.309   3.857   1.289
 5740SOL    HW118119   4.378   3.784   1.287
 5740SOL    HW218120   4.224   3.823   1.249
 5741SOL     OW18121   0.756   4.398   4.356
 5741SOL    HW118122   0.698   4.317   4.342
 5741SOL    HW218123   0.828   4.400   4.287
 5742SOL     OW18124   5.430   6.839   2.118
 5742SOL    HW118125   5.372   6.901   2.171
 5742SOL    HW218126   5.381   6.807   2.037
 5743SOL     OW18127   2.248   5.187   5.172
 5743SOL    HW118128   2.208   5.265   5.124
 5743SOL    HW218129   2.254   5.109   5.111
 5744SOL     OW18130   4.856   0.846   2.076
 5744SOL    HW118131   4.817   0.938   2.075
 5744SOL    HW218132   4.951   0.850   2.046
 5745SOL     OW18133   2.048   1.178   3.844
 5745SOL    HW118134   1.965   1.140   3.803
 5745SOL    HW218135   2.127   1.123   3.816
 5746SOL     OW18136   6.217   6.868   1.617
 5746SOL    HW118137   6.306   6.880   1.662
 5746SOL    HW218138   6.144   6.886   1.683
 5747SOL     OW18139   6.855   4.459   2.931
 5747SOL    HW118140   6.822   4.366   2.950
 5747SOL    HW218141   6.813   4.523   2.995
 5748SOL     OW18142   1.642   5.926   1.044
 5748SOL    HW118143   1.653   5.830   1.021
 5748SOL    HW218144   1.726   5.960   1.088
 5749SOL     OW18145   1.599   0.334   4.634
 5749SOL    HW118146   1.545   0.406   4.676
 5749SOL    HW218147   1.691   0.367   4.614
 5750SOL     OW18148   4.988   6.497   4.415
 5750SOL    HW118149   4.986   6.597   4.411
 5750SOL    HW218150   4.940   6.459   4.336
 5751SOL     OW18151   2.534   2.593   4.784
 5751SOL    HW118152   2.601   2.655   4.743
 5751SOL    HW218153   2.514   2.623   4.877
 5752SOL     OW18154   6.320   0.699   7.003
 5752SOL    HW118155   6.372   0.784   7.007
 5752SOL    HW218156   6.267   0.696   6.919
 5753SOL     OW18157   3.939   3.920   5.492
 5753SOL    HW118158   4.014   3.854   5.495
 5753SOL    HW218159   3.874   3.900   5.565
 5754SOL     OW18160   6.164   4.458   1.743
 5754SOL    HW118161   6.118   4.375   1.710
 5754SOL    HW218162   6.219   4.497   1.669
 5755SOL     OW18163   2.383   3.180   6.288
 5755SOL    HW118164   2.398   3.246   6.361
 5755SOL    HW218165   2.377   3.228   6.201
 5756SOL     OW18166   6.011   6.290   3.750
 5756SOL    HW118167   6.068   6.281   3.832
 5756SOL    HW218168   5.984   6.386   3.739
 5757SOL     OW18169   6.564   6.722   2.619
 5757SOL    HW118170   6.567   6.623   2.633
 5757SOL    HW218171   6.586   6.743   2.524
 5758SOL     OW18172   2.472   0.957   4.517
 5758SOL    HW118173   2.431   0.871   4.549
 5758SOL    HW218174   2.554   0.936   4.463
 5759SOL     OW18175   5.146   1.133   6.597
 5759SOL    HW118176   5.081   1.122   6.521
 5759SOL    HW218177   5.218   1.065   6.588
 5760SOL     OW18178   0.776   4.657   1.034
 5760SOL    HW118179   0.834   4.578   1.051
 5760SOL    HW218180   0.827   4.741   1.054
 5761SOL     OW18181   5.753   0.040   6.303
 5761SOL    HW118182   5.694   6.993   6.344
 5761SOL    HW218183   5.709   0.078   6.222
 5762SOL     OW18184   4.600   5.941   0.188
 5762SOL    HW118185   4.582   5.910   0.281
 5762SOL    HW218186   4.565   5.873   0.123
 5763SOL     OW18187   6.883   0.882   6.926
 5763SOL    HW118188   6.828   0.965   6.917
 5763SOL    HW218189   6.840   0.821   6.993
 5764SOL     OW18190   4.568   4.588   6.311
 5764SOL    HW118191   4.655   4.577   6.360
 5764SOL    HW218192   4.586   4.591   6.213
 5765SOL     OW18193   6.890   4.099   0.038
 5765SOL    HW118194   6.860   4.066   0.128
 5765SOL    HW218195   6.819   4.158   7.022
 5766SOL     OW18196   2.612   2.387   0.451
 5766SOL    HW118197   2.542   2.385   0.522
 5766SOL    HW218198   2.581   2.444   0.375
 5767SOL     OW18199   2.353   6.733   0.366
 5767SOL    HW118200   2.333   6.647   0.319
 5767SOL    HW218201   2.374   6.715   0.462
 5768SOL     OW18202   0.593   0.242   2.934
 5768SOL    HW118203   0.565   0.298   2.855
 5768SOL    HW218204   0.654   0.169   2.903
 5769SOL     OW18205   2.140   6.399   4.259
 5769SOL    HW118206   2.175   6.421   4.350
 5769SOL    HW218207   2.080   6.473   4.227
 5770SOL     OW18208   6.088   0.369   6.675
 5770SOL    HW118209   6.028   0.416   6.610
 5770SOL    HW218210   6.047   0.283   6.703
 5771SOL     OW18211   1.303   6.323   2.831
 5771SOL    HW118212   1.383   6.296   2.885
 5771SOL    HW218213   1.323   6.408   2.782
 5772SOL     OW18214   6.464   2.705   0.324
 5772SOL    HW118215   6.482   2.615   0.362
 5772SOL    HW218216   6.381   2.743   0.365
 5773SOL     OW18217   4.846   1.128   4.252
 5773SOL    HW118218   4.873   1.078   4.334
 5773SOL    HW218219   4.916   1.118   4.182
 5774SOL     OW18220   2.638   5.149   3.694
 5774SOL    HW118221   2.564   5.117   3.753
 5774SOL    HW218222   2.616   5.241   3.661
 5775SOL     OW18223   1.663   0.406   1.979
 5775SOL    HW118224   1.624   0.498   1.984
 5775SOL    HW218225   1.593   0.342   1.947
 5776SOL     OW18226   6.706   1.288   6.106
 5776SOL    HW118227   6.787   1.230   6.098
 5776SOL    HW218228   6.633   1.238   6.152
 5777SOL     OW18229   6.215   0.821   4.320
 5777SOL    HW118230   6.138   0.824   4.256
 5777SOL    HW218231   6.216   0.733   4.367
 5778SOL     OW18232   1.966   0.142   1.497
 5778SOL    HW118233   1.935   0.179   1.585
 5778SOL    HW218234   1.888   0.139   1.434
 5779SOL     OW18235   4.032   1.273   0.489
 5779SOL    HW118236   4.039   1.283   0.588
 5779SOL    HW218237   3.955   1.213   0.467
 5780SOL     OW18238   5.889   5.763   3.023
 5780SOL    HW118239   5.913   5.696   3.093
 5780SOL    HW218240   5.825   5.830   3.060
 5781SOL     OW18241   1.018   3.857   4.653
 5781SOL    HW118242   1.087   3.799   4.697
 5781SOL    HW218243   1.024   3.950   4.689
 5782SOL     OW18244   1.706   0.867   1.202
 5782SOL    HW118245   1.699   0.933   1.277
 5782SOL    HW218246   1.730   0.915   1.117
 5783SOL     OW18247   2.013   1.261   0.924
 5783SOL    HW118248   1.927   1.214   0.943
 5783SOL    HW218249   2.090   1.199   0.942
 5784SOL     OW18250   0.301   6.837   6.892
 5784SOL    HW118251   0.370   6.765   6.882
 5784SOL    HW218252   0.330   6.902   6.962
 5785SOL     OW18253   1.826   1.767   1.784
 5785SOL    HW118254   1.896   1.733   1.847
 5785SOL    HW218255   1.800   1.694   1.721
 5786SOL     OW18256   0.783   3.866   0.582
 5786SOL    HW118257   0.863   3.889   0.527
 5786SOL    HW218258   0.790   3.772   0.615
 5787SOL     OW18259   4.587   2.547   4.733
 5787SOL    HW118260   4.572   2.559   4.634
 5787SOL    HW218261   4.678   2.506   4.747
 5788SOL     OW18262   3.306   0.845   1.632
 5788SOL    HW118263   3.217   0.882   1.606
 5788SOL    HW218264   3.330   0.768   1.573
 5789SOL     OW18265   3.437   3.152   5.974
 5789SOL    HW118266   3.499   3.160   5.896
 5789SOL    HW218267   3.448   3.063   6.017
 5790SOL     OW18268   0.440   5.013   4.732
 5790SOL    HW118269   0.370   4.946   4.756
 5790SOL    HW218270   0.441   5.086   4.800
 5791SOL     OW18271   2.842   2.293   2.290
 5791SOL    HW118272   2.886   2.287   2.200
 5791SOL    HW218273   2.757   2.241   2.288
 5792SOL     OW18274   5.547   3.879   2.277
 5792SOL    HW118275   5.452   3.902   2.299
 5792SOL    HW218276   5.553   3.781   2.255
 5793SOL     OW18277   5.752   0.614   4.717
 5793SOL    HW118278   5.706   0.698   4.747
 5793SOL    HW218279   5.768   0.556   4.797
 5794SOL     OW18280   3.113   6.784   6.992
 5794SOL    HW118281   3.130   6.768   6.894
 5794SOL    HW218282   3.175   6.855   0.002
 5795SOL     OW18283   6.953   0.015   1.015
 5795SOL    HW118284   6.864   7.008   0.980
 5795SOL    HW218285   6.988   0.091   0.959
 5796SOL     OW18286   4.164   0.667   6.626
 5796SOL    HW118287   4.169   0.624   6.536
 5796SOL    HW218288   4.148   0.765   6.615
 5797SOL     OW18289   5.157   1.297   0.296
 5797SOL    HW118290   5.166   1.198   0.295
 5797SOL    HW218291   5.102   1.325   0.374
 5798SOL     OW18292   0.021   4.277   4.611
 5798SOL    HW118293   0.040   4.184   4.582
 5798SOL    HW218294   0.039   4.340   4.535
 5799SOL     OW18295   0.229   0.294   3.837
 5799SOL    HW118296   0.258   0.322   3.745
 5799SOL    HW218297   0.198   0.374   3.888
 5800SOL     OW18298   0.942   6.708   1.791
 5800SOL    HW118299   0.891   6.728   1.874
 5800SOL    HW218300   1.040   6.726   1.808
 5801SOL     OW18301   1.850   2.393   3.620
 5801SOL    HW118302   1.832   2.436   3.708
 5801SOL    HW218303   1.912   2.450   3.567
 5802SOL     OW18304   6.234   3.315   2.590
 5802SOL    HW118305   6.268   3.397   2.635
 5802SOL    HW218306   6.160   3.275   2.644
 5803SOL     OW18307   1.395   4.982   3.587
 5803SOL    HW118308   1.484   5.004   3.626
 5803SOL    HW218309   1.368   4.890   3.614
 5804SOL     OW18310   0.007   5.666   3.049
 5804SOL    HW118311   6.934   5.638   3.048
 5804SOL    HW218312   0.016   5.758   3.010
 5805SOL     OW18313   1.594   2.467   0.466
 5805SOL    HW118314   1.540   2.496   0.545
 5805SOL    HW218315   1.551   2.498   0.382
 5806SOL     OW18316   0.263   4.939   5.102
 5806SOL    HW118317   0.270   4.839   5.106
 5806SOL    HW218318   0.198   4.964   5.030
 5807SOL     OW18319   1.095   5.650   1.210
 5807SOL    HW118320   1.027   5.623   1.143
 5807SOL    HW218321   1.143   5.732   1.177
 5808SOL     OW18322   6.859   6.682   4.691
 5808SOL    HW118323   6.887   6.603   4.636
 5808SOL    HW218324   6.879   6.766   4.640
 5809SOL     OW18325   6.342   2.066   5.411
 5809SOL    HW118326   6.273   1.993   5.404
 5809SOL    HW218327   6.407   2.044   5.483
 5810SOL     OW18328   4.580   1.163   5.745
 5810SOL    HW118329   4.607   1.095   5.813
 5810SOL    HW218330   4.501   1.130   5.694
 5811SOL     OW18331   3.214   1.618   5.141
 5811SOL    HW118332   3.118   1.592   5.132
 5811SOL    HW218333   3.267   1.573   5.069
 5812SOL     OW18334   5.046   3.184   5.772
 5812SOL    HW118335   4.950   3.160   5.786
 5812SOL    HW218336   5.103   3.126   5.830
 5813SOL     OW18337   2.858   0.464   0.768
 5813SOL    HW118338   2.759   0.453   0.776
 5813SOL    HW218339   2.901   0.375   0.749
 5814SOL     OW18340   0.289   2.841   2.119
 5814SOL    HW118341   0.267   2.814   2.025
 5814SOL    HW218342   0.379   2.885   2.121
 5815SOL     OW18343   4.709   1.714   4.272
 5815SOL    HW118344   4.777   1.738   4.203
 5815SOL    HW218345   4.663   1.629   4.246
 5816SOL     OW18346   6.192   4.812   0.720
 5816SOL    HW118347   6.105   4.789   0.676
 5816SOL    HW218348   6.194   4.772   0.812
 5817SOL     OW18349   6.097   5.043   5.701
 5817SOL    HW118350   6.093   5.117   5.769
 5817SOL    HW218351   6.192   5.015   5.689
 5818SOL     OW18352   6.992   5.493   5.300
 5818SOL    HW118353   0.070   5.497   5.307
 5818SOL    HW218354   6.967   5.436   5.222
 5819SOL     OW18355   3.183   5.259   6.753
 5819SOL    HW118356   3.123   5.338   6.740
 5819SOL    HW218357   3.202   5.216   6.665
 5820SOL     OW18358   4.553   4.486   2.791
 5820SOL    HW118359   4.486   4.522   2.726
 5820SOL    HW218360   4.584   4.396   2.760
 5821SOL     OW18361   6.608   0.476   1.121
 5821SOL    HW118362   6.624   0.411   1.046
 5821SOL    HW218363   6.649   0.441   1.205
 5822SOL     OW18364   1.983   2.414   1.641
 5822SOL    HW118365   1.918   2.338   1.647
 5822SOL    HW218366   2.003   2.434   1.545
 5823SOL     OW18367   2.822   6.855   4.790
 5823SOL    HW118368   2.824   6.767   4.743
 5823SOL    HW218369   2.750   6.855   4.859
 5824SOL     OW18370   0.490   6.086   3.722
 5824SOL    HW118371   0.412   6.096   3.661
 5824SOL    HW218372   0.482   6.150   3.798
 5825SOL     OW18373   0.364   5.953   5.150
 5825SOL    HW118374   0.462   5.974   5.152
 5825SOL    HW218375   0.326   5.959   5.243
 5826SOL     OW18376   0.635   6.076   6.029
 5826SOL    HW118377   0.691   6.148   5.989
 5826SOL    HW218378   0.691   5.995   6.046
 5827SOL     OW18379   1.203   3.258   4.691
 5827SOL    HW118380   1.243   3.182   4.639
 5827SOL    HW218381   1.246   3.344   4.664
 5828SOL     OW18382   4.984   1.008   3.309
 5828SOL    HW118383   5.067   1.056   3.337
 5828SOL    HW218384   5.002   0.953   3.227
 5829SOL     OW18385   1.170   0.771   4.834
 5829SOL    HW118386   1.187   0.695   4.897
 5829SOL    HW218387   1.238   0.843   4.850
 5830SOL     OW18388   4.559   0.261   5.360
 5830SOL    HW118389   4.656   0.286   5.364
 5830SOL    HW218390   4.550   0.162   5.353
 5831SOL     OW18391   1.756   1.330   5.729
 5831SOL    HW118392   1.673   1.385   5.742
 5831SOL    HW218393   1.778   1.283   5.814
 5832SOL     OW18394   3.789   4.458   0.373
 5832SOL    HW118395   3.735   4.410   0.442
 5832SOL    HW218396   3.764   4.425   0.282
 5833SOL     OW18397   4.267   3.551   5.202
 5833SOL    HW118398   4.365   3.562   5.221
 5833SOL    HW218399   4.228   3.486   5.266
 5834SOL     OW18400   6.641   4.122   6.650
 5834SOL    HW118401   6.561   4.153   6.598
 5834SOL    HW218402   6.622   4.133   6.748
 5835SOL     OW18403   5.938   1.819   2.783
 5835SOL    HW118404   6.025   1.770   2.782
 5835SOL    HW218405   5.863   1.756   2.760
 5836SOL     OW18406   2.890   6.796   2.085
 5836SOL    HW118407   2.921   6.782   2.179
 5836SOL    HW218408   2.831   6.877   2.081
 5837SOL     OW18409   3.760   3.423   6.771
 5837SOL    HW118410   3.741   3.513   6.731
 5837SOL    HW218411   3.760   3.430   6.871
 5838SOL     OW18412   3.388   2.012   1.824
 5838SOL    HW118413   3.444   2.070   1.765
 5838SOL    HW218414   3.412   2.028   1.919
 5839SOL     OW18415   0.810   1.732   0.616
 5839SOL    HW118416   0.774   1.705   0.705
 5839SOL    HW218417   0.784   1.827   0.596
 5840SOL     OW18418   0.836   3.582   0.665
 5840SOL    HW118419   0.881   3.625   0.743
 5840SOL    HW218420   0.905   3.536   0.608
 5841SOL     OW18421   5.509   0.756   1.646
 5841SOL    HW118422   5.468   0.781   1.734
 5841SOL    HW218423   5.515   0.656   1.639
 5842SOL     OW18424   4.911   2.422   2.021
 5842SOL    HW118425   4.875   2.437   1.929
 5842SOL    HW218426   4.887   2.500   2.079
 5843SOL     OW18427   1.111   4.353   1.865
 5843SOL    HW118428   1.039   4.420   1.882
 5843SOL    HW218429   1.069   4.265   1.842
 5844SOL     OW18430   1.398   6.094   5.440
 5844SOL    HW118431   1.380   6.172   5.500
 5844SOL    HW218432   1.383   6.120   5.345
 5845SOL     OW18433   0.945   0.313   2.091
 5845SOL    HW118434   0.859   0.349   2.126
 5845SOL    HW218435   0.962   0.222   2.131
 5846SOL     OW18436   5.514   3.458   5.367
 5846SOL    HW118437   5.457   3.520   5.313
 5846SOL    HW218438   5.464   3.430   5.449
 5847SOL     OW18439   2.775   2.574   1.726
 5847SOL    HW118440   2.782   2.557   1.628
 5847SOL    HW218441   2.849   2.526   1.773
 5848SOL     OW18442   1.642   5.679   3.583
 5848SOL    HW118443   1.725   5.622   3.584
 5848SOL    HW218444   1.576   5.642   3.649
 5849SOL     OW18445   1.932   6.957   4.940
 5849SOL    HW118446   1.846   6.915   4.912
 5849SOL    HW218447   1.913   0.011   5.001
 5850SOL     OW18448   0.060   3.185   2.009
 5850SOL    HW118449   0.068   3.284   1.998
 5850SOL    HW218450   0.042   3.164   2.105
 5851SOL     OW18451   5.290   3.879   4.020
 5851SOL    HW118452   5.241   3.848   3.938
 5851SOL    HW218453   5.261   3.825   4.099
 5852SOL     OW18454   4.670   6.025   2.649
 5852SOL    HW118455   4.677   6.125   2.643
 5852SOL    HW218456   4.601   6.002   2.718
 5853SOL     OW18457   4.246   4.981   5.850
 5853SOL    HW118458   4.287   4.933   5.927
 5853SOL    HW218459   4.258   4.926   5.767
 5854SOL     OW18460   4.266   4.429   5.586
 5854SOL    HW118461   4.302   4.410   5.494
 5854SOL    HW218462   4.325   4.387   5.654
 5855SOL     OW18463   1.403   1.387   4.808
 5855SOL    HW118464   1.361   1.469   4.848
 5855SOL    HW218465   1.430   1.407   4.714
 5856SOL     OW18466   1.228   6.304   3.266
 5856SOL    HW118467   1.321   6.298   3.301
 5856SOL    HW218468   1.165   6.321   3.342
 5857SOL     OW18469   6.381   3.485   5.041
 5857SOL    HW118470   6.468   3.435   5.040
 5857SOL    HW218471   6.310   3.431   4.997
 5858SOL     OW18472   2.197   2.422   3.108
 5858SOL    HW118473   2.255   2.493   3.069
 5858SOL    HW218474   2.254   2.345   3.139
 5859SOL     OW18475   6.448   6.220   1.276
 5859SOL    HW118476   6.484   6.301   1.323
 5859SOL    HW218477   6.522   6.155   1.259
 5860SOL     OW18478   6.973   5.277   2.944
 5860SOL    HW118479   6.973   5.377   2.947
 5860SOL    HW218480   6.964   5.246   2.849
 5861SOL     OW18481   5.393   0.801   4.061
 5861SOL    HW118482   5.429   0.890   4.087
 5861SOL    HW218483   5.329   0.811   3.985
 5862SOL     OW18484   5.954   5.225   1.468
 5862SOL    HW118485   6.005   5.147   1.432
 5862SOL    HW218486   5.870   5.193   1.512
 5863SOL     OW18487   2.901   2.099   4.655
 5863SOL    HW118488   2.988   2.093   4.606
 5863SOL    HW218489   2.900   2.181   4.712
 5864SOL     OW18490   3.192   3.426   2.461
 5864SOL    HW118491   3.282   3.381   2.462
 5864SOL    HW218492   3.195   3.505   2.399
 5865SOL     OW18493   5.648   0.567   5.119
 5865SOL    HW118494   5.613   0.640   5.177
 5865SOL    HW218495   5.635   0.479   5.165
 5866SOL     OW18496   3.562   3.243   1.597
 5866SOL    HW118497   3.541   3.285   1.508
 5866SOL    HW218498   3.624   3.166   1.584
 5867SOL     OW18499   2.200   3.216   1.495
 5867SOL    HW118500   2.266   3.229   1.569
 5867SOL    HW218501   2.110   3.251   1.523
 5868SOL     OW18502   1.836   1.489   6.131
 5868SOL    HW118503   1.801   1.571   6.084
 5868SOL    HW218504   1.759   1.432   6.160
 5869SOL     OW18505   1.984   4.782   2.723
 5869SOL    HW118506   1.885   4.793   2.724
 5869SOL    HW218507   2.027   4.870   2.702
 5870SOL     OW18508   4.975   6.430   4.991
 5870SOL    HW118509   5.031   6.414   4.909
 5870SOL    HW218510   4.951   6.527   4.997
 5871SOL     OW18511   3.875   3.167   1.869
 5871SOL    HW118512   3.957   3.173   1.926
 5871SOL    HW218513   3.830   3.080   1.886
 5872SOL     OW18514   4.198   6.724   1.128
 5872SOL    HW118515   4.199   6.809   1.181
 5872SOL    HW218516   4.252   6.655   1.176
 5873SOL     OW18517   3.309   6.133   2.228
 5873SOL    HW118518   3.332   6.047   2.274
 5873SOL    HW218519   3.372   6.149   2.153
 5874SOL     OW18520   2.390   4.326   4.564
 5874SOL    HW118521   2.352   4.312   4.655
 5874SOL    HW218522   2.476   4.375   4.570
 5875SOL     OW18523   3.865   1.477   0.403
 5875SOL    HW118524   3.900   1.570   0.390
 5875SOL    HW218525   3.942   1.414   0.416
 5876SOL     OW18526   3.973   3.596   1.604
 5876SOL    HW118527   3.977   3.581   1.506
 5876SOL    HW218528   3.970   3.694   1.623
 5877SOL     OW18529   6.314   6.462   1.016
 5877SOL    HW118530   6.413   6.445   1.018
 5877SOL    HW218531   6.286   6.487   0.924
 5878SOL     OW18532   7.003   5.616   4.308
 5878SOL    HW118533   0.032   5.667   4.240
 5878SOL    HW218534   0.015   5.523   4.313
 5879SOL     OW18535   1.342   3.892   6.903
 5879SOL    HW118536   1.423   3.948   6.890
 5879SOL    HW218537   1.266   3.948   6.935
 5880SOL     OW18538   4.282   3.991   0.151
 5880SOL    HW118539   4.274   3.974   0.249
 5880SOL    HW218540   4.330   3.915   0.108
 5881SOL     OW18541   0.385   5.779   2.796
 5881SOL    HW118542   0.334   5.851   2.845
 5881SOL    HW218543   0.345   5.690   2.818
 5882SOL     OW18544   0.099   6.425   0.949
 5882SOL    HW118545   0.101   6.515   0.905
 5882SOL    HW218546   0.089   6.354   0.879
 5883SOL     OW18547   0.929   1.357   6.283
 5883SOL    HW118548   0.971   1.415   6.353
 5883SOL    HW218549   0.881   1.414   6.217
 5884SOL     OW18550   2.856   1.488   4.417
 5884SOL    HW118551   2.864   1.538   4.331
 5884SOL    HW218552   2.807   1.545   4.484
 5885SOL     OW18553   0.466   0.594   2.737
 5885SOL    HW118554   0.406   0.560   2.809
 5885SOL    HW218555   0.501   0.684   2.761
 5886SOL     OW18556   0.113   2.421   4.580
 5886SOL    HW118557   0.027   2.375   4.556
 5886SOL    HW218558   0.170   2.430   4.498
 5887SOL     OW18559   2.891   1.417   3.585
 5887SOL    HW118560   2.798   1.442   3.557
 5887SOL    HW218561   2.951   1.419   3.505
 5888SOL     OW18562   3.052   0.963   2.026
 5888SOL    HW118563   3.052   0.863   2.016
 5888SOL    HW218564   3.057   0.987   2.123
 5889SOL     OW18565   1.395   6.714   1.430
 5889SOL    HW118566   1.353   6.804   1.442
 5889SOL    HW218567   1.482   6.710   1.480
 5890SOL     OW18568   1.945   0.884   4.224
 5890SOL    HW118569   1.927   0.787   4.245
 5890SOL    HW218570   1.978   0.892   4.130
 5891SOL     OW18571   3.173   3.199   5.890
 5891SOL    HW118572   3.166   3.132   5.816
 5891SOL    HW218573   3.265   3.196   5.930
 5892SOL     OW18574   0.273   5.295   1.412
 5892SOL    HW118575   0.343   5.364   1.430
 5892SOL    HW218576   0.315   5.205   1.409
 5893SOL     OW18577   1.629   4.302   4.568
 5893SOL    HW118578   1.641   4.377   4.634
 5893SOL    HW218579   1.616   4.340   4.477
 5894SOL     OW18580   6.556   5.199   4.417
 5894SOL    HW118581   6.606   5.286   4.409
 5894SOL    HW218582   6.465   5.217   4.454
 5895SOL     OW18583   5.170   3.447   4.163
 5895SOL    HW118584   5.191   3.369   4.104
 5895SOL    HW218585   5.074   3.470   4.155
 5896SOL     OW18586   4.348   0.945   6.968
 5896SOL    HW118587   4.358   0.984   6.876
 5896SOL    HW218588   4.271   0.990   7.015
 5897SOL     OW18589   4.141   0.825   1.444
 5897SOL    HW118590   4.191   0.773   1.375
 5897SOL    HW218591   4.154   0.783   1.534
 5898SOL     OW18592   2.490   6.478   3.122
 5898SOL    HW118593   2.573   6.423   3.130
 5898SOL    HW218594   2.451   6.493   3.213
 5899SOL     OW18595   5.158   6.548   5.875
 5899SOL    HW118596   5.149   6.583   5.968
 5899SOL    HW218597   5.120   6.456   5.869
 5900SOL     OW18598   5.137   5.072   3.397
 5900SOL    HW118599   5.048   5.035   3.425
 5900SOL    HW218600   5.136   5.091   3.299
 5901SOL     OW18601   2.631   0.522   0.249
 5901SOL    HW118602   2.680   0.531   0.162
 5901SOL    HW218603   2.594   0.430   0.257
 5902SOL     OW18604   6.744   2.454   5.897
 5902SOL    HW118605   6.780   2.545   5.877
 5902SOL    HW218606   6.740   2.401   5.812
 5903SOL     OW18607   3.984   3.751   7.004
 5903SOL    HW118608   3.898   3.756   6.954
 5903SOL    HW218609   3.983   3.819   0.055
 5904SOL     OW18610   1.016   3.593   2.069
 5904SOL    HW118611   0.943   3.574   2.003
 5904SOL    HW218612   0.992   3.673   2.124
 5905SOL     OW18613   6.387   6.072   2.813
 5905SOL    HW118614   6.374   6.160   2.766
 5905SOL    HW218615   6.302   6.047   2.859
 5906SOL     OW18616   4.400   2.366   3.573
 5906SOL    HW118617   4.322   2.315   3.609
 5906SOL    HW218618   4.413   2.343   3.476
 5907SOL     OW18619   0.921   4.901   1.038
 5907SOL    HW118620   0.870   4.957   0.973
 5907SOL    HW218621   1.012   4.940   1.051
 5908SOL     OW18622   0.143   2.614   6.921
 5908SOL    HW118623   0.164   2.665   7.005
 5908SOL    HW218624   0.227   2.597   6.870
 5909SOL     OW18625   6.703   5.577   0.791
 5909SOL    HW118626   6.757   5.497   0.816
 5909SOL    HW218627   6.607   5.551   0.779
 5910SOL     OW18628   0.241   3.104   4.072
 5910SOL    HW118629   0.258   3.099   3.974
 5910SOL    HW218630   0.316   3.060   4.122
 5911SOL     OW18631   6.555   6.766   6.494
 5911SOL    HW118632   6.567   6.701   6.418
 5911SOL    HW218633   6.583   6.857   6.463
 5912SOL     OW18634   0.061   0.752   5.720
 5912SOL    HW118635   0.090   0.675   5.777
 5912SOL    HW218636   0.080   0.731   5.624
 5913SOL     OW18637   4.642   3.015   6.444
 5913SOL    HW118638   4.552   3.054   6.424
 5913SOL    HW218639   4.712   3.086   6.433
 5914SOL     OW18640   1.699   5.155   0.170
 5914SOL    HW118641   1.724   5.067   0.130
 5914SOL    HW218642   1.664   5.216   0.099
 5915SOL     OW18643   4.830   5.918   1.173
 5915SOL    HW118644   4.785   5.829   1.168
 5915SOL    HW218645   4.906   5.921   1.109
 5916SOL     OW18646   5.947   6.165   3.514
 5916SOL    HW118647   5.942   6.176   3.614
 5916SOL    HW218648   6.042   6.178   3.484
 5917SOL     OW18649   3.470   4.157   4.214
 5917SOL    HW118650   3.557   4.201   4.237
 5917SOL    HW218651   3.415   4.145   4.296
 5918SOL     OW18652   2.340   4.267   5.185
 5918SOL    HW118653   2.368   4.171   5.182
 5918SOL    HW218654   2.259   4.276   5.243
 5919SOL     OW18655   3.961   3.160   3.416
 5919SOL    HW118656   3.937   3.252   3.387
 5919SOL    HW218657   3.926   3.094   3.350
 5920SOL     OW18658   4.906   0.680   6.536
 5920SOL    HW118659   4.941   0.674   6.442
 5920SOL    HW218660   4.982   0.673   6.600
 5921SOL     OW18661   3.913   4.936   6.453
 5921SOL    HW118662   4.008   4.960   6.476
 5921SOL    HW218663   3.853   4.963   6.528
 5922SOL     OW18664   5.946   3.660   3.537
 5922SOL    HW118665   5.862   3.636   3.489
 5922SOL    HW218666   6.025   3.627   3.485
 5923SOL     OW18667   0.224   1.641   1.845
 5923SOL    HW118668   0.125   1.643   1.862
 5923SOL    HW218669   0.244   1.696   1.764
 5924SOL     OW18670   6.801   6.909   2.694
 5924SOL    HW118671   6.807   6.931   2.597
 5924SOL    HW218672   6.716   6.860   2.712
 5925SOL     OW18673   4.030   6.645   1.878
 5925SOL    HW118674   3.985   6.705   1.812
 5925SOL    HW218675   3.965   6.575   1.909
 5926SOL     OW18676   3.943   5.328   2.714
 5926SOL    HW118677   4.034   5.341   2.753
 5926SOL    HW218678   3.926   5.230   2.700
 5927SOL     OW18679   0.956   4.811   2.392
 5927SOL    HW118680   1.003   4.845   2.474
 5927SOL    HW218681   0.958   4.881   2.321
 5928SOL     OW18682   3.183   6.488   0.898
 5928SOL    HW118683   3.215   6.583   0.902
 5928SOL    HW218684   3.089   6.487   0.862
 5929SOL     OW18685   6.613   0.772   5.759
 5929SOL    HW118686   6.655   0.862   5.769
 5929SOL    HW218687   6.683   0.706   5.731
 5930SOL     OW18688   6.773   4.185   3.067
 5930SOL    HW118689   6.863   4.165   3.029
 5930SOL    HW218690   6.710   4.206   2.993
 5931SOL     OW18691   5.996   6.380   2.638
 5931SOL    HW118692   5.929   6.308   2.619
 5931SOL    HW218693   5.952   6.469   2.634
 5932SOL     OW18694   3.118   6.837   1.062
 5932SOL    HW118695   3.060   6.788   1.126
 5932SOL    HW218696   3.192   6.883   1.112
 5933SOL     OW18697   6.479   4.754   4.083
 5933SOL    HW118698   6.571   4.719   4.070
 5933SOL    HW218699   6.480   4.831   4.148
 5934SOL     OW18700   3.465   3.166   4.884
 5934SOL    HW118701   3.483   3.086   4.941
 5934SOL    HW218702   3.489   3.249   4.935
 5935SOL     OW18703   6.912   5.398   6.513
 5935SOL    HW118704   6.890   5.310   6.554
 5935SOL    HW218705   6.844   5.466   6.541
 5936SOL     OW18706   3.244   2.983   1.621
 5936SOL    HW118707   3.280   3.050   1.686
 5936SOL    HW218708   3.238   2.893   1.666
 5937SOL     OW18709   6.186   3.052   2.101
 5937SOL    HW118710   6.118   3.073   2.172
 5937SOL    HW218711   6.268   3.107   2.116
 5938SOL     OW18712   6.488   5.763   3.437
 5938SOL    HW118713   6.548   5.842   3.453
 5938SOL    HW218714   6.474   5.752   3.338
 5939SOL     OW18715   2.236   6.005   3.226
 5939SOL    HW118716   2.188   6.022   3.313
 5939SOL    HW218717   2.251   6.092   3.180
 5940SOL     OW18718   4.587   5.184   2.564
 5940SOL    HW118719   4.582   5.279   2.532
 5940SOL    HW218720   4.638   5.129   2.497
 5941SOL     OW18721   6.262   3.970   2.132
 5941SOL    HW118722   6.175   3.922   2.145
 5941SOL    HW218723   6.247   4.052   2.078
 5942SOL     OW18724   4.930   4.120   0.086
 5942SOL    HW118725   4.934   4.102   7.011
 5942SOL    HW218726   5.021   4.143   0.120
 5943SOL     OW18727   3.440   4.261   5.900
 5943SOL    HW118728   3.425   4.167   5.932
 5943SOL    HW218729   3.352   4.306   5.886
 5944SOL     OW18730   6.910   2.261   0.276
 5944SOL    HW118731   6.961   2.343   0.304
 5944SOL    HW218732   6.955   2.180   0.313
 5945SOL     OW18733   6.247   4.659   5.125
 5945SOL    HW118734   6.268   4.574   5.076
 5945SOL    HW218735   6.221   4.637   5.219
 5946SOL     OW18736   3.322   3.555   5.966
 5946SOL    HW118737   3.357   3.559   5.873
 5946SOL    HW218738   3.333   3.644   6.010
 5947SOL     OW18739   3.817   3.528   2.955
 5947SOL    HW118740   3.880   3.536   2.879
 5947SOL    HW218741   3.743   3.465   2.931
 5948SOL     OW18742   4.128   4.721   2.679
 5948SOL    HW118743   4.171   4.639   2.716
 5948SOL    HW218744   4.151   4.730   2.582
 5949SOL     OW18745   5.324   4.169   1.809
 5949SOL    HW118746   5.422   4.153   1.803
 5949SOL    HW218747   5.296   4.170   1.905
 5950SOL     OW18748   5.189   1.593   5.051
 5950SOL    HW118749   5.238   1.680   5.064
 5950SOL    HW218750   5.101   1.610   5.007
 5951SOL     OW18751   1.400   4.944   4.086
 5951SOL    HW118752   1.419   4.871   4.022
 5951SOL    HW218753   1.486   4.979   4.124
 5952SOL     OW18754   5.173   5.323   3.191
 5952SOL    HW118755   5.192   5.313   3.288
 5952SOL    HW218756   5.251   5.291   3.138
 5953SOL     OW18757   6.755   3.857   5.486
 5953SOL    HW118758   6.827   3.921   5.514
 5953SOL    HW218759   6.671   3.907   5.466
 5954SOL     OW18760   6.405   5.822   5.875
 5954SOL    HW118761   6.401   5.793   5.780
 5954SOL    HW218762   6.500   5.819   5.907
 5955SOL     OW18763   4.691   5.524   1.819
 5955SOL    HW118764   4.644   5.538   1.906
 5955SOL    HW218765   4.696   5.610   1.769
 5956SOL     OW18766   4.680   2.166   4.027
 5956SOL    HW118767   4.588   2.129   4.040
 5956SOL    HW218768   4.723   2.181   4.117
 5957SOL     OW18769   2.822   1.133   4.259
 5957SOL    HW118770   2.787   1.216   4.217
 5957SOL    HW218771   2.882   1.156   4.335
 5958SOL     OW18772   4.469   6.862   2.871
 5958SOL    HW118773   4.536   6.790   2.849
 5958SOL    HW218774   4.516   6.939   2.914
 5959SOL     OW18775   4.095   2.944   5.324
 5959SOL    HW118776   4.024   3.003   5.286
 5959SOL    HW218777   4.179   2.996   5.337
 5960SOL     OW18778   3.877   5.229   4.989
 5960SOL    HW118779   3.796   5.171   4.996
 5960SOL    HW218780   3.878   5.274   4.899
 5961SOL     OW18781   4.291   2.307   2.781
 5961SOL    HW118782   4.249   2.308   2.690
 5961SOL    HW218783   4.299   2.213   2.813
 5962SOL     OW18784   6.190   6.701   6.760
 5962SOL    HW118785   6.288   6.681   6.761
 5962SOL    HW218786   6.149   6.671   6.846
 5963SOL     OW18787   3.384   3.772   6.148
 5963SOL    HW118788   3.308   3.826   6.185
 5963SOL    HW218789   3.458   3.768   6.215
 5964SOL     OW18790   1.390   6.558   5.044
 5964SOL    HW118791   1.319   6.625   5.020
 5964SOL    HW218792   1.423   6.577   5.137
 5965SOL     OW18793   1.864   1.738   0.084
 5965SOL    HW118794   1.853   1.673   0.159
 5965SOL    HW218795   1.960   1.746   0.060
 5966SOL     OW18796   2.660   6.020   5.881
 5966SOL    HW118797   2.728   5.964   5.927
 5966SOL    HW218798   2.576   6.023   5.936
 5967SOL     OW18799   2.891   0.319   6.131
 5967SOL    HW118800   2.844   0.275   6.055
 5967SOL    HW218801   2.966   0.375   6.096
 5968SOL     OW18802   5.139   2.121   0.318
 5968SOL    HW118803   5.185   2.208   0.299
 5968SOL    HW218804   5.043   2.138   0.342
 5969SOL     OW18805   6.197   0.818   6.771
 5969SOL    HW118806   6.207   0.721   6.751
 5969SOL    HW218807   6.238   0.872   6.697
 5970SOL     OW18808   0.055   4.201   2.605
 5970SOL    HW118809   0.048   4.292   2.647
 5970SOL    HW218810   0.020   4.205   2.511
 5971SOL     OW18811   0.258   1.408   2.007
 5971SOL    HW118812   0.337   1.417   2.067
 5971SOL    HW218813   0.252   1.488   1.947
 5972SOL     OW18814   5.202   5.708   6.367
 5972SOL    HW118815   5.156   5.698   6.279
 5972SOL    HW218816   5.186   5.799   6.403
 5973SOL     OW18817   1.601   3.073   1.824
 5973SOL    HW118818   1.533   3.127   1.776
 5973SOL    HW218819   1.610   2.983   1.780
 5974SOL     OW18820   5.593   5.940   6.915
 5974SOL    HW118821   5.680   5.891   6.924
 5974SOL    HW218822   5.541   5.902   6.838
 5975SOL     OW18823   4.221   6.965   1.271
 5975SOL    HW118824   4.276   6.972   1.188
 5975SOL    HW218825   4.125   6.979   1.248
 5976SOL     OW18826   4.149   2.438   6.392
 5976SOL    HW118827   4.202   2.423   6.309
 5976SOL    HW218828   4.057   2.470   6.367
 5977SOL     OW18829   1.168   6.175   0.902
 5977SOL    HW118830   1.151   6.238   0.978
 5977SOL    HW218831   1.093   6.110   0.895
 5978SOL     OW18832   4.009   5.379   1.472
 5978SOL    HW118833   3.948   5.356   1.396
 5978SOL    HW218834   4.091   5.322   1.469
 5979SOL     OW18835   6.250   0.478   2.946
 5979SOL    HW118836   6.264   0.397   2.889
 5979SOL    HW218837   6.157   0.479   2.981
 5980SOL     OW18838   4.036   4.065   1.762
 5980SOL    HW118839   3.988   4.131   1.703
 5980SOL    HW218840   3.977   4.039   1.838
 5981SOL     OW18841   5.744   1.826   0.873
 5981SOL    HW118842   5.683   1.784   0.805
 5981SOL    HW218843   5.703   1.817   0.964
 5982SOL     OW18844   6.319   2.204   2.235
 5982SOL    HW118845   6.341   2.173   2.143
 5982SOL    HW218846   6.402   2.211   2.290
 5983SOL     OW18847   1.144   0.958   4.340
 5983SOL    HW118848   1.213   0.935   4.271
 5983SOL    HW218849   1.056   0.919   4.313
 5984SOL     OW18850   5.460   5.995   3.241
 5984SOL    HW118851   5.381   6.051   3.213
 5984SOL    HW218852   5.489   6.023   3.332
 5985SOL     OW18853   6.903   3.214   4.144
 5985SOL    HW118854   6.901   3.314   4.139
 5985SOL    HW218855   6.900   3.186   4.240
 5986SOL     OW18856   3.294   4.096   4.414
 5986SOL    HW118857   3.280   3.999   4.391
 5986SOL    HW218858   3.243   4.117   4.497
 5987SOL     OW18859   5.690   0.281   3.889
 5987SOL    HW118860   5.600   0.260   3.852
 5987SOL    HW218861   5.681   0.312   3.984
 5988SOL     OW18862   4.126   0.685   5.303
 5988SOL    HW118863   4.059   0.616   5.330
 5988SOL    HW218864   4.197   0.643   5.247
 5989SOL     OW18865   2.131   5.805   6.472
 5989SOL    HW118866   2.142   5.759   6.384
 5989SOL    HW218867   2.043   5.778   6.512
 5990SOL     OW18868   3.267   3.552   1.067
 5990SOL    HW118869   3.208   3.607   1.126
 5990SOL    HW218870   3.297   3.471   1.116
 5991SOL     OW18871   3.834   5.609   6.823
 5991SOL    HW118872   3.783   5.526   6.798
 5991SOL    HW218873   3.775   5.689   6.811
 5992SOL     OW18874   3.643   0.366   2.251
 5992SOL    HW118875   3.548   0.363   2.221
 5992SOL    HW218876   3.689   0.283   2.222
 5993SOL     OW18877   3.555   4.170   6.427
 5993SOL    HW118878   3.484   4.127   6.370
 5993SOL    HW218879   3.511   4.223   6.500
 5994SOL     OW18880   6.785   2.441   0.520
 5994SOL    HW118881   6.807   2.353   0.562
 5994SOL    HW218882   6.864   2.473   0.467
 5995SOL     OW18883   4.902   3.487   2.027
 5995SOL    HW118884   4.814   3.534   2.032
 5995SOL    HW218885   4.918   3.457   1.933
 5996SOL     OW18886   0.390   6.650   0.874
 5996SOL    HW118887   0.454   6.577   0.850
 5996SOL    HW218888   0.369   6.703   0.792
 5997SOL     OW18889   0.346   5.105   2.301
 5997SOL    HW118890   0.332   5.034   2.233
 5997SOL    HW218891   0.262   5.160   2.309
 5998SOL     OW18892   6.458   1.815   2.729
 5998SOL    HW118893   6.540   1.776   2.772
 5998SOL    HW218894   6.449   1.779   2.637
 5999SOL     OW18895   2.849   3.030   1.542
 5999SOL    HW118896   2.895   2.964   1.602
 5999SOL    HW218897   2.910   3.054   1.467
 6000SOL     OW18898   2.403   6.688   6.983
 6000SOL    HW118899   2.407   6.764   0.025
 6000SOL    HW218900   2.408   6.601   0.011
 6001SOL     OW18901   0.012   4.933   6.752
 6001SOL    HW118902   6.944   4.941   6.794
 6001SOL    HW218903   0.082   4.942   6.823
 6002SOL     OW18904   6.102   0.567   0.289
 6002SOL    HW118905   6.068   0.660   0.279
 6002SOL    HW218906   6.054   0.521   0.364
 6003SOL     OW18907   5.308   2.185   4.859
 6003SOL    HW118908   5.333   2.265   4.914
 6003SOL    HW218909   5.250   2.215   4.782
 6004SOL     OW18910   0.019   3.853   3.021
 6004SOL    HW118911   0.008   3.888   3.114
 6004SOL    HW218912   6.997   3.915   2.956
 6005SOL     OW18913   5.206   5.758   4.956
 6005SOL    HW118914   5.197   5.673   5.008
 6005SOL    HW218915   5.301   5.789   4.960
 6006SOL     OW18916   2.580   0.509   5.554
 6006SOL    HW118917   2.662   0.481   5.505
 6006SOL    HW218918   2.569   0.453   5.636
 6007SOL     OW18919   5.535   3.719   5.603
 6007SOL    HW118920   5.602   3.732   5.530
 6007SOL    HW218921   5.580   3.727   5.692
 6008SOL     OW18922   2.797   4.878   5.193
 6008SOL    HW118923   2.848   4.943   5.137
 6008SOL    HW218924   2.789   4.791   5.144
 6009SOL     OW18925   2.305   0.759   3.514
 6009SOL    HW118926   2.390   0.742   3.563
 6009SOL    HW218927   2.319   0.832   3.447
 6010SOL     OW18928   1.199   4.978   3.895
 6010SOL    HW118929   1.276   4.986   3.958
 6010SOL    HW218930   1.233   4.975   3.801
 6011SOL     OW18931   5.774   3.065   3.365
 6011SOL    HW118932   5.685   3.026   3.387
 6011SOL    HW218933   5.779   3.159   3.396
 6012SOL     OW18934   5.703   0.744   0.735
 6012SOL    HW118935   5.607   0.736   0.763
 6012SOL    HW218936   5.760   0.692   0.798
 6013SOL     OW18937   5.453   1.187   2.913
 6013SOL    HW118938   5.414   1.222   2.828
 6013SOL    HW218939   5.433   1.090   2.921
 6014SOL     OW18940   3.843   3.993   3.299
 6014SOL    HW118941   3.776   4.023   3.367
 6014SOL    HW218942   3.809   4.015   3.207
 6015SOL     OW18943   5.725   3.916   4.286
 6015SOL    HW118944   5.793   3.844   4.301
 6015SOL    HW218945   5.770   4.005   4.286
 6016SOL     OW18946   6.438   2.230   5.844
 6016SOL    HW118947   6.507   2.277   5.790
 6016SOL    HW218948   6.400   2.293   5.912
 6017SOL     OW18949   5.807   5.029   3.511
 6017SOL    HW118950   5.782   4.949   3.565
 6017SOL    HW218951   5.810   5.110   3.569
 6018SOL     OW18952   4.045   0.660   6.184
 6018SOL    HW118953   3.950   0.681   6.163
 6018SOL    HW218954   4.105   0.720   6.129
 6019SOL     OW18955   0.813   2.948   4.528
 6019SOL    HW118956   0.861   2.877   4.579
 6019SOL    HW218957   0.857   3.036   4.544
 6020SOL     OW18958   0.665   5.392   0.757
 6020SOL    HW118959   0.647   5.296   0.736
 6020SOL    HW218960   0.742   5.398   0.821
 6021SOL     OW18961   4.432   0.657   2.956
 6021SOL    HW118962   4.408   0.566   2.920
 6021SOL    HW218963   4.414   0.659   3.054
 6022SOL     OW18964   6.030   1.716   3.377
 6022SOL    HW118965   6.073   1.795   3.420
 6022SOL    HW218966   6.095   1.671   3.316
 6023SOL     OW18967   5.958   0.964   1.462
 6023SOL    HW118968   6.008   0.953   1.547
 6023SOL    HW218969   5.859   0.964   1.481
 6024SOL     OW18970   1.405   4.753   2.221
 6024SOL    HW118971   1.401   4.843   2.179
 6024SOL    HW218972   1.313   4.725   2.249
 6025SOL     OW18973   3.456   1.813   3.322
 6025SOL    HW118974   3.412   1.886   3.270
 6025SOL    HW218975   3.517   1.853   3.391
 6026SOL     OW18976   0.371   4.639   5.716
 6026SOL    HW118977   0.327   4.679   5.635
 6026SOL    HW218978   0.404   4.548   5.694
 6027SOL     OW18979   0.784   3.311   4.995
 6027SOL    HW118980   0.790   3.260   5.080
 6027SOL    HW218981   0.860   3.285   4.935
 6028SOL     OW18982   6.045   4.834   0.462
 6028SOL    HW118983   6.052   4.916   0.518
 6028SOL    HW218984   6.013   4.858   0.370
 6029SOL     OW18985   2.239   6.735   4.457
 6029SOL    HW118986   2.290   6.790   4.523
 6029SOL    HW218987   2.214   6.648   4.499
 6030SOL     OW18988   4.183   5.035   2.611
 6030SOL    HW118989   4.215   4.947   2.646
 6030SOL    HW218990   4.086   5.046   2.630
 6031SOL     OW18991   3.242   5.422   4.323
 6031SOL    HW118992   3.226   5.383   4.414
 6031SOL    HW218993   3.155   5.431   4.275
 6032SOL     OW18994   2.133   4.405   2.529
 6032SOL    HW118995   2.141   4.502   2.551
 6032SOL    HW218996   2.116   4.393   2.432
 6033SOL     OW18997   2.389   2.589   3.000
 6033SOL    HW118998   2.446   2.568   3.079
 6033SOL    HW218999   2.439   2.569   2.916
 6034SOL     OW19000   1.478   0.375   5.119
 6034SOL    HW119001   1.409   0.313   5.082
 6034SOL    HW219002   1.442   0.420   5.200
 6035SOL     OW19003   1.010   1.473   2.117
 6035SOL    HW119004   1.077   1.465   2.044
 6035SOL    HW219005   0.982   1.569   2.126
 6036SOL     OW19006   5.199   4.773   2.950
 6036SOL    HW119007   5.195   4.757   3.049
 6036SOL    HW219008   5.109   4.801   2.917
 6037SOL     OW19009   3.899   6.821   0.386
 6037SOL    HW119010   3.869   6.752   0.319
 6037SOL    HW219011   3.893   6.782   0.478
 6038SOL     OW19012   1.136   2.842   5.899
 6038SOL    HW119013   1.162   2.892   5.817
 6038SOL    HW219014   1.217   2.826   5.955
 6039SOL     OW19015   3.802   2.971   2.520
 6039SOL    HW119016   3.795   2.956   2.422
 6039SOL    HW219017   3.721   2.933   2.565
 6040SOL     OW19018   1.524   1.998   1.179
 6040SOL    HW119019   1.566   1.957   1.098
 6040SOL    HW219020   1.567   2.086   1.197
 6041SOL     OW19021   2.834   0.919   5.517
 6041SOL    HW119022   2.739   0.910   5.490
 6041SOL    HW219023   2.880   0.831   5.504
 6042SOL     OW19024   4.116   6.774   2.501
 6042SOL    HW119025   4.110   6.675   2.514
 6042SOL    HW219026   4.206   6.797   2.465
 6043SOL     OW19027   0.963   5.826   5.552
 6043SOL    HW119028   0.967   5.793   5.647
 6043SOL    HW219029   1.050   5.871   5.529
 6044SOL     OW19030   1.630   2.718   1.470
 6044SOL    HW119031   1.710   2.690   1.417
 6044SOL    HW219032   1.571   2.776   1.414
 6045SOL     OW19033   6.535   4.000   2.090
 6045SOL    HW119034   6.534   4.098   2.069
 6045SOL    HW219035   6.446   3.973   2.127
 6046SOL     OW19036   3.551   2.458   0.821
 6046SOL    HW119037   3.467   2.512   0.827
 6046SOL    HW219038   3.534   2.376   0.767
 6047SOL     OW19039   5.482   1.589   1.998
 6047SOL    HW119040   5.468   1.667   1.937
 6047SOL    HW219041   5.580   1.571   2.007
 6048SOL     OW19042   4.602   5.305   5.219
 6048SOL    HW119043   4.646   5.227   5.265
 6048SOL    HW219044   4.581   5.376   5.286
 6049SOL     OW19045   4.898   3.249   0.063
 6049SOL    HW119046   4.826   3.259   7.016
 6049SOL    HW219047   4.940   3.338   0.081
 6050SOL     OW19048   3.390   4.974   5.930
 6050SOL    HW119049   3.426   4.930   5.847
 6050SOL    HW219050   3.302   5.017   5.910
 6051SOL     OW19051   1.466   0.379   4.016
 6051SOL    HW119052   1.521   0.434   4.080
 6051SOL    HW219053   1.513   0.373   3.928
 6052SOL     OW19054   5.359   1.450   0.828
 6052SOL    HW119055   5.271   1.460   0.782
 6052SOL    HW219056   5.351   1.384   0.902
 6053SOL     OW19057   4.404   1.320   6.197
 6053SOL    HW119058   4.402   1.400   6.137
 6053SOL    HW219059   4.498   1.291   6.212
 6054SOL     OW19060   2.664   2.860   7.021
 6054SOL    HW119061   2.648   2.815   6.934
 6054SOL    HW219062   2.598   2.934   0.011
 6055SOL     OW19063   5.139   6.945   5.491
 6055SOL    HW119064   5.114   6.894   5.574
 6055SOL    HW219065   5.155   6.882   5.416
 6056SOL     OW19066   4.893   3.369   4.793
 6056SOL    HW119067   4.809   3.319   4.815
 6056SOL    HW219068   4.890   3.459   4.836
 6057SOL     OW19069   0.023   1.554   2.942
 6057SOL    HW119070   0.005   1.594   3.032
 6057SOL    HW219071   0.122   1.546   2.928
 6058SOL     OW19072   4.846   3.851   1.733
 6058SOL    HW119073   4.845   3.752   1.719
 6058SOL    HW219074   4.754   3.883   1.752
 6059SOL     OW19075   5.138   5.363   6.178
 6059SOL    HW119076   5.083   5.445   6.195
 6059SOL    HW219077   5.087   5.302   6.117
 6060SOL     OW19078   3.139   3.469   6.201
 6060SOL    HW119079   3.097   3.533   6.265
 6060SOL    HW219080   3.183   3.519   6.127
 6061SOL     OW19081   4.548   3.319   1.296
 6061SOL    HW119082   4.471   3.366   1.341
 6061SOL    HW219083   4.540   3.220   1.312
 6062SOL     OW19084   2.932   1.582   5.541
 6062SOL    HW119085   3.026   1.583   5.509
 6062SOL    HW219086   2.923   1.641   5.621
 6063SOL     OW19087   4.720   2.226   6.297
 6063SOL    HW119088   4.664   2.308   6.286
 6063SOL    HW219089   4.705   2.187   6.388
 6064SOL     OW19090   0.975   6.835   1.499
 6064SOL    HW119091   1.031   6.900   1.550
 6064SOL    HW219092   0.878   6.857   1.511
 6065SOL     OW19093   0.767   6.508   3.336
 6065SOL    HW119094   0.756   6.607   3.327
 6065SOL    HW219095   0.717   6.463   3.262
 6066SOL     OW19096   4.566   1.755   5.246
 6066SOL    HW119097   4.554   1.844   5.289
 6066SOL    HW219098   4.650   1.712   5.278
 6067SOL     OW19099   5.857   0.885   5.831
 6067SOL    HW119100   5.786   0.945   5.867
 6067SOL    HW219101   5.924   0.939   5.780
 6068SOL     OW19102   4.583   2.577   4.385
 6068SOL    HW119103   4.644   2.590   4.306
 6068SOL    HW219104   4.489   2.569   4.352
 6069SOL     OW19105   6.075   2.730   5.159
 6069SOL    HW119106   6.113   2.777   5.079
 6069SOL    HW219107   6.149   2.689   5.212
 6070SOL     OW19108   2.943   2.125   1.388
 6070SOL    HW119109   2.855   2.080   1.405
 6070SOL    HW219110   2.940   2.169   1.299
 6071SOL     OW19111   5.733   5.558   4.902
 6071SOL    HW119112   5.810   5.506   4.865
 6071SOL    HW219113   5.647   5.515   4.874
 6072SOL     OW19114   6.556   0.053   1.311
 6072SOL    HW119115   6.461   0.022   1.316
 6072SOL    HW219116   6.616   7.006   1.350
 6073SOL     OW19117   5.658   3.088   0.779
 6073SOL    HW119118   5.631   2.995   0.755
 6073SOL    HW219119   5.705   3.088   0.868
 6074SOL     OW19120   1.014   6.369   2.308
 6074SOL    HW119121   1.039   6.357   2.212
 6074SOL    HW219122   1.087   6.418   2.355
 6075SOL     OW19123   4.889   0.455   5.741
 6075SOL    HW119124   4.855   0.515   5.668
 6075SOL    HW219125   4.881   0.502   5.829
 6076SOL     OW19126   3.436   5.645   3.606
 6076SOL    HW119127   3.452   5.740   3.578
 6076SOL    HW219128   3.523   5.599   3.622
 6077SOL     OW19129   6.424   5.540   0.639
 6077SOL    HW119130   6.490   5.523   0.566
 6077SOL    HW219131   6.340   5.576   0.599
 6078SOL     OW19132   4.671   5.561   0.539
 6078SOL    HW119133   4.735   5.625   0.582
 6078SOL    HW219134   4.720   5.502   0.476
 6079SOL     OW19135   4.723   3.788   6.132
 6079SOL    HW119136   4.781   3.717   6.174
 6079SOL    HW219137   4.679   3.842   6.204
 6080SOL     OW19138   0.038   6.254   0.746
 6080SOL    HW119139   0.069   6.293   0.660
 6080SOL    HW219140   6.961   6.241   0.742
 6081SOL     OW19141   6.618   2.404   4.931
 6081SOL    HW119142   6.619   2.309   4.961
 6081SOL    HW219143   6.691   2.419   4.865
 6082SOL     OW19144   2.298   1.309   3.575
 6082SOL    HW119145   2.242   1.232   3.605
 6082SOL    HW219146   2.391   1.297   3.608
 6083SOL     OW19147   6.238   6.186   0.309
 6083SOL    HW119148   6.262   6.156   0.217
 6083SOL    HW219149   6.294   6.264   0.335
 6084SOL     OW19150   0.799   6.782   3.262
 6084SOL    HW119151   0.762   6.858   3.316
 6084SOL    HW219152   0.898   6.788   3.259
 6085SOL     OW19153   0.161   6.948   0.262
 6085SOL    HW119154   0.112   6.902   0.188
 6085SOL    HW219155   0.098   7.007   0.312
 6086SOL     OW19156   3.054   1.111   5.551
 6086SOL    HW119157   3.089   1.082   5.641
 6086SOL    HW219158   2.954   1.112   5.553
 6087SOL     OW19159   4.003   5.837   1.140
 6087SOL    HW119160   3.911   5.865   1.112
 6087SOL    HW219161   4.022   5.874   1.231
 6088SOL     OW19162   5.355   6.497   4.495
 6088SOL    HW119163   5.302   6.486   4.579
 6088SOL    HW219164   5.304   6.459   4.418
 6089SOL     OW19165   5.590   2.875   2.382
 6089SOL    HW119166   5.592   2.794   2.441
 6089SOL    HW219167   5.575   2.956   2.438
 6090SOL     OW19168   2.293   5.945   4.749
 6090SOL    HW119169   2.358   5.972   4.820
 6090SOL    HW219170   2.200   5.958   4.783
 6091SOL     OW19171   2.067   1.173   0.518
 6091SOL    HW119172   2.108   1.086   0.489
 6091SOL    HW219173   1.983   1.189   0.466
 6092SOL     OW19174   4.578   0.319   2.368
 6092SOL    HW119175   4.655   0.333   2.431
 6092SOL    HW219176   4.494   0.303   2.421
 6093SOL     OW19177   2.223   2.978   1.758
 6093SOL    HW119178   2.286   3.056   1.760
 6093SOL    HW219179   2.130   3.010   1.741
 6094SOL     OW19180   1.881   6.226   2.198
 6094SOL    HW119181   1.835   6.150   2.243
 6094SOL    HW219182   1.973   6.236   2.236
 6095SOL     OW19183   5.437   4.326   0.523
 6095SOL    HW119184   5.463   4.395   0.456
 6095SOL    HW219185   5.338   4.313   0.521
 6096SOL     OW19186   5.957   6.916   3.690
 6096SOL    HW119187   5.936   6.862   3.772
 6096SOL    HW219188   5.985   7.008   3.717
 6097SOL     OW19189   1.803   5.854   2.239
 6097SOL    HW119190   1.893   5.861   2.282
 6097SOL    HW219191   1.737   5.908   2.292
 6098SOL     OW19192   0.502   1.420   5.121
 6098SOL    HW119193   0.486   1.438   5.218
 6098SOL    HW219194   0.428   1.459   5.067
 6099SOL     OW19195   5.284   6.203   6.825
 6099SOL    HW119196   5.286   6.124   6.887
 6099SOL    HW219197   5.266   6.171   6.732
 6100SOL     OW19198   5.841   6.142   1.270
 6100SOL    HW119199   5.933   6.124   1.236
 6100SOL    HW219200   5.820   6.239   1.261
 6101SOL     OW19201   6.924   3.583   3.412
 6101SOL    HW119202   6.995   3.613   3.348
 6101SOL    HW219203   6.858   3.525   3.364
 6102SOL     OW19204   3.377   6.183   3.173
 6102SOL    HW119205   3.325   6.266   3.150
 6102SOL    HW219206   3.447   6.167   3.104
 6103SOL     OW19207   5.996   1.785   1.508
 6103SOL    HW119208   6.017   1.831   1.594
 6103SOL    HW219209   5.901   1.801   1.484
 6104SOL     OW19210   5.577   0.697   5.986
 6104SOL    HW119211   5.671   0.709   6.018
 6104SOL    HW219212   5.530   0.629   6.043
 6105SOL     OW19213   3.061   5.801   6.865
 6105SOL    HW119214   3.147   5.762   6.835
 6105SOL    HW219215   3.068   5.901   6.866
 6106SOL     OW19216   1.027   4.357   6.629
 6106SOL    HW119217   1.089   4.296   6.580
 6106SOL    HW219218   0.946   4.375   6.572
 6107SOL     OW19219   4.212   5.740   4.750
 6107SOL    HW119220   4.255   5.747   4.840
 6107SOL    HW219221   4.235   5.652   4.709
 6108SOL     OW19222   2.402   2.752   1.788
 6108SOL    HW119223   2.492   2.777   1.752
 6108SOL    HW219224   2.338   2.827   1.771
 6109SOL     OW19225   5.609   1.732   4.953
 6109SOL    HW119226   5.585   1.670   5.028
 6109SOL    HW219227   5.677   1.798   4.984
 6110SOL     OW19228   3.378   3.826   0.835
 6110SOL    HW119229   3.285   3.818   0.799
 6110SOL    HW219230   3.403   3.742   0.882
 6111SOL     OW19231   1.204   4.107   2.506
 6111SOL    HW119232   1.121   4.084   2.454
 6111SOL    HW219233   1.220   4.036   2.575
 6112SOL     OW19234   3.324   0.443   2.931
 6112SOL    HW119235   3.401   0.382   2.951
 6112SOL    HW219236   3.286   0.419   2.841
 6113SOL     OW19237   3.157   2.365   5.884
 6113SOL    HW119238   3.076   2.318   5.848
 6113SOL    HW219239   3.232   2.359   5.818
 6114SOL     OW19240   4.794   4.905   2.205
 6114SOL    HW119241   4.757   4.994   2.231
 6114SOL    HW219242   4.870   4.918   2.141
 6115SOL     OW19243   5.851   0.452   3.670
 6115SOL    HW119244   5.827   0.387   3.598
 6115SOL    HW219245   5.949   0.470   3.667
 6116SOL     OW19246   4.098   1.661   5.922
 6116SOL    HW119247   4.179   1.629   5.871
 6116SOL    HW219248   4.039   1.583   5.942
 6117SOL     OW19249   1.206   1.304   3.361
 6117SOL    HW119250   1.290   1.267   3.320
 6117SOL    HW219251   1.135   1.311   3.292
 6118SOL     OW19252   0.251   1.170   1.912
 6118SOL    HW119253   0.233   1.264   1.942
 6118SOL    HW219254   0.347   1.160   1.889
 6119SOL     OW19255   0.811   3.696   6.810
 6119SOL    HW119256   0.754   3.671   6.889
 6119SOL    HW219257   0.906   3.672   6.830
 6120SOL     OW19258   3.625   6.243   5.370
 6120SOL    HW119259   3.695   6.173   5.358
 6120SOL    HW219260   3.534   6.200   5.364
 6121SOL     OW19261   0.753   3.159   5.224
 6121SOL    HW119262   0.654   3.168   5.210
 6121SOL    HW219263   0.781   3.220   5.298
 6122SOL     OW19264   4.415   5.293   0.782
 6122SOL    HW119265   4.369   5.325   0.699
 6122SOL    HW219266   4.482   5.361   0.810
 6123SOL     OW19267   5.281   0.152   6.223
 6123SOL    HW119268   5.345   0.225   6.199
 6123SOL    HW219269   5.232   0.177   6.306
 6124SOL     OW19270   1.810   6.951   6.098
 6124SOL    HW119271   1.901   6.968   6.061
 6124SOL    HW219272   1.778   0.011   6.144
 6125SOL     OW19273   2.079   4.424   0.746
 6125SOL    HW119274   2.173   4.415   0.780
 6125SOL    HW219275   2.031   4.496   0.796
 6126SOL     OW19276   0.720   6.954   4.523
 6126SOL    HW119277   0.811   6.919   4.546
 6126SOL    HW219278   0.713   6.967   4.424
 6127SOL     OW19279   3.099   0.509   1.469
 6127SOL    HW119280   3.069   0.505   1.374
 6127SOL    HW219281   3.194   0.540   1.473
 6128SOL     OW19282   6.193   4.070   0.722
 6128SOL    HW119283   6.222   4.111   0.635
 6128SOL    HW219284   6.118   4.006   0.706
 6129SOL     OW19285   6.923   3.577   2.407
 6129SOL    HW119286   6.885   3.514   2.339
 6129SOL    HW219287   6.950   3.527   2.489
 6130SOL     OW19288   5.934   2.957   2.505
 6130SOL    HW119289   5.835   2.971   2.515
 6130SOL    HW219290   5.955   2.860   2.521
 6131SOL     OW19291   0.642   1.909   4.658
 6131SOL    HW119292   0.715   1.852   4.697
 6131SOL    HW219293   0.558   1.896   4.710
 6132SOL     OW19294   4.911   1.832   0.121
 6132SOL    HW119295   4.983   1.884   0.074
 6132SOL    HW219296   4.897   1.869   0.212
 6133SOL     OW19297   1.922   3.266   2.404
 6133SOL    HW119298   1.846   3.266   2.339
 6133SOL    HW219299   1.914   3.344   2.466
 6134SOL     OW19300   4.241   4.484   6.952
 6134SOL    HW119301   4.324   4.530   6.920
 6134SOL    HW219302   4.263   4.392   6.982
 6135SOL     OW19303   0.296   0.746   0.578
 6135SOL    HW119304   0.355   0.794   0.513
 6135SOL    HW219305   0.200   0.759   0.552
 6136SOL     OW19306   0.998   2.932   1.898
 6136SOL    HW119307   1.049   2.851   1.926
 6136SOL    HW219308   0.954   2.974   1.977
 6137SOL     OW19309   6.817   3.929   2.491
 6137SOL    HW119310   6.779   4.021   2.481
 6137SOL    HW219311   6.870   3.906   2.409
 6138SOL     OW19312   3.658   6.609   2.693
 6138SOL    HW119313   3.588   6.553   2.649
 6138SOL    HW219314   3.685   6.567   2.780
 6139SOL     OW19315   1.771   6.300   6.146
 6139SOL    HW119316   1.823   6.325   6.227
 6139SOL    HW219317   1.830   6.304   6.065
 6140SOL     OW19318   0.542   6.426   1.776
 6140SOL    HW119319   0.491   6.350   1.816
 6140SOL    HW219320   0.615   6.390   1.718
 6141SOL     OW19321   0.664   6.545   6.075
 6141SOL    HW119322   0.684   6.468   6.014
 6141SOL    HW219323   0.727   6.620   6.055
 6142SOL     OW19324   0.792   6.616   0.034
 6142SOL    HW119325   0.865   6.563   7.013
 6142SOL    HW219326   0.825   6.652   0.121
 6143SOL     OW19327   6.616   3.283   0.964
 6143SOL    HW119328   6.555   3.249   0.893
 6143SOL    HW219329   6.566   3.294   1.050
 6144SOL     OW19330   4.979   4.499   4.226
 6144SOL    HW119331   4.887   4.463   4.212
 6144SOL    HW219332   4.978   4.567   4.299
 6145SOL     OW19333   5.148   5.298   3.775
 6145SOL    HW119334   5.153   5.203   3.804
 6145SOL    HW219335   5.171   5.305   3.678
 6146SOL     OW19336   3.133   5.492   3.794
 6146SOL    HW119337   3.104   5.402   3.828
 6146SOL    HW219338   3.209   5.525   3.849
 6147SOL     OW19339   2.075   1.897   4.059
 6147SOL    HW119340   2.016   1.937   4.129
 6147SOL    HW219341   2.052   1.800   4.049
 6148SOL     OW19342   4.854   0.003   5.309
 6148SOL    HW119343   4.905   6.940   5.301
 6148SOL    HW219344   4.889   0.069   5.241
 6149SOL     OW19345   2.741   6.406   1.476
 6149SOL    HW119346   2.643   6.409   1.457
 6149SOL    HW219347   2.777   6.315   1.452
 6150SOL     OW19348   5.185   5.375   0.316
 6150SOL    HW119349   5.256   5.430   0.272
 6150SOL    HW219350   5.222   5.284   0.337
 6151SOL     OW19351   6.089   4.898   6.581
 6151SOL    HW119352   6.141   4.975   6.617
 6151SOL    HW219353   6.082   4.906   6.481
 6152SOL     OW19354   6.121   5.654   4.820
 6152SOL    HW119355   6.116   5.556   4.840
 6152SOL    HW219356   6.059   5.676   4.745
 6153SOL     OW19357   5.148   4.659   1.401
 6153SOL    HW119358   5.082   4.584   1.408
 6153SOL    HW219359   5.195   4.653   1.313
 6154SOL     OW19360   6.064   2.418   2.735
 6154SOL    HW119361   5.997   2.441   2.806
 6154SOL    HW219362   6.017   2.395   2.650
 6155SOL     OW19363   1.419   1.723   3.488
 6155SOL    HW119364   1.429   1.684   3.580
 6155SOL    HW219365   1.412   1.823   3.495
 6156SOL     OW19366   4.321   4.601   1.784
 6156SOL    HW119367   4.351   4.585   1.877
 6156SOL    HW219368   4.235   4.551   1.768
 6157SOL     OW19369   0.073   1.620   4.649
 6157SOL    HW119370   0.139   1.551   4.620
 6157SOL    HW219371   0.037   1.668   4.569
 6158SOL     OW19372   3.818   2.061   6.004
 6158SOL    HW119373   3.805   2.153   5.968
 6158SOL    HW219374   3.887   2.063   6.076
 6159SOL     OW19375   4.916   1.933   2.120
 6159SOL    HW119376   4.990   1.921   2.054
 6159SOL    HW219377   4.918   2.026   2.155
 6160SOL     OW19378   5.413   1.276   6.298
 6160SOL    HW119379   5.318   1.302   6.313
 6160SOL    HW219380   5.474   1.343   6.341
 6161SOL     OW19381   4.629   1.689   4.903
 6161SOL    HW119382   4.670   1.781   4.906
 6161SOL    HW219383   4.570   1.676   4.983
 6162SOL     OW19384   0.269   6.090   3.531
 6162SOL    HW119385   0.295   6.011   3.475
 6162SOL    HW219386   0.195   6.064   3.593
 6163SOL     OW19387   6.114   6.886   1.141
 6163SOL    HW119388   6.017   6.896   1.163
 6163SOL    HW219389   6.168   6.915   1.220
 6164SOL     OW19390   3.136   4.076   3.383
 6164SOL    HW119391   3.190   4.134   3.444
 6164SOL    HW219392   3.176   4.077   3.291
 6165SOL     OW19393   4.772   1.960   6.949
 6165SOL    HW119394   4.807   1.885   7.005
 6165SOL    HW219395   4.682   1.936   6.913
 6166SOL     OW19396   5.359   1.665   6.483
 6166SOL    HW119397   5.269   1.629   6.458
 6166SOL    HW219398   5.366   1.670   6.583
 6167SOL     OW19399   1.172   4.915   2.571
 6167SOL    HW119400   1.101   4.939   2.637
 6167SOL    HW219401   1.208   4.998   2.530
 6168SOL     OW19402   1.770   3.499   2.008
 6168SOL    HW119403   1.824   3.544   2.079
 6168SOL    HW219404   1.684   3.467   2.048
 6169SOL     OW19405   1.758   2.069   6.880
 6169SOL    HW119406   1.823   2.051   6.954
 6169SOL    HW219407   1.680   2.007   6.887
 6170SOL     OW19408   2.112   4.342   5.319
 6170SOL    HW119409   2.068   4.364   5.232
 6170SOL    HW219410   2.056   4.276   5.369
 6171SOL     OW19411   1.452   3.206   1.111
 6171SOL    HW119412   1.491   3.116   1.092
 6171SOL    HW219413   1.400   3.237   1.032
 6172SOL     OW19414   1.543   2.668   2.700
 6172SOL    HW119415   1.589   2.696   2.616
 6172SOL    HW219416   1.606   2.614   2.756
 6173SOL     OW19417   6.555   5.448   1.893
 6173SOL    HW119418   6.490   5.372   1.887
 6173SOL    HW219419   6.508   5.528   1.931
 6174SOL     OW19420   5.012   4.508   3.943
 6174SOL    HW119421   5.093   4.449   3.949
 6174SOL    HW219422   4.983   4.534   4.035
 6175SOL     OW19423   4.884   0.475   3.613
 6175SOL    HW119424   4.800   0.526   3.599
 6175SOL    HW219425   4.866   0.377   3.603
 6176SOL     OW19426   4.978   3.899   6.791
 6176SOL    HW119427   4.984   3.836   6.714
 6176SOL    HW219428   4.916   3.974   6.767
 6177SOL     OW19429   5.400   0.866   1.115
 6177SOL    HW119430   5.374   0.831   1.205
 6177SOL    HW219431   5.464   0.942   1.126
 6178SOL     OW19432   4.953   4.858   2.851
 6178SOL    HW119433   4.858   4.875   2.823
 6178SOL    HW219434   4.988   4.778   2.801
 6179SOL     OW19435   0.217   4.740   4.049
 6179SOL    HW119436   0.220   4.840   4.044
 6179SOL    HW219437   0.310   4.703   4.041
 6180SOL     OW19438   3.765   4.334   0.098
 6180SOL    HW119439   3.854   4.366   0.066
 6180SOL    HW219440   3.766   4.235   0.107
 6181SOL     OW19441   3.741   6.733   0.945
 6181SOL    HW119442   3.656   6.681   0.935
 6181SOL    HW219443   3.733   6.820   0.896
 6182SOL     OW19444   5.405   2.845   4.767
 6182SOL    HW119445   5.468   2.920   4.786
 6182SOL    HW219446   5.453   2.772   4.720
 6183SOL     OW19447   2.083   1.773   3.433
 6183SOL    HW119448   2.101   1.674   3.428
 6183SOL    HW219449   1.984   1.789   3.426
 6184SOL     OW19450   1.829   6.548   6.325
 6184SOL    HW119451   1.892   6.528   6.249
 6184SOL    HW219452   1.844   6.642   6.356
 6185SOL     OW19453   0.363   3.928   6.212
 6185SOL    HW119454   0.341   4.002   6.275
 6185SOL    HW219455   0.401   3.966   6.128
 6186SOL     OW19456   0.205   6.670   6.248
 6186SOL    HW119457   0.262   6.744   6.284
 6186SOL    HW219458   0.142   6.706   6.180
 6187SOL     OW19459   4.667   4.750   2.999
 6187SOL    HW119460   4.726   4.695   2.939
 6187SOL    HW219461   4.675   4.717   3.093
 6188SOL     OW19462   2.435   0.366   1.015
 6188SOL    HW119463   2.517   0.394   0.966
 6188SOL    HW219464   2.359   0.427   0.993
 6189SOL     OW19465   5.014   4.249   3.553
 6189SOL    HW119466   5.077   4.226   3.480
 6189SOL    HW219467   4.973   4.339   3.536
 6190SOL     OW19468   0.505   4.022   5.546
 6190SOL    HW119469   0.559   4.058   5.470
 6190SOL    HW219470   0.457   4.097   5.592
 6191SOL     OW19471   3.280   1.827   0.229
 6191SOL    HW119472   3.351   1.895   0.216
 6191SOL    HW219473   3.205   1.844   0.165
 6192SOL     OW19474   3.720   2.299   6.253
 6192SOL    HW119475   3.726   2.259   6.344
 6192SOL    HW219476   3.811   2.311   6.215
 6193SOL     OW19477   5.370   1.072   2.399
 6193SOL    HW119478   5.387   1.161   2.357
 6193SOL    HW219479   5.286   1.077   2.454
 6194SOL     OW19480   1.529   0.224   1.467
 6194SOL    HW119481   1.480   0.311   1.470
 6194SOL    HW219482   1.515   0.174   1.553
 6195SOL     OW19483   4.167   6.045   6.055
 6195SOL    HW119484   4.158   5.980   5.980
 6195SOL    HW219485   4.183   5.995   6.141
 6196SOL     OW19486   5.697   2.585   1.849
 6196SOL    HW119487   5.787   2.622   1.829
 6196SOL    HW219488   5.637   2.657   1.883
 6197SOL     OW19489   4.331   4.487   0.589
 6197SOL    HW119490   4.243   4.535   0.590
 6197SOL    HW219491   4.318   4.395   0.626
 6198SOL     OW19492   3.761   6.592   2.216
 6198SOL    HW119493   3.797   6.524   2.280
 6198SOL    HW219494   3.676   6.630   2.251
 6199SOL     OW19495   1.357   1.298   0.307
 6199SOL    HW119496   1.343   1.213   0.258
 6199SOL    HW219497   1.454   1.323   0.306
 6200SOL     OW19498   1.283   1.310   5.646
 6200SOL    HW119499   1.349   1.265   5.587
 6200SOL    HW219500   1.247   1.391   5.600
 6201SOL     OW19501   1.163   3.572   5.071
 6201SOL    HW119502   1.235   3.619   5.123
 6201SOL    HW219503   1.190   3.477   5.056
 6202SOL     OW19504   3.975   1.521   2.575
 6202SOL    HW119505   3.876   1.518   2.586
 6202SOL    HW219506   4.014   1.431   2.596
 6203SOL     OW19507   6.955   6.674   2.812
 6203SOL    HW119508   6.930   6.769   2.794
 6203SOL    HW219509   6.881   6.628   2.862
 6204SOL     OW19510   0.379   5.121   4.481
 6204SOL    HW119511   0.407   5.053   4.549
 6204SOL    HW219512   0.304   5.083   4.426
 6205SOL     OW19513   6.319   6.482   0.731
 6205SOL    HW119514   6.355   6.403   0.681
 6205SOL    HW219515   6.376   6.562   0.712
 6206SOL     OW19516   6.547   1.626   3.792
 6206SOL    HW119517   6.598   1.712   3.783
 6206SOL    HW219518   6.474   1.624   3.724
 6207SOL     OW19519   1.345   5.243   5.166
 6207SOL    HW119520   1.300   5.263   5.252
 6207SOL    HW219521   1.308   5.158   5.128
 6208SOL     OW19522   5.554   2.104   5.747
 6208SOL    HW119523   5.625   2.120   5.815
 6208SOL    HW219524   5.526   2.192   5.707
 6209SOL     OW19525   4.394   5.536   6.627
 6209SOL    HW119526   4.486   5.554   6.663
 6209SOL    HW219527   4.329   5.535   6.703
 6210SOL     OW19528   5.138   3.261   3.104
 6210SOL    HW119529   5.170   3.249   3.198
 6210SOL    HW219530   5.188   3.336   3.061
 6211SOL     OW19531   3.246   6.644   5.515
 6211SOL    HW119532   3.203   6.618   5.601
 6211SOL    HW219533   3.196   6.721   5.475
 6212SOL     OW19534   1.999   5.685   3.930
 6212SOL    HW119535   2.018   5.694   4.027
 6212SOL    HW219536   1.902   5.703   3.912
 6213SOL     OW19537   5.897   0.010   0.591
 6213SOL    HW119538   5.910   7.005   0.687
 6213SOL    HW219539   5.837   6.968   0.546
 6214SOL     OW19540   5.379   4.943   4.294
 6214SOL    HW119541   5.345   4.949   4.201
 6214SOL    HW219542   5.380   5.034   4.335
 6215SOL     OW19543   4.194   1.326   0.303
 6215SOL    HW119544   4.190   1.423   0.281
 6215SOL    HW219545   4.136   1.308   0.383
 6216SOL     OW19546   6.501   1.412   1.976
 6216SOL    HW119547   6.421   1.352   1.982
 6216SOL    HW219548   6.567   1.386   2.046
 6217SOL     OW19549   0.365   3.990   2.747
 6217SOL    HW119550   0.281   3.977   2.694
 6217SOL    HW219551   0.404   3.901   2.769
 6218SOL     OW19552   3.975   5.854   6.662
 6218SOL    HW119553   3.924   5.878   6.745
 6218SOL    HW219554   3.912   5.846   6.585
 6219SOL     OW19555   1.370   2.458   4.742
 6219SOL    HW119556   1.354   2.515   4.662
 6219SOL    HW219557   1.287   2.452   4.796
 6220SOL     OW19558   2.258   1.406   5.094
 6220SOL    HW119559   2.294   1.476   5.033
 6220SOL    HW219560   2.255   1.442   5.187
 6221SOL     OW19561   6.030   6.037   6.471
 6221SOL    HW119562   6.079   6.107   6.524
 6221SOL    HW219563   6.087   5.955   6.463
 6222SOL     OW19564   1.192   6.510   1.544
 6222SOL    HW119565   1.259   6.543   1.477
 6222SOL    HW219566   1.236   6.502   1.633
 6223SOL     OW19567   0.983   5.066   4.087
 6223SOL    HW119568   1.053   5.018   4.035
 6223SOL    HW219569   1.009   5.069   4.184
 6224SOL     OW19570   2.725   1.598   6.024
 6224SOL    HW119571   2.632   1.623   5.997
 6224SOL    HW219572   2.744   1.504   5.995
 6225SOL     OW19573   4.141   3.843   6.798
 6225SOL    HW119574   4.095   3.928   6.770
 6225SOL    HW219575   4.108   3.816   6.889
 6226SOL     OW19576   7.002   1.685   5.338
 6226SOL    HW119577   6.960   1.746   5.271
 6226SOL    HW219578   0.017   1.740   5.413
 6227SOL     OW19579   3.354   6.045   5.252
 6227SOL    HW119580   3.384   5.982   5.181
 6227SOL    HW219581   3.254   6.050   5.253
 6228SOL     OW19582   1.273   2.950   2.693
 6228SOL    HW119583   1.177   2.929   2.673
 6228SOL    HW219584   1.281   2.977   2.789
 6229SOL     OW19585   0.535   2.282   3.070
 6229SOL    HW119586   0.495   2.353   3.129
 6229SOL    HW219587   0.620   2.249   3.110
 6230SOL     OW19588   0.650   1.598   3.760
 6230SOL    HW119589   0.642   1.500   3.743
 6230SOL    HW219590   0.673   1.645   3.675
 6231SOL     OW19591   6.370   6.140   1.022
 6231SOL    HW119592   6.384   6.228   1.068
 6231SOL    HW219593   6.457   6.091   1.018
 6232SOL     OW19594   0.253   0.826   0.852
 6232SOL    HW119595   0.341   0.868   0.875
 6232SOL    HW219596   0.263   0.772   0.769
 6233SOL     OW19597   0.061   1.516   1.206
 6233SOL    HW119598   7.001   1.481   1.249
 6233SOL    HW219599   0.116   1.565   1.274
 6234SOL     OW19600   6.521   1.633   5.441
 6234SOL    HW119601   6.598   1.568   5.436
 6234SOL    HW219602   6.435   1.582   5.447
 6235SOL     OW19603   1.045   0.024   1.212
 6235SOL    HW119604   1.132   0.023   1.162
 6235SOL    HW219605   1.060   0.060   1.304
 6236SOL     OW19606   0.620   3.696   1.268
 6236SOL    HW119607   0.525   3.666   1.256
 6236SOL    HW219608   0.674   3.668   1.188
 6237SOL     OW19609   3.375   0.516   6.367
 6237SOL    HW119610   3.301   0.482   6.309
 6237SOL    HW219611   3.426   0.586   6.319
 6238SOL     OW19612   3.734   4.924   2.818
 6238SOL    HW119613   3.776   4.867   2.889
 6238SOL    HW219614   3.644   4.955   2.849
 6239SOL     OW19615   3.007   0.295   1.884
 6239SOL    HW119616   2.947   0.221   1.915
 6239SOL    HW219617   2.977   0.326   1.794
 6240SOL     OW19618   2.144   3.086   5.541
 6240SOL    HW119619   2.153   3.185   5.551
 6240SOL    HW219620   2.235   3.046   5.527
 6241SOL     OW19621   3.557   0.010   1.482
 6241SOL    HW119622   3.602   0.001   1.570
 6241SOL    HW219623   3.512   0.099   1.475
 6242SOL     OW19624   4.614   0.627   4.126
 6242SOL    HW119625   4.545   0.638   4.197
 6242SOL    HW219626   4.573   0.586   4.045
 6243SOL     OW19627   6.139   6.336   4.420
 6243SOL    HW119628   6.173   6.367   4.509
 6243SOL    HW219629   6.216   6.305   4.364
 6244SOL     OW19630   6.991   2.413   1.900
 6244SOL    HW119631   6.913   2.417   1.962
 6244SOL    HW219632   0.052   2.431   1.951
 6245SOL     OW19633   1.452   4.209   0.510
 6245SOL    HW119634   1.444   4.109   0.501
 6245SOL    HW219635   1.535   4.231   0.561
 6246SOL     OW19636   1.800   2.054   5.457
 6246SOL    HW119637   1.771   1.976   5.401
 6246SOL    HW219638   1.898   2.069   5.445
 6247SOL     OW19639   6.835   5.755   4.738
 6247SOL    HW119640   6.822   5.752   4.639
 6247SOL    HW219641   6.890   5.835   4.762
 6248SOL     OW19642   3.411   3.319   0.411
 6248SOL    HW119643   3.361   3.233   0.406
 6248SOL    HW219644   3.348   3.395   0.403
 6249SOL     OW19645   0.453   3.614   0.453
 6249SOL    HW119646   0.376   3.574   0.504
 6249SOL    HW219647   0.528   3.634   0.515
 6250SOL     OW19648   6.705   0.496   6.535
 6250SOL    HW119649   6.740   0.520   6.625
 6250SOL    HW219650   6.780   0.464   6.477
 6251SOL     OW19651   4.263   5.744   6.489
 6251SOL    HW119652   4.351   5.702   6.512
 6251SOL    HW219653   4.207   5.752   6.571
 6252SOL     OW19654   2.004   6.277   5.631
 6252SOL    HW119655   1.910   6.253   5.653
 6252SOL    HW219656   2.014   6.377   5.631
 6253SOL     OW19657   2.387   4.322   3.626
 6253SOL    HW119658   2.330   4.398   3.592
 6253SOL    HW219659   2.459   4.303   3.559
 6254SOL     OW19660   5.381   1.266   1.194
 6254SOL    HW119661   5.466   1.230   1.156
 6254SOL    HW219662   5.307   1.257   1.127
 6255SOL     OW19663   3.279   0.677   1.017
 6255SOL    HW119664   3.255   0.751   1.080
 6255SOL    HW219665   3.197   0.641   0.973
 6256SOL     OW19666   3.674   5.453   1.790
 6256SOL    HW119667   3.603   5.386   1.810
 6256SOL    HW219668   3.722   5.477   1.875
 6257SOL     OW19669   5.123   1.989   0.958
 6257SOL    HW119670   5.041   2.044   0.941
 6257SOL    HW219671   5.107   1.929   1.037
 6258SOL     OW19672   3.408   0.624   3.554
 6258SOL    HW119673   3.326   0.581   3.594
 6258SOL    HW219674   3.383   0.670   3.469
 6259SOL     OW19675   2.004   2.332   0.124
 6259SOL    HW119676   1.964   2.240   0.124
 6259SOL    HW219677   2.102   2.326   0.104
 6260SOL     OW19678   3.649   5.656   7.021
 6260SOL    HW119679   3.625   5.572   0.047
 6260SOL    HW219680   3.736   5.691   0.033
 6261SOL     OW19681   3.781   1.001   6.765
 6261SOL    HW119682   3.837   1.057   6.826
 6261SOL    HW219683   3.685   1.025   6.776
 6262SOL     OW19684   2.411   6.364   1.744
 6262SOL    HW119685   2.409   6.266   1.764
 6262SOL    HW219686   2.433   6.415   1.828
 6263SOL     OW19687   6.897   1.029   5.271
 6263SOL    HW119688   6.827   1.091   5.234
 6263SOL    HW219689   6.864   0.935   5.267
 6264SOL     OW19690   1.453   0.183   1.967
 6264SOL    HW119691   1.361   0.212   1.992
 6264SOL    HW219692   1.450   0.097   1.917
 6265SOL     OW19693   3.862   3.238   0.075
 6265SOL    HW119694   3.954   3.253   0.039
 6265SOL    HW219695   3.824   3.154   0.037
 6266SOL     OW19696   3.914   0.641   4.468
 6266SOL    HW119697   3.965   0.574   4.415
 6266SOL    HW219698   3.855   0.694   4.408
 6267SOL     OW19699   2.343   6.891   6.292
 6267SOL    HW119700   2.326   6.798   6.324
 6267SOL    HW219701   2.255   6.939   6.282
 6268SOL     OW19702   2.624   0.367   3.133
 6268SOL    HW119703   2.617   0.459   3.172
 6268SOL    HW219704   2.670   0.373   3.044
 6269SOL     OW19705   0.112   6.862   1.743
 6269SOL    HW119706   0.047   6.906   1.681
 6269SOL    HW219707   0.194   6.919   1.751
 6270SOL     OW19708   1.522   0.053   6.194
 6270SOL    HW119709   1.438   0.028   6.242
 6270SOL    HW219710   1.499   0.087   6.103
 6271SOL     OW19711   6.430   2.377   6.493
 6271SOL    HW119712   6.435   2.391   6.394
 6271SOL    HW219713   6.335   2.370   6.521
 6272SOL     OW19714   0.230   2.820   0.066
 6272SOL    HW119715   0.330   2.822   0.059
 6272SOL    HW219716   0.203   2.841   0.160
 6273SOL     OW19717   0.899   6.465   2.554
 6273SOL    HW119718   0.896   6.565   2.550
 6273SOL    HW219719   0.836   6.427   2.486
 6274SOL     OW19720   3.391   5.828   5.793
 6274SOL    HW119721   3.439   5.914   5.776
 6274SOL    HW219722   3.421   5.759   5.726
 6275SOL     OW19723   2.453   6.196   6.469
 6275SOL    HW119724   2.379   6.263   6.466
 6275SOL    HW219725   2.415   6.106   6.493
 6276SOL     OW19726   1.411   4.235   3.802
 6276SOL    HW119727   1.347   4.164   3.771
 6276SOL    HW219728   1.360   4.311   3.841
 6277SOL     OW19729   5.383   3.626   2.035
 6277SOL    HW119730   5.380   3.653   1.939
 6277SOL    HW219731   5.291   3.604   2.067
 6278SOL     OW19732   5.015   6.527   4.708
 6278SOL    HW119733   4.940   6.559   4.766
 6278SOL    HW219734   4.979   6.497   4.620
 6279SOL     OW19735   3.789   6.658   6.665
 6279SOL    HW119736   3.705   6.701   6.696
 6279SOL    HW219737   3.768   6.592   6.593
 6280SOL     OW19738   0.957   2.216   4.748
 6280SOL    HW119739   0.880   2.239   4.807
 6280SOL    HW219740   0.923   2.182   4.660
 6281SOL     OW19741   0.703   5.003   4.110
 6281SOL    HW119742   0.792   5.035   4.076
 6281SOL    HW219743   0.716   4.920   4.165
 6282SOL     OW19744   0.707   5.810   5.435
 6282SOL    HW119745   0.653   5.849   5.509
 6282SOL    HW219746   0.804   5.809   5.461
 6283SOL     OW19747   6.598   3.326   5.105
 6283SOL    HW119748   6.584   3.263   5.182
 6283SOL    HW219749   6.686   3.372   5.116
 6284SOL     OW19750   1.033   5.571   4.841
 6284SOL    HW119751   0.980   5.556   4.924
 6284SOL    HW219752   1.126   5.535   4.853
 6285SOL     OW19753   0.251   4.207   4.952
 6285SOL    HW119754   0.327   4.192   4.888
 6285SOL    HW219755   0.182   4.266   4.909
 6286SOL     OW19756   5.839   1.874   4.263
 6286SOL    HW119757   5.898   1.949   4.235
 6286SOL    HW219758   5.743   1.902   4.256
 6287SOL     OW19759   3.510   4.979   4.681
 6287SOL    HW119760   3.436   5.011   4.741
 6287SOL    HW219761   3.592   4.962   4.735
 6288SOL     OW19762   4.952   4.382   2.703
 6288SOL    HW119763   5.025   4.330   2.748
 6288SOL    HW219764   4.987   4.422   2.618
 6289SOL     OW19765   1.760   5.012   1.077
 6289SOL    HW119766   1.763   5.110   1.061
 6289SOL    HW219767   1.717   4.966   1.000
 6290SOL     OW19768   6.610   5.301   5.672
 6290SOL    HW119769   6.525   5.299   5.725
 6290SOL    HW219770   6.595   5.354   5.588
 6291SOL     OW19771   4.146   3.592   4.499
 6291SOL    HW119772   4.133   3.571   4.596
 6291SOL    HW219773   4.175   3.687   4.488
 6292SOL     OW19774   1.184   2.041   4.540
 6292SOL    HW119775   1.178   2.137   4.515
 6292SOL    HW219776   1.128   2.024   4.621
 6293SOL     OW19777   3.331   0.819   0.651
 6293SOL    HW119778   3.251   0.769   0.619
 6293SOL    HW219779   3.305   0.877   0.729
 6294SOL     OW19780   3.562   6.532   3.943
 6294SOL    HW119781   3.494   6.495   4.006
 6294SOL    HW219782   3.552   6.631   3.935
 6295SOL     OW19783   5.515   4.565   5.862
 6295SOL    HW119784   5.463   4.605   5.787
 6295SOL    HW219785   5.454   4.510   5.920
 6296SOL     OW19786   0.768   6.324   5.933
 6296SOL    HW119787   0.847   6.384   5.925
 6296SOL    HW219788   0.717   6.324   5.847
 6297SOL     OW19789   5.839   0.984   3.972
 6297SOL    HW119790   5.811   1.051   3.903
 6297SOL    HW219791   5.861   1.032   4.057
 6298SOL     OW19792   1.843   2.711   0.166
 6298SOL    HW119793   1.905   2.694   0.243
 6298SOL    HW219794   1.837   2.810   0.151
 6299SOL     OW19795   5.978   1.872   0.512
 6299SOL    HW119796   5.964   1.942   0.582
 6299SOL    HW219797   5.907   1.803   0.519
 6300SOL     OW19798   6.546   0.706   0.446
 6300SOL    HW119799   6.509   0.785   0.495
 6300SOL    HW219800   6.501   0.697   0.357
 6301SOL     OW19801   3.829   6.599   0.267
 6301SOL    HW119802   3.777   6.634   0.189
 6301SOL    HW219803   3.813   6.501   0.277
 6302SOL     OW19804   1.498   0.472   3.232
 6302SOL    HW119805   1.469   0.484   3.327
 6302SOL    HW219806   1.498   0.375   3.209
 6303SOL     OW19807   2.000   1.469   3.831
 6303SOL    HW119808   2.043   1.379   3.819
 6303SOL    HW219809   1.902   1.462   3.809
 6304SOL     OW19810   2.372   0.828   1.344
 6304SOL    HW119811   2.287   0.783   1.319
 6304SOL    HW219812   2.446   0.794   1.286
 6305SOL     OW19813   6.247   0.041   0.969
 6305SOL    HW119814   6.214   7.004   1.043
 6305SOL    HW219815   6.266   0.132   1.006
 6306SOL     OW19816   0.587   4.184   3.838
 6306SOL    HW119817   0.603   4.146   3.929
 6306SOL    HW219818   0.499   4.151   3.803
 6307SOL     OW19819   3.394   3.954   5.222
 6307SOL    HW119820   3.373   3.867   5.266
 6307SOL    HW219821   3.439   4.015   5.287
 6308SOL     OW19822   2.110   2.089   4.454
 6308SOL    HW119823   2.165   2.127   4.379
 6308SOL    HW219824   2.148   2.119   4.542
 6309SOL     OW19825   5.917   4.353   5.196
 6309SOL    HW119826   5.966   4.378   5.279
 6309SOL    HW219827   5.912   4.253   5.189
 6310SOL     OW19828   2.215   5.975   2.689
 6310SOL    HW119829   2.233   6.012   2.598
 6310SOL    HW219830   2.168   5.887   2.680
 6311SOL     OW19831   5.190   1.144   6.032
 6311SOL    HW119832   5.187   1.116   6.128
 6311SOL    HW219833   5.219   1.239   6.026
 6312SOL     OW19834   6.337   5.554   5.307
 6312SOL    HW119835   6.379   5.605   5.231
 6312SOL    HW219836   6.347   5.456   5.290
 6313SOL     OW19837   6.619   5.890   4.853
 6313SOL    HW119838   6.595   5.987   4.850
 6313SOL    HW219839   6.716   5.880   4.829
 6314SOL     OW19840   3.828   6.768   1.703
 6314SOL    HW119841   3.734   6.753   1.733
 6314SOL    HW219842   3.828   6.822   1.619
 6315SOL     OW19843   2.181   2.641   5.450
 6315SOL    HW119844   2.217   2.650   5.543
 6315SOL    HW219845   2.208   2.720   5.396
 6316SOL     OW19846   5.116   1.996   0.076
 6316SOL    HW119847   5.114   2.051   0.159
 6316SOL    HW219848   5.157   2.049   0.002
 6317SOL     OW19849   4.514   5.232   1.593
 6317SOL    HW119850   4.611   5.208   1.590
 6317SOL    HW219851   4.479   5.219   1.685
 6318SOL     OW19852   3.652   1.280   5.794
 6318SOL    HW119853   3.607   1.255   5.708
 6318SOL    HW219854   3.591   1.340   5.847
 6319SOL     OW19855   6.330   1.601   4.884
 6319SOL    HW119856   6.251   1.611   4.824
 6319SOL    HW219857   6.315   1.653   4.968
 6320SOL     OW19858   6.092   6.246   5.216
 6320SOL    HW119859   6.032   6.287   5.148
 6320SOL    HW219860   6.178   6.297   5.219
 6321SOL     OW19861   3.927   3.385   0.754
 6321SOL    HW119862   3.959   3.478   0.773
 6321SOL    HW219863   3.917   3.373   0.655
 6322SOL     OW19864   2.075   2.062   0.649
 6322SOL    HW119865   2.044   2.066   0.554
 6322SOL    HW219866   2.166   2.019   0.653
 6323SOL     OW19867   2.976   2.846   1.717
 6323SOL    HW119868   2.896   2.812   1.767
 6323SOL    HW219869   3.055   2.789   1.740
 6324SOL     OW19870   5.420   0.372   0.136
 6324SOL    HW119871   5.365   0.454   0.154
 6324SOL    HW219872   5.410   0.307   0.211
 6325SOL     OW19873   1.582   2.337   2.540
 6325SOL    HW119874   1.520   2.379   2.473
 6325SOL    HW219875   1.584   2.238   2.524
 6326SOL     OW19876   4.764   5.273   1.862
 6326SOL    HW119877   4.693   5.254   1.930
 6326SOL    HW219878   4.756   5.367   1.830
 6327SOL     OW19879   6.987   0.527   4.878
 6327SOL    HW119880   6.976   0.602   4.943
 6327SOL    HW219881   6.988   0.564   4.785
 6328SOL     OW19882   3.432   3.239   0.125
 6328SOL    HW119883   3.443   3.304   0.200
 6328SOL    HW219884   3.354   3.265   0.070
 6329SOL     OW19885   2.330   2.179   3.159
 6329SOL    HW119886   2.335   2.201   3.256
 6329SOL    HW219887   2.316   2.080   3.148
 6330SOL     OW19888   5.046   0.569   1.091
 6330SOL    HW119889   5.039   0.486   1.146
 6330SOL    HW219890   4.963   0.624   1.103
 6331SOL     OW19891   6.423   2.877   5.204
 6331SOL    HW119892   6.479   2.826   5.139
 6331SOL    HW219893   6.349   2.819   5.237
 6332SOL     OW19894   0.295   3.414   0.803
 6332SOL    HW119895   0.260   3.437   0.893
 6332SOL    HW219896   0.376   3.469   0.783
 6333SOL     OW19897   4.262   5.399   4.929
 6333SOL    HW119898   4.359   5.421   4.923
 6333SOL    HW219899   4.220   5.409   4.838
 6334SOL     OW19900   2.840   0.822   2.275
 6334SOL    HW119901   2.919   0.882   2.289
 6334SOL    HW219902   2.804   0.835   2.183
 6335SOL     OW19903   3.426   0.521   0.529
 6335SOL    HW119904   3.359   0.565   0.470
 6335SOL    HW219905   3.401   0.536   0.625
 6336SOL     OW19906   0.824   2.569   5.892
 6336SOL    HW119907   0.870   2.623   5.963
 6336SOL    HW219908   0.760   2.628   5.843
 6337SOL     OW19909   4.719   4.726   5.815
 6337SOL    HW119910   4.710   4.688   5.723
 6337SOL    HW219911   4.807   4.696   5.854
 6338SOL     OW19912   3.160   1.745   4.226
 6338SOL    HW119913   3.166   1.732   4.127
 6338SOL    HW219914   3.230   1.689   4.271
 6339SOL     OW19915   0.857   3.514   3.429
 6339SOL    HW119916   0.772   3.539   3.475
 6339SOL    HW219917   0.837   3.478   3.338
 6340SOL     OW19918   2.132   5.288   2.543
 6340SOL    HW119919   2.204   5.357   2.533
 6340SOL    HW219920   2.073   5.314   2.619
 6341SOL     OW19921   0.323   4.266   4.562
 6341SOL    HW119922   0.394   4.265   4.633
 6341SOL    HW219923   0.296   4.360   4.543
 6342SOL     OW19924   1.701   1.043   2.213
 6342SOL    HW119925   1.761   1.061   2.292
 6342SOL    HW219926   1.753   0.995   2.142
 6343SOL     OW19927   4.946   2.139   6.791
 6343SOL    HW119928   4.994   2.085   6.723
 6343SOL    HW219929   4.899   2.079   6.855
 6344SOL     OW19930   5.022   2.562   4.184
 6344SOL    HW119931   5.074   2.479   4.162
 6344SOL    HW219932   5.063   2.640   4.138
 6345SOL     OW19933   6.257   2.839   2.308
 6345SOL    HW119934   6.239   2.901   2.232
 6345SOL    HW219935   6.294   2.753   2.273
 6346SOL     OW19936   6.587   5.461   4.181
 6346SOL    HW119937   6.549   5.502   4.098
 6346SOL    HW219938   6.579   5.362   4.176
 6347SOL     OW19939   2.205   0.423   0.686
 6347SOL    HW119940   2.302   0.434   0.705
 6347SOL    HW219941   2.168   0.349   0.742
 6348SOL     OW19942   1.253   3.285   5.653
 6348SOL    HW119943   1.206   3.304   5.740
 6348SOL    HW219944   1.352   3.277   5.670
 6349SOL     OW19945   2.074   0.766   1.293
 6349SOL    HW119946   2.010   0.718   1.233
 6349SOL    HW219947   2.086   0.715   1.378
 6350SOL     OW19948   0.756   5.323   3.996
 6350SOL    HW119949   0.746   5.303   3.899
 6350SOL    HW219950   0.780   5.419   4.008
 6351SOL     OW19951   6.357   3.925   3.933
 6351SOL    HW119952   6.301   3.950   4.013
 6351SOL    HW219953   6.334   3.832   3.905
 6352SOL     OW19954   3.804   5.955   4.838
 6352SOL    HW119955   3.861   5.949   4.756
 6352SOL    HW219956   3.759   6.045   4.841
 6353SOL     OW19957   0.847   6.619   6.297
 6353SOL    HW119958   0.847   6.688   6.225
 6353SOL    HW219959   0.756   6.577   6.303
 6354SOL     OW19960   2.407   5.961   2.911
 6354SOL    HW119961   2.409   5.862   2.923
 6354SOL    HW219962   2.329   5.987   2.855
 6355SOL     OW19963   0.926   5.547   0.078
 6355SOL    HW119964   0.901   5.643   0.095
 6355SOL    HW219965   0.929   5.530   7.002
 6356SOL     OW19966   5.058   6.200   2.038
 6356SOL    HW119967   5.017   6.290   2.054
 6356SOL    HW219968   5.046   6.175   1.942
 6357SOL     OW19969   6.139   3.625   2.424
 6357SOL    HW119970   6.227   3.630   2.472
 6357SOL    HW219971   6.066   3.611   2.491
 6358SOL     OW19972   0.647   2.238   6.355
 6358SOL    HW119973   0.647   2.138   6.348
 6358SOL    HW219974   0.727   2.276   6.309
 6359SOL     OW19975   5.893   0.144   6.554
 6359SOL    HW119976   5.932   0.117   6.642
 6359SOL    HW219977   5.868   0.063   6.502
 6360SOL     OW19978   1.586   4.552   4.091
 6360SOL    HW119979   1.564   4.556   3.994
 6360SOL    HW219980   1.668   4.496   4.105
 6361SOL     OW19981   1.216   6.696   1.873
 6361SOL    HW119982   1.299   6.649   1.844
 6361SOL    HW219983   1.204   6.685   1.971
 6362SOL     OW19984   6.673   6.477   6.952
 6362SOL    HW119985   6.709   6.571   6.950
 6362SOL    HW219986   6.746   6.414   6.979
 6363SOL     OW19987   1.682   5.021   3.553
 6363SOL    HW119988   1.717   5.094   3.611
 6363SOL    HW219989   1.629   5.060   3.477
 6364SOL     OW19990   3.105   1.307   6.177
 6364SOL    HW119991   3.130   1.228   6.232
 6364SOL    HW219992   3.023   1.350   6.215
 6365SOL     OW19993   5.574   0.261   3.589
 6365SOL    HW119994   5.576   0.344   3.645
 6365SOL    HW219995   5.504   0.199   3.623
 6366SOL     OW19996   1.094   6.201   6.149
 6366SOL    HW119997   1.064   6.124   6.206
 6366SOL    HW219998   1.070   6.286   6.195
 6367SOL     OW19999   3.929   1.167   4.906
 6367SOL    HW120000   3.899   1.129   4.993
 6367SOL    HW220001   3.869   1.243   4.881
 6368SOL     OW20002   3.860   5.054   3.808
 6368SOL    HW120003   3.942   5.044   3.864
 6368SOL    HW220004   3.789   4.992   3.840
 6369SOL     OW20005   2.340   5.570   3.811
 6369SOL    HW120006   2.276   5.621   3.753
 6369SOL    HW220007   2.348   5.616   3.900
 6370SOL     OW20008   6.908   3.296   3.868
 6370SOL    HW120009   6.997   3.341   3.863
 6370SOL    HW220010   6.906   3.233   3.945
 6371SOL     OW20011   4.928   4.589   3.334
 6371SOL    HW120012   4.852   4.649   3.311
 6371SOL    HW220013   4.954   4.603   3.429
 6372SOL     OW20014   2.028   0.747   2.184
 6372SOL    HW120015   2.015   0.674   2.117
 6372SOL    HW220016   2.122   0.745   2.219
 6373SOL     OW20017   4.782   4.137   2.464
 6373SOL    HW120018   4.749   4.188   2.385
 6373SOL    HW220019   4.758   4.186   2.548
 6374SOL     OW20020   3.317   4.116   3.153
 6374SOL    HW120021   3.379   4.159   3.219
 6374SOL    HW220022   3.329   4.159   3.064
 6375SOL     OW20023   6.829   1.819   3.812
 6375SOL    HW120024   6.788   1.881   3.879
 6375SOL    HW220025   6.918   1.788   3.846
 6376SOL     OW20026   5.704   2.105   4.934
 6376SOL    HW120027   5.700   2.199   4.901
 6376SOL    HW220028   5.799   2.074   4.935
 6377SOL     OW20029   6.826   1.904   5.547
 6377SOL    HW120030   6.919   1.918   5.513
 6377SOL    HW220031   6.824   1.824   5.606
 6378SOL     OW20032   4.461   5.051   4.092
 6378SOL    HW120033   4.501   4.976   4.144
 6378SOL    HW220034   4.457   5.133   4.150
 6379SOL     OW20035   1.545   3.851   4.454
 6379SOL    HW120036   1.615   3.919   4.478
 6379SOL    HW220037   1.456   3.880   4.489
 6380SOL     OW20038   0.202   1.592   5.628
 6380SOL    HW120039   0.237   1.593   5.534
 6380SOL    HW220040   0.143   1.513   5.641
 6381SOL     OW20041   4.095   3.175   1.592
 6381SOL    HW120042   4.192   3.155   1.606
 6381SOL    HW220043   4.051   3.097   1.547
 6382SOL     OW20044   2.568   2.162   1.062
 6382SOL    HW120045   2.607   2.252   1.085
 6382SOL    HW220046   2.624   2.090   1.103
 6383SOL     OW20047   1.551   2.315   2.819
 6383SOL    HW120048   1.549   2.215   2.817
 6383SOL    HW220049   1.552   2.350   2.726
 6384SOL     OW20050   6.822   4.163   2.227
 6384SOL    HW120051   6.872   4.124   2.150
 6384SOL    HW220052   6.802   4.259   2.209
 6385SOL     OW20053   0.313   4.080   3.823
 6385SOL    HW120054   0.232   4.104   3.769
 6385SOL    HW220055   0.284   4.056   3.916
 6386SOL     OW20056   2.798   5.030   5.820
 6386SOL    HW120057   2.814   4.949   5.764
 6386SOL    HW220058   2.731   5.009   5.891
 6387SOL     OW20059   0.178   1.609   6.360
 6387SOL    HW120060   0.187   1.614   6.459
 6387SOL    HW220061   0.200   1.517   6.328
 6388SOL     OW20062   3.809   5.774   1.796
 6388SOL    HW120063   3.756   5.737   1.720
 6388SOL    HW220064   3.769   5.861   1.826
 6389SOL     OW20065   0.368   6.028   2.271
 6389SOL    HW120066   0.456   6.014   2.226
 6389SOL    HW220067   0.355   5.958   2.342
 6390SOL     OW20068   0.701   0.984   5.876
 6390SOL    HW120069   0.603   1.001   5.863
 6390SOL    HW220070   0.736   1.047   5.946
 6391SOL     OW20071   3.033   6.784   5.839
 6391SOL    HW120072   3.050   6.752   5.932
 6391SOL    HW220073   2.972   6.720   5.792
 6392SOL     OW20074   2.769   5.651   2.790
 6392SOL    HW120075   2.763   5.552   2.782
 6392SOL    HW220076   2.769   5.677   2.886
 6393SOL     OW20077   6.980   6.916   2.270
 6393SOL    HW120078   0.044   6.867   2.285
 6393SOL    HW220079   6.981   6.957   2.180
 6394SOL     OW20080   1.609   4.923   0.848
 6394SOL    HW120081   1.635   4.876   0.764
 6394SOL    HW220082   1.552   4.862   0.903
 6395SOL     OW20083   0.500   2.410   1.040
 6395SOL    HW120084   0.440   2.457   1.105
 6395SOL    HW220085   0.447   2.346   0.985
 6396SOL     OW20086   4.932   3.422   6.679
 6396SOL    HW120087   4.936   3.479   6.761
 6396SOL    HW220088   4.839   3.389   6.666
 6397SOL     OW20089   5.541   1.730   0.728
 6397SOL    HW120090   5.517   1.634   0.719
 6397SOL    HW220091   5.458   1.785   0.732
 6398SOL     OW20092   2.289   6.837   2.017
 6398SOL    HW120093   2.207   6.788   2.046
 6398SOL    HW220094   2.300   6.827   1.918
 6399SOL     OW20095   1.751   6.380   6.561
 6399SOL    HW120096   1.785   6.433   6.484
 6399SOL    HW220097   1.734   6.441   6.639
 6400SOL     OW20098   2.648   5.901   2.179
 6400SOL    HW120099   2.747   5.911   2.172
 6400SOL    HW220100   2.619   5.921   2.273
 6401SOL     OW20101   5.683   5.124   3.254
 6401SOL    HW120102   5.746   5.196   3.227
 6401SOL    HW220103   5.718   5.076   3.334
 6402SOL     OW20104   3.218   2.207   3.190
 6402SOL    HW120105   3.158   2.218   3.111
 6402SOL    HW220106   3.289   2.140   3.170
 6403SOL     OW20107   6.999   6.329   6.755
 6403SOL    HW120108   0.057   6.352   6.700
 6403SOL    HW220109   6.991   6.230   6.762
 6404SOL     OW20110   4.352   1.068   2.313
 6404SOL    HW120111   4.368   1.166   2.330
 6404SOL    HW220112   4.391   1.043   2.225
 6405SOL     OW20113   2.946   0.253   3.799
 6405SOL    HW120114   2.961   0.222   3.705
 6405SOL    HW220115   2.953   0.353   3.802
 6406SOL     OW20116   0.729   3.101   3.026
 6406SOL    HW120117   0.642   3.147   3.042
 6406SOL    HW220118   0.714   3.022   2.967
 6407SOL     OW20119   2.605   6.119   4.173
 6407SOL    HW120120   2.538   6.179   4.216
 6407SOL    HW220121   2.685   6.110   4.232
 6408SOL     OW20122   5.401   1.743   6.746
 6408SOL    HW120123   5.377   1.746   6.843
 6408SOL    HW220124   5.420   1.836   6.714
 6409SOL     OW20125   6.735   4.318   3.633
 6409SOL    HW120126   6.714   4.225   3.604
 6409SOL    HW220127   6.823   4.319   3.681
 6410SOL     OW20128   1.885   1.382   6.984
 6410SOL    HW120129   1.852   1.291   6.961
 6410SOL    HW220130   1.944   1.416   6.910
 6411SOL     OW20131   0.741   2.921   3.217
 6411SOL    HW120132   0.690   2.958   3.296
 6411SOL    HW220133   0.748   2.991   3.146
 6412SOL     OW20134   0.702   2.232   4.887
 6412SOL    HW120135   0.615   2.204   4.846
 6412SOL    HW220136   0.689   2.247   4.985
 6413SOL     OW20137   3.717   4.889   3.981
 6413SOL    HW120138   3.744   4.795   4.003
 6413SOL    HW220139   3.666   4.928   4.058
 6414SOL     OW20140   5.304   1.108   0.730
 6414SOL    HW120141   5.292   1.022   0.680
 6414SOL    HW220142   5.386   1.154   0.697
 6415SOL     OW20143   1.528   3.338   2.812
 6415SOL    HW120144   1.577   3.384   2.886
 6415SOL    HW220145   1.588   3.270   2.770
 6416SOL     OW20146   0.718   1.246   6.872
 6416SOL    HW120147   0.761   1.160   6.842
 6416SOL    HW220148   0.788   1.317   6.879
 6417SOL     OW20149   6.327   4.993   0.920
 6417SOL    HW120150   6.267   4.940   0.861
 6417SOL    HW220151   6.273   5.040   0.989
 6418SOL     OW20152   5.099   3.867   1.880
 6418SOL    HW120153   5.168   3.906   1.819
 6418SOL    HW220154   5.009   3.875   1.838
 6419SOL     OW20155   2.228   4.896   3.238
 6419SOL    HW120156   2.148   4.883   3.296
 6419SOL    HW220157   2.202   4.888   3.142
 6420SOL     OW20158   3.049   5.555   4.571
 6420SOL    HW120159   3.082   5.646   4.596
 6420SOL    HW220160   3.077   5.489   4.640
 6421SOL     OW20161   5.283   0.301   2.553
 6421SOL    HW120162   5.343   0.380   2.536
 6421SOL    HW220163   5.315   0.223   2.499
 6422SOL     OW20164   0.183   1.101   4.278
 6422SOL    HW120165   0.238   1.047   4.214
 6422SOL    HW220166   0.089   1.067   4.279
 6423SOL     OW20167   4.748   5.260   2.842
 6423SOL    HW120168   4.833   5.310   2.826
 6423SOL    HW220169   4.715   5.222   2.756
 6424SOL     OW20170   6.923   5.569   6.104
 6424SOL    HW120171   6.885   5.521   6.025
 6424SOL    HW220172   6.931   5.505   6.181
 6425SOL     OW20173   6.517   6.421   2.623
 6425SOL    HW120174   6.528   6.410   2.524
 6425SOL    HW220175   6.432   6.378   2.652
 6426SOL     OW20176   1.322   5.092   2.398
 6426SOL    HW120177   1.398   5.124   2.455
 6426SOL    HW220178   1.358   5.059   2.310
 6427SOL     OW20179   3.758   3.661   4.739
 6427SOL    HW120180   3.681   3.724   4.726
 6427SOL    HW220181   3.805   3.648   4.652
 6428SOL     OW20182   5.734   3.374   6.142
 6428SOL    HW120183   5.831   3.376   6.115
 6428SOL    HW220184   5.677   3.387   6.061
 6429SOL     OW20185   1.787   1.814   5.750
 6429SOL    HW120186   1.783   1.907   5.787
 6429SOL    HW220187   1.879   1.777   5.764
 6430SOL     OW20188   6.551   0.878   2.611
 6430SOL    HW120189   6.612   0.925   2.674
 6430SOL    HW220190   6.467   0.852   2.658
 6431SOL     OW20191   5.481   6.499   4.124
 6431SOL    HW120192   5.538   6.457   4.054
 6431SOL    HW220193   5.538   6.530   4.200
 6432SOL     OW20194   4.286   4.478   6.386
 6432SOL    HW120195   4.378   4.512   6.368
 6432SOL    HW220196   4.220   4.551   6.370
 6433SOL     OW20197   2.253   4.956   6.748
 6433SOL    HW120198   2.310   4.882   6.783
 6433SOL    HW220199   2.156   4.933   6.761
 6434SOL     OW20200   2.456   4.239   6.766
 6434SOL    HW120201   2.440   4.201   6.857
 6434SOL    HW220202   2.554   4.241   6.748
 6435SOL     OW20203   4.490   6.845   0.664
 6435SOL    HW120204   4.587   6.838   0.688
 6435SOL    HW220205   4.458   6.938   0.681
 6436SOL     OW20206   1.982   3.045   2.838
 6436SOL    HW120207   1.948   2.952   2.820
 6436SOL    HW220208   2.004   3.089   2.751
 6437SOL     OW20209   2.219   1.617   0.518
 6437SOL    HW120210   2.268   1.532   0.539
 6437SOL    HW220211   2.187   1.659   0.603
 6438SOL     OW20212   6.291   4.479   6.119
 6438SOL    HW120213   6.381   4.461   6.160
 6438SOL    HW220214   6.224   4.418   6.160
 6439SOL     OW20215   5.674   0.963   1.511
 6439SOL    HW120216   5.631   0.881   1.549
 6439SOL    HW220217   5.613   1.041   1.523
 6440SOL     OW20218   2.144   0.966   5.637
 6440SOL    HW120219   2.230   0.918   5.647
 6440SOL    HW220220   2.161   1.062   5.612
 6441SOL     OW20221   6.661   6.754   2.375
 6441SOL    HW120222   6.601   6.733   2.298
 6441SOL    HW220223   6.754   6.726   2.354
 6442SOL     OW20224   1.897   1.039   4.444
 6442SOL    HW120225   1.890   1.119   4.385
 6442SOL    HW220226   1.929   0.961   4.391
 6443SOL     OW20227   4.054   1.972   5.755
 6443SOL    HW120228   4.073   1.882   5.716
 6443SOL    HW220229   4.074   1.971   5.853
 6444SOL     OW20230   5.835   2.689   4.097
 6444SOL    HW120231   5.828   2.787   4.116
 6444SOL    HW220232   5.812   2.637   4.179
 6445SOL     OW20233   4.080   3.564   5.028
 6445SOL    HW120234   4.026   3.648   5.037
 6445SOL    HW220235   4.149   3.561   5.100
 6446SOL     OW20236   1.663   1.436   6.386
 6446SOL    HW120237   1.658   1.533   6.362
 6446SOL    HW220238   1.580   1.390   6.354
 6447SOL     OW20239   5.406   4.994   2.909
 6447SOL    HW120240   5.469   4.940   2.965
 6447SOL    HW220241   5.331   4.936   2.878
 6448SOL     OW20242   3.777   5.627   2.019
 6448SOL    HW120243   3.866   5.581   2.021
 6448SOL    HW220244   3.780   5.701   1.952
 6449SOL     OW20245   3.607   5.379   0.457
 6449SOL    HW120246   3.646   5.470   0.460
 6449SOL    HW220247   3.600   5.341   0.549
 6450SOL     OW20248   0.527   3.764   0.951
 6450SOL    HW120249   0.490   3.831   0.886
 6450SOL    HW220250   0.614   3.798   0.988
 6451SOL     OW20251   2.249   0.765   4.542
 6451SOL    HW120252   2.228   0.745   4.446
 6451SOL    HW220253   2.170   0.809   4.584
 6452SOL     OW20254   4.411   5.932   4.270
 6452SOL    HW120255   4.348   5.978   4.332
 6452SOL    HW220256   4.423   5.988   4.188
 6453SOL     OW20257   2.277   6.311   1.236
 6453SOL    HW120258   2.254   6.408   1.228
 6453SOL    HW220259   2.286   6.271   1.144
 6454SOL     OW20260   1.915   1.903   3.167
 6454SOL    HW120261   1.966   1.959   3.233
 6454SOL    HW220262   1.959   1.909   3.077
 6455SOL     OW20263   0.049   2.764   3.900
 6455SOL    HW120264   6.977   2.736   3.883
 6455SOL    HW220265   0.054   2.813   3.987
 6456SOL     OW20266   0.718   1.120   3.817
 6456SOL    HW120267   0.707   1.089   3.911
 6456SOL    HW220268   0.753   1.045   3.761
 6457SOL     OW20269   4.722   1.689   0.870
 6457SOL    HW120270   4.712   1.758   0.798
 6457SOL    HW220271   4.636   1.638   0.878
 6458SOL     OW20272   0.931   6.523   3.966
 6458SOL    HW120273   0.856   6.572   3.923
 6458SOL    HW220274   0.900   6.483   4.052
 6459SOL     OW20275   6.217   3.238   0.910
 6459SOL    HW120276   6.194   3.180   0.832
 6459SOL    HW220277   6.286   3.305   0.884
 6460SOL     OW20278   5.692   6.186   5.371
 6460SOL    HW120279   5.745   6.266   5.342
 6460SOL    HW220280   5.606   6.182   5.320
 6461SOL     OW20281   2.506   4.865   5.686
 6461SOL    HW120282   2.586   4.810   5.663
 6461SOL    HW220283   2.497   4.940   5.620
 6462SOL     OW20284   2.376   2.697   4.464
 6462SOL    HW120285   2.403   2.774   4.407
 6462SOL    HW220286   2.392   2.719   4.560
 6463SOL     OW20287   6.246   3.428   6.462
 6463SOL    HW120288   6.176   3.488   6.502
 6463SOL    HW220289   6.331   3.480   6.450
 6464SOL     OW20290   0.823   5.583   4.661
 6464SOL    HW120291   0.746   5.629   4.706
 6464SOL    HW220292   0.907   5.601   4.712
 6465SOL     OW20293   0.055   3.252   2.865
 6465SOL    HW120294   0.129   3.289   2.922
 6465SOL    HW220295   0.094   3.197   2.791
 6466SOL     OW20296   1.366   1.342   5.972
 6466SOL    HW120297   1.314   1.341   5.887
 6466SOL    HW220298   1.322   1.403   6.038
 6467SOL     OW20299   3.403   1.370   0.377
 6467SOL    HW120300   3.394   1.390   0.474
 6467SOL    HW220301   3.432   1.275   0.365
 6468SOL     OW20302   3.356   6.337   0.400
 6468SOL    HW120303   3.399   6.253   0.432
 6468SOL    HW220304   3.423   6.412   0.403
 6469SOL     OW20305   5.216   0.864   4.510
 6469SOL    HW120306   5.207   0.963   4.497
 6469SOL    HW220307   5.307   0.835   4.480
 6470SOL     OW20308   6.396   3.784   0.507
 6470SOL    HW120309   6.296   3.777   0.501
 6470SOL    HW220310   6.437   3.698   0.476
 6471SOL     OW20311   6.720   6.517   5.654
 6471SOL    HW120312   6.797   6.516   5.590
 6471SOL    HW220313   6.654   6.587   5.626
 6472SOL     OW20314   0.447   6.107   1.520
 6472SOL    HW120315   0.531   6.113   1.574
 6472SOL    HW220316   0.395   6.191   1.528
 6473SOL     OW20317   3.053   1.013   4.495
 6473SOL    HW120318   3.144   0.982   4.470
 6473SOL    HW220319   3.043   1.110   4.472
 6474SOL     OW20320   2.546   4.534   5.951
 6474SOL    HW120321   2.483   4.524   5.875
 6474SOL    HW220322   2.496   4.565   6.032
 6475SOL     OW20323   6.002   5.091   3.911
 6475SOL    HW120324   6.075   5.158   3.898
 6475SOL    HW220325   6.040   4.999   3.906
 6476SOL     OW20326   4.113   3.675   1.164
 6476SOL    HW120327   4.033   3.616   1.176
 6476SOL    HW220328   4.195   3.618   1.156
 6477SOL     OW20329   6.037   4.651   1.248
 6477SOL    HW120330   6.038   4.554   1.272
 6477SOL    HW220331   6.128   4.690   1.262
 6478SOL     OW20332   3.588   0.665   1.858
 6478SOL    HW120333   3.662   0.732   1.854
 6478SOL    HW220334   3.623   0.575   1.831
 6479SOL     OW20335   4.150   5.311   3.802
 6479SOL    HW120336   4.138   5.374   3.725
 6479SOL    HW220337   4.237   5.331   3.848
 6480SOL     OW20338   3.019   1.779   6.272
 6480SOL    HW120339   3.089   1.766   6.202
 6480SOL    HW220340   2.976   1.869   6.260
 6481SOL     OW20341   3.696   1.936   1.981
 6481SOL    HW120342   3.795   1.921   1.988
 6481SOL    HW220343   3.677   2.034   1.986
 6482SOL     OW20344   6.974   0.796   6.247
 6482SOL    HW120345   0.013   0.874   6.257
 6482SOL    HW220346   7.017   0.727   6.188
 6483SOL     OW20347   1.390   6.258   1.792
 6483SOL    HW120348   1.294   6.273   1.816
 6483SOL    HW220349   1.414   6.162   1.805
 6484SOL     OW20350   3.434   6.804   1.426
 6484SOL    HW120351   3.385   6.769   1.505
 6484SOL    HW220352   3.480   6.890   1.451
 6485SOL     OW20353   1.699   4.753   3.673
 6485SOL    HW120354   1.785   4.737   3.721
 6485SOL    HW220355   1.699   4.844   3.632
 6486SOL     OW20356   2.262   4.525   3.485
 6486SOL    HW120357   2.195   4.593   3.517
 6486SOL    HW220358   2.342   4.571   3.449
 6487SOL     OW20359   7.020   6.153   4.969
 6487SOL    HW120360   0.095   6.174   4.954
 6487SOL    HW220361   7.012   6.079   5.036
 6488SOL     OW20362   3.836   5.666   4.499
 6488SOL    HW120363   3.807   5.570   4.498
 6488SOL    HW220364   3.817   5.708   4.410
 6489SOL     OW20365   3.178   2.574   6.474
 6489SOL    HW120366   3.258   2.527   6.438
 6489SOL    HW220367   3.206   2.661   6.514
 6490SOL     OW20368   3.948   0.517   6.677
 6490SOL    HW120369   4.033   0.569   6.671
 6490SOL    HW220370   3.892   0.536   6.596
 6491SOL     OW20371   3.698   0.555   0.638
 6491SOL    HW120372   3.648   0.577   0.722
 6491SOL    HW220373   3.638   0.563   0.559
 6492SOL     OW20374   4.238   5.050   0.142
 6492SOL    HW120375   4.274   4.971   0.191
 6492SOL    HW220376   4.140   5.039   0.128
 6493SOL     OW20377   1.158   5.026   5.140
 6493SOL    HW120378   1.203   5.007   5.227
 6493SOL    HW220379   1.093   4.953   5.119
 6494SOL     OW20380   0.120   0.435   3.500
 6494SOL    HW120381   0.027   0.404   3.476
 6494SOL    HW220382   0.116   0.530   3.531
 6495SOL     OW20383   5.347   0.148   4.102
 6495SOL    HW120384   5.389   0.227   4.146
 6495SOL    HW220385   5.321   0.081   4.172
 6496SOL     OW20386   6.917   0.497   3.274
 6496SOL    HW120387   7.003   0.525   3.231
 6496SOL    HW220388   6.900   0.401   3.252
 6497SOL     OW20389   1.401   2.342   0.957
 6497SOL    HW120390   1.483   2.398   0.967
 6497SOL    HW220391   1.419   2.265   0.896
 6498SOL     OW20392   2.050   3.847   3.413
 6498SOL    HW120393   1.981   3.779   3.386
 6498SOL    HW220394   2.064   3.912   3.338
 6499SOL     OW20395   4.949   2.887   4.857
 6499SOL    HW120396   4.988   2.804   4.816
 6499SOL    HW220397   4.997   2.967   4.821
 6500SOL     OW20398   6.762   4.068   3.934
 6500SOL    HW120399   6.855   4.038   3.912
 6500SOL    HW220400   6.704   4.061   3.853
 6501SOL     OW20401   6.640   2.247   6.851
 6501SOL    HW120402   6.611   2.305   6.926
 6501SOL    HW220403   6.724   2.199   6.877
 6502SOL     OW20404   6.392   2.167   1.691
 6502SOL    HW120405   6.430   2.254   1.657
 6502SOL    HW220406   6.299   2.156   1.656
 6503SOL     OW20407   4.999   1.468   3.222
 6503SOL    HW120408   4.904   1.440   3.241
 6503SOL    HW220409   5.038   1.408   3.153
 6504SOL     OW20410   4.728   5.618   5.812
 6504SOL    HW120411   4.651   5.627   5.875
 6504SOL    HW220412   4.708   5.547   5.745
 6505SOL     OW20413   5.562   5.911   0.760
 6505SOL    HW120414   5.608   5.866   0.837
 6505SOL    HW220415   5.631   5.953   0.700
 6506SOL     OW20416   6.872   2.716   2.631
 6506SOL    HW120417   6.905   2.624   2.612
 6506SOL    HW220418   6.773   2.714   2.645
 6507SOL     OW20419   2.117   5.377   5.718
 6507SOL    HW120420   2.172   5.423   5.648
 6507SOL    HW220421   2.024   5.363   5.684
 6508SOL     OW20422   1.438   0.818   2.959
 6508SOL    HW120423   1.386   0.878   3.020
 6508SOL    HW220424   1.451   0.863   2.871
 6509SOL     OW20425   3.327   1.844   4.483
 6509SOL    HW120426   3.232   1.862   4.457
 6509SOL    HW220427   3.375   1.931   4.496
 6510SOL     OW20428   6.445   5.548   0.051
 6510SOL    HW120429   6.542   5.560   0.072
 6510SOL    HW220430   6.390   5.571   0.131
 6511SOL     OW20431   4.397   1.281   4.360
 6511SOL    HW120432   4.477   1.223   4.344
 6511SOL    HW220433   4.314   1.227   4.353
 6512SOL     OW20434   4.887   6.444   2.069
 6512SOL    HW120435   4.801   6.394   2.063
 6512SOL    HW220436   4.923   6.460   1.977
 6513SOL     OW20437   3.102   5.309   2.897
 6513SOL    HW120438   3.179   5.306   2.833
 6513SOL    HW220439   3.097   5.222   2.946
 6514SOL     OW20440   6.026   1.253   4.207
 6514SOL    HW120441   6.018   1.160   4.243
 6514SOL    HW220442   5.938   1.282   4.169
 6515SOL     OW20443   0.340   4.634   4.626
 6515SOL    HW120444   0.278   4.569   4.581
 6515SOL    HW220445   0.403   4.672   4.558
 6516SOL     OW20446   0.175   3.462   1.042
 6516SOL    HW120447   0.150   3.415   1.127
 6516SOL    HW220448   0.099   3.518   1.011
 6517SOL     OW20449   6.379   0.330   0.923
 6517SOL    HW120450   6.343   0.338   0.830
 6517SOL    HW220451   6.473   0.296   0.920
 6518SOL     OW20452   6.683   0.171   6.682
 6518SOL    HW120453   6.643   0.250   6.636
 6518SOL    HW220454   6.639   0.159   6.771
 6519SOL     OW20455   1.559   1.969   3.378
 6519SOL    HW120456   1.595   1.948   3.287
 6519SOL    HW220457   1.490   2.040   3.371
 6520SOL     OW20458   5.630   5.727   2.603
 6520SOL    HW120459   5.687   5.758   2.678
 6520SOL    HW220460   5.620   5.627   2.608
 6521SOL     OW20461   2.282   2.439   4.379
 6521SOL    HW120462   2.332   2.525   4.382
 6521SOL    HW220463   2.228   2.429   4.462
 6522SOL     OW20464   3.822   4.748   0.018
 6522SOL    HW120465   3.875   4.823   0.057
 6522SOL    HW220466   3.744   4.786   6.990
 6523SOL     OW20467   4.505   1.670   6.700
 6523SOL    HW120468   4.556   1.590   6.668
 6523SOL    HW220469   4.432   1.641   6.762
 6524SOL     OW20470   2.858   4.125   1.726
 6524SOL    HW120471   2.785   4.180   1.685
 6524SOL    HW220472   2.868   4.040   1.676
 6525SOL     OW20473   2.175   4.667   2.504
 6525SOL    HW120474   2.154   4.695   2.411
 6525SOL    HW220475   2.104   4.699   2.566
 6526SOL     OW20476   2.328   6.700   6.703
 6526SOL    HW120477   2.369   6.783   6.665
 6526SOL    HW220478   2.350   6.694   6.800
 6527SOL     OW20479   1.014   2.818   4.658
 6527SOL    HW120480   1.089   2.875   4.626
 6527SOL    HW220481   1.021   2.727   4.617
 6528SOL     OW20482   6.963   0.726   5.075
 6528SOL    HW120483   7.007   0.814   5.055
 6528SOL    HW220484   6.911   0.733   5.160
 6529SOL     OW20485   1.205   1.589   2.748
 6529SOL    HW120486   1.179   1.657   2.679
 6529SOL    HW220487   1.215   1.499   2.705
 6530SOL     OW20488   6.670   4.039   0.221
 6530SOL    HW120489   6.683   4.054   0.319
 6530SOL    HW220490   6.620   3.955   0.205
 6531SOL     OW20491   5.575   3.047   5.223
 6531SOL    HW120492   5.596   2.960   5.179
 6531SOL    HW220493   5.591   3.121   5.158
 6532SOL     OW20494   6.472   0.979   0.547
 6532SOL    HW120495   6.464   0.966   0.646
 6532SOL    HW220496   6.569   0.984   0.522
 6533SOL     OW20497   4.524   0.064   1.638
 6533SOL    HW120498   4.518   6.987   1.632
 6533SOL    HW220499   4.581   0.090   1.715
 6534SOL     OW20500   3.528   4.550   1.359
 6534SOL    HW120501   3.460   4.477   1.368
 6534SOL    HW220502   3.504   4.627   1.417
 6535SOL     OW20503   5.907   4.028   3.994
 6535SOL    HW120504   5.968   4.103   3.967
 6535SOL    HW220505   5.857   4.055   4.076
 6536SOL     OW20506   0.992   1.431   5.754
 6536SOL    HW120507   1.026   1.342   5.724
 6536SOL    HW220508   1.070   1.489   5.779
 6537SOL     OW20509   6.598   5.292   0.300
 6537SOL    HW120510   6.640   5.364   0.354
 6537SOL    HW220511   6.504   5.318   0.277
 6538SOL     OW20512   2.459   3.579   6.907
 6538SOL    HW120513   2.407   3.657   6.870
 6538SOL    HW220514   2.431   3.495   6.861
 6539SOL     OW20515   4.138   0.849   5.954
 6539SOL    HW120516   4.212   0.887   5.899
 6539SOL    HW220517   4.110   0.761   5.917
 6540SOL     OW20518   4.565   2.018   5.336
 6540SOL    HW120519   4.465   2.024   5.326
 6540SOL    HW220520   4.589   2.020   5.433
 6541SOL     OW20521   5.018   1.851   5.210
 6541SOL    HW120522   4.984   1.792   5.136
 6541SOL    HW220523   5.094   1.906   5.177
 6542SOL     OW20524   5.894   4.368   3.858
 6542SOL    HW120525   5.834   4.382   3.937
 6542SOL    HW220526   5.839   4.336   3.780
 6543SOL     OW20527   5.959   3.286   5.446
 6543SOL    HW120528   5.928   3.195   5.418
 6543SOL    HW220529   6.008   3.279   5.532
 6544SOL     OW20530   0.434   6.562   2.660
 6544SOL    HW120531   0.417   6.640   2.600
 6544SOL    HW220532   0.356   6.499   2.656
 6545SOL     OW20533   4.541   1.929   0.405
 6545SOL    HW120534   4.546   1.903   0.308
 6545SOL    HW220535   4.450   1.905   0.441
 6546SOL     OW20536   3.133   4.528   6.907
 6546SOL    HW120537   3.182   4.462   6.964
 6546SOL    HW220538   3.195   4.601   6.879
 6547SOL     OW20539   4.733   1.265   5.485
 6547SOL    HW120540   4.708   1.304   5.573
 6547SOL    HW220541   4.655   1.272   5.422
 6548SOL     OW20542   1.449   3.919   0.202
 6548SOL    HW120543   1.489   3.828   0.216
 6548SOL    HW220544   1.352   3.917   0.226
 6549SOL     OW20545   4.573   0.902   1.448
 6549SOL    HW120546   4.593   0.804   1.455
 6549SOL    HW220547   4.590   0.945   1.537
 6550SOL     OW20548   0.289   6.707   4.415
 6550SOL    HW120549   0.271   6.680   4.510
 6550SOL    HW220550   0.255   6.800   4.400
 6551SOL     OW20551   1.799   5.052   2.678
 6551SOL    HW120552   1.729   4.982   2.690
 6551SOL    HW220553   1.835   5.080   2.767
 6552SOL     OW20554   1.829   6.718   5.957
 6552SOL    HW120555   1.784   6.780   6.021
 6552SOL    HW220556   1.880   6.649   6.007
 6553SOL     OW20557   0.628   2.345   3.559
 6553SOL    HW120558   0.658   2.382   3.647
 6553SOL    HW220559   0.528   2.338   3.558
 6554SOL     OW20560   0.137   0.927   5.020
 6554SOL    HW120561   0.104   1.021   5.023
 6554SOL    HW220562   0.161   0.904   4.925
 6555SOL     OW20563   6.922   2.302   2.859
 6555SOL    HW120564   6.891   2.359   2.934
 6555SOL    HW220565   6.959   2.360   2.786
 6556SOL     OW20566   5.478   4.561   4.821
 6556SOL    HW120567   5.470   4.593   4.726
 6556SOL    HW220568   5.433   4.626   4.882
 6557SOL     OW20569   2.941   6.765   1.816
 6557SOL    HW120570   3.015   6.706   1.783
 6557SOL    HW220571   2.942   6.767   1.916
 6558SOL     OW20572   6.505   4.734   0.144
 6558SOL    HW120573   6.442   4.779   0.208
 6558SOL    HW220574   6.596   4.774   0.153
 6559SOL     OW20575   1.193   4.125   6.223
 6559SOL    HW120576   1.270   4.095   6.279
 6559SOL    HW220577   1.227   4.172   6.141
 6560SOL     OW20578   4.258   5.426   1.248
 6560SOL    HW120579   4.350   5.452   1.216
 6560SOL    HW220580   4.210   5.377   1.175
 6561SOL     OW20581   3.498   3.979   1.571
 6561SOL    HW120582   3.544   4.041   1.634
 6561SOL    HW220583   3.407   3.957   1.606
 6562SOL     OW20584   5.954   3.740   0.985
 6562SOL    HW120585   5.954   3.653   0.937
 6562SOL    HW220586   6.044   3.757   1.024
 6563SOL     OW20587   5.822   6.516   0.438
 6563SOL    HW120588   5.910   6.470   0.453
 6563SOL    HW220589   5.838   6.605   0.394
 6564SOL     OW20590   0.019   4.437   3.317
 6564SOL    HW120591   0.061   4.518   3.358
 6564SOL    HW220592   6.963   4.465   3.261
 6565SOL     OW20593   6.641   2.828   3.995
 6565SOL    HW120594   6.676   2.828   4.089
 6565SOL    HW220595   6.716   2.811   3.931
 6566SOL     OW20596   3.572   6.039   2.616
 6566SOL    HW120597   3.650   6.052   2.678
 6566SOL    HW220598   3.506   6.112   2.630
 6567SOL     OW20599   4.026   1.332   1.972
 6567SOL    HW120600   3.997   1.248   1.927
 6567SOL    HW220601   4.059   1.397   1.904
 6568SOL     OW20602   3.760   1.483   3.926
 6568SOL    HW120603   3.715   1.394   3.936
 6568SOL    HW220604   3.823   1.497   4.002
 6569SOL     OW20605   2.749   3.417   6.507
 6569SOL    HW120606   2.769   3.515   6.517
 6569SOL    HW220607   2.824   3.365   6.547
 6570SOL     OW20608   3.569   0.123   2.691
 6570SOL    HW120609   3.661   0.096   2.662
 6570SOL    HW220610   3.506   0.047   2.675
 6571SOL     OW20611   2.444   5.615   1.916
 6571SOL    HW120612   2.442   5.672   1.998
 6571SOL    HW220613   2.409   5.524   1.937
 6572SOL     OW20614   6.635   4.910   6.240
 6572SOL    HW120615   6.566   4.900   6.168
 6572SOL    HW220616   6.687   4.825   6.249
 6573SOL     OW20617   2.294   1.645   2.156
 6573SOL    HW120618   2.325   1.713   2.222
 6573SOL    HW220619   2.372   1.602   2.112
 6574SOL     OW20620   3.501   5.511   2.539
 6574SOL    HW120621   3.419   5.531   2.591
 6574SOL    HW220622   3.571   5.580   2.559
 6575SOL     OW20623   1.291   0.279   2.350
 6575SOL    HW120624   1.249   0.320   2.269
 6575SOL    HW220625   1.324   0.351   2.411
 6576SOL     OW20626   2.848   5.587   6.172
 6576SOL    HW120627   2.944   5.613   6.173
 6576SOL    HW220628   2.801   5.624   6.252
 6577SOL     OW20629   0.588   0.937   4.167
 6577SOL    HW120630   0.589   0.871   4.092
 6577SOL    HW220631   0.594   1.030   4.130
 6578SOL     OW20632   1.501   4.649   2.806
 6578SOL    HW120633   1.549   4.662   2.893
 6578SOL    HW220634   1.422   4.709   2.803
 6579SOL     OW20635   6.669   3.682   5.246
 6579SOL    HW120636   6.743   3.729   5.295
 6579SOL    HW220637   6.582   3.700   5.293
 6580SOL     OW20638   0.036   2.061   0.392
 6580SOL    HW120639   7.012   2.036   0.476
 6580SOL    HW220640   0.133   2.076   0.410
 6581SOL     OW20641   2.612   1.208   0.000
 6581SOL    HW120642   2.622   1.155   0.084
 6581SOL    HW220643   2.654   1.299   0.013
 6582SOL     OW20644   1.378   1.464   1.918
 6582SOL    HW120645   1.387   1.554   1.875
 6582SOL    HW220646   1.429   1.397   1.864
 6583SOL     OW20647   3.327   0.403   4.556
 6583SOL    HW120648   3.399   0.343   4.593
 6583SOL    HW220649   3.292   0.363   4.471
 6584SOL     OW20650   4.558   1.873   0.151
 6584SOL    HW120651   4.576   1.788   0.101
 6584SOL    HW220652   4.502   1.933   0.094
 6585SOL     OW20653   6.490   6.682   0.248
 6585SOL    HW120654   6.474   6.772   0.288
 6585SOL    HW220655   6.441   6.674   0.161
 6586SOL     OW20656   0.163   1.791   6.011
 6586SOL    HW120657   0.140   1.695   6.024
 6586SOL    HW220658   0.199   1.829   6.096
 6587SOL     OW20659   2.465   6.355   4.715
 6587SOL    HW120660   2.550   6.333   4.669
 6587SOL    HW220661   2.390   6.301   4.677
 6588SOL     OW20662   0.562   3.768   1.631
 6588SOL    HW120663   0.640   3.803   1.682
 6588SOL    HW220664   0.505   3.844   1.600
 6589SOL     OW20665   4.676   0.482   0.208
 6589SOL    HW120666   4.680   0.549   0.282
 6589SOL    HW220667   4.768   0.471   0.169
 6590SOL     OW20668   0.990   0.734   5.056
 6590SOL    HW120669   1.035   0.760   4.971
 6590SOL    HW220670   1.050   0.754   5.133
 6591SOL     OW20671   5.736   5.873   2.103
 6591SOL    HW120672   5.677   5.951   2.127
 6591SOL    HW220673   5.756   5.876   2.005
 6592SOL     OW20674   6.561   0.106   4.206
 6592SOL    HW120675   6.467   0.122   4.174
 6592SOL    HW220676   6.558   0.051   4.290
 6593SOL     OW20677   2.923   1.836   2.373
 6593SOL    HW120678   2.851   1.798   2.430
 6593SOL    HW220679   2.891   1.843   2.278
 6594SOL     OW20680   3.488   2.308   0.052
 6594SOL    HW120681   3.554   2.380   0.074
 6594SOL    HW220682   3.454   2.320   6.982
 6595SOL     OW20683   0.905   3.820   0.084
 6595SOL    HW120684   0.864   3.883   0.150
 6595SOL    HW220685   0.852   3.735   0.082
 6596SOL     OW20686   2.988   6.057   4.540
 6596SOL    HW120687   2.983   6.157   4.551
 6596SOL    HW220688   3.056   6.035   4.471
 6597SOL     OW20689   2.321   5.395   2.027
 6597SOL    HW120690   2.320   5.327   1.953
 6597SOL    HW220691   2.369   5.357   2.106
 6598SOL     OW20692   1.304   6.654   4.116
 6598SOL    HW120693   1.256   6.715   4.179
 6598SOL    HW220694   1.394   6.631   4.153
 6599SOL     OW20695   4.818   6.740   5.800
 6599SOL    HW120696   4.784   6.815   5.857
 6599SOL    HW220697   4.826   6.657   5.856
 6600SOL     OW20698   4.988   4.943   5.872
 6600SOL    HW120699   5.037   4.886   5.938
 6600SOL    HW220700   5.006   5.040   5.891
 6601SOL     OW20701   0.954   1.769   5.164
 6601SOL    HW120702   0.937   1.844   5.099
 6601SOL    HW220703   0.878   1.705   5.160
 6602SOL     OW20704   0.594   1.480   1.918
 6602SOL    HW120705   0.587   1.561   1.977
 6602SOL    HW220706   0.685   1.477   1.877
 6603SOL     OW20707   0.384   2.798   4.031
 6603SOL    HW120708   0.402   2.703   4.008
 6603SOL    HW220709   0.286   2.815   4.034
 6604SOL     OW20710   2.312   6.828   1.745
 6604SOL    HW120711   2.381   6.801   1.678
 6604SOL    HW220712   2.224   6.838   1.700
 6605SOL     OW20713   5.620   3.614   1.715
 6605SOL    HW120714   5.549   3.561   1.761
 6605SOL    HW220715   5.707   3.565   1.719
 6606SOL     OW20716   6.822   6.152   1.969
 6606SOL    HW120717   6.729   6.190   1.969
 6606SOL    HW220718   6.856   6.148   1.876
 6607SOL     OW20719   1.407   3.117   2.367
 6607SOL    HW120720   1.449   3.045   2.421
 6607SOL    HW220721   1.310   3.125   2.392
 6608SOL     OW20722   6.320   6.681   1.256
 6608SOL    HW120723   6.288   6.608   1.316
 6608SOL    HW220724   6.286   6.665   1.163
 6609SOL     OW20725   4.491   0.566   5.658
 6609SOL    HW120726   4.497   0.552   5.560
 6609SOL    HW220727   4.417   0.511   5.696
 6610SOL     OW20728   2.796   0.448   6.741
 6610SOL    HW120729   2.751   0.536   6.755
 6610SOL    HW220730   2.739   0.390   6.684
 6611SOL     OW20731   6.150   3.022   3.563
 6611SOL    HW120732   6.079   2.980   3.618
 6611SOL    HW220733   6.229   3.043   3.620
 6612SOL     OW20734   6.414   1.979   6.337
 6612SOL    HW120735   6.323   1.939   6.350
 6612SOL    HW220736   6.407   2.059   6.277
 6613SOL     OW20737   6.560   6.277   5.091
 6613SOL    HW120738   6.609   6.347   5.144
 6613SOL    HW220739   6.578   6.187   5.130
 6614SOL     OW20740   5.406   6.372   0.964
 6614SOL    HW120741   5.378   6.323   0.881
 6614SOL    HW220742   5.391   6.314   1.044
 6615SOL     OW20743   1.584   4.826   2.401
 6615SOL    HW120744   1.625   4.914   2.379
 6615SOL    HW220745   1.524   4.797   2.327
 6616SOL     OW20746   3.947   1.405   6.088
 6616SOL    HW120747   3.916   1.398   5.993
 6616SOL    HW220748   4.043   1.378   6.094
 6617SOL     OW20749   3.566   5.025   3.005
 6617SOL    HW120750   3.656   5.062   2.978
 6617SOL    HW220751   3.555   5.034   3.104
 6618SOL     OW20752   1.131   3.088   2.395
 6618SOL    HW120753   1.083   3.111   2.310
 6618SOL    HW220754   1.100   2.999   2.428
 6619SOL     OW20755   6.293   0.211   4.168
 6619SOL    HW120756   6.280   0.309   4.175
 6619SOL    HW220757   6.204   0.165   4.164
 6620SOL     OW20758   1.556   2.754   5.454
 6620SOL    HW120759   1.554   2.687   5.528
 6620SOL    HW220760   1.468   2.754   5.407
 6621SOL     OW20761   2.355   2.904   6.330
 6621SOL    HW120762   2.424   2.838   6.300
 6621SOL    HW220763   2.384   2.996   6.304
 6622SOL     OW20764   5.949   0.103   1.337
 6622SOL    HW120765   5.854   0.120   1.309
 6622SOL    HW220766   6.004   0.185   1.317
 6623SOL     OW20767   2.745   3.013   6.352
 6623SOL    HW120768   2.752   2.974   6.260
 6623SOL    HW220769   2.716   3.109   6.346
 6624SOL     OW20770   1.326   5.639   5.483
 6624SOL    HW120771   1.386   5.573   5.528
 6624SOL    HW220772   1.301   5.604   5.393
 6625SOL     OW20773   5.197   2.330   5.539
 6625SOL    HW120774   5.161   2.418   5.508
 6625SOL    HW220775   5.262   2.346   5.614
 6626SOL     OW20776   4.994   5.596   5.771
 6626SOL    HW120777   5.060   5.653   5.821
 6626SOL    HW220778   4.902   5.631   5.785
 6627SOL     OW20779   2.387   6.928   4.591
 6627SOL    HW120780   2.386   6.935   4.690
 6627SOL    HW220781   2.478   6.953   4.556
 6628SOL     OW20782   4.578   4.545   4.779
 6628SOL    HW120783   4.551   4.534   4.683
 6628SOL    HW220784   4.496   4.544   4.837
 6629SOL     OW20785   4.779   6.146   0.244
 6629SOL    HW120786   4.720   6.074   0.208
 6629SOL    HW220787   4.830   6.110   0.322
 6630SOL     OW20788   4.102   0.761   1.784
 6630SOL    HW120789   4.188   0.715   1.808
 6630SOL    HW220790   4.109   0.859   1.805
 6631SOL     OW20791   2.623   5.436   3.045
 6631SOL    HW120792   2.706   5.483   3.076
 6631SOL    HW220793   2.571   5.404   3.124
 6632SOL     OW20794   0.318   6.652   1.129
 6632SOL    HW120795   0.348   6.638   1.034
 6632SOL    HW220796   0.227   6.695   1.128
 6633SOL     OW20797   0.779   4.330   6.494
 6633SOL    HW120798   0.704   4.264   6.490
 6633SOL    HW220799   0.755   4.411   6.441
 6634SOL     OW20800   6.101   2.273   3.806
 6634SOL    HW120801   6.031   2.208   3.837
 6634SOL    HW220802   6.057   2.357   3.774
 6635SOL     OW20803   4.235   4.850   3.087
 6635SOL    HW120804   4.158   4.857   3.023
 6635SOL    HW220805   4.273   4.757   3.083
 6636SOL     OW20806   4.583   2.902   5.619
 6636SOL    HW120807   4.559   2.844   5.696
 6636SOL    HW220808   4.583   2.847   5.535
 6637SOL     OW20809   1.619   0.036   6.643
 6637SOL    HW120810   1.665   0.118   6.680
 6637SOL    HW220811   1.580   7.006   6.718
 6638SOL     OW20812   3.275   3.613   4.162
 6638SOL    HW120813   3.356   3.556   4.180
 6638SOL    HW220814   3.192   3.559   4.177
 6639SOL     OW20815   5.687   4.662   6.484
 6639SOL    HW120816   5.760   4.713   6.531
 6639SOL    HW220817   5.634   4.611   6.551
 6640SOL     OW20818   1.222   1.761   5.179
 6640SOL    HW120819   1.262   1.853   5.177
 6640SOL    HW220820   1.122   1.768   5.178
 6641SOL     OW20821   2.130   1.800   6.812
 6641SOL    HW120822   2.128   1.700   6.806
 6641SOL    HW220823   2.039   1.837   6.793
 6642SOL     OW20824   2.902   5.024   6.503
 6642SOL    HW120825   2.968   4.972   6.448
 6642SOL    HW220826   2.945   5.107   6.537
 6643SOL     OW20827   6.017   5.536   0.275
 6643SOL    HW120828   6.035   5.438   0.282
 6643SOL    HW220829   6.067   5.575   0.198
 6644SOL     OW20830   2.449   4.930   2.098
 6644SOL    HW120831   2.493   4.841   2.084
 6644SOL    HW220832   2.351   4.923   2.081
 6645SOL     OW20833   6.631   5.513   0.461
 6645SOL    HW120834   6.584   5.577   0.400
 6645SOL    HW220835   6.683   5.565   0.529
 6646SOL     OW20836   3.766   0.066   4.998
 6646SOL    HW120837   3.672   0.058   4.965
 6646SOL    HW220838   3.829   0.048   4.923
 6647SOL     OW20839   4.549   0.962   2.100
 6647SOL    HW120840   4.523   1.015   2.019
 6647SOL    HW220841   4.619   1.013   2.151
 6648SOL     OW20842   4.300   6.981   2.654
 6648SOL    HW120843   4.232   6.912   2.629
 6648SOL    HW220844   4.370   6.939   2.712
 6649SOL     OW20845   5.687   0.440   7.010
 6649SOL    HW120846   5.608   0.429   0.049
 6649SOL    HW220847   5.731   0.527   0.006
 6650SOL     OW20848   2.959   1.499   5.090
 6650SOL    HW120849   2.931   1.442   5.167
 6650SOL    HW220850   2.901   1.479   5.011
 6651SOL     OW20851   2.176   1.755   5.608
 6651SOL    HW120852   2.131   1.822   5.549
 6651SOL    HW220853   2.254   1.716   5.560
 6652SOL     OW20854   0.452   4.797   0.722
 6652SOL    HW120855   0.403   4.721   0.764
 6652SOL    HW220856   0.483   4.860   0.794
 6653SOL     OW20857   3.358   2.895   2.921
 6653SOL    HW120858   3.334   2.894   3.018
 6653SOL    HW220859   3.282   2.935   2.869
 6654SOL     OW20860   1.794   3.836   1.661
 6654SOL    HW120861   1.889   3.857   1.682
 6654SOL    HW220862   1.763   3.893   1.586
 6655SOL     OW20863   1.420   6.897   2.892
 6655SOL    HW120864   1.483   6.939   2.957
 6655SOL    HW220865   1.333   6.947   2.893
 6656SOL     OW20866   6.188   1.738   2.815
 6656SOL    HW120867   6.272   1.785   2.786
 6656SOL    HW220868   6.197   1.640   2.795
 6657SOL     OW20869   5.979   6.261   6.311
 6657SOL    HW120870   6.037   6.221   6.382
 6657SOL    HW220871   5.977   6.200   6.231
 6658SOL     OW20872   6.826   0.748   5.315
 6658SOL    HW120873   6.738   0.761   5.269
 6658SOL    HW220874   6.814   0.687   5.394
 6659SOL     OW20875   2.395   2.302   0.599
 6659SOL    HW120876   2.380   2.207   0.572
 6659SOL    HW220877   2.308   2.352   0.597
 6660SOL     OW20878   0.984   5.657   0.802
 6660SOL    HW120879   0.968   5.636   0.899
 6660SOL    HW220880   0.897   5.650   0.752
 6661SOL     OW20881   0.873   6.544   4.941
 6661SOL    HW120882   0.902   6.450   4.923
 6661SOL    HW220883   0.837   6.584   4.857
 6662SOL     OW20884   0.933   1.410   6.946
 6662SOL    HW120885   0.974   1.354   6.874
 6662SOL    HW220886   0.972   1.386   0.012
 6663SOL     OW20887   0.120   5.342   4.227
 6663SOL    HW120888   0.217   5.317   4.234
 6663SOL    HW220889   0.085   5.313   4.138
 6664SOL     OW20890   2.617   5.825   6.876
 6664SOL    HW120891   2.581   5.732   6.882
 6664SOL    HW220892   2.708   5.823   6.835
 6665SOL     OW20893   1.596   6.310   3.944
 6665SOL    HW120894   1.682   6.330   3.990
 6665SOL    HW220895   1.541   6.249   4.002
 6666SOL     OW20896   5.631   6.895   5.516
 6666SOL    HW120897   5.537   6.876   5.545
 6666SOL    HW220898   5.671   6.964   5.576
 6667SOL     OW20899   6.712   6.006   6.398
 6667SOL    HW120900   6.656   6.067   6.342
 6667SOL    HW220901   6.728   5.921   6.349
 6668SOL     OW20902   6.837   5.685   1.498
 6668SOL    HW120903   6.901   5.618   1.535
 6668SOL    HW220904   6.888   5.756   1.449
 6669SOL     OW20905   1.776   2.761   3.729
 6669SOL    HW120906   1.802   2.810   3.646
 6669SOL    HW220907   1.792   2.819   3.809
 6670SOL     OW20908   3.808   2.268   5.241
 6670SOL    HW120909   3.717   2.305   5.258
 6670SOL    HW220910   3.874   2.311   5.303
 6671SOL     OW20911   6.146   5.847   0.838
 6671SOL    HW120912   6.076   5.918   0.848
 6671SOL    HW220913   6.233   5.890   0.811
 6672SOL     OW20914   6.494   1.713   6.388
 6672SOL    HW120915   6.485   1.812   6.374
 6672SOL    HW220916   6.531   1.670   6.306
 6673SOL     OW20917   5.643   5.805   4.055
 6673SOL    HW120918   5.716   5.764   4.000
 6673SOL    HW220919   5.587   5.865   3.997
 6674SOL     OW20920   0.823   5.044   6.104
 6674SOL    HW120921   0.759   5.095   6.160
 6674SOL    HW220922   0.808   5.065   6.007
 6675SOL     OW20923   4.806   3.577   1.667
 6675SOL    HW120924   4.728   3.573   1.605
 6675SOL    HW220925   4.834   3.484   1.692
 6676SOL     OW20926   6.987   3.929   5.998
 6676SOL    HW120927   7.001   3.832   6.018
 6676SOL    HW220928   6.898   3.958   6.034
 6677SOL     OW20929   1.347   1.762   6.661
 6677SOL    HW120930   1.296   1.731   6.581
 6677SOL    HW220931   1.382   1.682   6.711
 6678SOL     OW20932   3.277   3.270   6.664
 6678SOL    HW120933   3.348   3.232   6.723
 6678SOL    HW220934   3.290   3.237   6.570
 6679SOL     OW20935   2.084   1.593   4.059
 6679SOL    HW120936   2.036   1.538   3.991
 6679SOL    HW220937   2.182   1.574   4.055
 6680SOL     OW20938   4.526   0.031   6.608
 6680SOL    HW120939   4.504   0.077   6.695
 6680SOL    HW220940   4.624   0.040   6.591
 6681SOL     OW20941   4.347   5.743   1.174
 6681SOL    HW120942   4.415   5.814   1.195
 6681SOL    HW220943   4.367   5.704   1.085
 6682SOL     OW20944   1.012   4.317   3.132
 6682SOL    HW120945   0.951   4.239   3.115
 6682SOL    HW220946   1.094   4.285   3.179
 6683SOL     OW20947   5.985   2.959   5.379
 6683SOL    HW120948   6.057   2.938   5.445
 6683SOL    HW220949   6.006   2.915   5.292
 6684SOL     OW20950   2.655   6.815   1.903
 6684SOL    HW120951   2.618   6.874   1.831
 6684SOL    HW220952   2.744   6.779   1.875
 6685SOL     OW20953   6.155   3.521   5.774
 6685SOL    HW120954   6.229   3.547   5.711
 6685SOL    HW220955   6.186   3.531   5.868
 6686SOL     OW20956   5.202   6.061   4.241
 6686SOL    HW120957   5.196   6.088   4.337
 6686SOL    HW220958   5.298   6.048   4.216
 6687SOL     OW20959   1.006   3.157   6.941
 6687SOL    HW120960   1.021   3.074   6.887
 6687SOL    HW220961   1.087   3.175   6.997
 6688SOL     OW20962   0.195   4.661   1.813
 6688SOL    HW120963   0.279   4.651   1.866
 6688SOL    HW220964   0.122   4.608   1.856
 6689SOL     OW20965   4.780   2.855   0.086
 6689SOL    HW120966   4.699   2.799   0.067
 6689SOL    HW220967   4.752   2.951   0.096
 6690SOL     OW20968   2.429   0.920   1.054
 6690SOL    HW120969   2.468   0.845   1.108
 6690SOL    HW220970   2.495   0.949   0.985
 6691SOL     OW20971   2.751   6.130   1.467
 6691SOL    HW120972   2.672   6.135   1.406
 6691SOL    HW220973   2.804   6.048   1.445
 6692SOL     OW20974   3.796   4.238   5.170
 6692SOL    HW120975   3.842   4.210   5.086
 6692SOL    HW220976   3.819   4.333   5.191
 6693SOL     OW20977   4.260   4.028   5.590
 6693SOL    HW120978   4.222   3.943   5.626
 6693SOL    HW220979   4.229   4.041   5.496
 6694SOL     OW20980   4.613   5.493   0.791
 6694SOL    HW120981   4.710   5.501   0.815
 6694SOL    HW220982   4.601   5.509   0.693
 6695SOL     OW20983   3.322   1.384   0.014
 6695SOL    HW120984   3.378   1.441   0.073
 6695SOL    HW220985   3.225   1.403   0.031
 6696SOL     OW20986   1.497   3.026   5.774
 6696SOL    HW120987   1.444   2.942   5.779
 6696SOL    HW220988   1.582   3.009   5.723
 6697SOL     OW20989   4.650   2.174   2.309
 6697SOL    HW120990   4.749   2.165   2.297
 6697SOL    HW220991   4.603   2.104   2.255
 6698SOL     OW20992   3.154   2.818   1.241
 6698SOL    HW120993   3.059   2.807   1.209
 6698SOL    HW220994   3.216   2.798   1.165
 6699SOL     OW20995   2.925   5.192   6.176
 6699SOL    HW120996   3.001   5.189   6.241
 6699SOL    HW220997   2.839   5.170   6.224
 6700SOL     OW20998   6.990   6.967   0.624
 6700SOL    HW120999   0.054   6.928   0.655
 6700SOL    HW221000   7.000   7.000   0.530
 6701SOL     OW21001   5.588   2.531   1.534
 6701SOL    HW121002   5.516   2.552   1.600
 6701SOL    HW221003   5.570   2.581   1.449
 6702SOL     OW21004   3.039   1.847   1.539
 6702SOL    HW121005   2.977   1.830   1.462
 6702SOL    HW221006   2.987   1.883   1.616
 6703SOL     OW21007   6.524   2.130   6.625
 6703SOL    HW121008   6.505   2.212   6.571
 6703SOL    HW221009   6.586   2.154   6.700
 6704SOL     OW21010   3.581   2.043   3.405
 6704SOL    HW121011   3.660   2.040   3.466
 6704SOL    HW221012   3.506   2.091   3.450
 6705SOL     OW21013   6.566   2.321   1.053
 6705SOL    HW121014   6.572   2.229   1.016
 6705SOL    HW221015   6.562   2.388   0.979
 6706SOL     OW21016   0.998   4.096   1.838
 6706SOL    HW121017   1.074   4.031   1.838
 6706SOL    HW221018   0.974   4.119   1.744
 6707SOL     OW21019   6.667   5.971   3.483
 6707SOL    HW121020   6.764   5.948   3.477
 6707SOL    HW221021   6.648   6.010   3.572
 6708SOL     OW21022   0.024   5.369   2.109
 6708SOL    HW121023   6.973   5.415   2.059
 6708SOL    HW221024   0.067   5.300   2.051
 6709SOL     OW21025   2.953   6.979   2.403
 6709SOL    HW121026   3.052   6.995   2.404
 6709SOL    HW221027   2.909   0.023   2.344
 6710SOL     OW21028   3.357   1.330   5.892
 6710SOL    HW121029   3.352   1.248   5.949
 6710SOL    HW221030   3.264   1.361   5.870
 6711SOL     OW21031   5.131   5.354   6.652
 6711SOL    HW121032   5.048   5.299   6.650
 6711SOL    HW221033   5.192   5.319   6.723
 6712SOL     OW21034   4.935   4.845   0.231
 6712SOL    HW121035   4.837   4.860   0.224
 6712SOL    HW221036   4.965   4.784   0.158
 6713SOL     OW21037   2.181   0.702   2.837
 6713SOL    HW121038   2.273   0.663   2.828
 6713SOL    HW221039   2.179   0.792   2.793
 6714SOL     OW21040   6.471   1.146   6.198
 6714SOL    HW121041   6.424   1.201   6.266
 6714SOL    HW221042   6.414   1.138   6.116
 6715SOL     OW21043   6.528   6.819   6.154
 6715SOL    HW121044   6.447   6.843   6.208
 6715SOL    HW221045   6.601   6.884   6.173
 6716SOL     OW21046   0.276   6.330   1.553
 6716SOL    HW121047   0.222   6.357   1.632
 6716SOL    HW221048   0.322   6.409   1.515
 6717SOL     OW21049   4.162   2.601   6.767
 6717SOL    HW121050   4.070   2.622   6.733
 6717SOL    HW221051   4.224   2.590   6.691
 6718SOL     OW21052   4.873   0.395   6.373
 6718SOL    HW121053   4.788   0.434   6.407
 6718SOL    HW221054   4.857   0.354   6.283
 6719SOL     OW21055   1.924   0.146   6.737
 6719SOL    HW121056   1.869   0.215   6.689
 6719SOL    HW221057   1.976   0.093   6.670
 6720SOL     OW21058   0.762   6.178   3.676
 6720SOL    HW121059   0.662   6.180   3.678
 6720SOL    HW221060   0.794   6.203   3.585
 6721SOL     OW21061   6.716   0.193   6.234
 6721SOL    HW121062   6.790   0.251   6.201
 6721SOL    HW221063   6.655   0.169   6.158
 6722SOL     OW21064   6.866   3.299   1.267
 6722SOL    HW121065   6.884   3.204   1.292
 6722SOL    HW221066   6.775   3.305   1.224
 6723SOL     OW21067   2.368   6.765   3.120
 6723SOL    HW121068   2.451   6.714   3.141
 6723SOL    HW221069   2.391   6.848   3.070
 6724SOL     OW21070   1.116   3.586   5.925
 6724SOL    HW121071   1.173   3.504   5.924
 6724SOL    HW221072   1.157   3.655   5.985
 6725SOL     OW21073   0.939   3.845   1.276
 6725SOL    HW121074   0.906   3.893   1.357
 6725SOL    HW221075   1.003   3.773   1.303
 6726SOL     OW21076   0.719   1.652   5.284
 6726SOL    HW121077   0.667   1.585   5.230
 6726SOL    HW221078   0.655   1.710   5.335
 6727SOL     OW21079   6.167   3.796   5.729
 6727SOL    HW121080   6.244   3.823   5.787
 6727SOL    HW221081   6.145   3.700   5.745
 6728SOL     OW21082   4.433   1.773   3.457
 6728SOL    HW121083   4.492   1.694   3.469
 6728SOL    HW221084   4.412   1.784   3.359
 6729SOL     OW21085   0.293   1.612   2.410
 6729SOL    HW121086   0.273   1.544   2.480
 6729SOL    HW221087   0.237   1.693   2.426
 6730SOL     OW21088   2.898   6.302   6.555
 6730SOL    HW121089   2.950   6.371   6.606
 6730SOL    HW221090   2.802   6.306   6.584
 6731SOL     OW21091   0.991   6.015   1.097
 6731SOL    HW121092   0.914   6.079   1.091
 6731SOL    HW221093   0.989   5.969   1.186
 6732SOL     OW21094   5.227   4.736   6.038
 6732SOL    HW121095   5.277   4.697   5.960
 6732SOL    HW221096   5.244   4.680   6.119
 6733SOL     OW21097   4.041   4.345   0.335
 6733SOL    HW121098   4.114   4.358   0.267
 6733SOL    HW221099   3.980   4.424   0.333
 6734SOL     OW21100   6.282   2.281   4.891
 6734SOL    HW121101   6.192   2.278   4.846
 6734SOL    HW221102   6.270   2.287   4.990
 6735SOL     OW21103   6.965   4.659   4.686
 6735SOL    HW121104   0.021   4.638   4.745
 6735SOL    HW221105   6.880   4.643   4.737
 6736SOL     OW21106   3.380   3.800   6.699
 6736SOL    HW121107   3.296   3.793   6.753
 6736SOL    HW221108   3.397   3.714   6.652
 6737SOL     OW21109   2.024   2.638   0.618
 6737SOL    HW121110   2.028   2.542   0.648
 6737SOL    HW221111   1.940   2.652   0.565
 6738SOL     OW21112   1.795   4.456   2.577
 6738SOL    HW121113   1.850   4.465   2.661
 6738SOL    HW221114   1.699   4.468   2.599
 6739SOL     OW21115   4.000   5.075   5.728
 6739SOL    HW121116   4.074   5.024   5.772
 6739SOL    HW221117   4.003   5.059   5.629
 6740SOL     OW21118   1.693   1.393   4.103
 6740SOL    HW121119   1.689   1.442   4.190
 6740SOL    HW221120   1.776   1.418   4.054
 6741SOL     OW21121   4.336   1.051   5.615
 6741SOL    HW121122   4.302   1.014   5.529
 6741SOL    HW221123   4.300   1.143   5.628
 6742SOL     OW21124   6.531   5.883   2.980
 6742SOL    HW121125   6.629   5.896   2.992
 6742SOL    HW221126   6.491   5.963   2.935
 6743SOL     OW21127   4.486   4.413   0.331
 6743SOL    HW121128   4.435   4.428   0.415
 6743SOL    HW221129   4.541   4.495   0.310
 6744SOL     OW21130   5.075   5.714   6.123
 6744SOL    HW121131   5.153   5.703   6.061
 6744SOL    HW221132   5.046   5.809   6.123
 6745SOL     OW21133   0.352   0.174   2.628
 6745SOL    HW121134   0.346   0.094   2.688
 6745SOL    HW221135   0.351   0.143   2.532
 6746SOL     OW21136   1.218   1.274   3.033
 6746SOL    HW121137   1.164   1.343   2.984
 6746SOL    HW221138   1.156   1.206   3.073
 6747SOL     OW21139   5.483   0.781   5.249
 6747SOL    HW121140   5.518   0.858   5.303
 6747SOL    HW221141   5.455   0.814   5.159
 6748SOL     OW21142   1.223   0.490   3.401
 6748SOL    HW121143   1.266   0.581   3.401
 6748SOL    HW221144   1.210   0.460   3.307
 6749SOL     OW21145   2.900   5.884   0.282
 6749SOL    HW121146   2.920   5.786   0.280
 6749SOL    HW221147   2.953   5.930   0.211
 6750SOL     OW21148   4.268   1.690   5.243
 6750SOL    HW121149   4.260   1.766   5.179
 6750SOL    HW221150   4.362   1.655   5.241
 6751SOL     OW21151   4.290   1.229   3.722
 6751SOL    HW121152   4.222   1.281   3.772
 6751SOL    HW221153   4.371   1.216   3.779
 6752SOL     OW21154   0.576   3.374   2.663
 6752SOL    HW121155   0.487   3.337   2.637
 6752SOL    HW221156   0.639   3.299   2.681
 6753SOL     OW21157   4.304   0.938   6.313
 6753SOL    HW121158   4.231   0.977   6.257
 6753SOL    HW221159   4.270   0.924   6.406
 6754SOL     OW21160   6.753   1.641   0.241
 6754SOL    HW121161   6.699   1.697   0.304
 6754SOL    HW221162   6.712   1.643   0.150
 6755SOL     OW21163   4.744   1.117   3.270
 6755SOL    HW121164   4.823   1.081   3.319
 6755SOL    HW221165   4.685   1.166   3.333
 6756SOL     OW21166   3.988   4.871   4.876
 6756SOL    HW121167   3.979   4.872   4.976
 6756SOL    HW221168   4.079   4.838   4.851
 6757SOL     OW21169   4.292   0.332   1.313
 6757SOL    HW121170   4.262   0.239   1.333
 6757SOL    HW221171   4.310   0.381   1.398
 6758SOL     OW21172   6.833   2.814   0.793
 6758SOL    HW121173   6.840   2.714   0.794
 6758SOL    HW221174   6.859   2.851   0.882
 6759SOL     OW21175   0.935   4.160   4.613
 6759SOL    HW121176   0.924   4.125   4.520
 6759SOL    HW221177   0.906   4.256   4.616
 6760SOL     OW21178   6.696   4.901   3.721
 6760SOL    HW121179   6.638   4.821   3.736
 6760SOL    HW221180   6.717   4.944   3.809
 6761SOL     OW21181   5.811   2.356   6.220
 6761SOL    HW121182   5.731   2.363   6.161
 6761SOL    HW221183   5.858   2.445   6.224
 6762SOL     OW21184   0.007   5.630   3.326
 6762SOL    HW121185   0.043   5.538   3.310
 6762SOL    HW221186   0.007   5.681   3.240
 6763SOL     OW21187   0.016   4.954   3.767
 6763SOL    HW121188   0.077   4.955   3.846
 6763SOL    HW221189   6.962   5.017   3.783
 6764SOL     OW21190   2.712   4.875   6.634
 6764SOL    HW121191   2.769   4.940   6.583
 6764SOL    HW221192   2.739   4.875   6.730
 6765SOL     OW21193   5.107   5.141   4.116
 6765SOL    HW121194   5.149   5.078   4.181
 6765SOL    HW221195   5.160   5.226   4.114
 6766SOL     OW21196   4.453   6.241   6.566
 6766SOL    HW121197   4.394   6.290   6.630
 6766SOL    HW221198   4.398   6.207   6.490
 6767SOL     OW21199   0.701   2.210   0.583
 6767SOL    HW121200   0.776   2.152   0.550
 6767SOL    HW221201   0.738   2.300   0.607
 6768SOL     OW21202   7.010   6.496   3.453
 6768SOL    HW121203   6.958   6.411   3.448
 6768SOL    HW221204   6.947   6.573   3.447
 6769SOL     OW21205   2.792   0.426   5.381
 6769SOL    HW121206   2.874   0.447   5.329
 6769SOL    HW221207   2.730   0.371   5.325
 6770SOL     OW21208   6.526   1.839   3.257
 6770SOL    HW121209   6.437   1.880   3.273
 6770SOL    HW221210   6.588   1.908   3.219
 6771SOL     OW21211   3.448   0.952   2.788
 6771SOL    HW121212   3.445   0.852   2.788
 6771SOL    HW221213   3.543   0.983   2.785
 6772SOL     OW21214   5.140   2.321   2.431
 6772SOL    HW121215   5.194   2.371   2.499
 6772SOL    HW221216   5.047   2.359   2.428
 6773SOL     OW21217   6.751   6.646   1.726
 6773SOL    HW121218   6.817   6.645   1.651
 6773SOL    HW221219   6.658   6.635   1.690
 6774SOL     OW21220   2.287   2.500   4.679
 6774SOL    HW121221   2.380   2.536   4.686
 6774SOL    HW221222   2.222   2.572   4.705
 6775SOL     OW21223   0.705   1.958   3.718
 6775SOL    HW121224   0.704   2.000   3.627
 6775SOL    HW221225   0.718   2.030   3.787
 6776SOL     OW21226   3.880   3.555   1.193
 6776SOL    HW121227   3.804   3.570   1.130
 6776SOL    HW221228   3.844   3.527   1.282
 6777SOL     OW21229   4.425   5.819   0.677
 6777SOL    HW121230   4.393   5.914   0.681
 6777SOL    HW221231   4.356   5.763   0.630
 6778SOL     OW21232   6.381   3.725   2.497
 6778SOL    HW121233   6.372   3.818   2.463
 6778SOL    HW221234   6.475   3.694   2.482
 6779SOL     OW21235   5.633   4.878   6.805
 6779SOL    HW121236   5.560   4.883   6.737
 6779SOL    HW221237   5.616   4.945   6.877
 6780SOL     OW21238   1.189   3.789   2.585
 6780SOL    HW121239   1.265   3.837   2.628
 6780SOL    HW221240   1.224   3.712   2.531
 6781SOL     OW21241   6.654   1.952   4.024
 6781SOL    HW121242   6.578   1.937   3.961
 6781SOL    HW221243   6.676   2.050   4.026
 6782SOL     OW21244   0.572   1.169   3.048
 6782SOL    HW121245   0.476   1.194   3.037
 6782SOL    HW221246   0.626   1.250   3.070
 6783SOL     OW21247   0.703   3.723   5.414
 6783SOL    HW121248   0.675   3.717   5.510
 6783SOL    HW221249   0.645   3.662   5.359
 6784SOL     OW21250   2.036   4.395   1.434
 6784SOL    HW121251   2.065   4.443   1.351
 6784SOL    HW221252   2.089   4.429   1.512
 6785SOL     OW21253   5.777   5.303   5.788
 6785SOL    HW121254   5.752   5.285   5.883
 6785SOL    HW221255   5.727   5.242   5.727
 6786SOL     OW21256   0.229   3.187   6.507
 6786SOL    HW121257   0.217   3.088   6.508
 6786SOL    HW221258   0.193   3.227   6.592
 6787SOL     OW21259   3.292   1.962   1.448
 6787SOL    HW121260   3.313   2.060   1.453
 6787SOL    HW221261   3.198   1.947   1.477
 6788SOL     OW21262   0.371   4.033   2.315
 6788SOL    HW121263   0.302   4.021   2.386
 6788SOL    HW221264   0.439   4.100   2.345
 6789SOL     OW21265   7.000   4.621   4.144
 6789SOL    HW121266   7.007   4.586   4.238
 6789SOL    HW221267   0.062   4.667   4.119
 6790SOL     OW21268   0.205   4.222   6.783
 6790SOL    HW121269   0.221   4.270   6.869
 6790SOL    HW221270   0.112   4.184   6.784
 6791SOL     OW21271   4.371   2.052   2.853
 6791SOL    HW121272   4.348   2.012   2.764
 6791SOL    HW221273   4.303   2.024   2.920
 6792SOL     OW21274   4.511   0.123   5.023
 6792SOL    HW121275   4.471   0.213   5.007
 6792SOL    HW221276   4.499   0.098   5.120
 6793SOL     OW21277   3.010   1.260   6.787
 6793SOL    HW121278   2.999   1.266   6.886
 6793SOL    HW221279   3.042   1.348   6.752
 6794SOL     OW21280   4.498   1.052   5.352
 6794SOL    HW121281   4.496   0.989   5.430
 6794SOL    HW221282   4.592   1.064   5.321
 6795SOL     OW21283   0.995   0.152   0.483
 6795SOL    HW121284   0.907   0.157   0.437
 6795SOL    HW221285   1.034   0.060   0.470
 6796SOL     OW21286   5.781   0.293   2.668
 6796SOL    HW121287   5.757   0.253   2.757
 6796SOL    HW221288   5.778   0.393   2.676
 6797SOL     OW21289   6.363   1.408   0.231
 6797SOL    HW121290   6.420   1.428   0.311
 6797SOL    HW221291   6.272   1.380   0.262
 6798SOL     OW21292   6.302   0.603   1.000
 6798SOL    HW121293   6.301   0.505   0.983
 6798SOL    HW221294   6.375   0.625   1.066
 6799SOL     OW21295   5.435   0.075   2.493
 6799SOL    HW121296   5.467   0.073   2.588
 6799SOL    HW221297   5.506   0.115   2.435
 6800SOL     OW21298   2.357   2.170   1.772
 6800SOL    HW121299   2.323   2.264   1.762
 6800SOL    HW221300   2.288   2.114   1.818
 6801SOL     OW21301   0.472   6.280   3.938
 6801SOL    HW121302   0.487   6.366   3.986
 6801SOL    HW221303   0.416   6.218   3.994
 6802SOL     OW21304   3.652   5.524   0.774
 6802SOL    HW121305   3.649   5.589   0.849
 6802SOL    HW221306   3.706   5.563   0.699
 6803SOL     OW21307   4.376   3.851   6.954
 6803SOL    HW121308   4.294   3.892   6.914
 6803SOL    HW221309   4.456   3.882   6.904
 6804SOL     OW21310   3.307   5.007   2.585
 6804SOL    HW121311   3.377   5.060   2.631
 6804SOL    HW221312   3.320   5.013   2.486
 6805SOL     OW21313   0.645   5.151   6.930
 6805SOL    HW121314   0.655   5.059   6.893
 6805SOL    HW221315   0.682   5.218   6.866
 6806SOL     OW21316   0.140   0.506   3.984
 6806SOL    HW121317   0.162   0.596   3.948
 6806SOL    HW221318   0.097   0.515   4.074
 6807SOL     OW21319   3.640   4.122   3.476
 6807SOL    HW121320   3.657   4.133   3.574
 6807SOL    HW221321   3.552   4.166   3.453
 6808SOL     OW21322   5.804   1.095   4.871
 6808SOL    HW121323   5.859   1.034   4.928
 6808SOL    HW221324   5.862   1.138   4.802
 6809SOL     OW21325   6.106   3.902   0.488
 6809SOL    HW121326   6.061   3.972   0.433
 6809SOL    HW221327   6.066   3.901   0.580
 6810SOL     OW21328   3.321   0.885   3.031
 6810SOL    HW121329   3.346   0.903   2.936
 6810SOL    HW221330   3.258   0.956   3.063
 6811SOL     OW21331   6.788   3.154   2.253
 6811SOL    HW121332   6.732   3.142   2.335
 6811SOL    HW221333   6.781   3.073   2.195
 6812SOL     OW21334   3.250   4.034   4.981
 6812SOL    HW121335   3.304   4.009   5.061
 6812SOL    HW221336   3.279   4.124   4.948
 6813SOL     OW21337   5.627   3.274   2.171
 6813SOL    HW121338   5.670   3.274   2.262
 6813SOL    HW221339   5.684   3.221   2.108
 6814SOL     OW21340   4.489   1.908   6.856
 6814SOL    HW121341   4.488   1.841   6.782
 6814SOL    HW221342   4.464   1.998   6.819
 6815SOL     OW21343   2.008   5.653   6.917
 6815SOL    HW121344   2.065   5.575   6.944
 6815SOL    HW221345   1.915   5.639   6.952
 6816SOL     OW21346   6.927   1.617   4.879
 6816SOL    HW121347   7.009   1.616   4.820
 6816SOL    HW221348   6.894   1.523   4.891
 6817SOL     OW21349   2.248   2.894   3.792
 6817SOL    HW121350   2.240   2.986   3.753
 6817SOL    HW221351   2.165   2.842   3.774
 6818SOL     OW21352   2.270   6.456   0.271
 6818SOL    HW121353   2.351   6.402   0.295
 6818SOL    HW221354   2.228   6.420   0.188
 6819SOL     OW21355   4.551   1.013   2.589
 6819SOL    HW121356   4.568   0.954   2.668
 6819SOL    HW221357   4.458   0.999   2.556
 6820SOL     OW21358   1.298   5.796   1.566
 6820SOL    HW121359   1.223   5.851   1.603
 6820SOL    HW221360   1.352   5.851   1.503
 6821SOL     OW21361   4.737   3.093   5.527
 6821SOL    HW121362   4.811   3.027   5.539
 6821SOL    HW221363   4.659   3.066   5.583
 6822SOL     OW21364   6.560   2.751   6.382
 6822SOL    HW121365   6.559   2.828   6.318
 6822SOL    HW221366   6.603   2.672   6.338
 6823SOL     OW21367   5.552   4.446   6.968
 6823SOL    HW121368   5.487   4.391   7.020
 6823SOL    HW221369   5.638   4.452   7.019
 6824SOL     OW21370   1.809   1.518   0.496
 6824SOL    HW121371   1.840   1.482   0.408
 6824SOL    HW221372   1.854   1.468   0.570
 6825SOL     OW21373   6.350   0.149   0.407
 6825SOL    HW121374   6.346   0.247   0.391
 6825SOL    HW221375   6.256   0.112   0.409
 6826SOL     OW21376   0.911   3.707   3.836
 6826SOL    HW121377   0.824   3.658   3.836
 6826SOL    HW221378   0.971   3.669   3.765
 6827SOL     OW21379   5.234   5.463   5.954
 6827SOL    HW121380   5.185   5.390   5.906
 6827SOL    HW221381   5.244   5.439   6.051
 6828SOL     OW21382   3.970   1.285   2.717
 6828SOL    HW121383   3.924   1.296   2.805
 6828SOL    HW221384   3.909   1.239   2.653
 6829SOL     OW21385   5.363   6.552   5.701
 6829SOL    HW121386   5.289   6.553   5.768
 6829SOL    HW221387   5.364   6.639   5.651
 6830SOL     OW21388   6.036   1.070   3.471
 6830SOL    HW121389   6.025   1.025   3.560
 6830SOL    HW221390   5.950   1.065   3.421
 6831SOL     OW21391   1.519   0.835   5.649
 6831SOL    HW121392   1.589   0.853   5.717
 6831SOL    HW221393   1.442   0.897   5.663
 6832SOL     OW21394   2.331   3.811   0.473
 6832SOL    HW121395   2.268   3.830   0.549
 6832SOL    HW221396   2.282   3.764   0.400
 6833SOL     OW21397   2.718   5.197   6.369
 6833SOL    HW121398   2.665   5.119   6.337
 6833SOL    HW221399   2.701   5.211   6.466
 6834SOL     OW21400   5.364   0.454   1.037
 6834SOL    HW121401   5.369   0.367   1.087
 6834SOL    HW221402   5.281   0.503   1.063
 6835SOL     OW21403   3.642   1.384   4.680
 6835SOL    HW121404   3.717   1.359   4.618
 6835SOL    HW221405   3.673   1.375   4.774
 6836SOL     OW21406   2.155   4.379   6.266
 6836SOL    HW121407   2.140   4.478   6.274
 6836SOL    HW221408   2.245   4.356   6.302
 6837SOL     OW21409   0.821   1.412   2.849
 6837SOL    HW121410   0.811   1.347   2.774
 6837SOL    HW221411   0.918   1.423   2.871
 6838SOL     OW21412   2.213   4.265   5.675
 6838SOL    HW121413   2.285   4.295   5.612
 6838SOL    HW221414   2.139   4.222   5.623
 6839SOL     OW21415   5.454   1.799   4.065
 6839SOL    HW121416   5.492   1.772   3.977
 6839SOL    HW221417   5.520   1.858   4.113
 6840SOL     OW21418   2.669   6.165   5.471
 6840SOL    HW121419   2.751   6.115   5.499
 6840SOL    HW221420   2.649   6.145   5.375
 6841SOL     OW21421   4.173   4.780   1.065
 6841SOL    HW121422   4.157   4.859   1.124
 6841SOL    HW221423   4.111   4.706   1.091
 6842SOL     OW21424   2.338   2.728   6.875
 6842SOL    HW121425   2.271   2.768   6.812
 6842SOL    HW221426   2.309   2.747   6.970
 6843SOL     OW21427   5.191   0.951   1.976
 6843SOL    HW121428   5.283   0.988   1.962
 6843SOL    HW221429   5.171   0.885   1.903
 6844SOL     OW21430   5.847   6.096   4.119
 6844SOL    HW121431   5.748   6.087   4.116
 6844SOL    HW221432   5.879   6.085   4.213
 6845SOL     OW21433   5.037   4.478   2.457
 6845SOL    HW121434   5.137   4.483   2.468
 6845SOL    HW221435   5.014   4.484   2.360
 6846SOL     OW21436   4.326   3.288   1.449
 6846SOL    HW121437   4.245   3.328   1.493
 6846SOL    HW221438   4.315   3.189   1.445
 6847SOL     OW21439   6.554   3.625   1.670
 6847SOL    HW121440   6.460   3.608   1.640
 6847SOL    HW221441   6.554   3.699   1.738
 6848SOL     OW21442   2.663   6.272   3.158
 6848SOL    HW121443   2.627   6.204   3.094
 6848SOL    HW221444   2.763   6.269   3.157
 6849SOL     OW21445   2.472   5.591   4.739
 6849SOL    HW121446   2.483   5.643   4.654
 6849SOL    HW221447   2.472   5.654   4.817
 6850SOL     OW21448   5.285   3.230   2.466
 6850SOL    HW121449   5.339   3.314   2.475
 6850SOL    HW221450   5.247   3.224   2.374
 6851SOL     OW21451   1.594   2.804   4.321
 6851SOL    HW121452   1.509   2.759   4.349
 6851SOL    HW221453   1.606   2.888   4.373
 6852SOL     OW21454   0.935   4.240   0.986
 6852SOL    HW121455   0.969   4.149   1.011
 6852SOL    HW221456   0.949   4.255   0.888
 6853SOL     OW21457   6.671   3.399   6.606
 6853SOL    HW121458   6.698   3.483   6.651
 6853SOL    HW221459   6.574   3.382   6.622
 6854SOL     OW21460   5.718   1.496   5.689
 6854SOL    HW121461   5.729   1.400   5.715
 6854SOL    HW221462   5.646   1.538   5.744
 6855SOL     OW21463   3.685   5.722   2.584
 6855SOL    HW121464   3.747   5.769   2.521
 6855SOL    HW221465   3.603   5.777   2.596
 6856SOL     OW21466   4.953   4.509   5.401
 6856SOL    HW121467   4.904   4.514   5.488
 6856SOL    HW221468   4.934   4.421   5.357
 6857SOL     OW21469   3.840   1.708   6.839
 6857SOL    HW121470   3.861   1.655   6.757
 6857SOL    HW221471   3.749   1.683   6.873
 6858SOL     OW21472   4.085   3.830   4.661
 6858SOL    HW121473   4.134   3.881   4.732
 6858SOL    HW221474   4.070   3.736   4.693
 6859SOL     OW21475   1.715   6.561   1.361
 6859SOL    HW121476   1.786   6.534   1.426
 6859SOL    HW221477   1.752   6.628   1.297
 6860SOL     OW21478   5.431   5.598   1.808
 6860SOL    HW121479   5.375   5.650   1.872
 6860SOL    HW221480   5.459   5.658   1.732
 6861SOL     OW21481   5.739   4.478   1.480
 6861SOL    HW121482   5.685   4.400   1.512
 6861SOL    HW221483   5.775   4.459   1.389
 6862SOL     OW21484   2.237   4.612   4.222
 6862SOL    HW121485   2.256   4.524   4.265
 6862SOL    HW221486   2.272   4.686   4.280
 6863SOL     OW21487   5.550   1.691   4.330
 6863SOL    HW121488   5.617   1.704   4.403
 6863SOL    HW221489   5.597   1.668   4.245
 6864SOL     OW21490   3.519   6.158   3.899
 6864SOL    HW121491   3.604   6.105   3.899
 6864SOL    HW221492   3.441   6.095   3.894
 6865SOL     OW21493   6.275   5.595   2.653
 6865SOL    HW121494   6.283   5.656   2.732
 6865SOL    HW221495   6.330   5.513   2.668
 6866SOL     OW21496   6.335   4.527   2.190
 6866SOL    HW121497   6.340   4.463   2.266
 6866SOL    HW221498   6.259   4.503   2.130
 6867SOL     OW21499   1.593   4.476   1.190
 6867SOL    HW121500   1.556   4.506   1.278
 6867SOL    HW221501   1.547   4.391   1.163
 6868SOL     OW21502   1.927   5.389   5.504
 6868SOL    HW121503   1.962   5.306   5.459
 6868SOL    HW221504   1.945   5.468   5.446
 6869SOL     OW21505   5.662   2.229   5.243
 6869SOL    HW121506   5.715   2.266   5.166
 6869SOL    HW221507   5.594   2.164   5.209
 6870SOL     OW21508   6.905   4.477   2.533
 6870SOL    HW121509   6.969   4.435   2.469
 6870SOL    HW221510   6.826   4.513   2.482
 6871SOL     OW21511   6.091   5.257   2.303
 6871SOL    HW121512   6.123   5.162   2.307
 6871SOL    HW221513   6.035   5.277   2.384
 6872SOL     OW21514   1.265   3.559   0.536
 6872SOL    HW121515   1.235   3.536   0.444
 6872SOL    HW221516   1.313   3.647   0.535
 6873SOL     OW21517   6.033   3.736   5.008
 6873SOL    HW121518   6.094   3.686   5.070
 6873SOL    HW221519   6.000   3.674   4.937
 6874SOL     OW21520   0.873   4.821   2.854
 6874SOL    HW121521   0.919   4.734   2.843
 6874SOL    HW221522   0.778   4.812   2.823
 6875SOL     OW21523   1.247   2.973   3.735
 6875SOL    HW121524   1.251   3.036   3.657
 6875SOL    HW221525   1.163   2.919   3.729
 6876SOL     OW21526   3.978   5.522   5.381
 6876SOL    HW121527   3.993   5.492   5.287
 6876SOL    HW221528   3.880   5.530   5.398
 6877SOL     OW21529   2.595   4.133   5.991
 6877SOL    HW121530   2.506   4.090   5.973
 6877SOL    HW221531   2.593   4.175   6.082
 6878SOL     OW21532   2.530   2.477   5.390
 6878SOL    HW121533   2.541   2.470   5.490
 6878SOL    HW221534   2.597   2.418   5.345
 6879SOL     OW21535   1.048   2.052   0.116
 6879SOL    HW121536   1.135   2.011   0.088
 6879SOL    HW221537   0.981   1.980   0.136
 6880SOL     OW21538   2.117   3.486   4.980
 6880SOL    HW121539   2.140   3.528   5.068
 6880SOL    HW221540   2.147   3.545   4.906
 6881SOL     OW21541   0.140   3.451   1.913
 6881SOL    HW121542   0.115   3.471   2.007
 6881SOL    HW221543   0.220   3.504   1.887
 6882SOL     OW21544   3.163   0.455   5.726
 6882SOL    HW121545   3.147   0.452   5.628
 6882SOL    HW221546   3.078   0.476   5.773
 6883SOL     OW21547   3.718   1.357   0.780
 6883SOL    HW121548   3.793   1.333   0.718
 6883SOL    HW221549   3.644   1.290   0.771
 6884SOL     OW21550   1.935   3.545   4.521
 6884SOL    HW121551   1.896   3.539   4.429
 6884SOL    HW221552   1.870   3.590   4.582
 6885SOL     OW21553   4.022   5.482   5.111
 6885SOL    HW121554   4.024   5.570   5.063
 6885SOL    HW221555   4.091   5.421   5.072
 6886SOL     OW21556   0.016   0.677   3.516
 6886SOL    HW121557   7.005   0.673   3.610
 6886SOL    HW221558   6.963   0.698   3.454
 6887SOL     OW21559   5.141   0.043   5.811
 6887SOL    HW121560   5.115   6.973   5.783
 6887SOL    HW221561   5.058   0.097   5.826
 6888SOL     OW21562   5.153   6.671   6.783
 6888SOL    HW121563   5.205   6.588   6.803
 6888SOL    HW221564   5.063   6.646   6.746
 6889SOL     OW21565   1.439   2.266   5.689
 6889SOL    HW121566   1.406   2.187   5.637
 6889SOL    HW221567   1.509   2.314   5.636
 6890SOL     OW21568   3.485   6.502   1.777
 6890SOL    HW121569   3.475   6.499   1.876
 6890SOL    HW221570   3.488   6.409   1.740
 6891SOL     OW21571   2.187   4.056   4.259
 6891SOL    HW121572   2.181   3.958   4.279
 6891SOL    HW221573   2.117   4.105   4.311
 6892SOL     OW21574   3.410   1.046   3.349
 6892SOL    HW121575   3.416   1.058   3.448
 6892SOL    HW221576   3.327   1.090   3.315
 6893SOL     OW21577   5.446   5.663   0.727
 6893SOL    HW121578   5.463   5.761   0.741
 6893SOL    HW221579   5.434   5.645   0.629
 6894SOL     OW21580   6.288   5.640   6.808
 6894SOL    HW121581   6.268   5.590   6.892
 6894SOL    HW221582   6.362   5.706   6.826
 6895SOL     OW21583   2.981   5.307   6.446
 6895SOL    HW121584   2.892   5.309   6.399
 6895SOL    HW221585   3.035   5.387   6.417
 6896SOL     OW21586   1.869   6.837   4.124
 6896SOL    HW121587   1.824   6.876   4.205
 6896SOL    HW221588   1.848   6.894   4.044
 6897SOL     OW21589   2.142   3.521   0.007
 6897SOL    HW121590   2.083   3.443   0.026
 6897SOL    HW221591   2.230   3.488   6.995
 6898SOL     OW21592   4.163   1.543   2.375
 6898SOL    HW121593   4.084   1.583   2.423
 6898SOL    HW221594   4.133   1.467   2.319
 6899SOL     OW21595   4.971   6.892   0.991
 6899SOL    HW121596   4.996   6.932   0.903
 6899SOL    HW221597   4.872   6.885   0.997
 6900SOL     OW21598   6.311   0.911   5.850
 6900SOL    HW121599   6.262   0.920   5.937
 6900SOL    HW221600   6.402   0.872   5.866
 6901SOL     OW21601   0.948   0.216   5.906
 6901SOL    HW121602   0.879   0.208   5.834
 6901SOL    HW221603   0.903   0.225   5.994
 6902SOL     OW21604   6.691   6.647   0.714
 6902SOL    HW121605   6.608   6.676   0.667
 6902SOL    HW221606   6.759   6.618   0.646
 6903SOL     OW21607   4.367   5.210   5.077
 6903SOL    HW121608   4.459   5.248   5.086
 6903SOL    HW221609   4.312   5.270   5.019
 6904SOL     OW21610   5.989   2.061   4.124
 6904SOL    HW121611   5.943   2.144   4.092
 6904SOL    HW221612   6.065   2.039   4.063
 6905SOL     OW21613   5.767   7.017   0.249
 6905SOL    HW121614   5.679   7.022   0.203
 6905SOL    HW221615   5.820   0.077   0.229
 6906SOL     OW21616   4.105   0.821   3.773
 6906SOL    HW121617   4.011   0.785   3.773
 6906SOL    HW221618   4.119   0.876   3.691
 6907SOL     OW21619   4.799   1.374   1.356
 6907SOL    HW121620   4.824   1.394   1.261
 6907SOL    HW221621   4.749   1.287   1.359
 6908SOL     OW21622   1.093   6.938   5.678
 6908SOL    HW121623   0.997   6.962   5.667
 6908SOL    HW221624   1.150   7.002   5.628
 6909SOL     OW21625   5.446   4.564   1.479
 6909SOL    HW121626   5.530   4.537   1.526
 6909SOL    HW221627   5.370   4.508   1.512
 6910SOL     OW21628   6.673   2.656   3.596
 6910SOL    HW121629   6.712   2.692   3.512
 6910SOL    HW221630   6.687   2.557   3.600
 6911SOL     OW21631   3.887   6.890   3.408
 6911SOL    HW121632   3.801   6.941   3.411
 6911SOL    HW221633   3.963   6.955   3.397
 6912SOL     OW21634   4.603   5.038   0.346
 6912SOL    HW121635   4.529   5.088   0.391
 6912SOL    HW221636   4.593   4.940   0.362
 6913SOL     OW21637   5.625   4.810   6.001
 6913SOL    HW121638   5.700   4.872   5.977
 6913SOL    HW221639   5.601   4.754   5.922
 6914SOL     OW21640   6.174   5.161   0.061
 6914SOL    HW121641   6.270   5.138   0.077
 6914SOL    HW221642   6.142   5.112   7.002
 6915SOL     OW21643   6.336   4.761   1.861
 6915SOL    HW121644   6.269   4.717   1.801
 6915SOL    HW221645   6.415   4.701   1.873
 6916SOL     OW21646   6.148   3.643   0.340
 6916SOL    HW121647   6.196   3.681   0.261
 6916SOL    HW221648   6.090   3.713   0.381
 6917SOL     OW21649   3.486   5.684   0.499
 6917SOL    HW121650   3.445   5.769   0.464
 6917SOL    HW221651   3.425   5.607   0.481
 6918SOL     OW21652   1.352   3.093   4.395
 6918SOL    HW121653   1.333   3.160   4.323
 6918SOL    HW221654   1.451   3.073   4.397
 6919SOL     OW21655   0.766   6.087   3.158
 6919SOL    HW121656   0.754   6.042   3.069
 6919SOL    HW221657   0.759   6.186   3.146
 6920SOL     OW21658   4.506   5.662   5.978
 6920SOL    HW121659   4.483   5.628   6.069
 6920SOL    HW221660   4.457   5.609   5.909
 6921SOL     OW21661   4.845   5.653   3.068
 6921SOL    HW121662   4.836   5.561   3.106
 6921SOL    HW221663   4.880   5.646   2.974
 6922SOL     OW21664   2.521   5.318   6.516
 6922SOL    HW121665   2.426   5.347   6.523
 6922SOL    HW221666   2.547   5.311   6.420
 6923SOL     OW21667   5.166   5.737   4.046
 6923SOL    HW121668   5.266   5.742   4.050
 6923SOL    HW221669   5.129   5.734   4.139
 6924SOL     OW21670   1.194   4.298   6.990
 6924SOL    HW121671   1.281   4.254   7.015
 6924SOL    HW221672   1.118   4.242   0.002
 6925SOL     OW21673   4.012   5.870   4.633
 6925SOL    HW121674   4.075   5.810   4.682
 6925SOL    HW221675   3.955   5.816   4.572
 6926SOL     OW21676   3.116   3.061   2.403
 6926SOL    HW121677   3.054   3.112   2.462
 6926SOL    HW221678   3.101   3.087   2.307
 6927SOL     OW21679   5.256   3.521   5.857
 6927SOL    HW121680   5.303   3.558   5.777
 6927SOL    HW221681   5.191   3.588   5.891
 6928SOL     OW21682   6.585   6.491   0.950
 6928SOL    HW121683   6.626   6.561   0.892
 6928SOL    HW221684   6.642   6.409   0.949
 6929SOL     OW21685   4.984   5.357   1.270
 6929SOL    HW121686   4.978   5.441   1.324
 6929SOL    HW221687   5.028   5.377   1.183
 6930SOL     OW21688   0.053   0.299   1.677
 6930SOL    HW121689   0.033   0.275   1.772
 6930SOL    HW221690   0.121   0.236   1.640
 6931SOL     OW21691   1.501   0.759   2.474
 6931SOL    HW121692   1.502   0.859   2.464
 6931SOL    HW221693   1.542   0.735   2.562
 6932SOL     OW21694   3.899   0.517   1.098
 6932SOL    HW121695   3.867   0.455   1.027
 6932SOL    HW221696   3.997   0.502   1.114
 6933SOL     OW21697   3.377   5.880   5.050
 6933SOL    HW121698   3.327   5.911   4.970
 6933SOL    HW221699   3.399   5.783   5.040
 6934SOL     OW21700   4.970   4.359   6.075
 6934SOL    HW121701   4.883   4.321   6.109
 6934SOL    HW221702   5.041   4.288   6.080
 6935SOL     OW21703   4.432   6.246   3.769
 6935SOL    HW121704   4.482   6.286   3.846
 6935SOL    HW221705   4.358   6.307   3.741
 6936SOL     OW21706   6.762   2.980   2.681
 6936SOL    HW121707   6.826   2.920   2.632
 6936SOL    HW221708   6.802   3.008   2.768
 6937SOL     OW21709   6.449   6.324   7.016
 6937SOL    HW121710   6.533   6.375   7.000
 6937SOL    HW221711   6.375   6.387   0.016
 6938SOL     OW21712   4.844   3.788   5.326
 6938SOL    HW121713   4.792   3.725   5.269
 6938SOL    HW221714   4.936   3.800   5.288
 6939SOL     OW21715   0.305   4.599   0.810
 6939SOL    HW121716   0.318   4.543   0.893
 6939SOL    HW221717   0.214   4.580   0.772
 6940SOL     OW21718   5.231   1.001   0.273
 6940SOL    HW121719   5.210   0.948   0.190
 6940SOL    HW221720   5.329   1.018   0.278
 6941SOL     OW21721   3.658   2.892   3.140
 6941SOL    HW121722   3.572   2.841   3.140
 6941SOL    HW221723   3.695   2.896   3.047
 6942SOL     OW21724   6.235   2.794   0.445
 6942SOL    HW121725   6.225   2.695   0.440
 6942SOL    HW221726   6.260   2.820   0.538
 6943SOL     OW21727   5.383   6.471   0.135
 6943SOL    HW121728   5.403   6.483   0.038
 6943SOL    HW221729   5.290   6.502   0.155
 6944SOL     OW21730   1.647   4.432   6.201
 6944SOL    HW121731   1.745   4.414   6.212
 6944SOL    HW221732   1.631   4.530   6.193
 6945SOL     OW21733   5.562   2.878   6.175
 6945SOL    HW121734   5.575   2.974   6.201
 6945SOL    HW221735   5.519   2.829   6.251
 6946SOL     OW21736   6.414   6.375   1.738
 6946SOL    HW121737   6.446   6.459   1.694
 6946SOL    HW221738   6.322   6.389   1.774
 6947SOL     OW21739   3.220   6.963   5.664
 6947SOL    HW121740   3.175   0.022   5.701
 6947SOL    HW221741   3.168   6.882   5.690
 6948SOL     OW21742   6.404   0.965   6.658
 6948SOL    HW121743   6.473   0.897   6.684
 6948SOL    HW221744   6.428   1.054   6.698
 6949SOL     OW21745   5.519   6.837   4.099
 6949SOL    HW121746   5.459   6.791   4.034
 6949SOL    HW221747   5.486   6.819   4.192
 6950SOL     OW21748   1.887   0.342   3.878
 6950SOL    HW121749   1.933   0.354   3.965
 6950SOL    HW221750   1.955   0.316   3.808
 6951SOL     OW21751   6.234   6.353   6.032
 6951SOL    HW121752   6.260   6.327   6.124
 6951SOL    HW221753   6.313   6.390   5.984
 6952SOL     OW21754   0.123   5.742   4.089
 6952SOL    HW121755   0.097   5.836   4.070
 6952SOL    HW221756   0.085   5.682   4.019
 6953SOL     OW21757   4.744   0.299   6.952
 6953SOL    HW121758   4.759   0.201   6.936
 6953SOL    HW221759   4.675   0.311   0.001
 6954SOL     OW21760   0.599   4.108   4.143
 6954SOL    HW121761   0.573   4.012   4.148
 6954SOL    HW221762   0.544   4.162   4.207
 6955SOL     OW21763   6.783   0.871   2.815
 6955SOL    HW121764   6.769   0.786   2.866
 6955SOL    HW221765   6.874   0.870   2.773
 6956SOL     OW21766   4.409   6.232   2.803
 6956SOL    HW121767   4.468   6.185   2.869
 6956SOL    HW221768   4.386   6.170   2.728
 6957SOL     OW21769   5.550   4.975   1.398
 6957SOL    HW121770   5.589   4.906   1.337
 6957SOL    HW221771   5.621   5.040   1.424
 6958SOL     OW21772   2.923   3.840   4.878
 6958SOL    HW121773   3.022   3.826   4.880
 6958SOL    HW221774   2.892   3.844   4.784
 6959SOL     OW21775   2.744   1.183   4.623
 6959SOL    HW121776   2.678   1.242   4.577
 6959SOL    HW221777   2.757   1.100   4.570
 6960SOL     OW21778   1.322   5.540   1.095
 6960SOL    HW121779   1.257   5.592   1.151
 6960SOL    HW221780   1.343   5.454   1.140
 6961SOL     OW21781   6.121   3.068   4.279
 6961SOL    HW121782   6.217   3.094   4.269
 6961SOL    HW221783   6.108   2.975   4.244
 6962SOL     OW21784   5.021   6.079   2.475
 6962SOL    HW121785   4.965   5.997   2.465
 6962SOL    HW221786   5.117   6.057   2.459
 6963SOL     OW21787   6.839   5.415   0.967
 6963SOL    HW121788   6.930   5.454   0.979
 6963SOL    HW221789   6.799   5.396   1.057
 6964SOL     OW21790   3.822   5.288   4.721
 6964SOL    HW121791   3.895   5.345   4.684
 6964SOL    HW221792   3.754   5.347   4.765
 6965SOL     OW21793   0.642   3.553   6.290
 6965SOL    HW121794   0.711   3.486   6.262
 6965SOL    HW221795   0.576   3.509   6.351
 6966SOL     OW21796   6.683   2.381   3.654
 6966SOL    HW121797   6.774   2.340   3.651
 6966SOL    HW221798   6.649   2.379   3.748
 6967SOL     OW21799   1.856   0.332   5.538
 6967SOL    HW121800   1.834   0.298   5.629
 6967SOL    HW221801   1.771   0.353   5.489
 6968SOL     OW21802   3.994   6.967   2.683
 6968SOL    HW121803   4.049   6.925   2.611
 6968SOL    HW221804   3.906   6.919   2.690
 6969SOL     OW21805   3.174   2.223   1.070
 6969SOL    HW121806   3.150   2.134   1.108
 6969SOL    HW221807   3.273   2.236   1.076
 6970SOL     OW21808   4.458   3.699   6.529
 6970SOL    HW121809   4.552   3.683   6.558
 6970SOL    HW221810   4.437   3.796   6.533
 6971SOL     OW21811   6.633   4.763   1.191
 6971SOL    HW121812   6.703   4.833   1.189
 6971SOL    HW221813   6.647   4.699   1.115
 6972SOL     OW21814   5.292   4.443   3.955
 6972SOL    HW121815   5.277   4.396   4.042
 6972SOL    HW221816   5.374   4.501   3.962
 6973SOL     OW21817   1.017   3.881   5.701
 6973SOL    HW121818   0.961   3.854   5.779
 6973SOL    HW221819   1.013   3.810   5.631
 6974SOL     OW21820   4.015   3.207   3.008
 6974SOL    HW121821   4.010   3.153   3.092
 6974SOL    HW221822   3.983   3.152   2.931
 6975SOL     OW21823   2.623   6.242   5.736
 6975SOL    HW121824   2.659   6.174   5.800
 6975SOL    HW221825   2.594   6.196   5.652
 6976SOL     OW21826   4.285   5.189   5.328
 6976SOL    HW121827   4.329   5.246   5.397
 6976SOL    HW221828   4.343   5.186   5.246
 6977SOL     OW21829   4.381   2.508   1.803
 6977SOL    HW121830   4.327   2.431   1.838
 6977SOL    HW221831   4.425   2.481   1.717
 6978SOL     OW21832   5.102   2.037   1.887
 6978SOL    HW121833   5.114   2.135   1.871
 6978SOL    HW221834   5.060   1.995   1.806
 6979SOL     OW21835   1.142   4.638   0.637
 6979SOL    HW121836   1.192   4.673   0.717
 6979SOL    HW221837   1.149   4.704   0.562
 6980SOL     OW21838   1.412   1.330   3.625
 6980SOL    HW121839   1.328   1.277   3.638
 6980SOL    HW221840   1.441   1.322   3.529
 6981SOL     OW21841   3.112   3.208   6.178
 6981SOL    HW121842   3.120   3.308   6.181
 6981SOL    HW221843   3.066   3.181   6.093
 6982SOL     OW21844   1.495   1.222   4.254
 6982SOL    HW121845   1.563   1.155   4.282
 6982SOL    HW221846   1.529   1.274   4.176
 6983SOL     OW21847   5.292   2.211   3.673
 6983SOL    HW121848   5.279   2.227   3.771
 6983SOL    HW221849   5.296   2.113   3.655
 6984SOL     OW21850   2.260   2.211   4.244
 6984SOL    HW121851   2.343   2.159   4.224
 6984SOL    HW221852   2.286   2.302   4.278
 6985SOL     OW21853   4.049   5.570   1.110
 6985SOL    HW121854   4.047   5.670   1.115
 6985SOL    HW221855   4.118   5.536   1.174
 6986SOL     OW21856   2.358   5.943   6.518
 6986SOL    HW121857   2.274   5.890   6.508
 6986SOL    HW221858   2.381   5.950   6.615
 6987SOL     OW21859   0.498   1.768   6.182
 6987SOL    HW121860   0.404   1.800   6.199
 6987SOL    HW221861   0.527   1.795   6.091
 6988SOL     OW21862   6.374   1.136   5.696
 6988SOL    HW121863   6.471   1.163   5.698
 6988SOL    HW221864   6.361   1.057   5.756
 6989SOL     OW21865   0.412   3.480   3.939
 6989SOL    HW121866   0.423   3.386   3.905
 6989SOL    HW221867   0.324   3.489   3.986
 6990SOL     OW21868   4.962   2.115   1.522
 6990SOL    HW121869   5.042   2.166   1.552
 6990SOL    HW221870   4.975   2.018   1.541
 6991SOL     OW21871   3.032   4.931   3.581
 6991SOL    HW121872   3.105   4.902   3.643
 6991SOL    HW221873   2.961   4.978   3.634
 6992SOL     OW21874   4.969   6.804   5.252
 6992SOL    HW121875   5.063   6.821   5.222
 6992SOL    HW221876   4.958   6.707   5.274
 6993SOL     OW21877   6.985   1.153   3.230
 6993SOL    HW121878   6.896   1.146   3.185
 6993SOL    HW221879   0.013   1.067   3.219
 6994SOL     OW21880   0.512   3.271   4.953
 6994SOL    HW121881   0.593   3.302   5.001
 6994SOL    HW221882   0.538   3.218   4.873
 6995SOL     OW21883   6.388   4.841   6.403
 6995SOL    HW121884   6.436   4.928   6.414
 6995SOL    HW221885   6.305   4.855   6.349
 6996SOL     OW21886   2.664   0.221   6.577
 6996SOL    HW121887   2.582   0.184   6.533
 6996SOL    HW221888   2.688   0.162   6.655
 6997SOL     OW21889   5.784   6.474   5.372
 6997SOL    HW121890   5.805   6.424   5.457
 6997SOL    HW221891   5.816   6.568   5.380
 6998SOL     OW21892   1.847   2.323   0.873
 6998SOL    HW121893   1.944   2.297   0.878
 6998SOL    HW221894   1.816   2.315   0.778
 6999SOL     OW21895   2.504   2.659   6.238
 6999SOL    HW121896   2.478   2.587   6.302
 6999SOL    HW221897   2.590   2.700   6.267
 7000SOL     OW21898   6.519   6.142   1.654
 7000SOL    HW121899   6.493   6.118   1.561
 7000SOL    HW221900   6.468   6.223   1.683
 7001SOL     OW21901   2.490   3.306   5.352
 7001SOL    HW121902   2.504   3.228   5.292
 7001SOL    HW221903   2.392   3.318   5.369
 7002SOL     OW21904   1.943   5.348   2.713
 7002SOL    HW121905   1.906   5.286   2.783
 7002SOL    HW221906   1.909   5.440   2.728
 7003SOL     OW21907   4.318   5.845   6.876
 7003SOL    HW121908   4.316   5.945   6.880
 7003SOL    HW221909   4.412   5.813   6.877
 7004SOL     OW21910   1.901   4.859   1.876
 7004SOL    HW121911   1.970   4.898   1.937
 7004SOL    HW221912   1.899   4.911   1.791
 7005SOL     OW21913   1.716   6.432   0.062
 7005SOL    HW121914   1.758   6.414   6.996
 7005SOL    HW221915   1.669   6.350   0.095
 7006SOL     OW21916   5.181   4.810   4.461
 7006SOL    HW121917   5.226   4.860   4.386
 7006SOL    HW221918   5.137   4.876   4.523
 7007SOL     OW21919   4.465   6.556   3.917
 7007SOL    HW121920   4.525   6.573   3.839
 7007SOL    HW221921   4.394   6.627   3.920
 7008SOL     OW21922   1.757   4.597   5.341
 7008SOL    HW121923   1.738   4.517   5.398
 7008SOL    HW221924   1.825   4.573   5.271
 7009SOL     OW21925   6.392   5.673   2.336
 7009SOL    HW121926   6.368   5.748   2.274
 7009SOL    HW221927   6.324   5.665   2.408
 7010SOL     OW21928   4.414   4.390   5.944
 7010SOL    HW121929   4.352   4.358   6.016
 7010SOL    HW221930   4.416   4.322   5.870
 7011SOL     OW21931   3.263   6.953   6.087
 7011SOL    HW121932   3.205   6.885   6.132
 7011SOL    HW221933   3.238   0.022   6.121
 7012SOL     OW21934   1.713   1.355   2.470
 7012SOL    HW121935   1.622   1.320   2.447
 7012SOL    HW221936   1.704   1.426   2.541
 7013SOL     OW21937   0.732   0.612   0.559
 7013SOL    HW121938   0.668   0.536   0.551
 7013SOL    HW221939   0.786   0.602   0.642
 7014SOL     OW21940   4.542   3.051   1.353
 7014SOL    HW121941   4.559   3.037   1.451
 7014SOL    HW221942   4.457   3.005   1.327
 7015SOL     OW21943   6.158   4.733   2.623
 7015SOL    HW121944   6.247   4.773   2.599
 7015SOL    HW221945   6.119   4.688   2.543
 7016SOL     OW21946   3.574   4.885   1.629
 7016SOL    HW121947   3.490   4.892   1.575
 7016SOL    HW221948   3.563   4.815   1.699
 7017SOL     OW21949   2.286   0.006   2.770
 7017SOL    HW121950   2.299   6.974   2.687
 7017SOL    HW221951   2.327   6.980   2.848
 7018SOL     OW21952   6.020   4.226   4.586
 7018SOL    HW121953   6.117   4.208   4.605
 7018SOL    HW221954   6.005   4.226   4.487
 7019SOL     OW21955   2.310   3.614   6.307
 7019SOL    HW121956   2.250   3.689   6.279
 7019SOL    HW221957   2.309   3.607   6.407
 7020SOL     OW21958   6.170   6.893   6.552
 7020SOL    HW121959   6.178   6.857   6.645
 7020SOL    HW221960   6.074   6.907   6.530
 7021SOL     OW21961   1.888   1.400   5.506
 7021SOL    HW121962   1.865   1.367   5.598
 7021SOL    HW221963   1.870   1.498   5.501
 7022SOL     OW21964   4.589   5.831   0.429
 7022SOL    HW121965   4.644   5.754   0.398
 7022SOL    HW221966   4.523   5.800   0.497
 7023SOL     OW21967   0.461   1.814   3.870
 7023SOL    HW121968   0.493   1.882   3.804
 7023SOL    HW221969   0.496   1.724   3.845
 7024SOL     OW21970   1.640   4.151   5.846
 7024SOL    HW121971   1.592   4.225   5.798
 7024SOL    HW221972   1.581   4.071   5.851
 7025SOL     OW21973   2.313   1.246   7.014
 7025SOL    HW121974   2.408   1.251   0.022
 7025SOL    HW221975   2.255   1.212   0.066
 7026SOL     OW21976   3.243   1.492   2.271
 7026SOL    HW121977   3.152   1.500   2.229
 7026SOL    HW221978   3.267   1.579   2.314
 7027SOL     OW21979   2.718   4.676   3.711
 7027SOL    HW121980   2.741   4.724   3.626
 7027SOL    HW221981   2.621   4.650   3.710
 7028SOL     OW21982   4.618   6.996   4.349
 7028SOL    HW121983   4.605   6.976   4.252
 7028SOL    HW221984   4.698   0.033   4.361
 7029SOL     OW21985   4.831   5.329   6.009
 7029SOL    HW121986   4.806   5.424   6.030
 7029SOL    HW221987   4.789   5.268   6.076
 7030SOL     OW21988   0.083   2.006   5.076
 7030SOL    HW121989   0.074   2.104   5.095
 7030SOL    HW221990   0.073   1.991   4.978
 7031SOL     OW21991   1.769   6.350   4.805
 7031SOL    HW121992   1.705   6.422   4.831
 7031SOL    HW221993   1.719   6.266   4.785
 7032SOL     OW21994   3.593   0.240   3.604
 7032SOL    HW121995   3.503   0.207   3.636
 7032SOL    HW221996   3.585   0.334   3.573
 7033SOL     OW21997   1.267   2.364   3.475
 7033SOL    HW121998   1.259   2.432   3.548
 7033SOL    HW221999   1.223   2.398   3.392
 7034SOL     OW22000   6.289   6.887   3.390
 7034SOL    HW122001   6.323   6.794   3.378
 7034SOL    HW222002   6.323   6.945   3.316
 7035SOL     OW22003   1.566   6.138   1.483
 7035SOL    HW122004   1.645   6.122   1.423
 7035SOL    HW222005   1.546   6.236   1.486
 7036SOL     OW22006   0.435   0.947   2.855
 7036SOL    HW122007   0.530   0.947   2.825
 7036SOL    HW222008   0.403   1.042   2.863
 7037SOL     OW22009   1.740   0.305   6.588
 7037SOL    HW122010   1.788   0.321   6.502
 7037SOL    HW222011   1.678   0.380   6.606
 7038SOL     OW22012   1.929   3.125   4.568
 7038SOL    HW122013   1.856   3.181   4.528
 7038SOL    HW222014   2.017   3.164   4.542
 7039SOL     OW22015   2.953   5.057   1.624
 7039SOL    HW122016   2.927   4.989   1.555
 7039SOL    HW222017   2.873   5.111   1.649
 7040SOL     OW22018   6.004   1.842   4.763
 7040SOL    HW122019   6.016   1.821   4.860
 7040SOL    HW222020   5.969   1.762   4.716
 7041SOL     OW22021   0.815   2.520   1.770
 7041SOL    HW122022   0.825   2.564   1.681
 7041SOL    HW222023   0.906   2.503   1.809
 7042SOL     OW22024   5.467   5.697   6.314
 7042SOL    HW122025   5.493   5.764   6.246
 7042SOL    HW222026   5.372   5.713   6.342
 7043SOL     OW22027   2.246   2.969   2.467
 7043SOL    HW122028   2.192   2.974   2.551
 7043SOL    HW222029   2.258   2.873   2.442
 7044SOL     OW22030   4.516   5.421   2.873
 7044SOL    HW122031   4.593   5.357   2.862
 7044SOL    HW222032   4.485   5.419   2.968
 7045SOL     OW22033   5.040   6.235   2.718
 7045SOL    HW122034   4.994   6.170   2.658
 7045SOL    HW222035   5.055   6.321   2.669
 7046SOL     OW22036   3.409   1.774   2.819
 7046SOL    HW122037   3.321   1.733   2.841
 7046SOL    HW222038   3.479   1.736   2.880
 7047SOL     OW22039   0.605   2.863   2.091
 7047SOL    HW122040   0.612   2.766   2.071
 7047SOL    HW222041   0.647   2.882   2.180
 7048SOL     OW22042   6.679   6.133   2.466
 7048SOL    HW122043   6.743   6.195   2.512
 7048SOL    HW222044   6.721   6.099   2.382
 7049SOL     OW22045   3.304   1.878   0.927
 7049SOL    HW122046   3.313   1.850   1.023
 7049SOL    HW222047   3.377   1.837   0.873
 7050SOL     OW22048   3.977   3.755   2.383
 7050SOL    HW122049   4.031   3.671   2.378
 7050SOL    HW222050   3.966   3.781   2.479
 7051SOL     OW22051   0.796   0.456   1.214
 7051SOL    HW122052   0.821   0.524   1.283
 7051SOL    HW222053   0.719   0.401   1.247
 7052SOL     OW22054   5.612   2.897   3.678
 7052SOL    HW122055   5.568   2.868   3.593
 7052SOL    HW222056   5.710   2.910   3.663
 7053SOL     OW22057   1.041   3.945   5.359
 7053SOL    HW122058   1.016   3.856   5.398
 7053SOL    HW222059   1.137   3.944   5.333
 7054SOL     OW22060   0.655   6.525   0.605
 7054SOL    HW122061   0.654   6.514   0.704
 7054SOL    HW222062   0.750   6.531   0.573
 7055SOL     OW22063   3.431   5.959   5.491
 7055SOL    HW122064   3.426   6.011   5.406
 7055SOL    HW222065   3.500   5.887   5.482
 7056SOL     OW22066   5.993   5.625   2.563
 7056SOL    HW122067   5.959   5.532   2.549
 7056SOL    HW222068   6.092   5.628   2.546
 7057SOL     OW22069   0.913   5.885   3.519
 7057SOL    HW122070   0.877   5.940   3.444
 7057SOL    HW222071   0.851   5.891   3.597
 7058SOL     OW22072   6.646   5.768   6.002
 7058SOL    HW122073   6.675   5.752   6.096
 7058SOL    HW222074   6.715   5.732   5.939
 7059SOL     OW22075   6.797   0.838   3.784
 7059SOL    HW122076   6.826   0.744   3.797
 7059SOL    HW222077   6.854   0.882   3.715
 7060SOL     OW22078   4.007   0.054   1.649
 7060SOL    HW122079   3.916   0.051   1.607
 7060SOL    HW222080   3.997   0.074   1.747
 7061SOL     OW22081   0.149   3.417   4.036
 7061SOL    HW122082   0.126   3.329   4.078
 7061SOL    HW222083   0.167   3.403   3.939
 7062SOL     OW22084   5.362   1.282   5.358
 7062SOL    HW122085   5.299   1.227   5.411
 7062SOL    HW222086   5.445   1.299   5.412
 7063SOL     OW22087   0.825   0.496   1.533
 7063SOL    HW122088   0.814   0.594   1.547
 7063SOL    HW222089   0.911   0.478   1.485
 7064SOL     OW22090   4.198   1.979   2.292
 7064SOL    HW122091   4.219   2.075   2.274
 7064SOL    HW222092   4.112   1.955   2.248
 7065SOL     OW22093   4.224   3.259   6.475
 7065SOL    HW122094   4.156   3.288   6.542
 7065SOL    HW222095   4.178   3.225   6.393
 7066SOL     OW22096   4.206   6.738   0.560
 7066SOL    HW122097   4.184   6.830   0.527
 7066SOL    HW222098   4.300   6.716   0.535
 7067SOL     OW22099   1.659   1.852   5.308
 7067SOL    HW122100   1.672   1.913   5.230
 7067SOL    HW222101   1.674   1.758   5.280
 7068SOL     OW22102   0.405   4.247   4.291
 7068SOL    HW122103   0.352   4.324   4.257
 7068SOL    HW222104   0.398   4.243   4.391
 7069SOL     OW22105   5.798   1.583   3.913
 7069SOL    HW122106   5.749   1.637   3.845
 7069SOL    HW222107   5.880   1.543   3.871
 7070SOL     OW22108   6.198   6.269   4.830
 7070SOL    HW122109   6.190   6.173   4.858
 7070SOL    HW222110   6.141   6.326   4.890
 7071SOL     OW22111   1.931   6.155   6.462
 7071SOL    HW122112   2.011   6.212   6.480
 7071SOL    HW222113   1.851   6.195   6.504
 7072SOL     OW22114   0.876   6.314   6.709
 7072SOL    HW122115   0.919   6.384   6.765
 7072SOL    HW222116   0.821   6.253   6.766
 7073SOL     OW22117   5.040   0.078   4.494
 7073SOL    HW122118   4.968   0.123   4.441
 7073SOL    HW222119   5.091   0.147   4.546
 7074SOL     OW22120   4.531   2.022   2.119
 7074SOL    HW122121   4.523   2.108   2.068
 7074SOL    HW222122   4.575   1.953   2.061
 7075SOL     OW22123   1.650   5.113   5.140
 7075SOL    HW122124   1.635   5.116   5.041
 7075SOL    HW222125   1.564   5.136   5.186
 7076SOL     OW22126   5.865   2.361   6.732
 7076SOL    HW122127   5.791   2.334   6.670
 7076SOL    HW222128   5.840   2.339   6.826
 7077SOL     OW22129   2.440   4.431   4.079
 7077SOL    HW122130   2.366   4.499   4.082
 7077SOL    HW222131   2.437   4.376   4.162
 7078SOL     OW22132   6.896   0.095   1.280
 7078SOL    HW122133   6.797   0.083   1.276
 7078SOL    HW222134   6.937   0.071   1.192
 7079SOL     OW22135   6.552   6.154   4.843
 7079SOL    HW122136   6.559   6.191   4.751
 7079SOL    HW222137   6.584   6.222   4.909
 7080SOL     OW22138   2.419   2.633   3.736
 7080SOL    HW122139   2.450   2.583   3.816
 7080SOL    HW222140   2.394   2.726   3.761
 7081SOL     OW22141   2.793   1.095   6.784
 7081SOL    HW122142   2.852   1.175   6.793
 7081SOL    HW222143   2.698   1.121   6.800
 7082SOL     OW22144   6.440   4.483   6.982
 7082SOL    HW122145   6.375   4.433   0.017
 7082SOL    HW222146   6.474   4.563   0.008
 7083SOL     OW22147   2.711   0.690   0.443
 7083SOL    HW122148   2.672   0.623   0.380
 7083SOL    HW222149   2.770   0.753   0.393
 7084SOL     OW22150   0.285   6.751   5.442
 7084SOL    HW122151   0.362   6.735   5.503
 7084SOL    HW222152   0.310   6.820   5.374
 7085SOL     OW22153   0.950   2.054   2.112
 7085SOL    HW122154   1.034   2.056   2.058
 7085SOL    HW222155   0.968   2.089   2.204
 7086SOL     OW22156   5.425   1.068   5.111
 7086SOL    HW122157   5.436   1.157   5.065
 7086SOL    HW222158   5.437   1.081   5.210
 7087SOL     OW22159   6.499   3.739   3.582
 7087SOL    HW122160   6.469   3.704   3.493
 7087SOL    HW222161   6.586   3.697   3.606
 7088SOL     OW22162   5.546   2.942   3.387
 7088SOL    HW122163   5.459   2.983   3.413
 7088SOL    HW222164   5.533   2.845   3.367
 7089SOL     OW22165   3.192   2.140   4.763
 7089SOL    HW122166   3.161   2.180   4.849
 7089SOL    HW222167   3.178   2.206   4.689
 7090SOL     OW22168   2.512   0.909   6.676
 7090SOL    HW122169   2.547   0.963   6.600
 7090SOL    HW222170   2.432   0.955   6.716
 7091SOL     OW22171   0.275   1.400   6.665
 7091SOL    HW122172   0.366   1.359   6.674
 7091SOL    HW222173   0.279   1.496   6.689
 7092SOL     OW22174   4.569   2.594   6.335
 7092SOL    HW122175   4.598   2.588   6.430
 7092SOL    HW222176   4.470   2.577   6.329
 7093SOL     OW22177   2.978   3.833   3.422
 7093SOL    HW122178   2.937   3.819   3.512
 7093SOL    HW222179   3.042   3.909   3.426
 7094SOL     OW22180   0.975   5.877   6.276
 7094SOL    HW122181   0.905   5.865   6.206
 7094SOL    HW222182   0.954   5.959   6.329
 7095SOL     OW22183   2.776   3.824   5.828
 7095SOL    HW122184   2.797   3.887   5.903
 7095SOL    HW222185   2.812   3.861   5.742
 7096SOL     OW22186   6.243   0.715   3.586
 7096SOL    HW122187   6.231   0.762   3.674
 7096SOL    HW222188   6.314   0.762   3.533
 7097SOL     OW22189   5.617   1.057   1.164
 7097SOL    HW122190   5.593   1.085   1.257
 7097SOL    HW222191   5.684   0.984   1.168
 7098SOL     OW22192   1.181   0.360   4.575
 7098SOL    HW122193   1.179   0.261   4.563
 7098SOL    HW222194   1.167   0.405   4.487
 7099SOL     OW22195   2.378   0.692   5.123
 7099SOL    HW122196   2.359   0.609   5.071
 7099SOL    HW222197   2.464   0.679   5.174
 7100SOL     OW22198   5.495   2.427   1.212
 7100SOL    HW122199   5.414   2.379   1.244
 7100SOL    HW222200   5.493   2.522   1.242
 7101SOL     OW22201   2.270   1.345   4.733
 7101SOL    HW122202   2.206   1.339   4.809
 7101SOL    HW222203   2.274   1.440   4.700
 7102SOL     OW22204   4.400   0.755   0.736
 7102SOL    HW122205   4.443   0.702   0.663
 7102SOL    HW222206   4.351   0.694   0.798
 7103SOL     OW22207   4.657   5.148   2.121
 7103SOL    HW122208   4.570   5.161   2.074
 7103SOL    HW222209   4.685   5.234   2.164
 7104SOL     OW22210   0.463   2.925   4.533
 7104SOL    HW122211   0.455   2.828   4.553
 7104SOL    HW222212   0.556   2.955   4.552
 7105SOL     OW22213   2.799   2.667   5.498
 7105SOL    HW122214   2.754   2.716   5.573
 7105SOL    HW222215   2.746   2.679   5.414
 7106SOL     OW22216   2.897   3.321   3.063
 7106SOL    HW122217   2.896   3.315   3.163
 7106SOL    HW222218   2.938   3.409   3.035
 7107SOL     OW22219   3.083   1.507   0.119
 7107SOL    HW122220   3.067   1.601   0.090
 7107SOL    HW222221   3.094   1.504   0.219
 7108SOL     OW22222   4.006   6.068   2.614
 7108SOL    HW122223   3.962   6.074   2.704
 7108SOL    HW222224   4.037   5.974   2.599
 7109SOL     OW22225   2.989   0.686   6.030
 7109SOL    HW122226   2.965   0.700   5.934
 7109SOL    HW222227   3.055   0.756   6.058
 7110SOL     OW22228   3.783   5.418   4.414
 7110SOL    HW122229   3.744   5.333   4.451
 7110SOL    HW222230   3.764   5.423   4.316
 7111SOL     OW22231   1.503   1.916   4.113
 7111SOL    HW122232   1.489   1.978   4.035
 7111SOL    HW222233   1.442   1.943   4.188
 7112SOL     OW22234   1.208   5.340   4.590
 7112SOL    HW122235   1.176   5.245   4.587
 7112SOL    HW222236   1.214   5.370   4.685
 7113SOL     OW22237   3.555   4.158   5.068
 7113SOL    HW122238   3.566   4.110   4.981
 7113SOL    HW222239   3.644   4.167   5.113
 7114SOL     OW22240   3.909   0.106   1.905
 7114SOL    HW122241   3.820   0.071   1.875
 7114SOL    HW222242   3.937   0.059   1.989
 7115SOL     OW22243   5.455   3.403   1.884
 7115SOL    HW122244   5.436   3.467   1.958
 7115SOL    HW222245   5.388   3.329   1.885
 7116SOL     OW22246   6.342   4.270   3.322
 7116SOL    HW122247   6.377   4.304   3.235
 7116SOL    HW222248   6.245   4.247   3.312
 7117SOL     OW22249   6.574   5.786   5.103
 7117SOL    HW122250   6.600   5.834   5.020
 7117SOL    HW222251   6.504   5.718   5.082
 7118SOL     OW22252   2.464   3.842   0.998
 7118SOL    HW122253   2.376   3.870   1.037
 7118SOL    HW222254   2.524   3.810   1.071
 7119SOL     OW22255   5.533   1.955   2.945
 7119SOL    HW122256   5.517   2.009   2.862
 7119SOL    HW222257   5.540   2.016   3.024
 7120SOL     OW22258   3.655   1.997   3.129
 7120SOL    HW122259   3.625   2.041   3.044
 7120SOL    HW222260   3.591   2.020   3.203
 7121SOL     OW22261   1.828   6.765   3.221
 7121SOL    HW122262   1.926   6.773   3.202
 7121SOL    HW222263   1.780   6.741   3.137
 7122SOL     OW22264   1.432   0.185   5.956
 7122SOL    HW122265   1.365   0.112   5.941
 7122SOL    HW222266   1.385   0.267   5.987
 7123SOL     OW22267   2.114   4.465   3.185
 7123SOL    HW122268   2.043   4.403   3.151
 7123SOL    HW222269   2.167   4.499   3.108
 7124SOL     OW22270   6.800   2.227   0.739
 7124SOL    HW122271   6.858   2.271   0.808
 7124SOL    HW222272   6.739   2.163   0.784
 7125SOL     OW22273   6.692   6.950   0.542
 7125SOL    HW122274   6.711   0.022   0.517
 7125SOL    HW222275   6.740   6.927   0.626
 7126SOL     OW22276   3.401   5.116   0.236
 7126SOL    HW122277   3.444   5.184   0.177
 7126SOL    HW222278   3.467   5.080   0.301
 7127SOL     OW22279   1.619   5.284   5.419
 7127SOL    HW122280   1.574   5.195   5.420
 7127SOL    HW222281   1.712   5.275   5.454
 7128SOL     OW22282   3.010   5.006   0.485
 7128SOL    HW122283   2.957   4.934   0.440
 7128SOL    HW222284   2.968   5.028   0.573
 7129SOL     OW22285   2.108   1.240   0.227
 7129SOL    HW122286   2.129   1.333   0.258
 7129SOL    HW222287   2.016   1.238   0.189
 7130SOL     OW22288   4.154   5.489   5.570
 7130SOL    HW122289   4.102   5.492   5.485
 7130SOL    HW222290   4.239   5.438   5.556
 7131SOL     OW22291   2.571   0.741   1.202
 7131SOL    HW122292   2.624   0.735   1.117
 7131SOL    HW222293   2.574   0.653   1.249
 7132SOL     OW22294   3.753   3.799   6.861
 7132SOL    HW122295   3.739   3.751   6.775
 7132SOL    HW222296   3.747   3.898   6.845
 7133SOL     OW22297   5.400   5.640   5.604
 7133SOL    HW122298   5.462   5.608   5.675
 7133SOL    HW222299   5.386   5.739   5.613
 7134SOL     OW22300   6.062   6.984   1.835
 7134SOL    HW122301   5.983   6.973   1.894
 7134SOL    HW222302   6.032   6.998   1.740
 7135SOL     OW22303   0.601   3.262   3.275
 7135SOL    HW122304   0.670   3.321   3.233
 7135SOL    HW222305   0.646   3.198   3.337
 7136SOL     OW22306   1.933   2.877   0.771
 7136SOL    HW122307   1.836   2.855   0.786
 7136SOL    HW222308   1.969   2.820   0.697
 7137SOL     OW22309   3.686   6.878   6.890
 7137SOL    HW122310   3.625   6.957   6.896
 7137SOL    HW222311   3.770   6.904   6.842
 7138SOL     OW22312   1.577   2.306   6.915
 7138SOL    HW122313   1.484   2.282   6.889
 7138SOL    HW222314   1.640   2.236   6.883
 7139SOL     OW22315   5.701   3.964   2.048
 7139SOL    HW122316   5.667   3.975   2.141
 7139SOL    HW222317   5.776   3.898   2.047
 7140SOL     OW22318   5.565   4.208   4.284
 7140SOL    HW122319   5.533   4.217   4.378
 7140SOL    HW222320   5.529   4.124   4.244
 7141SOL     OW22321   3.872   6.268   1.822
 7141SOL    HW122322   3.855   6.346   1.762
 7141SOL    HW222323   3.846   6.291   1.916
 7142SOL     OW22324   4.418   0.480   3.590
 7142SOL    HW122325   4.444   0.512   3.681
 7142SOL    HW222326   4.431   0.554   3.524
 7143SOL     OW22327   1.189   2.490   6.440
 7143SOL    HW122328   1.247   2.431   6.383
 7143SOL    HW222329   1.102   2.507   6.392
 7144SOL     OW22330   1.724   2.185   2.301
 7144SOL    HW122331   1.663   2.107   2.286
 7144SOL    HW222332   1.739   2.232   2.214
 7145SOL     OW22333   4.162   6.606   0.281
 7145SOL    HW122334   4.211   6.690   0.259
 7145SOL    HW222335   4.064   6.625   0.283
 7146SOL     OW22336   2.160   0.333   1.373
 7146SOL    HW122337   2.115   0.248   1.396
 7146SOL    HW222338   2.243   0.314   1.320
 7147SOL     OW22339   0.524   6.723   3.439
 7147SOL    HW122340   0.555   6.818   3.447
 7147SOL    HW222341   0.456   6.717   3.366
 7148SOL     OW22342   0.847   6.175   0.471
 7148SOL    HW122343   0.876   6.252   0.414
 7148SOL    HW222344   0.822   6.209   0.562
 7149SOL     OW22345   5.677   6.673   2.943
 7149SOL    HW122346   5.767   6.643   2.975
 7149SOL    HW222347   5.688   6.747   2.876
 7150SOL     OW22348   3.628   2.105   2.303
 7150SOL    HW122349   3.650   2.190   2.254
 7150SOL    HW222350   3.711   2.049   2.311
 7151SOL     OW22351   2.028   6.328   0.873
 7151SOL    HW122352   2.116   6.372   0.858
 7151SOL    HW222353   2.021   6.297   0.967
 7152SOL     OW22354   1.346   0.962   4.953
 7152SOL    HW122355   1.309   1.054   4.966
 7152SOL    HW222356   1.436   0.968   4.909
 7153SOL     OW22357   3.369   5.171   2.100
 7153SOL    HW122358   3.333   5.264   2.087
 7153SOL    HW222359   3.468   5.175   2.109
 7154SOL     OW22360   3.585   0.589   3.779
 7154SOL    HW122361   3.568   0.500   3.820
 7154SOL    HW222362   3.519   0.606   3.706
 7155SOL     OW22363   1.973   3.098   1.748
 7155SOL    HW122364   1.918   3.046   1.814
 7155SOL    HW222365   2.007   3.182   1.791
 7156SOL     OW22366   0.178   4.002   4.521
 7156SOL    HW122367   0.229   4.082   4.489
 7156SOL    HW222368   0.235   3.921   4.511
 7157SOL     OW22369   6.077   3.834   1.886
 7157SOL    HW122370   6.051   3.852   1.981
 7157SOL    HW222371   6.118   3.743   1.879
 7158SOL     OW22372   1.108   6.780   2.899
 7158SOL    HW122373   1.014   6.806   2.922
 7158SOL    HW222374   1.149   6.852   2.844
 7159SOL     OW22375   0.397   4.564   2.676
 7159SOL    HW122376   0.338   4.604   2.747
 7159SOL    HW222377   0.486   4.543   2.715
 7160SOL     OW22378   4.949   0.018   3.122
 7160SOL    HW122379   4.983   0.066   3.203
 7160SOL    HW222380   4.920   0.085   3.053
 7161SOL     OW22381   2.932   3.385   4.499
 7161SOL    HW122382   2.949   3.483   4.499
 7161SOL    HW222383   2.916   3.353   4.593
 7162SOL     OW22384   1.659   5.554   6.423
 7162SOL    HW122385   1.679   5.469   6.473
 7162SOL    HW222386   1.595   5.535   6.350
 7163SOL     OW22387   2.793   6.565   2.876
 7163SOL    HW122388   2.774   6.478   2.830
 7163SOL    HW222389   2.889   6.568   2.903
 7164SOL     OW22390   1.863   1.074   3.674
 7164SOL    HW122391   1.798   1.147   3.653
 7164SOL    HW222392   1.852   0.999   3.608
 7165SOL     OW22393   6.934   1.060   2.095
 7165SOL    HW122394   6.891   1.133   2.042
 7165SOL    HW222395   6.885   1.046   2.180
 7166SOL     OW22396   5.939   2.803   0.314
 7166SOL    HW122397   6.027   2.848   0.332
 7166SOL    HW222398   5.874   2.828   0.386
 7167SOL     OW22399   5.341   3.590   3.869
 7167SOL    HW122400   5.306   3.498   3.884
 7167SOL    HW222401   5.420   3.606   3.928
 7168SOL     OW22402   1.783   2.442   3.179
 7168SOL    HW122403   1.853   2.475   3.241
 7168SOL    HW222404   1.695   2.436   3.227
 7169SOL     OW22405   6.393   2.555   5.005
 7169SOL    HW122406   6.331   2.500   5.062
 7169SOL    HW222407   6.477   2.504   4.987
 7170SOL     OW22408   5.267   6.009   3.693
 7170SOL    HW122409   5.212   6.088   3.721
 7170SOL    HW222410   5.260   5.997   3.594
 7171SOL     OW22411   5.187   3.598   0.074
 7171SOL    HW122412   5.263   3.604   0.139
 7171SOL    HW222413   5.176   3.685   0.027
 7172SOL     OW22414   1.550   0.524   4.836
 7172SOL    HW122415   1.576   0.588   4.908
 7172SOL    HW222416   1.544   0.431   4.874
 7173SOL     OW22417   6.919   4.421   5.975
 7173SOL    HW122418   6.961   4.331   5.964
 7173SOL    HW222419   6.990   4.491   5.970
 7174SOL     OW22420   0.420   4.728   0.207
 7174SOL    HW122421   0.348   4.772   0.153
 7174SOL    HW222422   0.492   4.794   0.226
 7175SOL     OW22423   5.016   2.533   6.415
 7175SOL    HW122424   5.091   2.598   6.405
 7175SOL    HW222425   4.994   2.521   6.512
 7176SOL     OW22426   0.566   6.804   2.823
 7176SOL    HW122427   0.501   6.756   2.764
 7176SOL    HW222428   0.557   6.769   2.917
 7177SOL     OW22429   1.566   5.645   4.420
 7177SOL    HW122430   1.641   5.695   4.376
 7177SOL    HW222431   1.602   5.595   4.499
 7178SOL     OW22432   1.995   2.050   5.863
 7178SOL    HW122433   2.085   2.090   5.882
 7178SOL    HW222434   2.002   1.991   5.783
 7179SOL     OW22435   2.124   3.780   4.242
 7179SOL    HW122436   2.026   3.777   4.221
 7179SOL    HW222437   2.175   3.728   4.173
 7180SOL     OW22438   2.437   5.178   0.321
 7180SOL    HW122439   2.390   5.091   0.334
 7180SOL    HW222440   2.532   5.170   0.351
 7181SOL     OW22441   2.509   6.125   0.532
 7181SOL    HW122442   2.523   6.170   0.621
 7181SOL    HW222443   2.422   6.076   0.533
 7182SOL     OW22444   1.455   2.513   5.008
 7182SOL    HW122445   1.508   2.597   5.019
 7182SOL    HW222446   1.441   2.494   4.911
 7183SOL     OW22447   2.724   5.967   0.479
 7183SOL    HW122448   2.779   5.942   0.400
 7183SOL    HW222449   2.666   6.045   0.457
 7184SOL     OW22450   6.759   1.133   3.407
 7184SOL    HW122451   6.820   1.201   3.365
 7184SOL    HW222452   6.728   1.167   3.496
 7185SOL     OW22453   5.211   0.759   5.324
 7185SOL    HW122454   5.166   0.737   5.237
 7185SOL    HW222455   5.310   0.755   5.312
 7186SOL     OW22456   6.718   0.663   7.006
 7186SOL    HW122457   6.648   0.726   0.019
 7186SOL    HW222458   6.765   0.620   0.061
 7187SOL     OW22459   3.443   4.280   6.716
 7187SOL    HW122460   3.358   4.270   6.768
 7187SOL    HW222461   3.453   4.375   6.687
 7188SOL     OW22462   0.055   0.234   0.508
 7188SOL    HW122463   7.018   0.310   0.535
 7188SOL    HW222464   0.086   0.186   0.590
 7189SOL     OW22465   0.554   0.978   5.616
 7189SOL    HW122466   0.487   0.907   5.636
 7189SOL    HW222467   0.646   0.944   5.638
 7190SOL     OW22468   0.106   3.924   2.561
 7190SOL    HW122469   0.086   4.021   2.575
 7190SOL    HW222470   0.052   3.890   2.484
 7191SOL     OW22471   0.538   4.151   2.620
 7191SOL    HW122472   0.477   4.089   2.668
 7191SOL    HW222473   0.578   4.216   2.684
 7192SOL     OW22474   3.488   4.440   5.611
 7192SOL    HW122475   3.390   4.436   5.593
 7192SOL    HW222476   3.529   4.350   5.592
 7193SOL     OW22477   1.830   2.554   2.120
 7193SOL    HW122478   1.760   2.625   2.119
 7193SOL    HW222479   1.791   2.468   2.088
 7194SOL     OW22480   2.563   1.884   0.764
 7194SOL    HW122481   2.641   1.821   0.760
 7194SOL    HW222482   2.596   1.978   0.770
 7195SOL     OW22483   0.301   4.305   0.033
 7195SOL    HW122484   0.283   4.207   0.024
 7195SOL    HW222485   0.375   4.320   0.098
 7196SOL     OW22486   3.520   4.300   1.130
 7196SOL    HW122487   3.607   4.311   1.178
 7196SOL    HW222488   3.446   4.289   1.197
 7197SOL     OW22489   0.362   2.675   5.758
 7197SOL    HW122490   0.367   2.755   5.698
 7197SOL    HW222491   0.323   2.701   5.846
 7198SOL     OW22492   0.489   0.616   6.757
 7198SOL    HW122493   0.474   0.672   6.676
 7198SOL    HW222494   0.436   0.653   6.833
 7199SOL     OW22495   2.319   1.062   2.864
 7199SOL    HW122496   2.415   1.091   2.861
 7199SOL    HW222497   2.288   1.037   2.772
 7200SOL     OW22498   2.590   1.908   0.369
 7200SOL    HW122499   2.622   2.002   0.387
 7200SOL    HW222500   2.667   1.845   0.380
 7201SOL     OW22501   0.855   5.602   4.070
 7201SOL    HW122502   0.815   5.561   4.152
 7201SOL    HW222503   0.953   5.617   4.084
 7202SOL     OW22504   4.298   0.424   6.014
 7202SOL    HW122505   4.297   0.524   6.020
 7202SOL    HW222506   4.334   0.395   5.926
 7203SOL     OW22507   0.167   2.006   0.852
 7203SOL    HW122508   0.160   1.916   0.808
 7203SOL    HW222509   0.091   2.017   0.917
 7204SOL     OW22510   0.565   6.912   5.761
 7204SOL    HW122511   0.469   6.925   5.788
 7204SOL    HW222512   0.625   6.940   5.836
 7205SOL     OW22513   1.002   5.514   3.693
 7205SOL    HW122514   1.059   5.432   3.687
 7205SOL    HW222515   1.060   5.593   3.713
 7206SOL     OW22516   2.010   0.466   1.160
 7206SOL    HW122517   1.928   0.411   1.146
 7206SOL    HW222518   2.063   0.428   1.235
 7207SOL     OW22519   3.517   0.246   2.950
 7207SOL    HW122520   3.550   0.172   3.008
 7207SOL    HW222521   3.534   0.222   2.854
 7208SOL     OW22522   3.735   6.450   3.625
 7208SOL    HW122523   3.778   6.453   3.535
 7208SOL    HW222524   3.806   6.459   3.695
 7209SOL     OW22525   2.851   3.498   2.390
 7209SOL    HW122526   2.908   3.574   2.423
 7209SOL    HW222527   2.869   3.482   2.293
 7210SOL     OW22528   4.434   0.511   3.966
 7210SOL    HW122529   4.402   0.595   3.922
 7210SOL    HW222530   4.470   0.448   3.897
 7211SOL     OW22531   2.493   6.170   3.928
 7211SOL    HW122532   2.396   6.178   3.949
 7211SOL    HW222533   2.545   6.157   4.012
 7212SOL     OW22534   0.266   6.170   4.995
 7212SOL    HW122535   0.354   6.206   4.964
 7212SOL    HW222536   0.278   6.079   5.035
 7213SOL     OW22537   5.115   0.215   0.076
 7213SOL    HW122538   5.168   0.216   0.161
 7213SOL    HW222539   5.023   0.179   0.095
 7214SOL     OW22540   0.223   5.035   5.556
 7214SOL    HW122541   0.145   4.991   5.600
 7214SOL    HW222542   0.197   5.125   5.523
 7215SOL     OW22543   0.164   3.813   5.347
 7215SOL    HW122544   0.198   3.898   5.305
 7215SOL    HW222545   0.132   3.832   5.440
 7216SOL     OW22546   3.247   6.396   6.463
 7216SOL    HW122547   3.229   6.398   6.365
 7216SOL    HW222548   3.306   6.318   6.485
 7217SOL     OW22549   2.398   4.348   2.579
 7217SOL    HW122550   2.309   4.319   2.543
 7217SOL    HW222551   2.388   4.438   2.621
 7218SOL     OW22552   4.804   2.425   5.361
 7218SOL    HW122553   4.728   2.457   5.416
 7218SOL    HW222554   4.785   2.441   5.264
 7219SOL     OW22555   4.542   6.569   4.938
 7219SOL    HW122556   4.524   6.651   4.991
 7219SOL    HW222557   4.556   6.593   4.842
 7220SOL     OW22558   0.923   5.514   5.065
 7220SOL    HW122559   0.936   5.595   5.121
 7220SOL    HW222560   0.932   5.432   5.122
 7221SOL     OW22561   4.159   5.657   4.325
 7221SOL    HW122562   4.132   5.574   4.374
 7221SOL    HW222563   4.254   5.679   4.347
 7222SOL     OW22564   6.042   0.186   2.944
 7222SOL    HW122565   6.034   0.114   3.013
 7222SOL    HW222566   6.039   0.275   2.989
 7223SOL     OW22567   3.211   2.230   1.491
 7223SOL    HW122568   3.135   2.171   1.462
 7223SOL    HW222569   3.176   2.307   1.543
 7224SOL     OW22570   5.629   2.139   3.579
 7224SOL    HW122571   5.560   2.211   3.571
 7224SOL    HW222572   5.649   2.122   3.675
 7225SOL     OW22573   1.054   6.056   0.321
 7225SOL    HW122574   1.087   6.018   0.407
 7225SOL    HW222575   0.954   6.063   0.324
 7226SOL     OW22576   6.866   0.978   1.049
 7226SOL    HW122577   6.949   0.986   0.995
 7226SOL    HW222578   6.855   1.059   1.106
 7227SOL     OW22579   0.939   2.617   1.195
 7227SOL    HW122580   0.879   2.582   1.123
 7227SOL    HW222581   0.985   2.540   1.239
 7228SOL     OW22582   0.825   1.555   2.348
 7228SOL    HW122583   0.866   1.548   2.257
 7228SOL    HW222584   0.736   1.601   2.341
 7229SOL     OW22585   1.612   6.413   5.262
 7229SOL    HW122586   1.599   6.414   5.361
 7229SOL    HW222587   1.703   6.447   5.240
 7230SOL     OW22588   4.628   5.128   4.403
 7230SOL    HW122589   4.595   5.037   4.431
 7230SOL    HW222590   4.587   5.152   4.315
 7231SOL     OW22591   4.684   0.103   0.303
 7231SOL    HW122592   4.663   0.163   0.380
 7231SOL    HW222593   4.638   0.015   0.315
 7232SOL     OW22594   5.350   5.389   2.711
 7232SOL    HW122595   5.440   5.412   2.673
 7232SOL    HW222596   5.290   5.469   2.705
 7233SOL     OW22597   0.410   2.683   4.629
 7233SOL    HW122598   0.466   2.615   4.676
 7233SOL    HW222599   0.345   2.637   4.569
 7234SOL     OW22600   5.436   3.606   3.384
 7234SOL    HW122601   5.414   3.633   3.290
 7234SOL    HW222602   5.423   3.508   3.394
 7235SOL     OW22603   6.764   4.103   1.804
 7235SOL    HW122604   6.721   4.072   1.719
 7235SOL    HW222605   6.846   4.155   1.784
 7236SOL     OW22606   2.325   1.869   2.295
 7236SOL    HW122607   2.348   1.960   2.331
 7236SOL    HW222608   2.232   1.870   2.260
 7237SOL     OW22609   5.441   0.541   4.903
 7237SOL    HW122610   5.530   0.563   4.943
 7237SOL    HW222611   5.385   0.623   4.897
 7238SOL     OW22612   3.130   1.982   1.197
 7238SOL    HW122613   3.046   1.944   1.235
 7238SOL    HW222614   3.203   1.915   1.204
 7239SOL     OW22615   1.913   2.206   2.506
 7239SOL    HW122616   1.991   2.177   2.450
 7239SOL    HW222617   1.831   2.209   2.449
 7240SOL     OW22618   2.599   4.920   5.944
 7240SOL    HW122619   2.555   4.931   5.855
 7240SOL    HW222620   2.532   4.933   6.016
 7241SOL     OW22621   2.573   0.719   0.689
 7241SOL    HW122622   2.546   0.814   0.702
 7241SOL    HW222623   2.624   0.711   0.603
 7242SOL     OW22624   6.222   5.919   0.411
 7242SOL    HW122625   6.220   6.018   0.394
 7242SOL    HW222626   6.234   5.870   0.325
 7243SOL     OW22627   6.719   4.514   6.118
 7243SOL    HW122628   6.753   4.585   6.180
 7243SOL    HW222629   6.796   4.471   6.071
 7244SOL     OW22630   5.870   0.632   0.946
 7244SOL    HW122631   5.961   0.653   0.908
 7244SOL    HW222632   5.881   0.597   1.039
 7245SOL     OW22633   0.331   1.889   5.130
 7245SOL    HW122634   0.251   1.944   5.155
 7245SOL    HW222635   0.321   1.856   5.036
 7246SOL     OW22636   6.470   0.523   4.051
 7246SOL    HW122637   6.397   0.497   4.115
 7246SOL    HW222638   6.553   0.544   4.102
 7247SOL     OW22639   2.962   6.927   4.262
 7247SOL    HW122640   2.882   6.868   4.273
 7247SOL    HW222641   2.955   6.975   4.174
 7248SOL     OW22642   3.638   0.970   3.732
 7248SOL    HW122643   3.614   0.896   3.795
 7248SOL    HW222644   3.735   0.966   3.711
 7249SOL     OW22645   5.470   4.679   2.190
 7249SOL    HW122646   5.407   4.695   2.114
 7249SOL    HW222647   5.533   4.756   2.198
 7250SOL     OW22648   4.158   5.925   6.319
 7250SOL    HW122649   4.095   5.991   6.361
 7250SOL    HW222650   4.192   5.862   6.389
 7251SOL     OW22651   0.714   6.813   5.182
 7251SOL    HW122652   0.643   6.743   5.175
 7251SOL    HW222653   0.765   6.818   5.097
 7252SOL     OW22654   3.492   3.129   3.268
 7252SOL    HW122655   3.423   3.070   3.226
 7252SOL    HW222656   3.542   3.078   3.338
 7253SOL     OW22657   2.587   5.895   6.402
 7253SOL    HW122658   2.630   5.983   6.386
 7253SOL    HW222659   2.494   5.909   6.437
 7254SOL     OW22660   4.658   5.521   4.674
 7254SOL    HW122661   4.726   5.509   4.602
 7254SOL    HW222662   4.566   5.511   4.636
 7255SOL     OW22663   3.796   3.740   0.918
 7255SOL    HW122664   3.757   3.832   0.925
 7255SOL    HW222665   3.750   3.679   0.982
 7256SOL     OW22666   4.509   4.527   4.523
 7256SOL    HW122667   4.436   4.590   4.550
 7256SOL    HW222668   4.538   4.549   4.429
 7257SOL     OW22669   4.906   3.366   3.858
 7257SOL    HW122670   4.866   3.444   3.810
 7257SOL    HW222671   4.964   3.314   3.795
 7258SOL     OW22672   4.007   0.805   2.855
 7258SOL    HW122673   4.093   0.822   2.903
 7258SOL    HW222674   3.930   0.820   2.918
 7259SOL     OW22675   3.260   3.453   1.466
 7259SOL    HW122676   3.241   3.542   1.426
 7259SOL    HW222677   3.214   3.446   1.555
 7260SOL     OW22678   2.787   2.356   2.550
 7260SOL    HW122679   2.822   2.338   2.458
 7260SOL    HW222680   2.854   2.326   2.618
 7261SOL     OW22681   2.096   2.813   1.382
 7261SOL    HW122682   2.029   2.739   1.384
 7261SOL    HW222683   2.179   2.784   1.431
 7262SOL     OW22684   5.526   1.811   4.697
 7262SOL    HW122685   5.589   1.779   4.627
 7262SOL    HW222686   5.576   1.832   4.781
 7263SOL     OW22687   0.152   6.694   2.130
 7263SOL    HW122688   0.212   6.772   2.113
 7263SOL    HW222689   0.092   6.680   2.051
 7264SOL     OW22690   6.072   1.408   6.499
 7264SOL    HW122691   6.142   1.456   6.447
 7264SOL    HW222692   6.043   1.327   6.449
 7265SOL     OW22693   5.428   5.893   6.072
 7265SOL    HW122694   5.402   5.863   5.981
 7265SOL    HW222695   5.415   5.992   6.080
 7266SOL     OW22696   4.785   0.266   1.308
 7266SOL    HW122697   4.811   0.170   1.302
 7266SOL    HW222698   4.691   0.277   1.275
 7267SOL     OW22699   6.606   5.490   5.490
 7267SOL    HW122700   6.655   5.572   5.460
 7267SOL    HW222701   6.530   5.517   5.550
 7268SOL     OW22702   4.370   4.620   2.962
 7268SOL    HW122703   4.382   4.718   2.947
 7268SOL    HW222704   4.430   4.569   2.901
 7269SOL     OW22705   6.914   6.367   1.121
 7269SOL    HW122706   6.939   6.316   1.204
 7269SOL    HW222707   6.997   6.391   1.071
 7270SOL     OW22708   0.834   2.749   4.890
 7270SOL    HW122709   0.856   2.768   4.986
 7270SOL    HW222710   0.913   2.770   4.833
 7271SOL     OW22711   0.455   5.136   4.042
 7271SOL    HW122712   0.471   5.210   3.977
 7271SOL    HW222713   0.543   5.099   4.073
 7272SOL     OW22714   5.499   4.758   1.856
 7272SOL    HW122715   5.485   4.780   1.759
 7272SOL    HW222716   5.431   4.690   1.885
 7273SOL     OW22717   5.140   5.022   2.263
 7273SOL    HW122718   5.218   5.055   2.316
 7273SOL    HW222719   5.156   5.039   2.166
 7274SOL     OW22720   0.920   6.231   0.054
 7274SOL    HW122721   0.841   6.175   0.028
 7274SOL    HW222722   1.000   6.171   0.066
 7275SOL     OW22723   0.067   1.053   2.589
 7275SOL    HW122724   7.011   1.109   2.561
 7275SOL    HW222725   0.069   1.045   2.688
 7276SOL     OW22726   3.596   1.361   3.244
 7276SOL    HW122727   3.603   1.353   3.145
 7276SOL    HW222728   3.593   1.270   3.286
 7277SOL     OW22729   5.174   1.141   4.465
 7277SOL    HW122730   5.138   1.200   4.538
 7277SOL    HW222731   5.159   1.186   4.377
 7278SOL     OW22732   3.497   1.803   2.123
 7278SOL    HW122733   3.436   1.873   2.161
 7278SOL    HW222734   3.571   1.847   2.073
 7279SOL     OW22735   3.926   2.592   6.639
 7279SOL    HW122736   3.833   2.560   6.655
 7279SOL    HW222737   3.924   2.684   6.601
 7280SOL     OW22738   7.005   2.313   4.224
 7280SOL    HW122739   0.071   2.268   4.208
 7280SOL    HW222740   7.018   2.412   4.230
 7281SOL     OW22741   2.074   0.633   0.540
 7281SOL    HW122742   2.088   0.580   0.455
 7281SOL    HW222743   2.099   0.576   0.618
 7282SOL     OW22744   6.681   6.533   0.398
 7282SOL    HW122745   6.737   6.616   0.395
 7282SOL    HW222746   6.590   6.553   0.361
 7283SOL     OW22747   3.258   6.841   1.992
 7283SOL    HW122748   3.255   6.868   1.895
 7283SOL    HW222749   3.254   6.922   2.049
 7284SOL     OW22750   0.005   3.339   4.700
 7284SOL    HW122751   6.953   3.343   4.767
 7284SOL    HW222752   0.086   3.299   4.744
 7285SOL     OW22753   5.857   3.679   2.088
 7285SOL    HW122754   5.905   3.593   2.072
 7285SOL    HW222755   5.759   3.662   2.094
 7286SOL     OW22756   1.071   0.412   1.350
 7286SOL    HW122757   1.068   0.441   1.255
 7286SOL    HW222758   1.163   0.423   1.386
 7287SOL     OW22759   6.436   3.364   4.721
 7287SOL    HW122760   6.387   3.444   4.756
 7287SOL    HW222761   6.483   3.388   4.636
 7288SOL     OW22762   1.059   2.401   1.796
 7288SOL    HW122763   1.026   2.374   1.887
 7288SOL    HW222764   1.079   2.319   1.743
 7289SOL     OW22765   6.721   1.963   3.079
 7289SOL    HW122766   6.744   2.057   3.106
 7289SOL    HW222767   6.692   1.962   2.983
 7290SOL     OW22768   3.317   1.061   5.722
 7290SOL    HW122769   3.397   1.030   5.671
 7290SOL    HW222770   3.345   1.119   5.798
 7291SOL     OW22771   2.946   0.006   0.955
 7291SOL    HW122772   2.885   6.959   0.918
 7291SOL    HW222773   2.999   6.990   1.031
 7292SOL     OW22774   2.820   0.173   3.156
 7292SOL    HW122775   2.900   0.232   3.146
 7292SOL    HW222776   2.745   0.224   3.197
 7293SOL     OW22777   1.891   0.922   6.231
 7293SOL    HW122778   1.941   0.956   6.151
 7293SOL    HW222779   1.803   0.970   6.238
 7294SOL     OW22780   3.141   4.007   0.605
 7294SOL    HW122781   3.058   4.003   0.550
 7294SOL    HW222782   3.155   3.919   0.651
 7295SOL     OW22783   6.880   4.400   1.654
 7295SOL    HW122784   6.938   4.323   1.629
 7295SOL    HW222785   6.788   4.387   1.617
 7296SOL     OW22786   4.409   4.841   2.631
 7296SOL    HW122787   4.424   4.742   2.635
 7296SOL    HW222788   4.438   4.882   2.718
 7297SOL     OW22789   2.734   0.127   2.566
 7297SOL    HW122790   2.786   0.174   2.494
 7297SOL    HW222791   2.670   0.063   2.524
 7298SOL     OW22792   4.993   5.673   0.082
 7298SOL    HW122793   5.084   5.714   0.079
 7298SOL    HW222794   4.998   5.579   0.051
 7299SOL     OW22795   0.536   1.405   0.786
 7299SOL    HW122796   0.581   1.449   0.864
 7299SOL    HW222797   0.490   1.474   0.730
 7300SOL     OW22798   0.593   5.863   2.219
 7300SOL    HW122799   0.521   5.815   2.268
 7300SOL    HW222800   0.623   5.809   2.140
 7301SOL     OW22801   6.194   1.909   6.032
 7301SOL    HW122802   6.157   2.002   6.026
 7301SOL    HW222803   6.289   1.910   6.002
 7302SOL     OW22804   0.397   2.053   5.766
 7302SOL    HW122805   0.324   1.984   5.765
 7302SOL    HW222806   0.443   2.053   5.677
 7303SOL     OW22807   3.569   0.607   6.708
 7303SOL    HW122808   3.500   0.549   6.664
 7303SOL    HW222809   3.523   0.682   6.756
 7304SOL     OW22810   1.821   5.559   1.663
 7304SOL    HW122811   1.865   5.608   1.738
 7304SOL    HW222812   1.890   5.520   1.603
 7305SOL     OW22813   5.696   2.087   1.435
 7305SOL    HW122814   5.780   2.069   1.383
 7305SOL    HW222815   5.708   2.169   1.491
 7306SOL     OW22816   3.684   1.668   1.855
 7306SOL    HW122817   3.686   1.714   1.766
 7306SOL    HW222818   3.651   1.731   1.925
 7307SOL     OW22819   4.175   0.118   2.188
 7307SOL    HW122820   4.150   0.173   2.108
 7307SOL    HW222821   4.174   0.176   2.269
 7308SOL     OW22822   6.297   1.160   3.509
 7308SOL    HW122823   6.318   1.184   3.604
 7308SOL    HW222824   6.198   1.155   3.497
 7309SOL     OW22825   2.820   6.984   1.715
 7309SOL    HW122826   2.770   6.963   1.632
 7309SOL    HW222827   2.876   6.905   1.741
 7310SOL     OW22828   1.699   3.045   6.361
 7310SOL    HW122829   1.773   2.991   6.321
 7310SOL    HW222830   1.738   3.129   6.400
 7311SOL     OW22831   1.053   0.211   0.735
 7311SOL    HW122832   0.980   0.193   0.801
 7311SOL    HW222833   1.025   0.178   0.645
 7312SOL     OW22834   0.755   1.673   4.952
 7312SOL    HW122835   0.779   1.578   4.934
 7312SOL    HW222836   0.658   1.688   4.932
 7313SOL     OW22837   2.118   1.700   0.754
 7313SOL    HW122838   2.029   1.720   0.713
 7313SOL    HW222839   2.105   1.643   0.835
 7314SOL     OW22840   0.036   4.180   5.880
 7314SOL    HW122841   0.015   4.086   5.906
 7314SOL    HW222842   0.095   4.222   5.949
 7315SOL     OW22843   5.576   5.654   2.184
 7315SOL    HW122844   5.483   5.691   2.181
 7315SOL    HW222845   5.641   5.726   2.162
 7316SOL     OW22846   3.718   2.158   6.500
 7316SOL    HW122847   3.659   2.115   6.569
 7316SOL    HW222848   3.797   2.099   6.483
 7317SOL     OW22849   3.650   1.261   2.185
 7317SOL    HW122850   3.703   1.342   2.159
 7317SOL    HW222851   3.564   1.290   2.227
 7318SOL     OW22852   3.539   6.460   3.140
 7318SOL    HW122853   3.455   6.496   3.181
 7318SOL    HW222854   3.592   6.412   3.210
 7319SOL     OW22855   5.895   3.604   6.296
 7319SOL    HW122856   5.927   3.694   6.265
 7319SOL    HW222857   5.964   3.535   6.272
 7320SOL     OW22858   0.665   3.412   6.755
 7320SOL    HW122859   0.688   3.510   6.760
 7320SOL    HW222860   0.662   3.374   6.847
 7321SOL     OW22861   2.248   6.653   6.284
 7321SOL    HW122862   2.213   6.617   6.371
 7321SOL    HW222863   2.298   6.581   6.235
 7322SOL     OW22864   0.155   3.061   2.662
 7322SOL    HW122865   0.185   3.014   2.745
 7322SOL    HW222866   0.123   2.993   2.596
 7323SOL     OW22867   2.742   2.570   1.238
 7323SOL    HW122868   2.651   2.608   1.253
 7323SOL    HW222869   2.795   2.632   1.180
 7324SOL     OW22870   6.201   4.759   2.883
 7324SOL    HW122871   6.231   4.852   2.864
 7324SOL    HW222872   6.177   4.713   2.798
 7325SOL     OW22873   2.598   6.988   4.993
 7325SOL    HW122874   2.555   6.936   5.067
 7325SOL    HW222875   2.528   7.019   4.929
 7326SOL     OW22876   3.677   0.330   6.341
 7326SOL    HW122877   3.642   0.246   6.300
 7326SOL    HW222878   3.773   0.343   6.316
 7327SOL     OW22879   5.655   3.290   3.673
 7327SOL    HW122880   5.638   3.359   3.743
 7327SOL    HW222881   5.753   3.289   3.652
 7328SOL     OW22882   4.471   6.125   5.885
 7328SOL    HW122883   4.438   6.085   5.970
 7328SOL    HW222884   4.408   6.197   5.856
 7329SOL     OW22885   1.344   2.776   0.463
 7329SOL    HW122886   1.354   2.729   0.551
 7329SOL    HW222887   1.410   2.739   0.398
 7330SOL     OW22888   2.264   2.967   0.823
 7330SOL    HW122889   2.289   3.051   0.775
 7330SOL    HW222890   2.164   2.965   0.835
 7331SOL     OW22891   5.358   6.458   2.108
 7331SOL    HW122892   5.439   6.505   2.143
 7331SOL    HW222893   5.276   6.508   2.136
 7332SOL     OW22894   4.131   4.327   6.665
 7332SOL    HW122895   4.091   4.364   6.749
 7332SOL    HW222896   4.074   4.353   6.587
 7333SOL     OW22897   5.896   3.541   2.533
 7333SOL    HW122898   5.847   3.623   2.563
 7333SOL    HW222899   5.914   3.483   2.612
 7334SOL     OW22900   2.751   5.748   5.656
 7334SOL    HW122901   2.780   5.728   5.563
 7334SOL    HW222902   2.683   5.821   5.655
 7335SOL     OW22903   0.059   2.405   3.512
 7335SOL    HW122904   0.099   2.334   3.454
 7335SOL    HW222905   0.003   2.363   3.582
 7336SOL     OW22906   2.413   6.460   1.476
 7336SOL    HW122907   2.452   6.412   1.555
 7336SOL    HW222908   2.366   6.394   1.417
 7337SOL     OW22909   2.057   3.082   1.069
 7337SOL    HW122910   1.959   3.095   1.057
 7337SOL    HW222911   2.099   3.168   1.097
 7338SOL     OW22912   5.707   1.857   1.818
 7338SOL    HW122913   5.663   1.804   1.745
 7338SOL    HW222914   5.657   1.943   1.831
 7339SOL     OW22915   6.997   0.479   5.228
 7339SOL    HW122916   0.064   0.441   5.207
 7339SOL    HW222917   6.980   0.558   5.168
 7340SOL     OW22918   3.803   1.967   6.748
 7340SOL    HW122919   3.850   1.971   6.660
 7340SOL    HW222920   3.805   1.873   6.782
 7341SOL     OW22921   1.543   5.033   5.394
 7341SOL    HW122922   1.589   4.953   5.355
 7341SOL    HW222923   1.444   5.026   5.378
 7342SOL     OW22924   5.895   6.973   7.004
 7342SOL    HW122925   5.875   6.977   0.079
 7342SOL    HW222926   5.839   6.903   6.961
 7343SOL     OW22927   5.757   3.110   1.981
 7343SOL    HW122928   5.767   3.091   1.883
 7343SOL    HW222929   5.758   3.023   2.032
 7344SOL     OW22930   2.172   0.151   6.539
 7344SOL    HW122931   2.263   0.173   6.575
 7344SOL    HW222932   2.146   0.059   6.569
 7345SOL     OW22933   5.105   6.086   5.565
 7345SOL    HW122934   5.099   6.074   5.664
 7345SOL    HW222935   5.022   6.132   5.531
 7346SOL     OW22936   3.681   4.033   1.357
 7346SOL    HW122937   3.623   4.009   1.436
 7346SOL    HW222938   3.692   4.132   1.353
 7347SOL     OW22939   6.330   2.644   1.089
 7347SOL    HW122940   6.283   2.732   1.101
 7347SOL    HW222941   6.272   2.582   1.036
 7348SOL     OW22942   1.554   3.498   3.499
 7348SOL    HW122943   1.594   3.460   3.582
 7348SOL    HW222944   1.466   3.540   3.520
 7349SOL     OW22945   3.756   1.699   1.412
 7349SOL    HW122946   3.677   1.638   1.410
 7349SOL    HW222947   3.745   1.767   1.484
 7350SOL     OW22948   1.576   3.513   3.977
 7350SOL    HW122949   1.528   3.569   4.045
 7350SOL    HW222950   1.674   3.533   3.981
 7351SOL     OW22951   3.841   4.677   6.523
 7351SOL    HW122952   3.894   4.653   6.604
 7351SOL    HW222953   3.853   4.774   6.502
 7352SOL     OW22954   1.715   3.073   3.044
 7352SOL    HW122955   1.811   3.100   3.050
 7352SOL    HW222956   1.709   2.981   3.005
 7353SOL     OW22957   0.674   0.452   5.809
 7353SOL    HW122958   0.743   0.511   5.768
 7353SOL    HW222959   0.632   0.395   5.738
 7354SOL     OW22960   0.469   1.496   6.028
 7354SOL    HW122961   0.513   1.565   6.086
 7354SOL    HW222962   0.404   1.444   6.083
 7355SOL     OW22963   1.442   0.033   0.013
 7355SOL    HW122964   1.508   0.091   0.060
 7355SOL    HW222965   1.383   7.011   0.080
 7356SOL     OW22966   5.207   2.599   6.048
 7356SOL    HW122967   5.223   2.506   6.015
 7356SOL    HW222968   5.115   2.605   6.087
 7357SOL     OW22969   4.389   1.087   1.306
 7357SOL    HW122970   4.431   1.018   1.365
 7357SOL    HW222971   4.459   1.150   1.274
 7358SOL     OW22972   1.774   2.271   2.051
 7358SOL    HW122973   1.860   2.239   2.011
 7358SOL    HW222974   1.697   2.227   2.005
 7359SOL     OW22975   2.997   2.779   0.630
 7359SOL    HW122976   3.013   2.873   0.600
 7359SOL    HW222977   2.911   2.746   0.592
 7360SOL     OW22978   3.446   2.593   5.797
 7360SOL    HW122979   3.352   2.598   5.763
 7360SOL    HW222980   3.478   2.498   5.790
 7361SOL     OW22981   4.125   0.267   1.972
 7361SOL    HW122982   4.037   0.241   1.931
 7361SOL    HW222983   4.121   0.362   2.004
 7362SOL     OW22984   0.785   6.816   4.879
 7362SOL    HW122985   0.740   6.905   4.882
 7362SOL    HW222986   0.803   6.791   4.784
 7363SOL     OW22987   3.876   1.859   1.237
 7363SOL    HW122988   3.810   1.797   1.278
 7363SOL    HW222989   3.969   1.822   1.248
 7364SOL     OW22990   4.157   0.153   1.438
 7364SOL    HW122991   4.144   0.073   1.379
 7364SOL    HW222992   4.093   0.148   1.515
 7365SOL     OW22993   1.325   6.011   1.899
 7365SOL    HW122994   1.325   5.930   1.958
 7365SOL    HW222995   1.349   5.985   1.806
 7366SOL     OW22996   1.832   5.763   0.507
 7366SOL    HW122997   1.798   5.744   0.415
 7366SOL    HW222998   1.755   5.774   0.570
 7367SOL     OW22999   4.927   4.058   1.292
 7367SOL    HW123000   4.931   4.153   1.322
 7367SOL    HW223001   4.985   4.002   1.351
 7368SOL     OW23002   3.681   2.925   4.119
 7368SOL    HW123003   3.726   2.900   4.204
 7368SOL    HW223004   3.594   2.876   4.111
 7369SOL     OW23005   4.588   3.248   0.815
 7369SOL    HW123006   4.628   3.309   0.883
 7369SOL    HW223007   4.619   3.276   0.724
 7370SOL     OW23008   2.404   0.166   5.430
 7370SOL    HW123009   2.349   0.217   5.496
 7370SOL    HW223010   2.479   0.224   5.397
 7371SOL     OW23011   2.166   6.075   3.812
 7371SOL    HW123012   2.232   6.141   3.776
 7371SOL    HW223013   2.079   6.086   3.764
 7372SOL     OW23014   2.804   1.129   5.699
 7372SOL    HW123015   2.781   1.068   5.623
 7372SOL    HW223016   2.867   1.082   5.761
 7373SOL     OW23017   5.593   1.728   3.822
 7373SOL    HW123018   5.557   1.652   3.768
 7373SOL    HW223019   5.540   1.811   3.803
 7374SOL     OW23020   2.924   2.223   5.168
 7374SOL    HW123021   3.008   2.239   5.116
 7374SOL    HW223022   2.848   2.206   5.104
 7375SOL     OW23023   1.759   2.795   2.945
 7375SOL    HW123024   1.710   2.708   2.934
 7375SOL    HW223025   1.845   2.780   2.994
 7376SOL     OW23026   4.103   1.581   0.194
 7376SOL    HW123027   4.049   1.666   0.193
 7376SOL    HW223028   4.192   1.599   0.236
 7377SOL     OW23029   5.529   6.068   2.109
 7377SOL    HW123030   5.461   6.109   2.169
 7377SOL    HW223031   5.491   6.059   2.017
 7378SOL     OW23032   6.910   1.789   5.099
 7378SOL    HW123033   6.970   1.866   5.077
 7378SOL    HW223034   6.911   1.723   5.023
 7379SOL     OW23035   3.927   2.001   3.164
 7379SOL    HW123036   3.974   1.958   3.087
 7379SOL    HW223037   3.829   2.000   3.148
 7380SOL     OW23038   6.903   3.105   5.294
 7380SOL    HW123039   6.862   3.058   5.216
 7380SOL    HW223040   6.903   3.204   5.278
 7381SOL     OW23041   5.018   4.075   2.322
 7381SOL    HW123042   4.944   4.079   2.389
 7381SOL    HW223043   4.990   4.122   2.239
 7382SOL     OW23044   0.138   5.600   5.960
 7382SOL    HW123045   0.054   5.621   6.010
 7382SOL    HW223046   0.187   5.685   5.940
 7383SOL     OW23047   0.404   6.588   1.496
 7383SOL    HW123048   0.457   6.578   1.580
 7383SOL    HW223049   0.447   6.536   1.422
 7384SOL     OW23050   5.553   0.739   2.190
 7384SOL    HW123051   5.497   0.657   2.173
 7384SOL    HW223052   5.622   0.747   2.118
 7385SOL     OW23053   4.514   6.529   2.035
 7385SOL    HW123054   4.512   6.543   2.134
 7385SOL    HW223055   4.427   6.490   2.005
 7386SOL     OW23056   6.837   2.189   5.446
 7386SOL    HW123057   6.863   2.094   5.460
 7386SOL    HW223058   6.799   2.226   5.531
 7387SOL     OW23059   4.396   6.188   4.736
 7387SOL    HW123060   4.369   6.284   4.724
 7387SOL    HW223061   4.434   6.154   4.650
 7388SOL     OW23062   0.186   5.323   3.745
 7388SOL    HW123063   0.275   5.368   3.755
 7388SOL    HW223064   0.193   5.249   3.678
 7389SOL     OW23065   1.095   4.564   7.012
 7389SOL    HW123066   1.139   4.474   7.013
 7389SOL    HW223067   1.021   4.563   6.945
 7390SOL     OW23068   1.589   1.154   6.883
 7390SOL    HW123069   1.530   1.199   6.950
 7390SOL    HW223070   1.685   1.166   6.909
 7391SOL     OW23071   5.285   4.076   4.515
 7391SOL    HW123072   5.323   4.158   4.471
 7391SOL    HW223073   5.342   3.997   4.494
 7392SOL     OW23074   2.773   5.549   6.915
 7392SOL    HW123075   2.738   5.512   6.829
 7392SOL    HW223076   2.847   5.614   6.897
 7393SOL     OW23077   5.230   5.270   1.578
 7393SOL    HW123078   5.154   5.229   1.528
 7393SOL    HW223079   5.277   5.199   1.631
 7394SOL     OW23080   3.230   2.437   6.128
 7394SOL    HW123081   3.324   2.407   6.146
 7394SOL    HW223082   3.196   2.392   6.045
 7395SOL     OW23083   2.351   1.688   0.050
 7395SOL    HW123084   2.449   1.698   0.032
 7395SOL    HW223085   2.335   1.690   0.149
 7396SOL     OW23086   1.342   6.749   0.482
 7396SOL    HW123087   1.375   6.735   0.389
 7396SOL    HW223088   1.389   6.827   0.523
 7397SOL     OW23089   5.265   5.442   5.051
 7397SOL    HW123090   5.242   5.426   5.147
 7397SOL    HW223091   5.187   5.417   4.993
 7398SOL     OW23092   2.911   5.173   4.177
 7398SOL    HW123093   2.838   5.107   4.192
 7398SOL    HW223094   2.885   5.260   4.219
 7399SOL     OW23095   0.809   3.374   5.411
 7399SOL    HW123096   0.909   3.384   5.407
 7399SOL    HW223097   0.775   3.408   5.498
 7400SOL     OW23098   2.676   3.613   6.225
 7400SOL    HW123099   2.715   3.616   6.317
 7400SOL    HW223100   2.744   3.643   6.159
 7401SOL     OW23101   0.879   0.887   4.205
 7401SOL    HW123102   0.810   0.865   4.274
 7401SOL    HW223103   0.882   0.814   4.137
 7402SOL     OW23104   2.237   5.400   4.990
 7402SOL    HW123105   2.258   5.464   5.063
 7402SOL    HW223106   2.207   5.450   4.909
 7403SOL     OW23107   1.367   3.858   3.617
 7403SOL    HW123108   1.367   3.850   3.517
 7403SOL    HW223109   1.303   3.931   3.644
 7404SOL     OW23110   2.927   5.924   1.433
 7404SOL    HW123111   3.022   5.937   1.404
 7404SOL    HW223112   2.922   5.849   1.499
 7405SOL     OW23113   2.491   5.057   4.345
 7405SOL    HW123114   2.451   5.004   4.270
 7405SOL    HW223115   2.430   5.052   4.425
 7406SOL     OW23116   1.246   3.416   3.323
 7406SOL    HW123117   1.308   3.340   3.304
 7406SOL    HW223118   1.282   3.469   3.401
 7407SOL     OW23119   0.052   5.927   5.129
 7407SOL    HW123120   0.063   5.942   5.227
 7407SOL    HW223121   0.082   5.835   5.106
 7408SOL     OW23122   1.249   3.338   5.940
 7408SOL    HW123123   1.320   3.320   6.008
 7408SOL    HW223124   1.169   3.282   5.960
 7409SOL     OW23125   0.745   1.047   4.927
 7409SOL    HW123126   0.754   1.068   4.829
 7409SOL    HW223127   0.649   1.047   4.952
 7410SOL     OW23128   0.237   5.000   1.091
 7410SOL    HW123129   0.267   5.053   1.012
 7410SOL    HW223130   0.279   5.037   1.174
 7411SOL     OW23131   2.958   6.399   4.252
 7411SOL    HW123132   2.988   6.325   4.192
 7411SOL    HW223133   2.863   6.423   4.232
 7412SOL     OW23134   4.190   0.548   2.721
 7412SOL    HW123135   4.218   0.485   2.793
 7412SOL    HW223136   4.102   0.518   2.683
 7413SOL     OW23137   5.689   5.173   4.936
 7413SOL    HW123138   5.703   5.208   5.029
 7413SOL    HW223139   5.774   5.132   4.903
 7414SOL     OW23140   6.956   6.696   4.042
 7414SOL    HW123141   6.907   6.727   3.960
 7414SOL    HW223142   0.032   6.710   4.028
 7415SOL     OW23143   1.180   4.046   2.779
 7415SOL    HW123144   1.125   3.969   2.811
 7415SOL    HW223145   1.259   4.057   2.839
 7416SOL     OW23146   3.085   0.851   3.671
 7416SOL    HW123147   3.075   0.854   3.572
 7416SOL    HW223148   3.015   0.909   3.714
 7417SOL     OW23149   2.174   0.077   5.752
 7417SOL    HW123150   2.097   0.023   5.786
 7417SOL    HW223151   2.260   0.031   5.776
 7418SOL     OW23152   3.670   5.026   0.341
 7418SOL    HW123153   3.762   5.035   0.378
 7418SOL    HW223154   3.623   4.950   0.385
 7419SOL     OW23155   6.029   2.376   4.712
 7419SOL    HW123156   6.080   2.451   4.754
 7419SOL    HW223157   6.086   2.329   4.644
 7420SOL     OW23158   6.538   6.695   2.138
 7420SOL    HW123159   6.604   6.637   2.091
 7420SOL    HW223160   6.541   6.787   2.100
 7421SOL     OW23161   3.156   3.805   1.663
 7421SOL    HW123162   3.172   3.776   1.569
 7421SOL    HW223163   3.183   3.733   1.726
 7422SOL     OW23164   0.219   3.477   2.371
 7422SOL    HW123165   0.123   3.451   2.357
 7422SOL    HW223166   0.277   3.429   2.306
 7423SOL     OW23167   6.646   4.125   5.860
 7423SOL    HW123168   6.672   4.091   5.950
 7423SOL    HW223169   6.629   4.223   5.864
 7424SOL     OW23170   6.708   0.525   4.529
 7424SOL    HW123171   6.625   0.504   4.475
 7424SOL    HW223172   6.787   0.485   4.483
 7425SOL     OW23173   4.899   5.896   6.554
 7425SOL    HW123174   4.900   5.797   6.548
 7425SOL    HW223175   4.869   5.924   6.645
 7426SOL     OW23176   1.477   2.023   6.296
 7426SOL    HW123177   1.487   2.049   6.200
 7426SOL    HW223178   1.546   2.070   6.351
 7427SOL     OW23179   3.327   5.978   3.895
 7427SOL    HW123180   3.242   5.977   3.843
 7427SOL    HW223181   3.355   5.884   3.915
 7428SOL     OW23182   3.747   1.785   5.426
 7428SOL    HW123183   3.811   1.739   5.488
 7428SOL    HW223184   3.769   1.883   5.423
 7429SOL     OW23185   5.267   0.111   3.332
 7429SOL    HW123186   5.189   0.138   3.390
 7429SOL    HW223187   5.283   0.181   3.263
 7430SOL     OW23188   0.134   3.773   6.259
 7430SOL    HW123189   0.214   3.826   6.231
 7430SOL    HW223190   0.098   3.724   6.180
 7431SOL     OW23191   0.350   3.273   2.587
 7431SOL    HW123192   0.292   3.193   2.605
 7431SOL    HW223193   0.298   3.342   2.539
 7432SOL     OW23194   0.466   0.110   3.610
 7432SOL    HW123195   0.394   0.085   3.545
 7432SOL    HW223196   0.550   0.133   3.560
 7433SOL     OW23197   5.979   5.037   0.651
 7433SOL    HW123198   5.978   5.137   0.640
 7433SOL    HW223199   5.889   5.006   0.679
 7434SOL     OW23200   4.374   0.700   6.097
 7434SOL    HW123201   4.381   0.746   6.008
 7434SOL    HW223202   4.370   0.768   6.170
 7435SOL     OW23203   3.918   5.525   0.281
 7435SOL    HW123204   3.857   5.533   0.360
 7435SOL    HW223205   3.926   5.614   0.237
 7436SOL     OW23206   5.618   3.132   6.289
 7436SOL    HW123207   5.652   3.211   6.238
 7436SOL    HW223208   5.543   3.160   6.349
 7437SOL     OW23209   0.322   6.231   0.245
 7437SOL    HW123210   0.370   6.292   0.308
 7437SOL    HW223211   0.231   6.210   0.282
 7438SOL     OW23212   0.689   5.722   1.120
 7438SOL    HW123213   0.699   5.775   1.036
 7438SOL    HW223214   0.667   5.783   1.196
 7439SOL     OW23215   1.534   6.196   4.729
 7439SOL    HW123216   1.457   6.257   4.741
 7439SOL    HW223217   1.505   6.113   4.681
 7440SOL     OW23218   0.870   3.357   4.374
 7440SOL    HW123219   0.893   3.291   4.302
 7440SOL    HW223220   0.784   3.331   4.416
 7441SOL     OW23221   4.384   5.839   4.961
 7441SOL    HW123222   4.457   5.786   5.004
 7441SOL    HW223223   4.399   5.936   4.980
 7442SOL     OW23224   0.934   0.872   6.404
 7442SOL    HW123225   0.874   0.942   6.365
 7442SOL    HW223226   0.976   0.819   6.330
 7443SOL     OW23227   0.374   0.804   1.405
 7443SOL    HW123228   0.425   0.719   1.410
 7443SOL    HW223229   0.298   0.802   1.470
 7444SOL     OW23230   6.846   3.347   4.925
 7444SOL    HW123231   6.750   3.320   4.915
 7444SOL    HW223232   6.856   3.407   5.005
 7445SOL     OW23233   3.302   1.106   1.299
 7445SOL    HW123234   3.399   1.128   1.293
 7445SOL    HW223235   3.260   1.163   1.369
 7446SOL     OW23236   5.499   4.276   1.156
 7446SOL    HW123237   5.438   4.291   1.079
 7446SOL    HW223238   5.476   4.189   1.200
 7447SOL     OW23239   1.122   3.233   5.188
 7447SOL    HW123240   1.220   3.219   5.199
 7447SOL    HW223241   1.080   3.151   5.150
 7448SOL     OW23242   5.777   6.729   5.081
 7448SOL    HW123243   5.726   6.657   5.034
 7448SOL    HW223244   5.750   6.819   5.044
 7449SOL     OW23245   6.581   2.378   1.809
 7449SOL    HW123246   6.594   2.433   1.892
 7449SOL    HW223247   6.609   2.284   1.827
 7450SOL     OW23248   5.067   2.345   4.439
 7450SOL    HW123249   5.062   2.288   4.521
 7450SOL    HW223250   4.994   2.414   4.441
 7451SOL     OW23251   1.198   6.681   2.661
 7451SOL    HW123252   1.161   6.751   2.600
 7451SOL    HW223253   1.161   6.692   2.753
 7452SOL     OW23254   0.618   6.406   4.989
 7452SOL    HW123255   0.643   6.368   5.078
 7452SOL    HW223256   0.655   6.498   4.980
 7453SOL     OW23257   4.761   5.876   5.976
 7453SOL    HW123258   4.759   5.794   5.919
 7453SOL    HW223259   4.744   5.956   5.919
 7454SOL     OW23260   1.131   2.470   1.376
 7454SOL    HW123261   1.157   2.531   1.451
 7454SOL    HW223262   1.085   2.390   1.413
 7455SOL     OW23263   0.273   2.370   2.000
 7455SOL    HW123264   0.361   2.409   1.971
 7455SOL    HW223265   0.260   2.282   1.954
 7456SOL     OW23266   0.748   2.369   4.534
 7456SOL    HW123267   0.809   2.448   4.540
 7456SOL    HW223268   0.794   2.288   4.571
 7457SOL     OW23269   3.423   0.965   5.366
 7457SOL    HW123270   3.352   1.026   5.400
 7457SOL    HW223271   3.387   0.910   5.291
 7458SOL     OW23272   2.774   0.050   6.292
 7458SOL    HW123273   2.814   0.141   6.301
 7458SOL    HW223274   2.685   0.049   6.337
 7459SOL     OW23275   4.451   0.624   0.485
 7459SOL    HW123276   4.358   0.654   0.461
 7459SOL    HW223277   4.518   0.681   0.438
 7460SOL     OW23278   1.665   4.729   1.063
 7460SOL    HW123279   1.640   4.654   1.124
 7460SOL    HW223280   1.706   4.803   1.116
 7461SOL     OW23281   5.735   1.619   6.240
 7461SOL    HW123282   5.699   1.698   6.291
 7461SOL    HW223283   5.808   1.649   6.179
 7462SOL     OW23284   1.846   3.481   2.851
 7462SOL    HW123285   1.914   3.490   2.923
 7462SOL    HW223286   1.756   3.505   2.887
 7463SOL     OW23287   3.187   4.775   1.227
 7463SOL    HW123288   3.142   4.864   1.216
 7463SOL    HW223289   3.119   4.702   1.218
 7464SOL     OW23290   3.524   0.031   6.444
 7464SOL    HW123291   3.611   7.019   6.409
 7464SOL    HW223292   3.531   0.044   6.543
 7465SOL     OW23293   1.836   6.826   6.918
 7465SOL    HW123294   1.822   6.906   6.859
 7465SOL    HW223295   1.846   6.856   7.013
 7466SOL     OW23296   0.490   6.478   6.269
 7466SOL    HW123297   0.549   6.524   6.203
 7466SOL    HW223298   0.413   6.435   6.220
 7467SOL     OW23299   6.627   1.220   0.278
 7467SOL    HW123300   6.680   1.218   0.362
 7467SOL    HW223301   6.542   1.271   0.294
 7468SOL     OW23302   6.366   3.086   2.487
 7468SOL    HW123303   6.356   2.995   2.528
 7468SOL    HW223304   6.291   3.145   2.518
 7469SOL     OW23305   6.538   0.187   6.934
 7469SOL    HW123306   6.529   0.237   7.019
 7469SOL    HW223307   6.472   0.222   6.867
 7470SOL     OW23308   0.189   3.119   4.368
 7470SOL    HW123309   0.157   3.054   4.436
 7470SOL    HW223310   0.283   3.097   4.341
 7471SOL     OW23311   6.035   6.031   5.381
 7471SOL    HW123312   5.948   5.998   5.420
 7471SOL    HW223313   6.018   6.114   5.328
 7472SOL     OW23314   5.999   6.819   4.243
 7472SOL    HW123315   6.023   6.916   4.252
 7472SOL    HW223316   6.032   6.770   4.323
 7473SOL     OW23317   6.997   4.812   2.831
 7473SOL    HW123318   0.003   4.890   2.775
 7473SOL    HW223319   6.933   4.755   2.779
 7474SOL     OW23320   2.808   1.309   5.274
 7474SOL    HW123321   2.715   1.290   5.244
 7474SOL    HW223322   2.807   1.343   5.368
 7475SOL     OW23323   3.873   1.189   2.451
 7475SOL    HW123324   3.815   1.111   2.426
 7475SOL    HW223325   3.969   1.166   2.436
 7476SOL     OW23326   3.891   5.192   4.192
 7476SOL    HW123327   3.810   5.224   4.241
 7476SOL    HW223328   3.901   5.244   4.107
 7477SOL     OW23329   6.471   1.510   4.433
 7477SOL    HW123330   6.458   1.446   4.357
 7477SOL    HW223331   6.382   1.545   4.462
 7478SOL     OW23332   4.373   4.856   6.996
 7478SOL    HW123333   4.308   4.914   6.947
 7478SOL    HW223334   4.326   4.813   0.051
 7479SOL     OW23335   4.031   2.318   1.429
 7479SOL    HW123336   3.990   2.386   1.369
 7479SOL    HW223337   4.125   2.299   1.400
 7480SOL     OW23338   6.647   4.043   1.566
 7480SOL    HW123339   6.676   4.111   1.498
 7480SOL    HW223340   6.572   3.989   1.530
 7481SOL     OW23341   6.314   5.614   1.977
 7481SOL    HW123342   6.223   5.623   1.936
 7481SOL    HW223343   6.314   5.537   2.042
 7482SOL     OW23344   5.174   2.135   3.106
 7482SOL    HW123345   5.075   2.142   3.119
 7482SOL    HW223346   5.195   2.054   3.050
 7483SOL     OW23347   4.444   2.374   5.260
 7483SOL    HW123348   4.516   2.388   5.192
 7483SOL    HW223349   4.430   2.459   5.312
 7484SOL     OW23350   0.205   0.761   3.329
 7484SOL    HW123351   0.116   0.758   3.374
 7484SOL    HW223352   0.271   0.807   3.388
 7485SOL     OW23353   3.079   0.041   4.476
 7485SOL    HW123354   3.094   6.984   4.534
 7485SOL    HW223355   3.026   0.014   4.396
 7486SOL     OW23356   2.912   0.753   5.793
 7486SOL    HW123357   2.920   0.704   5.707
 7486SOL    HW223358   2.816   0.776   5.810
 7487SOL     OW23359   2.827   6.252   2.466
 7487SOL    HW123360   2.926   6.265   2.466
 7487SOL    HW223361   2.787   6.306   2.392
 7488SOL     OW23362   1.772   6.935   4.356
 7488SOL    HW123363   1.786   6.926   4.455
 7488SOL    HW223364   1.751   0.007   4.333
 7489SOL     OW23365   5.079   2.190   4.692
 7489SOL    HW123366   5.016   2.253   4.738
 7489SOL    HW223367   5.099   2.112   4.752
 7490SOL     OW23368   0.799   1.427   1.112
 7490SOL    HW123369   0.885   1.423   1.163
 7490SOL    HW223370   0.814   1.393   1.019
 7491SOL     OW23371   6.280   3.270   6.249
 7491SOL    HW123372   6.242   3.319   6.328
 7491SOL    HW223373   6.366   3.314   6.221
 7492SOL     OW23374   2.572   0.577   4.010
 7492SOL    HW123375   2.594   0.479   4.004
 7492SOL    HW223376   2.549   0.600   4.104
 7493SOL     OW23377   6.873   3.969   6.633
 7493SOL    HW123378   6.785   4.015   6.623
 7493SOL    HW223379   6.869   3.879   6.591
 7494SOL     OW23380   5.681   0.704   2.982
 7494SOL    HW123381   5.726   0.679   2.897
 7494SOL    HW223382   5.658   0.621   3.033
 7495SOL     OW23383   2.217   0.718   0.122
 7495SOL    HW123384   2.268   0.680   0.199
 7495SOL    HW223385   2.134   0.762   0.155
 7496SOL     OW23386   0.168   2.915   6.585
 7496SOL    HW123387   0.129   2.823   6.575
 7496SOL    HW223388   0.177   2.937   6.682
 7497SOL     OW23389   2.513   4.523   0.524
 7497SOL    HW123390   2.527   4.426   0.501
 7497SOL    HW223391   2.569   4.580   0.465
 7498SOL     OW23392   2.539   1.252   5.221
 7498SOL    HW123393   2.542   1.157   5.189
 7498SOL    HW223394   2.507   1.311   5.147
 7499SOL     OW23395   4.574   1.519   3.618
 7499SOL    HW123396   4.514   1.529   3.698
 7499SOL    HW223397   4.669   1.533   3.646
 7500SOL     OW23398   4.064   5.542   4.080
 7500SOL    HW123399   4.087   5.614   4.146
 7500SOL    HW223400   4.137   5.473   4.079
 7501SOL     OW23401   6.251   4.625   4.200
 7501SOL    HW123402   6.177   4.614   4.134
 7501SOL    HW223403   6.336   4.649   4.152
 7502SOL     OW23404   1.651   0.152   4.282
 7502SOL    HW123405   1.702   0.233   4.311
 7502SOL    HW223406   1.571   0.180   4.229
 7503SOL     OW23407   2.820   1.950   0.963
 7503SOL    HW123408   2.815   1.856   0.929
 7503SOL    HW223409   2.761   1.959   1.043
 7504SOL     OW23410   1.858   0.011   3.263
 7504SOL    HW123411   1.839   6.939   3.237
 7504SOL    HW223412   1.939   0.043   3.213
 7505SOL     OW23413   2.469   2.086   5.738
 7505SOL    HW123414   2.488   2.048   5.648
 7505SOL    HW223415   2.494   2.021   5.809
 7506SOL     OW23416   4.948   6.941   2.521
 7506SOL    HW123417   5.002   6.964   2.602
 7506SOL    HW223418   4.878   6.875   2.545
 7507SOL     OW23419   0.612   0.440   1.983
 7507SOL    HW123420   0.534   0.502   1.994
 7507SOL    HW223421   0.658   0.427   2.071
 7508SOL     OW23422   6.838   6.839   1.879
 7508SOL    HW123423   6.776   6.780   1.827
 7508SOL    HW223424   6.786   6.897   1.941
 7509SOL     OW23425   5.478   4.551   0.969
 7509SOL    HW123426   5.493   4.472   0.909
 7509SOL    HW223427   5.504   4.528   1.062
 7510SOL     OW23428   2.790   4.292   5.458
 7510SOL    HW123429   2.874   4.291   5.404
 7510SOL    HW223430   2.720   4.343   5.408
 7511SOL     OW23431   1.893   6.804   3.534
 7511SOL    HW123432   1.897   6.787   3.436
 7511SOL    HW223433   1.806   6.846   3.558
 7512SOL     OW23434   3.153   4.813   6.635
 7512SOL    HW123435   3.129   4.716   6.642
 7512SOL    HW223436   3.124   4.848   6.546
 7513SOL     OW23437   2.291   1.279   1.761
 7513SOL    HW123438   2.385   1.271   1.795
 7513SOL    HW223439   2.258   1.372   1.778
 7514SOL     OW23440   2.209   5.578   1.784
 7514SOL    HW123441   2.200   5.486   1.744
 7514SOL    HW223442   2.304   5.595   1.807
 7515SOL     OW23443   0.193   5.338   2.373
 7515SOL    HW123444   0.188   5.371   2.279
 7515SOL    HW223445   0.176   5.414   2.436
 7516SOL     OW23446   6.035   5.742   4.543
 7516SOL    HW123447   6.087   5.679   4.485
 7516SOL    HW223448   5.952   5.772   4.494
 7517SOL     OW23449   0.021   3.259   0.737
 7517SOL    HW123450   0.105   3.216   0.769
 7517SOL    HW223451   6.978   3.263   0.813
 7518SOL     OW23452   4.755   5.038   3.031
 7518SOL    HW123453   4.715   4.964   2.978
 7518SOL    HW223454   4.750   5.124   2.979
 7519SOL     OW23455   6.914   6.864   4.520
 7519SOL    HW123456   6.866   6.928   4.459
 7519SOL    HW223457   7.012   6.877   4.512
 7520SOL     OW23458   3.264   6.725   2.260
 7520SOL    HW123459   3.170   6.711   2.291
 7520SOL    HW223460   3.263   6.762   2.167
 7521SOL     OW23461   4.854   4.525   6.319
 7521SOL    HW123462   4.918   4.564   6.252
 7521SOL    HW223463   4.803   4.450   6.276
 7522SOL     OW23464   3.070   6.945   6.372
 7522SOL    HW123465   3.087   0.002   6.314
 7522SOL    HW223466   2.974   6.919   6.367
 7523SOL     OW23467   5.360   0.824   6.179
 7523SOL    HW123468   5.294   0.748   6.182
 7523SOL    HW223469   5.439   0.797   6.125
 7524SOL     OW23470   1.735   2.668   6.238
 7524SOL    HW123471   1.753   2.634   6.330
 7524SOL    HW223472   1.793   2.619   6.173
 7525SOL     OW23473   3.033   0.535   6.398
 7525SOL    HW123474   3.061   0.488   6.314
 7525SOL    HW223475   3.035   0.634   6.382
 7526SOL     OW23476   3.232   3.515   1.794
 7526SOL    HW123477   3.216   3.417   1.803
 7526SOL    HW223478   3.323   3.531   1.756
 7527SOL     OW23479   4.321   5.973   3.401
 7527SOL    HW123480   4.406   6.025   3.411
 7527SOL    HW223481   4.311   5.910   3.478
 7528SOL     OW23482   4.835   1.609   6.708
 7528SOL    HW123483   4.851   1.557   6.791
 7528SOL    HW223484   4.748   1.582   6.667
 7529SOL     OW23485   6.218   0.473   4.213
 7529SOL    HW123486   6.220   0.494   4.311
 7529SOL    HW223487   6.125   0.485   4.179
 7530SOL     OW23488   0.088   3.868   1.906
 7530SOL    HW123489   0.062   3.785   1.955
 7530SOL    HW223490   0.186   3.886   1.920
 7531SOL     OW23491   4.440   2.402   3.832
 7531SOL    HW123492   4.441   2.302   3.833
 7531SOL    HW223493   4.428   2.434   3.738
 7532SOL     OW23494   5.431   4.808   1.602
 7532SOL    HW123495   5.395   4.727   1.555
 7532SOL    HW223496   5.480   4.866   1.536
 7533SOL     OW23497   2.737   1.459   2.637
 7533SOL    HW123498   2.666   1.513   2.682
 7533SOL    HW223499   2.715   1.362   2.643
 7534SOL     OW23500   4.281   6.316   5.749
 7534SOL    HW123501   4.333   6.331   5.665
 7534SOL    HW223502   4.209   6.385   5.756
 7535SOL     OW23503   3.034   0.077   5.913
 7535SOL    HW123504   3.024   7.001   5.901
 7535SOL    HW223505   2.945   0.117   5.937
 7536SOL     OW23506   5.018   5.013   4.945
 7536SOL    HW123507   5.007   5.092   5.005
 7536SOL    HW223508   4.934   4.959   4.943
 7537SOL     OW23509   2.530   5.375   3.318
 7537SOL    HW123510   2.619   5.347   3.353
 7537SOL    HW223511   2.461   5.367   3.390
 7538SOL     OW23512   3.359   3.307   2.174
 7538SOL    HW123513   3.317   3.393   2.145
 7538SOL    HW223514   3.343   3.294   2.272
 7539SOL     OW23515   1.051   3.156   4.211
 7539SOL    HW123516   1.120   3.091   4.180
 7539SOL    HW223517   0.978   3.108   4.260
 7540SOL     OW23518   3.614   6.435   5.605
 7540SOL    HW123519   3.521   6.403   5.591
 7540SOL    HW223520   3.656   6.385   5.681
 7541SOL     OW23521   0.168   4.500   4.463
 7541SOL    HW123522   0.072   4.528   4.463
 7541SOL    HW223523   0.210   4.524   4.375
 7542SOL     OW23524   0.935   5.787   0.197
 7542SOL    HW123525   0.906   5.741   0.281
 7542SOL    HW223526   1.023   5.832   0.211
 7543SOL     OW23527   3.587   2.088   0.913
 7543SOL    HW123528   3.551   2.143   0.987
 7543SOL    HW223529   3.596   1.993   0.943
 7544SOL     OW23530   0.352   2.722   3.095
 7544SOL    HW123531   0.287   2.718   3.019
 7544SOL    HW223532   0.350   2.636   3.146
 7545SOL     OW23533   5.795   6.397   1.849
 7545SOL    HW123534   5.792   6.339   1.931
 7545SOL    HW223535   5.843   6.348   1.776
 7546SOL     OW23536   3.415   1.037   2.294
 7546SOL    HW123537   3.424   1.056   2.196
 7546SOL    HW223538   3.409   1.123   2.344
 7547SOL     OW23539   4.350   0.425   0.335
 7547SOL    HW123540   4.437   0.465   0.360
 7547SOL    HW223541   4.289   0.423   0.414
 7548SOL     OW23542   3.725   2.293   0.316
 7548SOL    HW123543   3.685   2.362   0.377
 7548SOL    HW223544   3.652   2.253   0.260
 7549SOL     OW23545   5.890   2.049   0.890
 7549SOL    HW123546   5.857   1.955   0.894
 7549SOL    HW223547   5.942   2.062   0.806
 7550SOL     OW23548   2.382   4.383   2.008
 7550SOL    HW123549   2.382   4.474   1.966
 7550SOL    HW223550   2.418   4.389   2.101
 7551SOL     OW23551   5.192   3.849   6.971
 7551SOL    HW123552   5.102   3.866   6.932
 7551SOL    HW223553   5.260   3.849   6.897
 7552SOL     OW23554   1.064   5.715   3.361
 7552SOL    HW123555   0.994   5.745   3.425
 7552SOL    HW223556   1.045   5.751   3.270
 7553SOL     OW23557   4.764   5.126   5.625
 7553SOL    HW123558   4.857   5.159   5.607
 7553SOL    HW223559   4.767   5.029   5.649
 7554SOL     OW23560   4.259   1.526   1.554
 7554SOL    HW123561   4.312   1.538   1.638
 7554SOL    HW223562   4.181   1.589   1.555
 7555SOL     OW23563   1.817   4.749   5.548
 7555SOL    HW123564   1.879   4.712   5.616
 7555SOL    HW223565   1.797   4.678   5.480
 7556SOL     OW23566   0.978   3.197   5.536
 7556SOL    HW123567   1.004   3.215   5.631
 7556SOL    HW223568   0.892   3.243   5.516
 7557SOL     OW23569   4.988   2.334   6.022
 7557SOL    HW123570   4.977   2.276   6.103
 7557SOL    HW223571   4.985   2.430   6.050
 7558SOL     OW23572   1.664   2.370   4.228
 7558SOL    HW123573   1.710   2.457   4.209
 7558SOL    HW223574   1.613   2.342   4.146
 7559SOL     OW23575   6.443   5.128   0.018
 7559SOL    HW123576   6.457   5.218   6.999
 7559SOL    HW223577   6.518   5.068   7.013
 7560SOL     OW23578   5.287   6.594   0.967
 7560SOL    HW123579   5.204   6.585   1.022
 7560SOL    HW223580   5.332   6.505   0.961
 7561SOL     OW23581   1.051   3.084   6.543
 7561SOL    HW123582   1.115   3.148   6.585
 7561SOL    HW223583   0.968   3.134   6.515
 7562SOL     OW23584   5.846   5.836   4.837
 7562SOL    HW123585   5.832   5.739   4.859
 7562SOL    HW223586   5.880   5.883   4.918
 7563SOL     OW23587   2.624   6.203   0.831
 7563SOL    HW123588   2.709   6.158   0.802
 7563SOL    HW223589   2.552   6.135   0.841
 7564SOL     OW23590   4.857   1.845   3.111
 7564SOL    HW123591   4.892   1.803   3.027
 7564SOL    HW223592   4.760   1.823   3.121
 7565SOL     OW23593   5.662   3.453   0.537
 7565SOL    HW123594   5.732   3.508   0.582
 7565SOL    HW223595   5.669   3.464   0.438
 7566SOL     OW23596   0.136   4.704   3.366
 7566SOL    HW123597   0.073   4.731   3.439
 7566SOL    HW223598   0.143   4.778   3.298
 7567SOL     OW23599   1.696   1.721   4.918
 7567SOL    HW123600   1.628   1.654   4.948
 7567SOL    HW223601   1.670   1.812   4.951
 7568SOL     OW23602   4.975   6.914   3.525
 7568SOL    HW123603   5.029   6.911   3.441
 7568SOL    HW223604   5.011   6.847   3.590
 7569SOL     OW23605   3.736   5.377   6.137
 7569SOL    HW123606   3.728   5.316   6.216
 7569SOL    HW223607   3.823   5.358   6.090
 7570SOL     OW23608   5.503   4.362   5.323
 7570SOL    HW123609   5.524   4.284   5.263
 7570SOL    HW223610   5.589   4.406   5.350
 7571SOL     OW23611   5.013   5.772   3.269
 7571SOL    HW123612   4.967   5.761   3.181
 7571SOL    HW223613   4.968   5.715   3.337
 7572SOL     OW23614   4.282   0.692   2.519
 7572SOL    HW123615   4.266   0.647   2.607
 7572SOL    HW223616   4.215   0.659   2.452
 7573SOL     OW23617   6.862   6.387   4.902
 7573SOL    HW123618   6.934   6.323   4.928
 7573SOL    HW223619   6.822   6.359   4.815
 7574SOL     OW23620   6.326   0.930   4.607
 7574SOL    HW123621   6.229   0.912   4.622
 7574SOL    HW223622   6.350   0.911   4.512
 7575SOL     OW23623   4.050   0.618   5.834
 7575SOL    HW123624   3.989   0.543   5.858
 7575SOL    HW223625   4.101   0.594   5.751
 7576SOL     OW23626   5.627   5.074   6.984
 7576SOL    HW123627   5.615   5.162   6.938
 7576SOL    HW223628   5.720   5.067   7.019
 7577SOL     OW23629   6.895   6.568   5.421
 7577SOL    HW123630   6.894   6.667   5.428
 7577SOL    HW223631   6.987   6.536   5.400
 7578SOL     OW23632   2.468   5.827   2.436
 7578SOL    HW123633   2.425   5.750   2.388
 7578SOL    HW223634   2.489   5.799   2.530
 7579SOL     OW23635   6.223   1.887   1.893
 7579SOL    HW123636   6.268   1.799   1.878
 7579SOL    HW223637   6.141   1.893   1.837
 7580SOL     OW23638   1.388   3.917   4.135
 7580SOL    HW123639   1.334   3.925   4.219
 7580SOL    HW223640   1.462   3.851   4.148
 7581SOL     OW23641   0.009   0.422   1.148
 7581SOL    HW123642   0.018   0.424   1.049
 7581SOL    HW223643   0.009   0.516   1.183
 7582SOL     OW23644   2.569   1.102   0.247
 7582SOL    HW123645   2.515   1.028   0.206
 7582SOL    HW223646   2.627   1.064   0.319
 7583SOL     OW23647   6.480   3.240   0.721
 7583SOL    HW123648   6.510   3.333   0.740
 7583SOL    HW223649   6.530   3.205   0.641
 7584SOL     OW23650   2.687   6.894   1.497
 7584SOL    HW123651   2.704   6.981   1.452
 7584SOL    HW223652   2.603   6.853   1.459
 7585SOL     OW23653   1.888   2.524   6.020
 7585SOL    HW123654   1.867   2.439   5.973
 7585SOL    HW223655   1.842   2.600   5.975
 7586SOL     OW23656   3.914   1.338   3.731
 7586SOL    HW123657   3.919   1.408   3.803
 7586SOL    HW223658   3.925   1.247   3.773
 7587SOL     OW23659   2.624   1.694   6.758
 7587SOL    HW123660   2.684   1.751   6.701
 7587SOL    HW223661   2.530   1.701   6.725
 7588SOL     OW23662   1.130   3.321   2.553
 7588SOL    HW123663   1.095   3.402   2.505
 7588SOL    HW223664   1.165   3.255   2.486
 7589SOL     OW23665   0.027   7.001   1.986
 7589SOL    HW123666   0.122   6.970   1.994
 7589SOL    HW223667   6.998   6.935   1.931
 7590SOL     OW23668   4.376   1.821   6.495
 7590SOL    HW123669   4.414   1.756   6.560
 7590SOL    HW223670   4.432   1.823   6.412
 7591SOL     OW23671   0.034   4.564   0.302
 7591SOL    HW123672   0.005   4.497   0.234
 7591SOL    HW223673   0.130   4.550   0.325
 7592SOL     OW23674   6.496   4.162   6.386
 7592SOL    HW123675   6.504   4.251   6.341
 7592SOL    HW223676   6.437   4.102   6.331
 7593SOL     OW23677   5.786   2.262   1.044
 7593SOL    HW123678   5.798   2.217   0.955
 7593SOL    HW223679   5.701   2.232   1.086
 7594SOL     OW23680   0.938   5.363   1.847
 7594SOL    HW123681   0.861   5.357   1.911
 7594SOL    HW223682   0.998   5.284   1.859
 7595SOL     OW23683   6.994   2.628   5.856
 7595SOL    HW123684   7.002   2.724   5.884
 7595SOL    HW223685   0.018   2.570   5.922
 7596SOL     OW23686   4.882   5.748   3.805
 7596SOL    HW123687   4.948   5.745   3.730
 7596SOL    HW223688   4.897   5.670   3.866
 7597SOL     OW23689   3.615   6.187   3.019
 7597SOL    HW123690   3.642   6.126   3.094
 7597SOL    HW223691   3.659   6.276   3.031
 7598SOL     OW23692   6.636   1.897   3.569
 7598SOL    HW123693   6.710   1.895   3.636
 7598SOL    HW223694   6.655   1.968   3.501
 7599SOL     OW23695   6.116   1.929   2.528
 7599SOL    HW123696   6.216   1.928   2.528
 7599SOL    HW223697   6.083   2.021   2.506
 7600SOL     OW23698   2.000   1.238   2.766
 7600SOL    HW123699   1.946   1.323   2.764
 7600SOL    HW223700   2.087   1.253   2.720
 7601SOL     OW23701   2.098   5.249   3.107
 7601SOL    HW123702   2.156   5.325   3.136
 7601SOL    HW223703   2.148   5.191   3.043
 7602SOL     OW23704   0.557   4.364   6.788
 7602SOL    HW123705   0.624   4.290   6.781
 7602SOL    HW223706   0.532   4.377   6.884
 7603SOL     OW23707   2.180   4.691   6.011
 7603SOL    HW123708   2.239   4.636   6.070
 7603SOL    HW223709   2.093   4.709   6.057
 7604SOL     OW23710   1.336   4.652   4.175
 7604SOL    HW123711   1.335   4.722   4.246
 7604SOL    HW223712   1.430   4.619   4.161
 7605SOL     OW23713   0.389   0.292   1.055
 7605SOL    HW123714   0.449   0.318   0.979
 7605SOL    HW223715   0.333   0.370   1.082
 7606SOL     OW23716   6.525   3.526   3.928
 7606SOL    HW123717   6.447   3.552   3.870
 7606SOL    HW223718   6.585   3.604   3.940
 7607SOL     OW23719   4.326   4.804   0.243
 7607SOL    HW123720   4.231   4.779   0.257
 7607SOL    HW223721   4.386   4.738   0.289
 7608SOL     OW23722   3.588   3.751   3.201
 7608SOL    HW123723   3.533   3.833   3.182
 7608SOL    HW223724   3.626   3.757   3.293
 7609SOL     OW23725   0.794   3.439   3.971
 7609SOL    HW123726   0.747   3.373   4.030
 7609SOL    HW223727   0.731   3.513   3.948
 7610SOL     OW23728   5.831   6.271   0.743
 7610SOL    HW123729   5.808   6.248   0.648
 7610SOL    HW223730   5.750   6.306   0.790
 7611SOL     OW23731   0.358   1.778   0.504
 7611SOL    HW123732   0.423   1.854   0.507
 7611SOL    HW223733   0.397   1.703   0.452
 7612SOL     OW23734   5.181   3.203   5.002
 7612SOL    HW123735   5.082   3.202   5.013
 7612SOL    HW223736   5.222   3.132   5.059
 7613SOL     OW23737   6.358   3.465   1.262
 7613SOL    HW123738   6.362   3.374   1.219
 7613SOL    HW223739   6.293   3.522   1.212
 7614SOL     OW23740   4.969   3.638   0.983
 7614SOL    HW123741   5.019   3.580   1.047
 7614SOL    HW223742   4.929   3.581   0.911
 7615SOL     OW23743   3.717   3.911   6.519
 7615SOL    HW123744   3.772   3.952   6.592
 7615SOL    HW223745   3.648   3.976   6.488
 7616SOL     OW23746   6.325   5.303   5.545
 7616SOL    HW123747   6.349   5.209   5.568
 7616SOL    HW223748   6.346   5.321   5.449
 7617SOL     OW23749   3.904   5.505   3.103
 7617SOL    HW123750   3.877   5.597   3.074
 7617SOL    HW223751   3.842   5.438   3.063
 7618SOL     OW23752   0.451   1.616   5.797
 7618SOL    HW123753   0.471   1.573   5.885
 7618SOL    HW223754   0.353   1.608   5.778
 7619SOL     OW23755   5.713   2.993   5.468
 7619SOL    HW123756   5.655   2.995   5.386
 7619SOL    HW223757   5.809   2.981   5.440
 7620SOL     OW23758   4.204   5.706   0.506
 7620SOL    HW123759   4.173   5.650   0.582
 7620SOL    HW223760   4.234   5.647   0.431
 7621SOL     OW23761   0.205   1.762   0.722
 7621SOL    HW123762   0.201   1.662   0.725
 7621SOL    HW223763   0.261   1.790   0.645
 7622SOL     OW23764   5.228   5.387   1.806
 7622SOL    HW123765   5.234   5.333   1.721
 7622SOL    HW223766   5.306   5.449   1.811
 7623SOL     OW23767   4.782   4.090   6.748
 7623SOL    HW123768   4.764   4.188   6.762
 7623SOL    HW223769   4.730   4.036   6.814
 7624SOL     OW23770   6.949   3.032   4.786
 7624SOL    HW123771   6.991   2.996   4.870
 7624SOL    HW223772   6.907   3.120   4.805
 7625SOL     OW23773   4.702   1.104   1.302
 7625SOL    HW123774   4.670   1.029   1.361
 7625SOL    HW223775   4.717   1.070   1.209
 7626SOL     OW23776   6.236   6.598   4.259
 7626SOL    HW123777   6.186   6.555   4.184
 7626SOL    HW223778   6.173   6.652   4.315
 7627SOL     OW23779   5.065   2.425   0.176
 7627SOL    HW123780   4.974   2.462   0.156
 7627SOL    HW223781   5.115   2.413   0.091
 7628SOL     OW23782   3.845   0.976   3.037
 7628SOL    HW123783   3.931   0.934   3.066
 7628SOL    HW223784   3.790   0.999   3.118
 7629SOL     OW23785   6.521   6.833   3.174
 7629SOL    HW123786   6.470   6.754   3.141
 7629SOL    HW223787   6.545   6.892   3.097
 7630SOL     OW23788   6.600   0.018   1.636
 7630SOL    HW123789   6.665   0.006   1.560
 7630SOL    HW223790   6.531   0.085   1.610
 7631SOL     OW23791   0.752   0.722   5.955
 7631SOL    HW123792   0.846   0.688   5.947
 7631SOL    HW223793   0.737   0.796   5.889
 7632SOL     OW23794   3.623   2.874   2.306
 7632SOL    HW123795   3.536   2.842   2.268
 7632SOL    HW223796   3.608   2.958   2.357
 7633SOL     OW23797   5.123   1.369   1.535
 7633SOL    HW123798   5.038   1.343   1.581
 7633SOL    HW223799   5.126   1.327   1.445
 7634SOL     OW23800   0.928   1.989   2.803
 7634SOL    HW123801   0.885   1.917   2.857
 7634SOL    HW223802   0.862   2.063   2.788
 7635SOL     OW23803   3.751   5.520   5.087
 7635SOL    HW123804   3.754   5.612   5.047
 7635SOL    HW223805   3.844   5.484   5.094
 7636SOL     OW23806   1.137   2.280   4.431
 7636SOL    HW123807   1.211   2.348   4.431
 7636SOL    HW223808   1.107   2.265   4.337
 7637SOL     OW23809   2.584   5.048   2.307
 7637SOL    HW123810   2.542   5.008   2.225
 7637SOL    HW223811   2.678   5.074   2.286
 7638SOL     OW23812   3.582   6.083   0.838
 7638SOL    HW123813   3.522   6.021   0.889
 7638SOL    HW223814   3.632   6.141   0.903
 7639SOL     OW23815   1.263   1.863   0.380
 7639SOL    HW123816   1.188   1.843   0.317
 7639SOL    HW223817   1.234   1.933   0.445
 7640SOL     OW23818   3.411   1.830   6.510
 7640SOL    HW123819   3.372   1.881   6.434
 7640SOL    HW223820   3.383   1.734   6.505
 7641SOL     OW23821   1.387   4.339   1.828
 7641SOL    HW123822   1.422   4.433   1.835
 7641SOL    HW223823   1.287   4.341   1.817
 7642SOL     OW23824   4.056   0.835   3.177
 7642SOL    HW123825   4.151   0.863   3.166
 7642SOL    HW223826   4.052   0.739   3.205
 7643SOL     OW23827   4.903   3.467   4.113
 7643SOL    HW123828   4.885   3.414   4.030
 7643SOL    HW223829   4.874   3.414   4.193
 7644SOL     OW23830   5.969   2.675   2.500
 7644SOL    HW123831   5.895   2.654   2.564
 7644SOL    HW223832   6.000   2.590   2.457
 7645SOL     OW23833   4.012   4.393   5.503
 7645SOL    HW123834   4.111   4.403   5.514
 7645SOL    HW223835   3.991   4.305   5.460
 7646SOL     OW23836   1.451   3.359   2.537
 7646SOL    HW123837   1.413   3.274   2.501
 7646SOL    HW223838   1.471   3.348   2.635
 7647SOL     OW23839   6.891   3.800   2.740
 7647SOL    HW123840   6.959   3.866   2.770
 7647SOL    HW223841   6.842   3.836   2.660
 7648SOL     OW23842   2.726   1.587   3.312
 7648SOL    HW123843   2.709   1.663   3.250
 7648SOL    HW223844   2.818   1.551   3.297
 7649SOL     OW23845   0.860   0.811   2.997
 7649SOL    HW123846   0.848   0.720   2.956
 7649SOL    HW223847   0.910   0.870   2.934
 7650SOL     OW23848   4.262   2.534   1.470
 7650SOL    HW123849   4.282   2.543   1.372
 7650SOL    HW223850   4.326   2.469   1.511
 7651SOL     OW23851   2.492   0.786   4.218
 7651SOL    HW123852   2.396   0.801   4.244
 7651SOL    HW223853   2.526   0.867   4.169
 7652SOL     OW23854   6.507   3.738   4.689
 7652SOL    HW123855   6.511   3.720   4.787
 7652SOL    HW223856   6.596   3.772   4.658
 7653SOL     OW23857   2.195   2.147   6.927
 7653SOL    HW123858   2.263   2.092   6.878
 7653SOL    HW223859   2.207   2.243   6.903
 7654SOL     OW23860   4.873   3.222   3.103
 7654SOL    HW123861   4.830   3.282   3.171
 7654SOL    HW223862   4.972   3.234   3.106
 7655SOL     OW23863   4.720   0.434   3.330
 7655SOL    HW123864   4.681   0.505   3.388
 7655SOL    HW223865   4.707   0.345   3.373
 7656SOL     OW23866   2.162   5.154   5.858
 7656SOL    HW123867   2.145   5.229   5.794
 7656SOL    HW223868   2.076   5.121   5.895
 7657SOL     OW23869   2.122   3.059   4.288
 7657SOL    HW123870   2.165   3.092   4.372
 7657SOL    HW223871   2.055   2.988   4.310
 7658SOL     OW23872   3.592   0.070   5.781
 7658SOL    HW123873   3.535   0.039   5.857
 7658SOL    HW223874   3.538   0.070   5.697
 7659SOL     OW23875   5.840   5.171   0.388
 7659SOL    HW123876   5.858   5.244   0.454
 7659SOL    HW223877   5.746   5.139   0.398
 7660SOL     OW23878   0.539   5.824   3.740
 7660SOL    HW123879   0.514   5.918   3.714
 7660SOL    HW223880   0.551   5.769   3.657
 7661SOL     OW23881   6.124   2.691   4.454
 7661SOL    HW123882   6.160   2.698   4.361
 7661SOL    HW223883   6.027   2.713   4.454
 7662SOL     OW23884   0.988   2.822   2.791
 7662SOL    HW123885   0.891   2.820   2.815
 7662SOL    HW223886   1.041   2.858   2.868
 7663SOL     OW23887   1.322   5.909   6.467
 7663SOL    HW123888   1.390   5.947   6.403
 7663SOL    HW223889   1.348   5.816   6.492
 7664SOL     OW23890   3.377   0.249   1.504
 7664SOL    HW123891   3.396   0.296   1.418
 7664SOL    HW223892   3.282   0.218   1.505
 7665SOL     OW23893   4.635   0.140   4.774
 7665SOL    HW123894   4.606   0.158   4.868
 7665SOL    HW223895   4.596   0.210   4.714
 7666SOL     OW23896   0.129   6.518   1.322
 7666SOL    HW123897   0.120   6.544   1.418
 7666SOL    HW223898   0.149   6.600   1.268
 7667SOL     OW23899   5.088   5.659   2.276
 7667SOL    HW123900   5.006   5.716   2.284
 7667SOL    HW223901   5.105   5.614   2.364
 7668SOL     OW23902   2.862   4.634   0.675
 7668SOL    HW123903   2.923   4.624   0.754
 7668SOL    HW223904   2.779   4.581   0.690
 7669SOL     OW23905   5.378   2.180   5.364
 7669SOL    HW123906   5.361   2.212   5.457
 7669SOL    HW223907   5.367   2.256   5.300
 7670SOL     OW23908   0.739   4.891   6.856
 7670SOL    HW123909   0.728   4.870   6.954
 7670SOL    HW223910   0.836   4.887   6.833
 7671SOL     OW23911   4.379   1.093   3.128
 7671SOL    HW123912   4.474   1.062   3.138
 7671SOL    HW223913   4.379   1.186   3.092
 7672SOL     OW23914   0.521   6.485   3.144
 7672SOL    HW123915   0.425   6.511   3.146
 7672SOL    HW223916   0.555   6.490   3.050
 7673SOL     OW23917   2.108   5.633   0.174
 7673SOL    HW123918   2.171   5.599   0.104
 7673SOL    HW223919   2.016   5.599   0.155
 7674SOL     OW23920   6.114   1.308   3.236
 7674SOL    HW123921   6.123   1.209   3.225
 7674SOL    HW223922   6.129   1.353   3.148
 7675SOL     OW23923   5.905   0.071   2.416
 7675SOL    HW123924   5.959   0.098   2.495
 7675SOL    HW223925   5.955   0.091   2.332
 7676SOL     OW23926   1.828   1.977   0.783
 7676SOL    HW123927   1.869   1.909   0.722
 7676SOL    HW223928   1.886   2.058   0.787
 7677SOL     OW23929   0.767   5.311   2.064
 7677SOL    HW123930   0.808   5.387   2.114
 7677SOL    HW223931   0.731   5.244   2.128
 7678SOL     OW23932   2.005   1.788   4.819
 7678SOL    HW123933   2.095   1.743   4.817
 7678SOL    HW223934   1.950   1.756   4.742
 7679SOL     OW23935   2.758   5.509   6.641
 7679SOL    HW123936   2.776   5.601   6.605
 7679SOL    HW223937   2.694   5.461   6.580
 7680SOL     OW23938   1.639   1.673   0.801
 7680SOL    HW123939   1.564   1.663   0.735
 7680SOL    HW223940   1.676   1.583   0.822
 7681SOL     OW23941   2.289   0.147   0.940
 7681SOL    HW123942   2.349   0.220   0.972
 7681SOL    HW223943   2.195   0.168   0.966
 7682SOL     OW23944   3.212   6.966   2.450
 7682SOL    HW123945   3.310   6.980   2.445
 7682SOL    HW223946   3.193   6.875   2.485
 7683SOL     OW23947   6.051   1.432   3.488
 7683SOL    HW123948   6.091   1.404   3.401
 7683SOL    HW223949   5.951   1.422   3.483
 7684SOL     OW23950   3.886   2.170   2.515
 7684SOL    HW123951   3.801   2.221   2.500
 7684SOL    HW223952   3.893   2.098   2.446
 7685SOL     OW23953   3.311   2.486   0.125
 7685SOL    HW123954   3.347   2.400   0.088
 7685SOL    HW223955   3.284   2.545   0.050
 7686SOL     OW23956   6.422   6.948   2.733
 7686SOL    HW123957   6.455   7.018   2.671
 7686SOL    HW223958   6.454   6.858   2.703
 7687SOL     OW23959   5.637   4.892   3.970
 7687SOL    HW123960   5.699   4.949   4.023
 7687SOL    HW223961   5.577   4.951   3.915
 7688SOL     OW23962   0.999   5.914   5.829
 7688SOL    HW123963   1.080   5.964   5.859
 7688SOL    HW223964   0.935   5.977   5.786
 7689SOL     OW23965   5.210   6.850   3.321
 7689SOL    HW123966   5.147   6.814   3.253
 7689SOL    HW223967   5.241   6.941   3.294
 7690SOL     OW23968   5.545   5.124   0.770
 7690SOL    HW123969   5.457   5.085   0.743
 7690SOL    HW223970   5.561   5.208   0.718
 7691SOL     OW23971   5.639   2.769   5.213
 7691SOL    HW123972   5.554   2.742   5.257
 7691SOL    HW223973   5.717   2.728   5.260
 7692SOL     OW23974   0.437   6.621   1.989
 7692SOL    HW123975   0.400   6.532   2.018
 7692SOL    HW223976   0.482   6.611   1.900
 7693SOL     OW23977   3.785   0.364   1.314
 7693SOL    HW123978   3.835   0.423   1.250
 7693SOL    HW223979   3.761   0.278   1.267
 7694SOL     OW23980   0.449   4.670   5.396
 7694SOL    HW123981   0.481   4.706   5.309
 7694SOL    HW223982   0.371   4.608   5.380
 7695SOL     OW23983   4.265   6.760   0.844
 7695SOL    HW123984   4.288   6.776   0.748
 7695SOL    HW223985   4.169   6.734   0.851
 7696SOL     OW23986   6.727   1.008   4.962
 7696SOL    HW123987   6.710   1.093   5.012
 7696SOL    HW223988   6.823   1.004   4.936
 7697SOL     OW23989   3.053   6.144   2.137
 7697SOL    HW123990   3.004   6.057   2.125
 7697SOL    HW223991   3.139   6.127   2.184
 7698SOL     OW23992   6.903   2.209   3.679
 7698SOL    HW123993   6.898   2.148   3.758
 7698SOL    HW223994   6.888   2.157   3.595
 7699SOL     OW23995   3.635   5.749   6.716
 7699SOL    HW123996   3.657   5.772   6.622
 7699SOL    HW223997   3.570   5.673   6.718
 7700SOL     OW23998   4.892   6.325   4.228
 7700SOL    HW123999   4.898   6.226   4.241
 7700SOL    HW224000   4.804   6.358   4.261
 7701SOL     OW24001   6.585   1.688   7.005
 7701SOL    HW124002   6.509   1.701   6.942
 7701SOL    HW224003   6.656   1.633   6.961
 7702SOL     OW24004   3.725   5.901   5.827
 7702SOL    HW124005   3.650   5.949   5.781
 7702SOL    HW224006   3.734   5.936   5.920
 7703SOL     OW24007   6.077   0.545   5.848
 7703SOL    HW124008   6.085   0.558   5.947
 7703SOL    HW224009   5.982   0.522   5.825
 7704SOL     OW24010   5.246   5.255   5.316
 7704SOL    HW124011   5.344   5.241   5.307
 7704SOL    HW224012   5.203   5.171   5.349
 7705SOL     OW24013   3.921   5.414   6.405
 7705SOL    HW124014   3.823   5.426   6.415
 7705SOL    HW224015   3.966   5.433   6.492
 7706SOL     OW24016   4.296   3.130   5.397
 7706SOL    HW124017   4.388   3.157   5.369
 7706SOL    HW224018   4.234   3.208   5.386
 7707SOL     OW24019   0.604   5.512   6.149
 7707SOL    HW124020   0.564   5.592   6.103
 7707SOL    HW224021   0.549   5.431   6.129
 7708SOL     OW24022   6.605   0.275   5.752
 7708SOL    HW124023   6.567   0.366   5.772
 7708SOL    HW224024   6.573   0.245   5.662
 7709SOL     OW24025   5.710   4.358   1.941
 7709SOL    HW124026   5.789   4.407   1.905
 7709SOL    HW224027   5.670   4.410   2.017
 7710SOL     OW24028   2.956   0.624   0.564
 7710SOL    HW124029   2.887   0.622   0.493
 7710SOL    HW224030   2.920   0.581   0.647
 7711SOL     OW24031   6.640   6.283   5.494
 7711SOL    HW124032   6.664   6.342   5.417
 7711SOL    HW224033   6.637   6.338   5.578
 7712SOL     OW24034   5.594   6.097   2.462
 7712SOL    HW124035   5.670   6.034   2.447
 7712SOL    HW224036   5.541   6.066   2.541
 7713SOL     OW24037   1.370   4.532   0.464
 7713SOL    HW124038   1.312   4.495   0.536
 7713SOL    HW224039   1.385   4.629   0.481
 7714SOL     OW24040   6.381   4.297   5.604
 7714SOL    HW124041   6.339   4.222   5.553
 7714SOL    HW224042   6.462   4.263   5.652
 7715SOL     OW24043   4.142   2.136   6.893
 7715SOL    HW124044   4.060   2.184   6.862
 7715SOL    HW224045   4.145   2.136   6.993
 7716SOL     OW24046   6.115   4.740   3.711
 7716SOL    HW124047   6.138   4.755   3.615
 7716SOL    HW224048   6.017   4.725   3.720
 7717SOL     OW24049   2.031   1.005   5.040
 7717SOL    HW124050   1.937   0.975   5.055
 7717SOL    HW224051   2.084   0.931   4.998
 7718SOL     OW24052   1.668   2.532   2.914
 7718SOL    HW124053   1.742   2.508   2.977
 7718SOL    HW224054   1.625   2.449   2.879
 7719SOL     OW24055   6.699   4.506   5.000
 7719SOL    HW124056   6.674   4.525   4.905
 7719SOL    HW224057   6.697   4.407   5.015
 7720SOL     OW24058   0.114   1.177   6.855
 7720SOL    HW124059   0.113   1.258   6.797
 7720SOL    HW224060   0.126   1.204   6.951
 7721SOL     OW24061   0.636   5.148   2.478
 7721SOL    HW124062   0.608   5.075   2.416
 7721SOL    HW224063   0.560   5.212   2.490
 7722SOL     OW24064   1.262   5.694   3.003
 7722SOL    HW124065   1.202   5.750   3.061
 7722SOL    HW224066   1.243   5.716   2.907
 7723SOL     OW24067   5.157   2.902   0.292
 7723SOL    HW124068   5.218   2.855   0.228
 7723SOL    HW224069   5.081   2.842   0.317
 7724SOL     OW24070   2.959   4.341   0.975
 7724SOL    HW124071   3.005   4.429   0.983
 7724SOL    HW224072   2.964   4.309   0.880
 7725SOL     OW24073   6.342   2.216   3.769
 7725SOL    HW124074   6.362   2.159   3.689
 7725SOL    HW224075   6.244   2.238   3.771
 7726SOL     OW24076   2.166   6.088   5.444
 7726SOL    HW124077   2.122   6.143   5.515
 7726SOL    HW224078   2.135   5.993   5.451
 7727SOL     OW24079   0.046   1.064   2.891
 7727SOL    HW124080   0.142   1.085   2.906
 7727SOL    HW224081   0.013   1.001   2.961
 7728SOL     OW24082   1.204   4.682   3.303
 7728SOL    HW124083   1.253   4.610   3.352
 7728SOL    HW224084   1.171   4.750   3.369
 7729SOL     OW24085   5.742   2.446   1.310
 7729SOL    HW124086   5.661   2.442   1.251
 7729SOL    HW224087   5.719   2.496   1.394
 7730SOL     OW24088   6.115   6.044   1.106
 7730SOL    HW124089   6.208   6.071   1.080
 7730SOL    HW224090   6.110   6.029   1.204
 7731SOL     OW24091   6.669   0.790   6.431
 7731SOL    HW124092   6.691   0.696   6.457
 7731SOL    HW224093   6.638   0.840   6.512
 7732SOL     OW24094   4.352   6.069   0.719
 7732SOL    HW124095   4.371   6.148   0.778
 7732SOL    HW224096   4.364   6.095   0.624
 7733SOL     OW24097   4.744   6.757   2.554
 7733SOL    HW124098   4.696   6.833   2.512
 7733SOL    HW224099   4.680   6.701   2.606
 7734SOL     OW24100   2.554   5.198   2.911
 7734SOL    HW124101   2.553   5.290   2.950
 7734SOL    HW224102   2.526   5.203   2.815
 7735SOL     OW24103   5.177   6.260   6.516
 7735SOL    HW124104   5.130   6.294   6.597
 7735SOL    HW224105   5.209   6.337   6.461
 7736SOL     OW24106   3.084   3.817   0.090
 7736SOL    HW124107   3.149   3.893   0.094
 7736SOL    HW224108   3.100   3.764   0.007
 7737SOL     OW24109   3.166   0.620   2.477
 7737SOL    HW124110   3.257   0.646   2.445
 7737SOL    HW224111   3.173   0.585   2.571
 7738SOL     OW24112   3.161   6.219   0.156
 7738SOL    HW124113   3.214   6.229   0.241
 7738SOL    HW224114   3.092   6.291   0.151
 7739SOL     OW24115   0.960   2.355   0.888
 7739SOL    HW124116   0.888   2.388   0.950
 7739SOL    HW224117   0.942   2.389   0.796
 7740SOL     OW24118   2.244   0.950   3.315
 7740SOL    HW124119   2.334   0.974   3.280
 7740SOL    HW224120   2.203   0.880   3.256
 7741SOL     OW24121   0.863   4.821   6.280
 7741SOL    HW124122   0.840   4.890   6.211
 7741SOL    HW224123   0.957   4.792   6.268
 7742SOL     OW24124   5.117   1.747   3.794
 7742SOL    HW124125   5.067   1.669   3.831
 7742SOL    HW224126   5.147   1.726   3.701
 7743SOL     OW24127   5.869   1.190   0.256
 7743SOL    HW124128   5.825   1.135   0.327
 7743SOL    HW224129   5.968   1.186   0.268
 7744SOL     OW24130   0.905   6.160   3.398
 7744SOL    HW124131   0.947   6.249   3.382
 7744SOL    HW224132   0.854   6.132   3.318
 7745SOL     OW24133   3.593   0.997   6.166
 7745SOL    HW124134   3.662   1.009   6.095
 7745SOL    HW224135   3.595   1.075   6.228
 7746SOL     OW24136   2.560   6.402   6.965
 7746SOL    HW124137   2.644   6.364   6.927
 7746SOL    HW224138   2.500   6.328   6.996
 7747SOL     OW24139   5.215   5.769   1.496
 7747SOL    HW124140   5.214   5.669   1.498
 7747SOL    HW224141   5.140   5.801   1.439
 7748SOL     OW24142   2.949   3.260   4.742
 7748SOL    HW124143   2.978   3.273   4.837
 7748SOL    HW224144   2.857   3.222   4.739
 7749SOL     OW24145   2.415   2.579   5.974
 7749SOL    HW124146   2.321   2.609   5.955
 7749SOL    HW224147   2.444   2.617   6.062
 7750SOL     OW24148   0.005   6.599   1.601
 7750SOL    HW124149   0.055   6.682   1.579
 7750SOL    HW224150   0.050   6.552   1.677
 7751SOL     OW24151   0.906   2.390   2.027
 7751SOL    HW124152   0.824   2.334   2.042
 7751SOL    HW224153   0.940   2.424   2.115
 7752SOL     OW24154   5.531   0.431   5.878
 7752SOL    HW124155   5.459   0.364   5.860
 7752SOL    HW224156   5.524   0.464   5.972
 7753SOL     OW24157   2.573   1.486   3.880
 7753SOL    HW124158   2.645   1.537   3.927
 7753SOL    HW224159   2.594   1.481   3.783
 7754SOL     OW24160   3.345   5.994   1.165
 7754SOL    HW124161   3.438   6.000   1.203
 7754SOL    HW224162   3.347   5.942   1.080
 7755SOL     OW24163   2.233   2.174   5.875
 7755SOL    HW124164   2.260   2.193   5.970
 7755SOL    HW224165   2.312   2.143   5.823
 7756SOL     OW24166   2.570   6.794   2.646
 7756SOL    HW124167   2.521   6.709   2.661
 7756SOL    HW224168   2.632   6.811   2.724
 7757SOL     OW24169   5.801   4.796   0.975
 7757SOL    HW124170   5.827   4.699   0.973
 7757SOL    HW224171   5.757   4.820   0.889
 7758SOL     OW24172   2.405   0.080   6.043
 7758SOL    HW124173   2.401   0.113   5.949
 7758SOL    HW224174   2.322   0.026   6.063
 7759SOL     OW24175   1.847   1.674   5.530
 7759SOL    HW124176   1.818   1.727   5.610
 7759SOL    HW224177   1.903   1.731   5.471
 7760SOL     OW24178   6.057   3.797   2.193
 7760SOL    HW124179   5.975   3.752   2.157
 7760SOL    HW224180   6.099   3.739   2.262
 7761SOL     OW24181   6.569   6.699   4.776
 7761SOL    HW124182   6.531   6.678   4.686
 7761SOL    HW224183   6.669   6.686   4.773
 7762SOL     OW24184   2.277   0.492   4.118
 7762SOL    HW124185   2.233   0.504   4.029
 7762SOL    HW224186   2.340   0.415   4.114
 7763SOL     OW24187   2.492   0.051   6.417
 7763SOL    HW124188   2.477   0.019   6.511
 7763SOL    HW224189   2.456   7.006   6.353
 7764SOL     OW24190   3.593   3.695   5.264
 7764SOL    HW124191   3.524   3.719   5.333
 7764SOL    HW224192   3.675   3.660   5.309
 7765SOL     OW24193   6.027   3.364   5.176
 7765SOL    HW124194   5.956   3.434   5.189
 7765SOL    HW224195   5.991   3.292   5.117
 7766SOL     OW24196   6.706   4.284   0.518
 7766SOL    HW124197   6.650   4.204   0.539
 7766SOL    HW224198   6.649   4.355   0.477
 7767SOL     OW24199   4.351   5.863   2.370
 7767SOL    HW124200   4.424   5.884   2.305
 7767SOL    HW224201   4.262   5.871   2.323
 7768SOL     OW24202   4.879   3.934   3.001
 7768SOL    HW124203   4.886   3.937   3.101
 7768SOL    HW224204   4.915   3.847   2.968
 7769SOL     OW24205   4.613   1.460   4.241
 7769SOL    HW124206   4.661   1.442   4.327
 7769SOL    HW224207   4.517   1.434   4.250
 7770SOL     OW24208   1.338   3.358   4.941
 7770SOL    HW124209   1.407   3.404   4.885
 7770SOL    HW224210   1.291   3.289   4.886
 7771SOL     OW24211   3.531   1.981   5.250
 7771SOL    HW124212   3.465   2.053   5.271
 7771SOL    HW224213   3.603   2.017   5.191
 7772SOL     OW24214   4.524   6.816   1.649
 7772SOL    HW124215   4.529   6.737   1.589
 7772SOL    HW224216   4.505   6.787   1.743
 7773SOL     OW24217   1.633   4.818   5.233
 7773SOL    HW124218   1.673   4.740   5.281
 7773SOL    HW224219   1.706   4.872   5.191
 7774SOL     OW24220   4.771   2.288   4.261
 7774SOL    HW124221   4.673   2.290   4.280
 7774SOL    HW224222   4.794   2.359   4.195
 7775SOL     OW24223   4.266   6.867   0.234
 7775SOL    HW124224   4.213   6.916   0.302
 7775SOL    HW224225   4.233   6.891   0.142
 7776SOL     OW24226   0.878   5.838   6.948
 7776SOL    HW124227   0.854   5.935   6.936
 7776SOL    HW224228   0.900   5.821   0.021
 7777SOL     OW24229   6.059   5.420   4.173
 7777SOL    HW124230   6.122   5.342   4.171
 7777SOL    HW224231   5.965   5.387   4.167
 7778SOL     OW24232   5.657   3.888   1.705
 7778SOL    HW124233   5.590   3.947   1.750
 7778SOL    HW224234   5.623   3.794   1.705
 7779SOL     OW24235   2.532   1.279   1.898
 7779SOL    HW124236   2.536   1.376   1.918
 7779SOL    HW224237   2.593   1.258   1.821
 7780SOL     OW24238   0.832   5.152   5.859
 7780SOL    HW124239   0.842   5.241   5.813
 7780SOL    HW224240   0.808   5.082   5.792
 7781SOL     OW24241   1.874   4.352   1.862
 7781SOL    HW124242   1.934   4.285   1.906
 7781SOL    HW224243   1.904   4.444   1.888
 7782SOL     OW24244   5.364   5.196   4.376
 7782SOL    HW124245   5.456   5.234   4.364
 7782SOL    HW224246   5.296   5.269   4.367
 7783SOL     OW24247   0.831   6.983   5.646
 7783SOL    HW124248   0.832   6.941   5.556
 7783SOL    HW224249   0.756   6.945   5.700
 7784SOL     OW24250   3.747   2.928   1.794
 7784SOL    HW124251   3.794   2.842   1.774
 7784SOL    HW224252   3.726   2.974   1.708
 7785SOL     OW24253   2.017   6.097   4.522
 7785SOL    HW124254   1.977   6.044   4.446
 7785SOL    HW224255   1.975   6.187   4.525
 7786SOL     OW24256   3.490   6.949   0.706
 7786SOL    HW124257   3.460   6.858   0.675
 7786SOL    HW224258   3.426   7.018   0.674
 7787SOL     OW24259   2.253   3.212   0.013
 7787SOL    HW124260   2.209   3.142   0.070
 7787SOL    HW224261   2.337   3.243   0.058
 7788SOL     OW24262   1.902   5.124   1.689
 7788SOL    HW124263   1.984   5.171   1.657
 7788SOL    HW224264   1.885   5.044   1.632
 7789SOL     OW24265   2.948   0.209   6.524
 7789SOL    HW124266   3.011   0.279   6.559
 7789SOL    HW224267   2.855   0.247   6.520
 7790SOL     OW24268   4.941   5.611   2.806
 7790SOL    HW124269   5.020   5.634   2.750
 7790SOL    HW224270   4.959   5.526   2.857
 7791SOL     OW24271   2.095   5.042   2.676
 7791SOL    HW124272   2.148   5.049   2.760
 7791SOL    HW224273   2.088   5.132   2.633
 7792SOL     OW24274   1.410   6.106   4.056
 7792SOL    HW124275   1.341   6.104   3.983
 7792SOL    HW224276   1.367   6.126   4.143
 7793SOL     OW24277   3.838   0.797   0.152
 7793SOL    HW124278   3.874   0.754   0.069
 7793SOL    HW224279   3.741   0.779   0.160
 7794SOL     OW24280   0.088   4.413   1.933
 7794SOL    HW124281   0.098   4.366   1.845
 7794SOL    HW224282   0.114   4.352   2.007
 7795SOL     OW24283   2.364   4.974   5.302
 7795SOL    HW124284   2.430   4.930   5.242
 7795SOL    HW224285   2.310   5.040   5.249
 7796SOL     OW24286   3.565   3.153   5.198
 7796SOL    HW124287   3.561   3.245   5.158
 7796SOL    HW224288   3.659   3.119   5.192
 7797SOL     OW24289   0.690   6.383   1.529
 7797SOL    HW124290   0.789   6.395   1.518
 7797SOL    HW224291   0.651   6.345   1.446
 7798SOL     OW24292   0.739   2.902   3.572
 7798SOL    HW124293   0.644   2.904   3.543
 7798SOL    HW224294   0.744   2.879   3.669
 7799SOL     OW24295   1.923   5.336   2.358
 7799SOL    HW124296   1.894   5.429   2.383
 7799SOL    HW224297   2.004   5.311   2.412
 7800SOL     OW24298   1.131   5.166   2.874
 7800SOL    HW124299   1.160   5.252   2.831
 7800SOL    HW224300   1.051   5.130   2.826
 7801SOL     OW24301   1.833   1.465   2.737
 7801SOL    HW124302   1.825   1.543   2.675
 7801SOL    HW224303   1.804   1.493   2.829
 7802SOL     OW24304   6.342   3.176   0.462
 7802SOL    HW124305   6.401   3.111   0.413
 7802SOL    HW224306   6.341   3.154   0.559
 7803SOL     OW24307   4.411   2.123   0.153
 7803SOL    HW124308   4.317   2.108   0.123
 7803SOL    HW224309   4.420   2.098   0.250
 7804SOL     OW24310   4.458   2.105   5.035
 7804SOL    HW124311   4.500   2.158   5.109
 7804SOL    HW224312   4.519   2.105   4.955
 7805SOL     OW24313   5.277   3.240   1.999
 7805SOL    HW124314   5.339   3.174   2.042
 7805SOL    HW224315   5.209   3.269   2.065
 7806SOL     OW24316   5.600   1.423   6.120
 7806SOL    HW124317   5.648   1.336   6.124
 7806SOL    HW224318   5.664   1.498   6.136
 7807SOL     OW24319   0.796   4.954   5.664
 7807SOL    HW124320   0.716   4.900   5.690
 7807SOL    HW224321   0.799   4.963   5.565
 7808SOL     OW24322   5.894   3.309   3.542
 7808SOL    HW124323   5.972   3.300   3.604
 7808SOL    HW224324   5.927   3.306   3.447
 7809SOL     OW24325   5.146   4.994   5.314
 7809SOL    HW124326   5.076   4.959   5.250
 7809SOL    HW224327   5.171   4.921   5.378
 7810SOL     OW24328   3.130   6.498   5.155
 7810SOL    HW124329   3.040   6.486   5.113
 7810SOL    HW224330   3.147   6.426   5.222
 7811SOL     OW24331   1.618   4.857   1.900
 7811SOL    HW124332   1.609   4.913   1.982
 7811SOL    HW224333   1.715   4.843   1.879
 7812SOL     OW24334   1.308   2.480   4.356
 7812SOL    HW124335   1.343   2.542   4.426
 7812SOL    HW224336   1.349   2.504   4.267
 7813SOL     OW24337   4.151   2.101   1.136
 7813SOL    HW124338   4.054   2.122   1.141
 7813SOL    HW224339   4.164   2.002   1.141
 7814SOL     OW24340   6.857   3.120   3.674
 7814SOL    HW124341   6.866   3.194   3.741
 7814SOL    HW224342   6.866   3.158   3.582
 7815SOL     OW24343   5.839   2.413   3.754
 7815SOL    HW124344   5.788   2.411   3.669
 7815SOL    HW224345   5.832   2.324   3.800
 7816SOL     OW24346   0.905   2.346   6.764
 7816SOL    HW124347   0.977   2.282   6.794
 7816SOL    HW224348   0.947   2.424   6.718
 7817SOL     OW24349   4.729   4.794   4.673
 7817SOL    HW124350   4.697   4.727   4.739
 7817SOL    HW224351   4.793   4.857   4.717
 7818SOL     OW24352   4.941   1.041   2.707
 7818SOL    HW124353   4.874   0.997   2.648
 7818SOL    HW224354   5.025   1.057   2.655
 7819SOL     OW24355   0.188   3.744   3.898
 7819SOL    HW124356   0.192   3.728   3.997
 7819SOL    HW224357   0.108   3.800   3.877
 7820SOL     OW24358   1.684   1.181   5.416
 7820SOL    HW124359   1.731   1.104   5.373
 7820SOL    HW224360   1.725   1.199   5.506
 7821SOL     OW24361   5.811   5.667   0.639
 7821SOL    HW124362   5.748   5.589   0.639
 7821SOL    HW224363   5.768   5.745   0.683
 7822SOL     OW24364   1.050   1.497   6.517
 7822SOL    HW124365   1.049   1.431   6.591
 7822SOL    HW224366   1.145   1.518   6.492
 7823SOL     OW24367   2.588   3.596   5.915
 7823SOL    HW124368   2.632   3.682   5.944
 7823SOL    HW224369   2.489   3.608   5.914
 7824SOL     OW24370   5.973   0.546   4.144
 7824SOL    HW124371   5.909   0.508   4.210
 7824SOL    HW224372   5.927   0.617   4.090
 7825SOL     OW24373   1.125   3.382   0.700
 7825SOL    HW124374   1.178   3.456   0.658
 7825SOL    HW224375   1.046   3.360   0.642
 7826SOL     OW24376   5.636   2.036   6.535
 7826SOL    HW124377   5.703   1.986   6.589
 7826SOL    HW224378   5.676   2.124   6.507
 7827SOL     OW24379   2.642   4.497   0.769
 7827SOL    HW124380   2.654   4.400   0.786
 7827SOL    HW224381   2.593   4.510   0.683
 7828SOL     OW24382   0.600   5.323   1.264
 7828SOL    HW124383   0.687   5.330   1.313
 7828SOL    HW224384   0.542   5.401   1.289
 7829SOL     OW24385   2.198   2.794   0.404
 7829SOL    HW124386   2.236   2.866   0.462
 7829SOL    HW224387   2.168   2.718   0.461
 7830SOL     OW24388   4.277   3.857   6.169
 7830SOL    HW124389   4.330   3.795   6.227
 7830SOL    HW224390   4.272   3.947   6.212
 7831SOL     OW24391   1.373   5.351   0.871
 7831SOL    HW124392   1.461   5.370   0.828
 7831SOL    HW224393   1.373   5.386   0.965
 7832SOL     OW24394   3.199   1.338   4.193
 7832SOL    HW124395   3.260   1.272   4.150
 7832SOL    HW224396   3.150   1.389   4.123
 7833SOL     OW24397   0.975   0.640   7.002
 7833SOL    HW124398   0.895   0.581   7.000
 7833SOL    HW224399   0.975   0.694   0.063
 7834SOL     OW24400   6.970   1.666   3.510
 7834SOL    HW124401   0.022   1.610   3.473
 7834SOL    HW224402   7.006   1.756   3.535
 7835SOL     OW24403   2.608   2.342   4.659
 7835SOL    HW124404   2.672   2.308   4.727
 7835SOL    HW224405   2.564   2.426   4.693
 7836SOL     OW24406   3.494   2.864   5.239
 7836SOL    HW124407   3.403   2.878   5.277
 7836SOL    HW224408   3.541   2.952   5.231
 7837SOL     OW24409   6.909   5.935   1.674
 7837SOL    HW124410   6.949   5.891   1.594
 7837SOL    HW224411   6.810   5.932   1.667
 7838SOL     OW24412   4.303   6.187   0.456
 7838SOL    HW124413   4.340   6.279   0.439
 7838SOL    HW224414   4.271   6.148   0.369
 7839SOL     OW24415   5.961   4.771   5.361
 7839SOL    HW124416   6.046   4.719   5.359
 7839SOL    HW224417   5.981   4.869   5.358
 7840SOL     OW24418   4.894   3.281   4.317
 7840SOL    HW124419   4.924   3.334   4.396
 7840SOL    HW224420   4.834   3.207   4.347
 7841SOL     OW24421   5.146   1.420   6.526
 7841SOL    HW124422   5.149   1.330   6.569
 7841SOL    HW224423   5.148   1.491   6.596
 7842SOL     OW24424   2.261   1.382   2.873
 7842SOL    HW124425   2.225   1.325   2.947
 7842SOL    HW224426   2.230   1.346   2.785
 7843SOL     OW24427   4.913   4.617   2.175
 7843SOL    HW124428   4.992   4.561   2.148
 7843SOL    HW224429   4.846   4.617   2.101
 7844SOL     OW24430   4.340   0.794   3.911
 7844SOL    HW124431   4.253   0.817   3.868
 7844SOL    HW224432   4.414   0.843   3.865
 7845SOL     OW24433   6.105   1.530   4.134
 7845SOL    HW124434   6.093   1.432   4.144
 7845SOL    HW224435   6.020   1.577   4.158
 7846SOL     OW24436   1.741   0.758   1.806
 7846SOL    HW124437   1.692   0.730   1.889
 7846SOL    HW224438   1.839   0.746   1.820
 7847SOL     OW24439   6.536   1.696   2.193
 7847SOL    HW124440   6.556   1.710   2.096
 7847SOL    HW224441   6.561   1.602   2.219
 7848SOL     OW24442   3.059   3.696   1.182
 7848SOL    HW124443   2.995   3.629   1.219
 7848SOL    HW224444   3.030   3.723   1.090
 7849SOL     OW24445   5.595   4.038   3.443
 7849SOL    HW124446   5.681   3.986   3.449
 7849SOL    HW224447   5.593   4.088   3.356
 7850SOL     OW24448   0.280   1.924   4.052
 7850SOL    HW124449   0.230   1.839   4.068
 7850SOL    HW224450   0.316   1.924   3.958
 7851SOL     OW24451   6.798   6.881   0.787
 7851SOL    HW124452   6.759   6.796   0.751
 7851SOL    HW224453   6.888   6.896   0.745
 7852SOL     OW24454   2.755   0.035   5.317
 7852SOL    HW124455   2.695   6.984   5.285
 7852SOL    HW224456   2.844   7.020   5.340
 7853SOL     OW24457   3.880   1.536   2.083
 7853SOL    HW124458   3.811   1.553   2.013
 7853SOL    HW224459   3.927   1.450   2.065
 7854SOL     OW24460   2.980   3.275   0.648
 7854SOL    HW124461   3.050   3.321   0.703
 7854SOL    HW224462   2.942   3.339   0.581
 7855SOL     OW24463   2.896   6.059   5.566
 7855SOL    HW124464   2.915   6.022   5.657
 7855SOL    HW224465   2.959   6.018   5.500
 7856SOL     OW24466   5.713   5.225   4.447
 7856SOL    HW124467   5.793   5.262   4.495
 7856SOL    HW224468   5.729   5.130   4.423
 7857SOL     OW24469   6.094   2.358   5.368
 7857SOL    HW124470   6.136   2.383   5.456
 7857SOL    HW224471   6.008   2.408   5.357
 7858SOL     OW24472   4.700   5.533   3.595
 7858SOL    HW124473   4.785   5.585   3.586
 7858SOL    HW224474   4.715   5.453   3.653
 7859SOL     OW24475   6.226   4.126   5.434
 7859SOL    HW124476   6.184   4.037   5.452
 7859SOL    HW224477   6.305   4.114   5.374
 7860SOL     OW24478   4.541   0.410   2.761
 7860SOL    HW124479   4.551   0.498   2.714
 7860SOL    HW224480   4.455   0.367   2.733
 7861SOL     OW24481   3.888   5.292   1.690
 7861SOL    HW124482   3.819   5.358   1.718
 7861SOL    HW224483   3.946   5.332   1.619
 7862SOL     OW24484   2.959   4.762   1.712
 7862SOL    HW124485   2.934   4.670   1.742
 7862SOL    HW224486   2.920   4.779   1.622
 7863SOL     OW24487   6.667   6.475   3.645
 7863SOL    HW124488   6.576   6.471   3.687
 7863SOL    HW224489   6.729   6.524   3.705
 7864SOL     OW24490   0.152   6.502   5.408
 7864SOL    HW124491   0.211   6.581   5.396
 7864SOL    HW224492   0.145   6.452   5.322
 7865SOL     OW24493   4.717   6.887   4.661
 7865SOL    HW124494   4.699   6.961   4.726
 7865SOL    HW224495   4.711   6.799   4.708
 7866SOL     OW24496   2.710   2.118   6.728
 7866SOL    HW124497   2.615   2.145   6.709
 7866SOL    HW224498   2.727   2.123   6.826
 7867SOL     OW24499   5.272   6.702   2.604
 7867SOL    HW124500   5.205   6.630   2.623
 7867SOL    HW224501   5.225   6.781   2.565
 7868SOL     OW24502   5.756   6.693   2.077
 7868SOL    HW124503   5.703   6.615   2.107
 7868SOL    HW224504   5.712   6.778   2.108
 7869SOL     OW24505   5.263   3.181   0.489
 7869SOL    HW124506   5.232   3.169   0.394
 7869SOL    HW224507   5.363   3.177   0.492
 7870SOL     OW24508   4.616   5.049   4.763
 7870SOL    HW124509   4.607   5.036   4.664
 7870SOL    HW224510   4.651   5.140   4.782
 7871SOL     OW24511   5.414   4.032   2.561
 7871SOL    HW124512   5.511   4.036   2.535
 7871SOL    HW224513   5.398   3.952   2.619
 7872SOL     OW24514   2.174   4.017   2.602
 7872SOL    HW124515   2.202   4.013   2.506
 7872SOL    HW224516   2.122   4.101   2.618
 7873SOL     OW24517   5.105   0.713   5.574
 7873SOL    HW124518   5.120   0.614   5.576
 7873SOL    HW224519   5.135   0.750   5.487
 7874SOL     OW24520   5.084   1.651   0.486
 7874SOL    HW124521   5.113   1.648   0.390
 7874SOL    HW224522   4.988   1.624   0.493
 7875SOL     OW24523   4.430   2.163   6.782
 7875SOL    HW124524   4.339   2.126   6.801
 7875SOL    HW224525   4.429   2.262   6.797
 7876SOL     OW24526   6.582   0.126   5.066
 7876SOL    HW124527   6.515   0.143   5.138
 7876SOL    HW224528   6.660   0.075   5.103
 7877SOL     OW24529   0.051   2.876   2.475
 7877SOL    HW124530   6.987   2.827   2.475
 7877SOL    HW224531   0.119   2.824   2.423
 7878SOL     OW24532   4.631   4.867   4.212
 7878SOL    HW124533   4.658   4.854   4.307
 7878SOL    HW224534   4.713   4.872   4.155
 7879SOL     OW24535   4.986   5.601   3.558
 7879SOL    HW124536   5.049   5.627   3.632
 7879SOL    HW224537   5.022   5.520   3.511
 7880SOL     OW24538   1.140   5.187   0.843
 7880SOL    HW124539   1.207   5.261   0.839
 7880SOL    HW224540   1.169   5.113   0.783
 7881SOL     OW24541   5.481   3.659   4.952
 7881SOL    HW124542   5.478   3.728   5.026
 7881SOL    HW224543   5.419   3.584   4.974
 7882SOL     OW24544   1.719   3.161   2.719
 7882SOL    HW124545   1.737   3.064   2.701
 7882SOL    HW224546   1.806   3.209   2.730
 7883SOL     OW24547   1.553   6.930   1.258
 7883SOL    HW124548   1.472   6.898   1.209
 7883SOL    HW224549   1.540   6.914   1.356
 7884SOL     OW24550   2.005   3.933   3.676
 7884SOL    HW124551   2.078   3.988   3.717
 7884SOL    HW224552   2.031   3.910   3.582
 7885SOL     OW24553   6.112   6.510   1.751
 7885SOL    HW124554   6.150   6.472   1.835
 7885SOL    HW224555   6.050   6.585   1.774
 7886SOL     OW24556   4.034   4.773   0.792
 7886SOL    HW124557   4.007   4.869   0.788
 7886SOL    HW224558   4.071   4.752   0.882
 7887SOL     OW24559   3.304   2.625   5.384
 7887SOL    HW124560   3.239   2.691   5.346
 7887SOL    HW224561   3.261   2.535   5.391
 7888SOL     OW24562   0.269   0.502   5.227
 7888SOL    HW124563   0.280   0.437   5.153
 7888SOL    HW224564   0.254   0.453   5.313
 7889SOL     OW24565   0.897   4.579   6.828
 7889SOL    HW124566   0.799   4.600   6.835
 7889SOL    HW224567   0.908   4.488   6.789
 7890SOL     OW24568   0.679   3.256   4.126
 7890SOL    HW124569   0.582   3.247   4.146
 7890SOL    HW224570   0.719   3.165   4.113
 7891SOL     OW24571   1.824   4.010   4.805
 7891SOL    HW124572   1.797   4.097   4.846
 7891SOL    HW224573   1.923   3.999   4.810
 7892SOL     OW24574   1.764   2.176   3.962
 7892SOL    HW124575   1.846   2.195   3.908
 7892SOL    HW224576   1.789   2.160   4.058
 7893SOL     OW24577   6.537   0.304   2.106
 7893SOL    HW124578   6.624   0.276   2.065
 7893SOL    HW224579   6.487   0.361   2.041
 7894SOL     OW24580   3.067   0.945   1.585
 7894SOL    HW124581   3.053   1.013   1.658
 7894SOL    HW224582   3.065   0.991   1.496
 7895SOL     OW24583   4.899   0.180   4.781
 7895SOL    HW124584   4.800   0.187   4.791
 7895SOL    HW224585   4.941   0.265   4.814
 7896SOL     OW24586   5.125   2.942   1.393
 7896SOL    HW124587   5.116   2.888   1.309
 7896SOL    HW224588   5.061   2.909   1.462
 7897SOL     OW24589   3.476   2.786   1.169
 7897SOL    HW124590   3.522   2.697   1.177
 7897SOL    HW224591   3.409   2.782   1.095
 7898SOL     OW24592   4.053   0.253   3.826
 7898SOL    HW124593   4.102   0.316   3.887
 7898SOL    HW224594   4.090   0.161   3.837
 7899SOL     OW24595   5.840   6.781   1.650
 7899SOL    HW124596   5.874   6.715   1.717
 7899SOL    HW224597   5.794   6.732   1.576
 7900SOL     OW24598   1.049   5.223   1.511
 7900SOL    HW124599   1.118   5.248   1.579
 7900SOL    HW224600   0.973   5.178   1.557
 7901SOL     OW24601   4.829   0.886   6.702
 7901SOL    HW124602   4.866   0.840   6.621
 7901SOL    HW224603   4.867   0.845   6.784
 7902SOL     OW24604   5.835   5.796   2.746
 7902SOL    HW124605   5.901   5.749   2.686
 7902SOL    HW224606   5.856   5.775   2.841
 7903SOL     OW24607   4.868   1.626   2.935
 7903SOL    HW124608   4.889   1.530   2.950
 7903SOL    HW224609   4.895   1.653   2.843
 7904SOL     OW24610   5.528   0.072   2.781
 7904SOL    HW124611   5.601   0.120   2.830
 7904SOL    HW224612   5.441   0.118   2.796
 7905SOL     OW24613   5.478   2.366   0.612
 7905SOL    HW124614   5.559   2.326   0.656
 7905SOL    HW224615   5.483   2.465   0.618
 7906SOL     OW24616   0.409   5.525   0.751
 7906SOL    HW124617   0.345   5.477   0.811
 7906SOL    HW224618   0.495   5.474   0.748
 7907SOL     OW24619   6.225   1.981   3.652
 7907SOL    HW124620   6.129   1.954   3.639
 7907SOL    HW224621   6.285   1.917   3.604
 7908SOL     OW24622   1.119   1.171   6.167
 7908SOL    HW124623   1.101   1.215   6.079
 7908SOL    HW224624   1.064   1.216   6.238
 7909SOL     OW24625   4.780   4.140   3.862
 7909SOL    HW124626   4.721   4.217   3.839
 7909SOL    HW224627   4.779   4.124   3.961
 7910SOL     OW24628   2.169   3.151   0.416
 7910SOL    HW124629   2.121   3.098   0.345
 7910SOL    HW224630   2.186   3.244   0.383
 7911SOL     OW24631   0.899   4.508   0.596
 7911SOL    HW124632   0.979   4.568   0.588
 7911SOL    HW224633   0.815   4.563   0.592
 7912SOL     OW24634   5.904   4.762   1.444
 7912SOL    HW124635   5.815   4.717   1.449
 7912SOL    HW224636   5.955   4.726   1.365
 7913SOL     OW24637   1.545   3.715   2.060
 7913SOL    HW124638   1.601   3.738   1.980
 7913SOL    HW224639   1.491   3.633   2.040
 7914SOL     OW24640   6.927   4.715   0.869
 7914SOL    HW124641   6.858   4.643   0.876
 7914SOL    HW224642   6.963   4.735   0.960
 7915SOL     OW24643   5.195   2.047   2.453
 7915SOL    HW124644   5.189   2.145   2.473
 7915SOL    HW224645   5.207   1.996   2.539
 7916SOL     OW24646   6.909   5.881   5.684
 7916SOL    HW124647   6.904   5.968   5.733
 7916SOL    HW224648   6.849   5.884   5.604
 7917SOL     OW24649   4.080   3.346   5.682
 7917SOL    HW124650   3.989   3.387   5.684
 7917SOL    HW224651   4.102   3.311   5.773
 7918SOL     OW24652   6.307   1.051   4.169
 7918SOL    HW124653   6.246   0.987   4.215
 7918SOL    HW224654   6.348   1.008   4.089
 7919SOL     OW24655   1.616   4.692   3.054
 7919SOL    HW124656   1.715   4.695   3.059
 7919SOL    HW224657   1.577   4.773   3.097
 7920SOL     OW24658   6.410   6.915   0.818
 7920SOL    HW124659   6.336   6.964   0.863
 7920SOL    HW224660   6.487   6.906   0.881
 7921SOL     OW24661   5.909   6.097   2.635
 7921SOL    HW124662   5.926   6.003   2.606
 7921SOL    HW224663   5.844   6.097   2.711
 7922SOL     OW24664   0.464   6.176   0.028
 7922SOL    HW124665   0.530   6.246   0.001
 7922SOL    HW224666   0.398   6.215   0.093
 7923SOL     OW24667   3.861   0.902   6.309
 7923SOL    HW124668   3.854   0.889   6.408
 7923SOL    HW224669   3.821   0.823   6.262
 7924SOL     OW24670   4.957   0.409   1.625
 7924SOL    HW124671   4.896   0.351   1.679
 7924SOL    HW224672   4.913   0.432   1.538
 7925SOL     OW24673   0.754   0.148   0.341
 7925SOL    HW124674   0.702   0.213   0.286
 7925SOL    HW224675   0.697   0.067   0.360
 7926SOL     OW24676   5.046   1.919   5.974
 7926SOL    HW124677   4.991   1.999   5.951
 7926SOL    HW224678   5.105   1.941   6.052
 7927SOL     OW24679   4.544   6.150   2.421
 7927SOL    HW124680   4.634   6.190   2.437
 7927SOL    HW224681   4.507   6.114   2.507
 7928SOL     OW24682   1.124   1.904   3.962
 7928SOL    HW124683   1.216   1.888   3.926
 7928SOL    HW224684   1.124   1.893   4.061
 7929SOL     OW24685   4.375   3.629   5.891
 7929SOL    HW124686   4.396   3.726   5.904
 7929SOL    HW224687   4.375   3.608   5.793
 7930SOL     OW24688   4.425   5.170   5.743
 7930SOL    HW124689   4.509   5.117   5.740
 7930SOL    HW224690   4.362   5.127   5.808
 7931SOL     OW24691   3.227   3.341   6.981
 7931SOL    HW124692   3.252   3.332   6.885
 7931SOL    HW224693   3.138   3.384   6.990
 7932SOL     OW24694   1.531   5.969   6.658
 7932SOL    HW124695   1.573   5.880   6.639
 7932SOL    HW224696   1.566   6.037   6.594
 7933SOL     OW24697   6.338   0.392   6.344
 7933SOL    HW124698   6.351   0.483   6.305
 7933SOL    HW224699   6.425   0.357   6.378
 7934SOL     OW24700   1.592   5.324   6.981
 7934SOL    HW124701   1.516   5.320   0.023
 7934SOL    HW224702   1.560   5.295   6.891
 7935SOL     OW24703   6.082   6.456   1.151
 7935SOL    HW124704   6.174   6.454   1.111
 7935SOL    HW224705   6.024   6.390   1.103
 7936SOL     OW24706   2.820   5.848   2.495
 7936SOL    HW124707   2.751   5.915   2.468
 7936SOL    HW224708   2.786   5.756   2.477
 7937SOL     OW24709   6.699   5.702   4.043
 7937SOL    HW124710   6.622   5.671   3.987
 7937SOL    HW224711   6.741   5.623   4.088
 7938SOL     OW24712   6.570   6.433   4.455
 7938SOL    HW124713   6.542   6.467   4.364
 7938SOL    HW224714   6.597   6.511   4.512
 7939SOL     OW24715   1.719   2.282   5.599
 7939SOL    HW124716   1.737   2.362   5.541
 7939SOL    HW224717   1.760   2.201   5.558
 7940SOL     OW24718   2.206   2.650   1.968
 7940SOL    HW124719   2.164   2.724   2.019
 7940SOL    HW224720   2.262   2.688   1.894
 7941SOL     OW24721   6.096   6.044   1.831
 7941SOL    HW124722   6.051   6.127   1.796
 7941SOL    HW224723   6.138   6.063   1.919
 7942SOL     OW24724   0.350   4.442   3.054
 7942SOL    HW124725   0.419   4.506   3.021
 7942SOL    HW224726   0.263   4.461   3.009
 7943SOL     OW24727   0.335   4.194   6.341
 7943SOL    HW124728   0.342   4.224   6.436
 7943SOL    HW224729   0.409   4.235   6.287
 7944SOL     OW24730   0.830   2.447   0.657
 7944SOL    HW124731   0.881   2.438   0.572
 7944SOL    HW224732   0.790   2.539   0.663
 7945SOL     OW24733   6.235   5.697   1.373
 7945SOL    HW124734   6.243   5.797   1.371
 7945SOL    HW224735   6.314   5.656   1.326
 7946SOL     OW24736   3.427   0.426   5.246
 7946SOL    HW124737   3.344   0.381   5.213
 7946SOL    HW224738   3.507   0.377   5.212
 7947SOL     OW24739   3.188   1.580   5.484
 7947SOL    HW124740   3.249   1.610   5.411
 7947SOL    HW224741   3.242   1.543   5.560
 7948SOL     OW24742   1.223   5.787   0.823
 7948SOL    HW124743   1.139   5.741   0.793
 7948SOL    HW224744   1.302   5.731   0.800
 7949SOL     OW24745   5.079   4.160   5.528
 7949SOL    HW124746   5.086   4.072   5.574
 7949SOL    HW224747   5.130   4.157   5.442
 7950SOL     OW24748   4.680   5.451   4.154
 7950SOL    HW124749   4.609   5.441   4.083
 7950SOL    HW224750   4.680   5.545   4.188
 7951SOL     OW24751   2.036   4.763   2.279
 7951SOL    HW124752   1.960   4.711   2.318
 7951SOL    HW224753   2.043   4.852   2.324
 7952SOL     OW24754   6.864   3.233   6.826
 7952SOL    HW124755   6.777   3.227   6.875
 7952SOL    HW224756   6.849   3.213   6.729
 7953SOL     OW24757   3.869   2.147   2.800
 7953SOL    HW124758   3.876   2.149   2.700
 7953SOL    HW224759   3.777   2.176   2.828
 7954SOL     OW24760   2.810   4.395   5.954
 7954SOL    HW124761   2.710   4.401   5.955
 7954SOL    HW224762   2.841   4.376   5.861
 7955SOL     OW24763   2.519   1.086   6.453
 7955SOL    HW124764   2.591   1.078   6.384
 7955SOL    HW224765   2.437   1.038   6.422
 7956SOL     OW24766   5.174   0.033   1.950
 7956SOL    HW124767   5.226   0.075   2.025
 7956SOL    HW224768   5.078   0.026   1.977
 7957SOL     OW24769   1.407   0.460   0.405
 7957SOL    HW124770   1.319   0.507   0.393
 7957SOL    HW224771   1.460   0.507   0.476
 7958SOL     OW24772   4.484   4.978   6.081
 7958SOL    HW124773   4.430   5.058   6.106
 7958SOL    HW224774   4.495   4.918   6.160
 7959SOL     OW24775   5.361   6.198   1.176
 7959SOL    HW124776   5.350   6.158   1.268
 7959SOL    HW224777   5.443   6.161   1.133
 7960SOL     OW24778   1.819   0.655   5.745
 7960SOL    HW124779   1.866   0.743   5.748
 7960SOL    HW224780   1.755   0.649   5.821
 7961SOL     OW24781   6.894   0.970   0.551
 7961SOL    HW124782   6.973   0.917   0.519
 7961SOL    HW224783   6.838   0.914   0.612
 7962SOL     OW24784   1.060   1.145   5.631
 7962SOL    HW124785   1.052   1.123   5.534
 7962SOL    HW224786   1.150   1.184   5.650
 7963SOL     OW24787   5.946   6.117   4.369
 7963SOL    HW124788   6.016   6.180   4.403
 7963SOL    HW224789   5.865   6.123   4.426
 7964SOL     OW24790   6.975   4.073   2.869
 7964SOL    HW124791   0.021   4.127   2.917
 7964SOL    HW224792   6.973   4.100   2.773
 7965SOL     OW24793   4.456   2.272   5.940
 7965SOL    HW124794   4.414   2.208   6.004
 7965SOL    HW224795   4.549   2.241   5.919
 7966SOL     OW24796   2.918   2.555   5.773
 7966SOL    HW124797   3.015   2.535   5.777
 7966SOL    HW224798   2.880   2.521   5.686
 7967SOL     OW24799   3.462   6.214   1.985
 7967SOL    HW124800   3.557   6.224   2.014
 7967SOL    HW224801   3.413   6.299   2.003
 7968SOL     OW24802   0.365   2.333   4.144
 7968SOL    HW124803   0.451   2.286   4.125
 7968SOL    HW224804   0.289   2.269   4.137
 7969SOL     OW24805   5.217   5.918   0.572
 7969SOL    HW124806   5.261   5.835   0.538
 7969SOL    HW224807   5.118   5.909   0.563
 7970SOL     OW24808   6.573   2.532   2.037
 7970SOL    HW124809   6.490   2.543   2.091
 7970SOL    HW224810   6.591   2.615   1.985
 7971SOL     OW24811   3.342   1.793   1.209
 7971SOL    HW124812   3.365   1.830   1.299
 7971SOL    HW224813   3.409   1.723   1.184
 7972SOL     OW24814   2.640   3.211   0.508
 7972SOL    HW124815   2.636   3.207   0.607
 7972SOL    HW224816   2.726   3.171   0.476
 7973SOL     OW24817   4.309   4.770   4.572
 7973SOL    HW124818   4.292   4.796   4.668
 7973SOL    HW224819   4.228   4.793   4.517
 7974SOL     OW24820   5.844   0.858   5.337
 7974SOL    HW124821   5.930   0.807   5.344
 7974SOL    HW224822   5.800   0.862   5.427
 7975SOL     OW24823   6.642   1.162   1.638
 7975SOL    HW124824   6.547   1.131   1.636
 7975SOL    HW224825   6.695   1.109   1.572
 7976SOL     OW24826   1.220   0.376   6.056
 7976SOL    HW124827   1.228   0.470   6.023
 7976SOL    HW224828   1.125   0.358   6.082
 7977SOL     OW24829   4.175   5.674   3.323
 7977SOL    HW124830   4.224   5.711   3.244
 7977SOL    HW224831   4.237   5.664   3.400
 7978SOL     OW24832   6.144   2.428   6.070
 7978SOL    HW124833   6.145   2.462   5.976
 7978SOL    HW224834   6.088   2.489   6.126
 7979SOL     OW24835   3.600   4.977   5.624
 7979SOL    HW124836   3.542   5.056   5.606
 7979SOL    HW224837   3.644   4.988   5.713
 7980SOL     OW24838   3.179   5.662   6.581
 7980SOL    HW124839   3.263   5.634   6.536
 7980SOL    HW224840   3.121   5.713   6.517
 7981SOL     OW24841   0.833   5.048   1.568
 7981SOL    HW124842   0.899   4.976   1.586
 7981SOL    HW224843   0.762   5.014   1.506
 7982SOL     OW24844   1.816   1.149   0.408
 7982SOL    HW124845   1.789   1.068   0.460
 7982SOL    HW224846   1.734   1.200   0.380
 7983SOL     OW24847   5.971   2.381   0.675
 7983SOL    HW124848   6.036   2.372   0.750
 7983SOL    HW224849   5.970   2.476   0.643
 7984SOL     OW24850   1.484   1.050   1.011
 7984SOL    HW124851   1.411   1.009   0.956
 7984SOL    HW224852   1.444   1.100   1.088
 7985SOL     OW24853   2.485   1.199   3.976
 7985SOL    HW124854   2.404   1.226   4.027
 7985SOL    HW224855   2.537   1.280   3.951
 7986SOL     OW24856   2.725   0.791   6.390
 7986SOL    HW124857   2.757   0.876   6.431
 7986SOL    HW224858   2.635   0.805   6.350
 7987SOL     OW24859   1.656   2.525   6.741
 7987SOL    HW124860   1.587   2.569   6.799
 7987SOL    HW224861   1.721   2.476   6.799
 7988SOL     OW24862   0.861   1.768   2.961
 7988SOL    HW124863   0.895   1.820   3.039
 7988SOL    HW224864   0.773   1.726   2.985
 7989SOL     OW24865   2.490   3.328   0.088
 7989SOL    HW124866   2.537   3.339   0.175
 7989SOL    HW224867   2.505   3.410   0.032
 7990SOL     OW24868   1.266   4.946   4.760
 7990SOL    HW124869   1.326   4.902   4.827
 7990SOL    HW224870   1.251   5.042   4.786
 7991SOL     OW24871   5.987   0.320   3.308
 7991SOL    HW124872   5.938   0.237   3.335
 7991SOL    HW224873   6.062   0.338   3.372
 7992SOL     OW24874   1.316   0.333   0.653
 7992SOL    HW124875   1.246   0.273   0.693
 7992SOL    HW224876   1.305   0.335   0.554
 7993SOL     OW24877   0.557   6.780   0.652
 7993SOL    HW124878   0.625   6.783   0.724
 7993SOL    HW224879   0.570   6.697   0.597
 7994SOL     OW24880   3.831   0.153   3.707
 7994SOL    HW124881   3.901   0.215   3.744
 7994SOL    HW224882   3.755   0.207   3.672
 7995SOL     OW24883   6.186   5.392   3.547
 7995SOL    HW124884   6.216   5.482   3.578
 7995SOL    HW224885   6.086   5.390   3.541
 7996SOL     OW24886   2.953   6.647   4.460
 7996SOL    HW124887   2.882   6.636   4.389
 7996SOL    HW224888   3.036   6.600   4.430
 7997SOL     OW24889   0.282   1.162   1.097
 7997SOL    HW124890   0.352   1.183   1.028
 7997SOL    HW224891   0.321   1.101   1.166
 7998SOL     OW24892   2.494   0.251   0.301
 7998SOL    HW124893   2.440   0.170   0.324
 7998SOL    HW224894   2.589   0.224   0.283
 7999SOL     OW24895   1.274   0.641   5.978
 7999SOL    HW124896   1.365   0.608   5.954
 7999SOL    HW224897   1.238   0.698   5.904
 8000SOL     OW24898   4.798   0.072   6.589
 8000SOL    HW124899   4.863   0.135   6.631
 8000SOL    HW224900   4.804   0.079   6.489
 8001SOL     OW24901   4.204   6.561   1.504
 8001SOL    HW124902   4.149   6.477   1.507
 8001SOL    HW224903   4.143   6.640   1.491
 8002SOL     OW24904   2.541   0.621   6.678
 8002SOL    HW124905   2.539   0.720   6.670
 8002SOL    HW224906   2.522   0.579   6.590
 8003SOL     OW24907   2.591   5.541   2.334
 8003SOL    HW124908   2.499   5.579   2.346
 8003SOL    HW224909   2.629   5.570   2.247
 8004SOL     OW24910   2.183   2.793   2.733
 8004SOL    HW124911   2.246   2.815   2.807
 8004SOL    HW224912   2.210   2.706   2.691
 8005SOL     OW24913   3.229   1.279   3.193
 8005SOL    HW124914   3.251   1.334   3.112
 8005SOL    HW224915   3.290   1.306   3.268
 8006SOL     OW24916   2.233   6.660   5.759
 8006SOL    HW124917   2.286   6.709   5.829
 8006SOL    HW224918   2.270   6.567   5.749
 8007SOL     OW24919   5.940   1.614   5.775
 8007SOL    HW124920   5.862   1.566   5.734
 8007SOL    HW224921   5.951   1.703   5.730
 8008SOL     OW24922   4.494   5.915   6.591
 8008SOL    HW124923   4.524   6.003   6.554
 8008SOL    HW224924   4.551   5.891   6.670
 8009SOL     OW24925   5.719   0.464   1.327
 8009SOL    HW124926   5.787   0.527   1.363
 8009SOL    HW224927   5.687   0.497   1.238
 8010SOL     OW24928   2.326   0.948   5.370
 8010SOL    HW124929   2.245   0.893   5.389
 8010SOL    HW224930   2.307   1.009   5.293
 8011SOL     OW24931   3.315   2.507   1.059
 8011SOL    HW124932   3.277   2.434   1.003
 8011SOL    HW224933   3.262   2.515   1.143
 8012SOL     OW24934   2.154   3.677   0.278
 8012SOL    HW124935   2.164   3.633   0.189
 8012SOL    HW224936   2.075   3.739   0.277
 8013SOL     OW24937   1.576   5.196   2.961
 8013SOL    HW124938   1.536   5.287   2.971
 8013SOL    HW224939   1.506   5.132   2.932
 8014SOL     OW24940   0.924   6.656   4.670
 8014SOL    HW124941   0.896   6.572   4.624
 8014SOL    HW224942   1.023   6.663   4.669
 8015SOL     OW24943   2.734   0.581   6.092
 8015SOL    HW124944   2.743   0.521   6.171
 8015SOL    HW224945   2.821   0.628   6.075
 8016SOL     OW24946   3.962   0.281   5.581
 8016SOL    HW124947   3.877   0.259   5.534
 8016SOL    HW224948   4.040   0.248   5.528
 8017SOL     OW24949   5.418   7.006   0.460
 8017SOL    HW124950   5.388   6.917   0.425
 8017SOL    HW224951   5.451   6.996   0.554
 8018SOL     OW24952   3.063   1.770   0.050
 8018SOL    HW124953   3.141   1.747   7.015
 8018SOL    HW224954   3.023   1.857   0.019
 8019SOL     OW24955   2.792   4.700   1.044
 8019SOL    HW124956   2.725   4.633   1.076
 8019SOL    HW224957   2.754   4.754   0.970
 8020SOL     OW24958   6.326   0.257   6.757
 8020SOL    HW124959   6.339   0.194   6.681
 8020SOL    HW224960   6.246   0.315   6.740
 8021SOL     OW24961   1.454   2.589   0.674
 8021SOL    HW124962   1.371   2.597   0.729
 8021SOL    HW224963   1.532   2.620   0.728
 8022SOL     OW24964   5.891   0.434   2.241
 8022SOL    HW124965   5.908   0.447   2.339
 8022SOL    HW224966   5.931   0.347   2.212
 8023SOL     OW24967   6.162   5.071   3.158
 8023SOL    HW124968   6.088   5.007   3.178
 8023SOL    HW224969   6.128   5.165   3.165
 8024SOL     OW24970   1.325   4.842   6.019
 8024SOL    HW124971   1.395   4.819   6.087
 8024SOL    HW224972   1.323   4.941   6.005
 8025SOL     OW24973   2.174   5.719   0.434
 8025SOL    HW124974   2.157   5.693   0.338
 8025SOL    HW224975   2.105   5.675   0.492
 8026SOL     OW24976   6.941   4.266   0.319
 8026SOL    HW124977   6.884   4.320   0.380
 8026SOL    HW224978   6.964   4.319   0.238
 8027SOL     OW24979   4.189   0.237   4.996
 8027SOL    HW124980   4.173   0.140   5.018
 8027SOL    HW224981   4.188   0.249   4.897
 8028SOL     OW24982   4.008   5.719   5.710
 8028SOL    HW124983   4.038   5.650   5.644
 8028SOL    HW224984   3.926   5.687   5.758
 8029SOL     OW24985   5.727   3.041   1.020
 8029SOL    HW124986   5.821   3.018   1.046
 8029SOL    HW224987   5.676   3.068   1.102
 8030SOL     OW24988   5.030   4.947   0.537
 8030SOL    HW124989   4.963   4.900   0.595
 8030SOL    HW224990   4.984   5.017   0.483
 8031SOL     OW24991   6.338   6.639   2.381
 8031SOL    HW124992   6.339   6.715   2.445
 8031SOL    HW224993   6.251   6.590   2.388
 8032SOL     OW24994   6.556   4.640   1.438
 8032SOL    HW124995   6.630   4.645   1.506
 8032SOL    HW224996   6.581   4.692   1.357
 8033SOL     OW24997   4.642   2.166   6.572
 8033SOL    HW124998   4.568   2.154   6.638
 8033SOL    HW224999   4.710   2.094   6.585
 8034SOL     OW25000   4.671   0.858   5.003
 8034SOL    HW125001   4.627   0.769   4.993
 8034SOL    HW225002   4.604   0.930   4.984
 8035SOL     OW25003   5.792   1.504   3.087
 8035SOL    HW125004   5.824   1.448   3.010
 8035SOL    HW225005   5.712   1.556   3.059
 8036SOL     OW25006   6.566   4.040   3.754
 8036SOL    HW125007   6.489   4.015   3.813
 8036SOL    HW225008   6.535   4.046   3.660
 8037SOL     OW25009   1.997   3.062   6.927
 8037SOL    HW125010   2.072   3.076   6.863
 8037SOL    HW225011   2.029   3.008   7.005
 8038SOL     OW25012   4.652   0.635   2.630
 8038SOL    HW125013   4.627   0.705   2.697
 8038SOL    HW225014   4.610   0.657   2.542
 8039SOL     OW25015   0.266   1.465   5.366
 8039SOL    HW125016   0.364   1.455   5.382
 8039SOL    HW225017   0.225   1.375   5.356
 8040SOL     OW25018   1.564   5.530   0.295
 8040SOL    HW125019   1.660   5.526   0.264
 8040SOL    HW225020   1.511   5.463   0.243
 8041SOL     OW25021   3.094   1.043   3.126
 8041SOL    HW125022   3.135   1.134   3.131
 8041SOL    HW225023   3.059   1.027   3.033
 8042SOL     OW25024   3.802   2.923   4.676
 8042SOL    HW125025   3.803   2.966   4.766
 8042SOL    HW225026   3.756   2.834   4.682
 8043SOL     OW25027   3.506   6.498   1.064
 8043SOL    HW125028   3.492   6.522   0.967
 8043SOL    HW225029   3.435   6.542   1.119
 8044SOL     OW25030   4.693   2.920   0.899
 8044SOL    HW125031   4.605   2.943   0.858
 8044SOL    HW225032   4.686   2.927   0.998
 8045SOL     OW25033   6.287   2.233   2.822
 8045SOL    HW125034   6.301   2.178   2.904
 8045SOL    HW225035   6.207   2.292   2.833
 8046SOL     OW25036   0.711   4.606   1.766
 8046SOL    HW125037   0.627   4.560   1.739
 8046SOL    HW225038   0.692   4.702   1.787
 8047SOL     OW25039   4.403   5.582   6.209
 8047SOL    HW125040   4.468   5.620   6.275
 8047SOL    HW225041   4.336   5.524   6.257
 8048SOL     OW25042   4.298   1.741   0.008
 8048SOL    HW125043   4.250   1.791   6.959
 8048SOL    HW225044   4.238   1.731   0.088
 8049SOL     OW25045   0.933   0.218   6.743
 8049SOL    HW125046   0.989   0.293   6.777
 8049SOL    HW225047   0.849   0.254   6.702
 8050SOL     OW25048   1.890   3.495   3.191
 8050SOL    HW125049   1.806   3.441   3.197
 8050SOL    HW225050   1.870   3.591   3.207
 8051SOL     OW25051   4.830   5.679   4.265
 8051SOL    HW125052   4.776   5.763   4.273
 8051SOL    HW225053   4.927   5.701   4.268
 8052SOL     OW25054   3.122   1.600   1.257
 8052SOL    HW125055   3.121   1.539   1.178
 8052SOL    HW225056   3.189   1.674   1.242
 8053SOL     OW25057   3.509   2.897   4.460
 8053SOL    HW125058   3.477   2.871   4.551
 8053SOL    HW225059   3.431   2.931   4.406
 8054SOL     OW25060   6.653   4.622   5.239
 8054SOL    HW125061   6.634   4.716   5.208
 8054SOL    HW225062   6.687   4.568   5.162
 8055SOL     OW25063   0.269   0.337   5.443
 8055SOL    HW125064   0.218   0.385   5.515
 8055SOL    HW225065   0.262   0.239   5.457
 8056SOL     OW25066   2.404   0.793   3.884
 8056SOL    HW125067   2.458   0.710   3.896
 8056SOL    HW225068   2.382   0.831   3.974
 8057SOL     OW25069   2.751   2.327   2.943
 8057SOL    HW125070   2.714   2.419   2.930
 8057SOL    HW225071   2.737   2.273   2.860
 8058SOL     OW25072   3.367   0.085   3.610
 8058SOL    HW125073   3.375   7.009   3.625
 8058SOL    HW225074   3.313   0.125   3.684
 8059SOL     OW25075   2.505   2.100   4.236
 8059SOL    HW125076   2.536   2.017   4.283
 8059SOL    HW225077   2.521   2.179   4.294
 8060SOL     OW25078   6.384   2.327   6.198
 8060SOL    HW125079   6.447   2.384   6.146
 8060SOL    HW225080   6.290   2.359   6.183
 8061SOL     OW25081   6.870   0.092   2.886
 8061SOL    HW125082   6.836   0.022   2.823
 8061SOL    HW225083   6.806   0.169   2.887
 8062SOL     OW25084   3.163   4.912   4.441
 8062SOL    HW125085   3.089   4.860   4.398
 8062SOL    HW225086   3.167   4.890   4.539
 8063SOL     OW25087   2.344   2.086   2.689
 8063SOL    HW125088   2.373   2.161   2.749
 8063SOL    HW225089   2.424   2.042   2.649
 8064SOL     OW25090   6.523   2.465   0.823
 8064SOL    HW125091   6.484   2.401   0.757
 8064SOL    HW225092   6.498   2.558   0.797
 8065SOL     OW25093   2.746   5.730   3.891
 8065SOL    HW125094   2.676   5.801   3.888
 8065SOL    HW225095   2.766   5.706   3.986
 8066SOL     OW25096   0.519   1.402   5.408
 8066SOL    HW125097   0.490   1.314   5.446
 8066SOL    HW225098   0.608   1.427   5.446
 8067SOL     OW25099   5.194   2.784   2.948
 8067SOL    HW125100   5.196   2.832   2.860
 8067SOL    HW225101   5.108   2.733   2.957
 8068SOL     OW25102   6.808   4.693   1.511
 8068SOL    HW125103   6.905   4.668   1.516
 8068SOL    HW225104   6.800   4.787   1.480
 8069SOL     OW25105   2.289   5.398   0.862
 8069SOL    HW125106   2.368   5.339   0.875
 8069SOL    HW225107   2.314   5.475   0.804
 8070SOL     OW25108   4.204   3.241   0.793
 8070SOL    HW125109   4.194   3.218   0.696
 8070SOL    HW225110   4.119   3.284   0.825
 8071SOL     OW25111   3.363   6.428   4.900
 8071SOL    HW125112   3.423   6.505   4.877
 8071SOL    HW225113   3.364   6.361   4.826
 8072SOL     OW25114   4.088   1.252   0.762
 8072SOL    HW125115   4.118   1.162   0.792
 8072SOL    HW225116   4.128   1.322   0.820
 8073SOL     OW25117   3.088   5.167   5.126
 8073SOL    HW125118   3.070   5.069   5.122
 8073SOL    HW225119   3.185   5.184   5.108
 8074SOL     OW25120   2.866   3.099   0.847
 8074SOL    HW125121   2.804   3.023   0.827
 8074SOL    HW225122   2.880   3.154   0.764
 8075SOL     OW25123   6.478   6.909   0.372
 8075SOL    HW125124   6.567   6.908   0.417
 8075SOL    HW225125   6.430   6.994   0.393
 8076SOL     OW25126   6.037   0.693   5.425
 8076SOL    HW125127   6.097   0.672   5.503
 8076SOL    HW225128   5.973   0.617   5.412
 8077SOL     OW25129   3.359   6.167   2.678
 8077SOL    HW125130   3.315   6.207   2.598
 8077SOL    HW225131   3.291   6.114   2.730
 8078SOL     OW25132   6.885   1.752   0.665
 8078SOL    HW125133   6.872   1.715   0.573
 8078SOL    HW225134   6.912   1.848   0.658
 8079SOL     OW25135   6.220   1.680   3.732
 8079SOL    HW125136   6.226   1.634   3.821
 8079SOL    HW225137   6.255   1.620   3.661
 8080SOL     OW25138   0.791   2.893   2.316
 8080SOL    HW125139   0.713   2.873   2.376
 8080SOL    HW225140   0.875   2.862   2.359
 8081SOL     OW25141   6.055   5.426   6.136
 8081SOL    HW125142   6.046   5.461   6.230
 8081SOL    HW225143   6.133   5.470   6.091
 8082SOL     OW25144   4.320   0.632   1.947
 8082SOL    HW125145   4.377   0.554   1.923
 8082SOL    HW225146   4.366   0.688   2.016
 8083SOL     OW25147   4.917   3.071   2.871
 8083SOL    HW125148   5.009   3.108   2.855
 8083SOL    HW225149   4.895   3.076   2.968
 8084SOL     OW25150   3.878   6.216   0.128
 8084SOL    HW125151   3.801   6.156   0.148
 8084SOL    HW225152   3.858   6.269   0.046
 8085SOL     OW25153   6.199   6.369   1.959
 8085SOL    HW125154   6.194   6.285   2.014
 8085SOL    HW225155   6.248   6.439   2.011
 8086SOL     OW25156   6.749   0.571   2.255
 8086SOL    HW125157   6.692   0.510   2.310
 8086SOL    HW225158   6.768   0.654   2.307
 8087SOL     OW25159   2.279   0.250   0.089
 8087SOL    HW125160   2.201   0.190   0.109
 8087SOL    HW225161   2.334   0.263   0.172
 8088SOL     OW25162   6.194   1.184   1.419
 8088SOL    HW125163   6.142   1.105   1.386
 8088SOL    HW225164   6.252   1.219   1.344
 8089SOL     OW25165   5.847   2.569   0.891
 8089SOL    HW125166   5.775   2.608   0.949
 8089SOL    HW225167   5.876   2.482   0.929
 8090SOL     OW25168   4.210   1.327   6.641
 8090SOL    HW125169   4.272   1.249   6.645
 8090SOL    HW225170   4.235   1.394   6.711
 8091SOL     OW25171   2.112   3.987   4.817
 8091SOL    HW125172   2.176   3.979   4.740
 8091SOL    HW225173   2.159   4.030   4.894
 8092SOL     OW25174   5.755   1.885   5.129
 8092SOL    HW125175   5.792   1.978   5.133
 8092SOL    HW225176   5.716   1.861   5.218
 8093SOL     OW25177   3.321   4.915   2.887
 8093SOL    HW125178   3.411   4.926   2.930
 8093SOL    HW225179   3.306   4.991   2.824
 8094SOL     OW25180   0.673   3.110   4.797
 8094SOL    HW125181   0.765   3.150   4.803
 8094SOL    HW225182   0.680   3.011   4.798
 8095SOL     OW25183   7.010   4.874   4.499
 8095SOL    HW125184   6.936   4.940   4.513
 8095SOL    HW225185   6.993   4.794   4.557
 8096SOL     OW25186   2.053   6.557   3.035
 8096SOL    HW125187   2.133   6.515   2.990
 8096SOL    HW225188   2.074   6.651   3.060
 8097SOL     OW25189   3.807   6.483   4.350
 8097SOL    HW125190   3.718   6.485   4.395
 8097SOL    HW225191   3.868   6.550   4.394
 8098SOL     OW25192   1.847   6.438   3.186
 8098SOL    HW125193   1.885   6.457   3.277
 8098SOL    HW225194   1.915   6.460   3.116
 8099SOL     OW25195   3.940   5.746   4.984
 8099SOL    HW125196   3.888   5.829   4.969
 8099SOL    HW225197   4.025   5.768   5.033
 8100SOL     OW25198   0.294   0.256   6.990
 8100SOL    HW125199   0.357   0.290   6.920
 8100SOL    HW225200   0.256   0.333   0.019
 8101SOL     OW25201   2.055   5.880   2.365
 8101SOL    HW125202   2.128   5.948   2.373
 8101SOL    HW225203   2.041   5.834   2.452
 8102SOL     OW25204   0.634   3.866   3.538
 8102SOL    HW125205   0.626   3.904   3.631
 8102SOL    HW225206   0.717   3.901   3.495
 8103SOL     OW25207   3.061   6.952   1.341
 8103SOL    HW125208   3.152   6.988   1.319
 8103SOL    HW225209   3.070   6.863   1.385
 8104SOL     OW25210   2.219   0.295   5.607
 8104SOL    HW125211   2.171   0.379   5.631
 8104SOL    HW225212   2.178   0.218   5.656
 8105SOL     OW25213   0.470   3.167   3.067
 8105SOL    HW125214   0.513   3.201   3.150
 8105SOL    HW225215   0.417   3.085   3.088
 8106SOL     OW25216   3.092   6.305   2.884
 8106SOL    HW125217   3.174   6.272   2.837
 8106SOL    HW225218   3.079   6.402   2.866
 8107SOL     OW25219   1.147   5.071   4.284
 8107SOL    HW125220   1.138   5.026   4.373
 8107SOL    HW225221   1.225   5.033   4.235
 8108SOL     OW25222   6.231   2.891   5.514
 8108SOL    HW125223   6.268   2.972   5.467
 8108SOL    HW225224   6.300   2.855   5.577
 8109SOL     OW25225   0.417   4.261   5.377
 8109SOL    HW125226   0.347   4.240   5.445
 8109SOL    HW225227   0.373   4.299   5.295
 8110SOL     OW25228   4.147   6.210   1.827
 8110SOL    HW125229   4.053   6.220   1.859
 8110SOL    HW225230   4.198   6.294   1.845
 8111SOL     OW25231   5.130   1.333   4.262
 8111SOL    HW125232   5.073   1.404   4.306
 8111SOL    HW225233   5.220   1.371   4.242
 8112SOL     OW25234   2.566   2.247   4.022
 8112SOL    HW125235   2.530   2.172   4.078
 8112SOL    HW225236   2.601   2.210   3.936
 8113SOL     OW25237   1.661   3.742   0.330
 8113SOL    HW125238   1.678   3.685   0.411
 8113SOL    HW225239   1.669   3.686   0.248
 8114SOL     OW25240   1.625   4.124   2.996
 8114SOL    HW125241   1.679   4.100   2.915
 8114SOL    HW225242   1.601   4.221   2.993
 8115SOL     OW25243   3.505   0.066   6.875
 8115SOL    HW125244   3.407   0.072   6.856
 8115SOL    HW225245   3.547   0.155   6.856
 8116SOL     OW25246   4.305   4.601   6.652
 8116SOL    HW125247   4.373   4.557   6.710
 8116SOL    HW225248   4.283   4.541   6.575
 8117SOL     OW25249   1.813   0.081   3.533
 8117SOL    HW125250   1.817   0.074   3.433
 8117SOL    HW225251   1.734   0.031   3.567
 8118SOL     OW25252   5.062   4.722   0.011
 8118SOL    HW125253   5.144   4.734   0.066
 8118SOL    HW225254   5.076   4.649   6.967
 8119SOL     OW25255   5.324   5.514   6.523
 8119SOL    HW125256   5.252   5.458   6.565
 8119SOL    HW225257   5.282   5.580   6.460
 8120SOL     OW25258   3.143   4.886   0.833
 8120SOL    HW125259   3.164   4.842   0.746
 8120SOL    HW225260   3.067   4.950   0.821
 8121SOL     OW25261   6.893   5.168   2.315
 8121SOL    HW125262   6.966   5.235   2.308
 8121SOL    HW225263   6.870   5.153   2.412
 8122SOL     OW25264   0.593   5.103   3.305
 8122SOL    HW125265   0.668   5.044   3.334
 8122SOL    HW225266   0.620   5.199   3.318
 8123SOL     OW25267   6.937   1.935   6.677
 8123SOL    HW125268   6.848   1.932   6.630
 8123SOL    HW225269   6.933   1.999   6.754
 8124SOL     OW25270   5.816   6.096   1.528
 8124SOL    HW125271   5.737   6.116   1.586
 8124SOL    HW225272   5.799   6.128   1.435
 8125SOL     OW25273   1.147   1.677   3.177
 8125SOL    HW125274   1.194   1.649   3.260
 8125SOL    HW225275   1.206   1.740   3.125
 8126SOL     OW25276   4.712   4.304   2.663
 8126SOL    HW125277   4.798   4.350   2.681
 8126SOL    HW225278   4.696   4.234   2.733
 8127SOL     OW25279   2.448   4.543   6.673
 8127SOL    HW125280   2.540   4.552   6.634
 8127SOL    HW225281   2.437   4.452   6.711
 8128SOL     OW25282   2.607   1.916   2.069
 8128SOL    HW125283   2.631   2.013   2.079
 8128SOL    HW225284   2.524   1.897   2.121
 8129SOL     OW25285   3.949   0.424   6.309
 8129SOL    HW125286   4.014   0.381   6.372
 8129SOL    HW225287   3.974   0.520   6.297
 8130SOL     OW25288   0.472   3.367   6.428
 8130SOL    HW125289   0.532   3.357   6.507
 8130SOL    HW225290   0.385   3.321   6.446
 8131SOL     OW25291   2.672   2.074   1.449
 8131SOL    HW125292   2.690   2.038   1.540
 8131SOL    HW225293   2.599   2.142   1.453
 8132SOL     OW25294   5.911   6.899   6.166
 8132SOL    HW125295   5.937   6.818   6.220
 8132SOL    HW225296   5.884   6.973   6.228
 8133SOL     OW25297   3.448   5.605   1.486
 8133SOL    HW125298   3.404   5.564   1.406
 8133SOL    HW225299   3.409   5.697   1.501
 8134SOL     OW25300   6.544   2.806   5.852
 8134SOL    HW125301   6.459   2.754   5.853
 8134SOL    HW225302   6.571   2.825   5.757
 8135SOL     OW25303   2.865   6.661   1.508
 8135SOL    HW125304   2.822   6.573   1.487
 8135SOL    HW225305   2.797   6.734   1.504
 8136SOL     OW25306   4.392   5.434   3.130
 8136SOL    HW125307   4.462   5.386   3.184
 8136SOL    HW225308   4.303   5.390   3.143
 8137SOL     OW25309   3.461   1.975   4.860
 8137SOL    HW125310   3.469   2.008   4.954
 8137SOL    HW225311   3.376   1.923   4.851
 8138SOL     OW25312   4.996   1.083   0.744
 8138SOL    HW125313   5.079   1.132   0.771
 8138SOL    HW225314   4.938   1.144   0.689
 8139SOL     OW25315   0.113   1.237   2.179
 8139SOL    HW125316   0.145   1.303   2.111
 8139SOL    HW225317   0.077   1.156   2.132
 8140SOL     OW25318   5.307   0.375   0.496
 8140SOL    HW125319   5.315   0.357   0.594
 8140SOL    HW225320   5.270   0.467   0.482
 8141SOL     OW25321   4.361   6.128   4.998
 8141SOL    HW125322   4.387   6.171   4.911
 8141SOL    HW225323   4.265   6.144   5.016
 8142SOL     OW25324   0.815   5.363   0.250
 8142SOL    HW125325   0.826   5.429   0.175
 8142SOL    HW225326   0.893   5.371   0.313
 8143SOL     OW25327   5.748   4.349   1.193
 8143SOL    HW125328   5.798   4.265   1.213
 8143SOL    HW225329   5.651   4.327   1.180
 8144SOL     OW25330   6.181   6.264   6.528
 8144SOL    HW125331   6.163   6.297   6.620
 8144SOL    HW225332   6.265   6.306   6.493
 8145SOL     OW25333   5.762   5.748   1.613
 8145SOL    HW125334   5.663   5.760   1.615
 8145SOL    HW225335   5.783   5.652   1.631
 8146SOL     OW25336   4.366   0.923   4.424
 8146SOL    HW125337   4.451   0.872   4.438
 8146SOL    HW225338   4.317   0.887   4.345
 8147SOL     OW25339   5.761   1.705   1.357
 8147SOL    HW125340   5.774   1.621   1.409
 8147SOL    HW225341   5.747   1.683   1.260
 8148SOL     OW25342   5.156   4.285   1.229
 8148SOL    HW125343   5.157   4.242   1.139
 8148SOL    HW225344   5.063   4.316   1.251
 8149SOL     OW25345   2.924   5.919   2.114
 8149SOL    HW125346   2.915   5.916   2.014
 8149SOL    HW225347   2.995   5.855   2.142
 8150SOL     OW25348   1.689   3.928   0.681
 8150SOL    HW125349   1.679   3.976   0.594
 8150SOL    HW225350   1.700   3.994   0.755
 8151SOL     OW25351   5.976   2.366   1.511
 8151SOL    HW125352   5.930   2.361   1.423
 8151SOL    HW225353   6.034   2.286   1.523
 8152SOL     OW25354   0.182   1.809   2.742
 8152SOL    HW125355   0.224   1.737   2.796
 8152SOL    HW225356   0.252   1.872   2.708
 8153SOL     OW25357   1.988   0.083   3.765
 8153SOL    HW125358   2.076   0.127   3.747
 8153SOL    HW225359   1.938   0.072   3.680
 8154SOL     OW25360   3.089   4.817   2.309
 8154SOL    HW125361   3.112   4.768   2.393
 8154SOL    HW225362   2.989   4.820   2.298
 8155SOL     OW25363   1.586   3.651   1.601
 8155SOL    HW125364   1.607   3.570   1.657
 8155SOL    HW225365   1.662   3.716   1.607
 8156SOL     OW25366   4.867   0.214   0.752
 8156SOL    HW125367   4.794   0.190   0.817
 8156SOL    HW225368   4.880   0.139   0.688
 8157SOL     OW25369   0.166   5.511   6.674
 8157SOL    HW125370   0.131   5.511   6.580
 8157SOL    HW225371   0.249   5.454   6.679
 8158SOL     OW25372   4.819   5.207   0.631
 8158SOL    HW125373   4.824   5.168   0.540
 8158SOL    HW225374   4.730   5.188   0.672
 8159SOL     OW25375   3.088   5.733   2.211
 8159SOL    HW125376   3.034   5.654   2.239
 8159SOL    HW225377   3.181   5.724   2.244
 8160SOL     OW25378   5.242   1.091   3.323
 8160SOL    HW125379   5.293   1.008   3.301
 8160SOL    HW225380   5.233   1.147   3.241
 8161SOL     OW25381   5.330   2.101   6.485
 8161SOL    HW125382   5.379   2.065   6.406
 8161SOL    HW225383   5.317   2.200   6.474
 8162SOL     OW25384   5.997   6.205   5.977
 8162SOL    HW125385   5.912   6.232   6.023
 8162SOL    HW225386   6.073   6.260   6.011
 8163SOL     OW25387   2.618   4.012   5.302
 8163SOL    HW125388   2.604   3.933   5.362
 8163SOL    HW225389   2.545   4.015   5.234
 8164SOL     OW25390   5.484   3.279   0.918
 8164SOL    HW125391   5.397   3.233   0.900
 8164SOL    HW225392   5.559   3.219   0.891
 8165SOL     OW25393   1.134   4.683   6.503
 8165SOL    HW125394   1.106   4.628   6.425
 8165SOL    HW225395   1.232   4.701   6.498
 8166SOL     OW25396   1.539   0.173   2.230
 8166SOL    HW125397   1.468   0.218   2.284
 8166SOL    HW225398   1.508   0.165   2.135
 8167SOL     OW25399   6.217   6.839   4.807
 8167SOL    HW125400   6.272   6.922   4.819
 8167SOL    HW225401   6.120   6.861   4.819
 8168SOL     OW25402   2.390   1.659   3.569
 8168SOL    HW125403   2.416   1.573   3.613
 8168SOL    HW225404   2.307   1.694   3.612
 8169SOL     OW25405   4.469   2.379   1.560
 8169SOL    HW125406   4.554   2.363   1.611
 8169SOL    HW225407   4.436   2.293   1.522
 8170SOL     OW25408   1.446   5.669   2.562
 8170SOL    HW125409   1.482   5.576   2.565
 8170SOL    HW225410   1.376   5.675   2.491
 8171SOL     OW25411   1.624   1.403   0.282
 8171SOL    HW125412   1.601   1.459   0.362
 8171SOL    HW225413   1.707   1.438   0.240
 8172SOL     OW25414   0.793   1.757   1.784
 8172SOL    HW125415   0.719   1.756   1.717
 8172SOL    HW225416   0.821   1.663   1.803
 8173SOL     OW25417   4.636   0.954   1.738
 8173SOL    HW125418   4.571   0.999   1.800
 8173SOL    HW225419   4.726   0.996   1.748
 8174SOL     OW25420   6.214   2.620   0.743
 8174SOL    HW125421   6.123   2.644   0.709
 8174SOL    HW225422   6.205   2.567   0.828
 8175SOL     OW25423   0.040   3.215   6.066
 8175SOL    HW125424   7.001   3.192   6.142
 8175SOL    HW225425   0.113   3.274   6.099
 8176SOL     OW25426   2.873   5.507   2.368
 8176SOL    HW125427   2.884   5.410   2.385
 8176SOL    HW225428   2.777   5.533   2.383
 8177SOL     OW25429   2.642   6.374   3.507
 8177SOL    HW125430   2.551   6.416   3.501
 8177SOL    HW225431   2.633   6.275   3.505
 8178SOL     OW25432   2.941   6.024   6.546
 8178SOL    HW125433   2.886   6.107   6.552
 8178SOL    HW225434   3.036   6.047   6.526
 8179SOL     OW25435   4.520   2.503   5.779
 8179SOL    HW125436   4.496   2.437   5.851
 8179SOL    HW225437   4.441   2.562   5.761
 8180SOL     OW25438   6.381   0.082   4.618
 8180SOL    HW125439   6.451   0.015   4.644
 8180SOL    HW225440   6.373   0.151   4.690
 8181SOL     OW25441   2.055   1.464   1.774
 8181SOL    HW125442   2.062   1.551   1.822
 8181SOL    HW225443   2.005   1.398   1.831
 8182SOL     OW25444   3.448   2.594   6.311
 8182SOL    HW125445   3.509   2.612   6.234
 8182SOL    HW225446   3.366   2.649   6.302
 8183SOL     OW25447   0.435   3.034   4.288
 8183SOL    HW125448   0.428   2.991   4.378
 8183SOL    HW225449   0.482   2.972   4.225
 8184SOL     OW25450   5.565   2.231   6.090
 8184SOL    HW125451   5.501   2.295   6.133
 8184SOL    HW225452   5.548   2.139   6.124
 8185SOL     OW25453   2.687   6.130   0.206
 8185SOL    HW125454   2.774   6.159   0.169
 8185SOL    HW225455   2.687   6.031   0.220
 8186SOL     OW25456   3.339   5.485   6.440
 8186SOL    HW125457   3.265   5.482   6.373
 8186SOL    HW225458   3.333   5.406   6.501
 8187SOL     OW25459   1.547   1.988   5.569
 8187SOL    HW125460   1.635   2.029   5.546
 8187SOL    HW225461   1.539   1.899   5.525
 8188SOL     OW25462   5.627   2.350   1.985
 8188SOL    HW125463   5.651   2.428   1.928
 8188SOL    HW225464   5.700   2.282   1.981
 8189SOL     OW25465   4.708   4.941   2.717
 8189SOL    HW125466   4.713   4.848   2.680
 8189SOL    HW225467   4.663   5.001   2.651
 8190SOL     OW25468   4.382   5.262   4.318
 8190SOL    HW125469   4.295   5.214   4.325
 8190SOL    HW225470   4.405   5.302   4.407
 8191SOL     OW25471   3.343   5.871   2.972
 8191SOL    HW125472   3.272   5.929   2.934
 8191SOL    HW225473   3.427   5.925   2.986
 8192SOL     OW25474   3.756   5.613   0.519
 8192SOL    HW125475   3.696   5.691   0.498
 8192SOL    HW225476   3.822   5.640   0.590
 8193SOL     OW25477   6.800   6.803   4.238
 8193SOL    HW125478   6.821   6.900   4.227
 8193SOL    HW225479   6.877   6.748   4.203
 8194SOL     OW25480   6.212   2.503   0.392
 8194SOL    HW125481   6.277   2.467   0.326
 8194SOL    HW225482   6.122   2.462   0.377
 8195SOL     OW25483   0.789   0.112   0.874
 8195SOL    HW125484   0.714   0.175   0.858
 8195SOL    HW225485   0.856   0.153   0.936
 8196SOL     OW25486   3.463   0.465   5.509
 8196SOL    HW125487   3.472   0.440   5.413
 8196SOL    HW225488   3.366   0.472   5.532
 8197SOL     OW25489   4.117   1.211   5.787
 8197SOL    HW125490   4.092   1.210   5.884
 8197SOL    HW225491   4.039   1.179   5.732
 8198SOL     OW25492   3.113   6.065   3.190
 8198SOL    HW125493   3.191   6.114   3.153
 8198SOL    HW225494   3.128   6.048   3.288
 8199SOL     OW25495   6.951   3.060   6.299
 8199SOL    HW125496   6.989   2.994   6.364
 8199SOL    HW225497   6.880   3.015   6.245
 8200SOL     OW25498   4.490   3.431   1.650
 8200SOL    HW125499   4.430   3.374   1.594
 8200SOL    HW225500   4.493   3.523   1.611
 8201SOL     OW25501   5.809   0.486   4.355
 8201SOL    HW125502   5.854   0.571   4.381
 8201SOL    HW225503   5.713   0.490   4.381
 8202SOL     OW25504   0.582   5.509   4.305
 8202SOL    HW125505   0.523   5.455   4.244
 8202SOL    HW225506   0.527   5.547   4.379
 8203SOL     OW25507   4.896   2.362   0.495
 8203SOL    HW125508   4.898   2.347   0.396
 8203SOL    HW225509   4.915   2.276   0.542
 8204SOL     OW25510   3.127   5.551   0.861
 8204SOL    HW125511   3.103   5.646   0.846
 8204SOL    HW225512   3.199   5.524   0.797
 8205SOL     OW25513   0.052   4.811   1.079
 8205SOL    HW125514   0.082   4.737   1.140
 8205SOL    HW225515   0.127   4.874   1.063
 8206SOL     OW25516   4.059   2.677   5.948
 8206SOL    HW125517   4.076   2.749   5.880
 8206SOL    HW225518   4.113   2.596   5.926
 8207SOL     OW25519   3.802   4.469   5.301
 8207SOL    HW125520   3.809   4.484   5.399
 8207SOL    HW225521   3.705   4.459   5.276
 8208SOL     OW25522   2.156   6.465   1.641
 8208SOL    HW125523   2.122   6.558   1.625
 8208SOL    HW225524   2.255   6.469   1.660
 8209SOL     OW25525   0.532   1.759   5.579
 8209SOL    HW125526   0.485   1.708   5.651
 8209SOL    HW225527   0.470   1.775   5.503
 8210SOL     OW25528   2.756   0.769   1.772
 8210SOL    HW125529   2.747   0.710   1.852
 8210SOL    HW225530   2.837   0.743   1.719
 8211SOL     OW25531   3.315   3.816   3.479
 8211SOL    HW125532   3.274   3.881   3.544
 8211SOL    HW225533   3.414   3.824   3.482
 8212SOL     OW25534   3.489   1.534   1.414
 8212SOL    HW125535   3.479   1.453   1.473
 8212SOL    HW225536   3.452   1.614   1.461
 8213SOL     OW25537   5.099   4.720   2.631
 8213SOL    HW125538   5.080   4.732   2.534
 8213SOL    HW225539   5.189   4.757   2.652
 8214SOL     OW25540   1.697   5.576   4.134
 8214SOL    HW125541   1.709   5.644   4.206
 8214SOL    HW225542   1.673   5.622   4.049
 8215SOL     OW25543   3.726   5.002   6.684
 8215SOL    HW125544   3.690   4.934   6.748
 8215SOL    HW225545   3.785   5.066   6.733
 8216SOL     OW25546   4.549   0.051   3.013
 8216SOL    HW125547   4.594   0.038   3.102
 8216SOL    HW225548   4.569   0.142   2.979
 8217SOL     OW25549   2.243   3.976   2.034
 8217SOL    HW125550   2.308   3.972   1.958
 8217SOL    HW225551   2.253   3.894   2.090
 8218SOL     OW25552   1.393   6.991   3.702
 8218SOL    HW125553   1.350   0.009   3.783
 8218SOL    HW225554   1.390   0.033   3.626
 8219SOL     OW25555   3.663   3.770   1.569
 8219SOL    HW125556   3.691   3.747   1.662
 8219SOL    HW225557   3.598   3.847   1.572
 8220SOL     OW25558   3.229   4.092   5.619
 8220SOL    HW125559   3.168   4.039   5.678
 8220SOL    HW225560   3.304   4.034   5.587
 8221SOL     OW25561   6.335   4.866   3.296
 8221SOL    HW125562   6.272   4.938   3.271
 8221SOL    HW225563   6.411   4.904   3.349
 8222SOL     OW25564   4.768   2.167   1.348
 8222SOL    HW125565   4.842   2.142   1.410
 8222SOL    HW225566   4.686   2.190   1.402
 8223SOL     OW25567   0.264   4.949   6.237
 8223SOL    HW125568   0.250   4.957   6.139
 8223SOL    HW225569   0.351   4.903   6.255
 8224SOL     OW25570   4.953   1.899   1.711
 8224SOL    HW125571   4.995   1.811   1.731
 8224SOL    HW225572   4.860   1.885   1.676
 8225SOL     OW25573   3.564   1.195   1.272
 8225SOL    HW125574   3.618   1.227   1.194
 8225SOL    HW225575   3.619   1.200   1.355
 8226SOL     OW25576   3.272   0.434   0.773
 8226SOL    HW125577   3.193   0.474   0.821
 8226SOL    HW225578   3.301   0.351   0.820
 8227SOL     OW25579   0.091   1.814   2.472
 8227SOL    HW125580   0.112   1.784   2.565
 8227SOL    HW225581   0.024   1.888   2.474
 8228SOL     OW25582   1.105   1.880   6.159
 8228SOL    HW125583   1.073   1.819   6.086
 8228SOL    HW225584   1.145   1.962   6.117
 8229SOL     OW25585   3.784   4.306   1.313
 8229SOL    HW125586   3.789   4.392   1.363
 8229SOL    HW225587   3.874   4.263   1.311
 8230SOL     OW25588   3.771   6.739   5.385
 8230SOL    HW125589   3.833   6.807   5.346
 8230SOL    HW225590   3.705   6.785   5.446
 8231SOL     OW25591   3.592   2.120   1.714
 8231SOL    HW125592   3.646   2.185   1.661
 8231SOL    HW225593   3.604   2.136   1.811
 8232SOL     OW25594   5.721   2.157   2.599
 8232SOL    HW125595   5.740   2.179   2.503
 8232SOL    HW225596   5.807   2.147   2.649
 8233SOL     OW25597   1.513   6.621   6.338
 8233SOL    HW125598   1.604   6.579   6.330
 8233SOL    HW225599   1.520   6.706   6.391
 8234SOL     OW25600   2.757   3.620   0.196
 8234SOL    HW125601   2.766   3.520   0.203
 8234SOL    HW225602   2.800   3.652   0.112
 8235SOL     OW25603   0.416   3.593   6.833
 8235SOL    HW125604   0.388   3.624   6.923
 8235SOL    HW225605   0.335   3.581   6.775
 8236SOL     OW25606   0.623   5.195   6.241
 8236SOL    HW125607   0.581   5.214   6.330
 8236SOL    HW225608   0.579   5.251   6.170
 8237SOL     OW25609   4.672   6.370   6.522
 8237SOL    HW125610   4.664   6.450   6.582
 8237SOL    HW225611   4.600   6.305   6.543
 8238SOL     OW25612   0.321   6.044   6.696
 8238SOL    HW125613   0.420   6.060   6.693
 8238SOL    HW225614   0.276   6.104   6.630
 8239SOL     OW25615   0.521   0.809   4.982
 8239SOL    HW125616   0.446   0.752   5.014
 8239SOL    HW225617   0.565   0.853   5.060
 8240SOL     OW25618   2.870   3.683   3.233
 8240SOL    HW125619   2.779   3.721   3.218
 8240SOL    HW225620   2.919   3.739   3.300
 8241SOL     OW25621   2.317   4.957   6.020
 8241SOL    HW125622   2.283   5.030   5.960
 8241SOL    HW225623   2.288   4.868   5.983
 8242SOL     OW25624   0.532   3.951   4.640
 8242SOL    HW125625   0.617   3.900   4.651
 8242SOL    HW225626   0.471   3.901   4.578
 8243SOL     OW25627   0.201   4.359   0.513
 8243SOL    HW125628   0.235   4.265   0.513
 8243SOL    HW225629   0.263   4.417   0.459
 8244SOL     OW25630   0.403   6.946   4.108
 8244SOL    HW125631   0.387   7.016   4.179
 8244SOL    HW225632   0.431   6.991   4.023
 8245SOL     OW25633   3.866   1.299   2.964
 8245SOL    HW125634   3.768   1.290   2.985
 8245SOL    HW225635   3.913   1.337   3.043
 8246SOL     OW25636   0.419   4.664   6.861
 8246SOL    HW125637   0.444   4.755   6.828
 8246SOL    HW225638   0.469   4.645   6.945
 8247SOL     OW25639   2.474   6.668   3.815
 8247SOL    HW125640   2.512   6.576   3.831
 8247SOL    HW225641   2.519   6.709   3.736
 8248SOL     OW25642   0.649   5.222   5.156
 8248SOL    HW125643   0.598   5.207   5.071
 8248SOL    HW225644   0.676   5.134   5.194
 8249SOL     OW25645   2.449   1.099   5.613
 8249SOL    HW125646   2.525   1.052   5.568
 8249SOL    HW225647   2.438   1.190   5.574
 8250SOL     OW25648   3.441   2.248   1.366
 8250SOL    HW125649   3.351   2.246   1.409
 8250SOL    HW225650   3.508   2.203   1.426
 8251SOL     OW25651   6.091   0.870   4.084
 8251SOL    HW125652   5.993   0.884   4.101
 8251SOL    HW225653   6.102   0.809   4.006
 8252SOL     OW25654   3.634   1.655   0.381
 8252SOL    HW125655   3.552   1.604   0.354
 8252SOL    HW225656   3.713   1.593   0.382
 8253SOL     OW25657   3.917   5.754   0.128
 8253SOL    HW125658   3.931   5.844   0.169
 8253SOL    HW225659   3.988   5.737   0.060
 8254SOL     OW25660   5.576   4.248   5.851
 8254SOL    HW125661   5.529   4.243   5.763
 8254SOL    HW225662   5.667   4.288   5.838
 8255SOL     OW25663   1.108   0.365   6.451
 8255SOL    HW125664   1.056   0.281   6.466
 8255SOL    HW225665   1.173   0.378   6.525
 8256SOL     OW25666   6.522   0.011   2.961
 8256SOL    HW125667   6.575   0.092   2.937
 8256SOL    HW225668   6.486   6.991   2.878
 8257SOL     OW25669   5.821   4.663   4.134
 8257SOL    HW125670   5.833   4.570   4.169
 8257SOL    HW225671   5.735   4.700   4.168
 8258SOL     OW25672   5.083   3.216   1.496
 8258SOL    HW125673   5.131   3.183   1.577
 8258SOL    HW225674   5.061   3.139   1.436
 8259SOL     OW25675   3.816   2.036   5.388
 8259SOL    HW125676   3.812   2.076   5.480
 8259SOL    HW225677   3.814   2.109   5.320
 8260SOL     OW25678   2.196   6.011   1.490
 8260SOL    HW125679   2.162   5.924   1.524
 8260SOL    HW225680   2.140   6.085   1.526
 8261SOL     OW25681   4.901   6.656   3.349
 8261SOL    HW125682   4.922   6.560   3.329
 8261SOL    HW225683   4.950   6.684   3.432
 8262SOL     OW25684   0.523   4.514   0.570
 8262SOL    HW125685   0.543   4.583   0.501
 8262SOL    HW225686   0.424   4.508   0.584
 8263SOL     OW25687   6.924   2.866   6.915
 8263SOL    HW125688   7.010   2.910   6.887
 8263SOL    HW225689   6.929   2.844   7.012
 8264SOL     OW25690   1.219   6.936   1.712
 8264SOL    HW125691   1.205   6.847   1.756
 8264SOL    HW225692   1.171   7.007   1.764
 8265SOL     OW25693   5.230   0.430   1.707
 8265SOL    HW125694   5.131   0.428   1.703
 8265SOL    HW225695   5.267   0.454   1.617
 8266SOL     OW25696   3.032   0.272   5.008
 8266SOL    HW125697   2.990   0.327   4.936
 8266SOL    HW225698   2.995   0.180   5.006
 8267SOL     OW25699   1.842   4.883   1.563
 8267SOL    HW125700   1.770   4.913   1.500
 8267SOL    HW225701   1.830   4.786   1.583
 8268SOL     OW25702   2.984   4.596   5.627
 8268SOL    HW125703   3.030   4.649   5.698
 8268SOL    HW225704   3.043   4.520   5.599
 8269SOL     OW25705   4.587   2.211   2.841
 8269SOL    HW125706   4.537   2.297   2.850
 8269SOL    HW225707   4.525   2.134   2.856
 8270SOL     OW25708   3.452   5.600   5.645
 8270SOL    HW125709   3.521   5.554   5.589
 8270SOL    HW225710   3.361   5.572   5.616
 8271SOL     OW25711   6.431   6.755   3.904
 8271SOL    HW125712   6.414   6.657   3.911
 8271SOL    HW225713   6.423   6.796   3.995
 8272SOL     OW25714   0.010   1.373   2.422
 8272SOL    HW125715   0.087   1.410   2.475
 8272SOL    HW225716   0.044   1.338   2.335
 8273SOL     OW25717   2.888   1.327   0.020
 8273SOL    HW125718   2.965   1.377   0.060
 8273SOL    HW225719   2.803   1.357   0.065
 8274SOL     OW25720   4.087   4.667   6.046
 8274SOL    HW125721   4.183   4.693   6.030
 8274SOL    HW225722   4.029   4.710   5.977
 8275SOL     OW25723   5.732   0.097   4.607
 8275SOL    HW125724   5.716   0.134   4.698
 8275SOL    HW225725   5.802   0.151   4.560
 8276SOL     OW25726   6.433   1.955   5.944
 8276SOL    HW125727   6.523   1.949   5.985
 8276SOL    HW225728   6.421   2.046   5.903
 8277SOL     OW25729   2.644   6.021   5.217
 8277SOL    HW125730   2.577   6.053   5.150
 8277SOL    HW225731   2.730   6.000   5.170
 8278SOL     OW25732   3.002   1.494   6.557
 8278SOL    HW125733   3.096   1.465   6.536
 8278SOL    HW225734   2.947   1.494   6.473
 8279SOL     OW25735   5.970   5.881   6.128
 8279SOL    HW125736   5.912   5.947   6.177
 8279SOL    HW225737   5.986   5.914   6.035
 8280SOL     OW25738   4.218   2.225   0.591
 8280SOL    HW125739   4.241   2.277   0.509
 8280SOL    HW225740   4.206   2.288   0.668
 8281SOL     OW25741   1.943   4.597   1.948
 8281SOL    HW125742   2.043   4.590   1.952
 8281SOL    HW225743   1.916   4.692   1.962
 8282SOL     OW25744   2.505   3.428   0.353
 8282SOL    HW125745   2.547   3.349   0.396
 8282SOL    HW225746   2.406   3.421   0.360
 8283SOL     OW25747   1.077   4.625   4.241
 8283SOL    HW125748   1.087   4.529   4.267
 8283SOL    HW225749   1.160   4.655   4.193
 8284SOL     OW25750   1.328   3.838   2.171
 8284SOL    HW125751   1.409   3.812   2.119
 8284SOL    HW225752   1.351   3.915   2.231
 8285SOL     OW25753   3.790   3.571   5.407
 8285SOL    HW125754   3.764   3.515   5.486
 8285SOL    HW225755   3.868   3.530   5.361
 8286SOL     OW25756   5.324   1.812   5.105
 8286SOL    HW125757   5.382   1.823   5.186
 8286SOL    HW225758   5.359   1.871   5.032
 8287SOL     OW25759   1.246   5.862   3.734
 8287SOL    HW125760   1.237   5.850   3.833
 8287SOL    HW225761   1.187   5.937   3.704
 8288SOL     OW25762   0.800   2.646   2.526
 8288SOL    HW125763   0.777   2.739   2.552
 8288SOL    HW225764   0.719   2.588   2.534
 8289SOL     OW25765   6.123   0.630   6.121
 8289SOL    HW125766   6.179   0.601   6.198
 8289SOL    HW225767   6.142   0.726   6.100
 8290SOL     OW25768   4.479   1.889   1.753
 8290SOL    HW125769   4.394   1.941   1.758
 8290SOL    HW225770   4.547   1.928   1.814
 8291SOL     OW25771   5.903   5.379   6.726
 8291SOL    HW125772   5.832   5.310   6.738
 8291SOL    HW225773   5.865   5.457   6.677
 8292SOL     OW25774   2.515   6.065   6.143
 8292SOL    HW125775   2.425   6.095   6.173
 8292SOL    HW225776   2.525   5.967   6.160
 8293SOL     OW25777   1.404   4.010   1.809
 8293SOL    HW125778   1.431   4.032   1.715
 8293SOL    HW225779   1.482   4.018   1.870
 8294SOL     OW25780   6.213   3.198   4.705
 8294SOL    HW125781   6.242   3.176   4.798
 8294SOL    HW225782   6.272   3.270   4.668
 8295SOL     OW25783   5.358   3.487   2.417
 8295SOL    HW125784   5.414   3.559   2.457
 8295SOL    HW225785   5.299   3.526   2.347
 8296SOL     OW25786   3.648   5.041   0.082
 8296SOL    HW125787   3.658   5.039   0.181
 8296SOL    HW225788   3.624   5.134   0.052
 8297SOL     OW25789   6.838   3.421   2.175
 8297SOL    HW125790   6.783   3.490   2.129
 8297SOL    HW225791   6.783   3.339   2.192
 8298SOL     OW25792   0.335   0.710   6.965
 8298SOL    HW125793   0.336   0.642   0.015
 8298SOL    HW225794   0.291   0.794   6.997
 8299SOL     OW25795   0.737   2.684   0.682
 8299SOL    HW125796   0.725   2.771   0.634
 8299SOL    HW225797   0.733   2.700   0.781
 8300SOL     OW25798   6.172   6.629   5.003
 8300SOL    HW125799   6.209   6.684   4.929
 8300SOL    HW225800   6.140   6.689   5.077
 8301SOL     OW25801   4.439   0.170   6.870
 8301SOL    HW125802   4.428   0.261   6.830
 8301SOL    HW225803   4.500   0.175   6.949
 8302SOL     OW25804   4.135   6.895   5.289
 8302SOL    HW125805   4.136   6.824   5.360
 8302SOL    HW225806   4.059   6.958   5.306
 8303SOL     OW25807   6.932   0.232   3.477
 8303SOL    HW125808   7.022   0.188   3.483
 8303SOL    HW225809   6.905   0.238   3.380
 8304SOL     OW25810   5.553   5.166   1.849
 8304SOL    HW125811   5.533   5.183   1.946
 8304SOL    HW225812   5.475   5.119   1.807
 8305SOL     OW25813   4.122   5.144   4.350
 8305SOL    HW125814   4.087   5.078   4.417
 8305SOL    HW225815   4.050   5.167   4.285
 8306SOL     OW25816   6.446   1.297   2.781
 8306SOL    HW125817   6.472   1.335   2.870
 8306SOL    HW225818   6.424   1.200   2.792
 8307SOL     OW25819   3.331   5.088   1.713
 8307SOL    HW125820   3.307   5.057   1.621
 8307SOL    HW225821   3.412   5.040   1.744
 8308SOL     OW25822   2.020   4.101   0.359
 8308SOL    HW125823   2.024   4.012   0.404
 8308SOL    HW225824   2.099   4.156   0.387
 8309SOL     OW25825   5.926   4.867   3.321
 8309SOL    HW125826   5.936   4.774   3.355
 8309SOL    HW225827   5.887   4.925   3.393
 8310SOL     OW25828   0.759   5.663   0.678
 8310SOL    HW125829   0.729   5.568   0.681
 8310SOL    HW225830   0.785   5.687   0.585
 8311SOL     OW25831   5.591   0.513   4.531
 8311SOL    HW125832   5.533   0.442   4.569
 8311SOL    HW225833   5.655   0.544   4.601
 8312SOL     OW25834   5.718   1.110   0.482
 8312SOL    HW125835   5.729   1.209   0.471
 8312SOL    HW225836   5.669   1.091   0.567
 8313SOL     OW25837   4.246   0.170   5.531
 8313SOL    HW125838   4.309   0.093   5.543
 8313SOL    HW225839   4.228   0.183   5.433
 8314SOL     OW25840   5.894   6.862   6.556
 8314SOL    HW125841   5.795   6.879   6.553
 8314SOL    HW225842   5.911   6.766   6.535
 8315SOL     OW25843   3.877   3.969   2.793
 8315SOL    HW125844   3.937   3.928   2.723
 8315SOL    HW225845   3.898   3.929   2.882
 8316SOL     OW25846   1.829   3.225   0.336
 8316SOL    HW125847   1.879   3.259   0.257
 8316SOL    HW225848   1.763   3.293   0.367
 8317SOL     OW25849   2.855   2.140   3.693
 8317SOL    HW125850   2.826   2.085   3.771
 8317SOL    HW225851   2.795   2.122   3.615
 8318SOL     OW25852   4.337   0.790   5.487
 8318SOL    HW125853   4.253   0.756   5.445
 8318SOL    HW225854   4.347   0.751   5.579
 8319SOL     OW25855   2.082   0.110   0.180
 8319SOL    HW125856   2.030   0.159   0.250
 8319SOL    HW225857   2.021   0.088   0.103
 8320SOL     OW25858   3.586   3.863   3.510
 8320SOL    HW125859   3.613   3.831   3.600
 8320SOL    HW225860   3.586   3.963   3.508
 8321SOL     OW25861   0.420   6.674   5.975
 8321SOL    HW125862   0.514   6.649   5.998
 8321SOL    HW225863   0.357   6.622   6.032
 8322SOL     OW25864   0.254   1.040   0.410
 8322SOL    HW125865   0.343   1.019   0.369
 8322SOL    HW225866   0.262   1.039   0.509
 8323SOL     OW25867   3.394   4.906   1.428
 8323SOL    HW125868   3.414   4.990   1.378
 8323SOL    HW225869   3.321   4.855   1.383
 8324SOL     OW25870   5.479   0.647   0.417
 8324SOL    HW125871   5.484   0.697   0.331
 8324SOL    HW225872   5.417   0.569   0.407
 8325SOL     OW25873   0.957   4.122   5.179
 8325SOL    HW125874   0.996   4.062   5.249
 8325SOL    HW225875   0.861   4.099   5.165
 8326SOL     OW25876   4.337   3.610   6.816
 8326SOL    HW125877   4.349   3.682   6.885
 8326SOL    HW225878   4.397   3.629   6.738
 8327SOL     OW25879   0.891   6.865   5.401
 8327SOL    HW125880   0.825   6.826   5.336
 8327SOL    HW225881   0.980   6.874   5.358
 8328SOL     OW25882   1.980   6.561   6.098
 8328SOL    HW125883   2.003   6.490   6.031
 8328SOL    HW225884   2.064   6.598   6.137
 8329SOL     OW25885   0.036   2.305   5.236
 8329SOL    HW125886   6.959   2.303   5.237
 8329SOL    HW225887   0.068   2.396   5.261
 8330SOL     OW25888   3.595   1.173   6.407
 8330SOL    HW125889   3.690   1.180   6.438
 8330SOL    HW225890   3.556   1.264   6.398
 8331SOL     OW25891   2.693   1.033   1.000
 8331SOL    HW125892   2.776   1.087   1.017
 8331SOL    HW225893   2.665   0.988   1.085
 8332SOL     OW25894   5.464   5.213   2.116
 8332SOL    HW125895   5.422   5.303   2.115
 8332SOL    HW225896   5.484   5.186   2.210
 8333SOL     OW25897   2.280   4.566   0.020
 8333SOL    HW125898   2.246   4.557   6.949
 8333SOL    HW225899   2.275   4.662   0.048
 8334SOL     OW25900   2.776   2.381   6.352
 8334SOL    HW125901   2.814   2.471   6.331
 8334SOL    HW225902   2.799   2.356   6.446
 8335SOL     OW25903   3.998   2.613   0.284
 8335SOL    HW125904   3.904   2.607   0.251
 8335SOL    HW225905   4.024   2.527   0.328
 8336SOL     OW25906   1.081   3.905   3.463
 8336SOL    HW125907   1.115   3.982   3.518
 8336SOL    HW225908   1.151   3.880   3.396
 8337SOL     OW25909   0.533   6.714   4.223
 8337SOL    HW125910   0.460   6.780   4.206
 8337SOL    HW225911   0.520   6.671   4.312
 8338SOL     OW25912   3.545   5.485   2.125
 8338SOL    HW125913   3.629   5.533   2.152
 8338SOL    HW225914   3.473   5.552   2.109
 8339SOL     OW25915   0.013   1.188   1.508
 8339SOL    HW125916   0.014   1.125   1.430
 8339SOL    HW225917   7.009   1.138   1.590
 8340SOL     OW25918   5.114   4.040   0.470
 8340SOL    HW125919   5.084   3.950   0.500
 8340SOL    HW225920   5.164   4.032   0.383
 8341SOL     OW25921   3.658   0.454   7.008
 8341SOL    HW125922   3.615   0.527   0.039
 8341SOL    HW225923   3.757   0.456   7.022
 8342SOL     OW25924   3.760   0.021   0.262
 8342SOL    HW125925   3.829   0.081   0.220
 8342SOL    HW225926   3.806   6.968   0.307
 8343SOL     OW25927   6.220   5.547   3.972
 8343SOL    HW125928   6.177   5.512   4.055
 8343SOL    HW225929   6.192   5.642   3.956
 8344SOL     OW25930   6.618   4.582   4.712
 8344SOL    HW125931   6.580   4.573   4.620
 8344SOL    HW225932   6.609   4.676   4.743
 8345SOL     OW25933   4.756   2.104   3.656
 8345SOL    HW125934   4.666   2.060   3.662
 8345SOL    HW225935   4.772   2.160   3.737
 8346SOL     OW25936   3.738   3.461   6.023
 8346SOL    HW125937   3.731   3.557   5.998
 8346SOL    HW225938   3.648   3.425   6.049
 8347SOL     OW25939   3.487   6.720   6.578
 8347SOL    HW125940   3.430   6.693   6.656
 8347SOL    HW225941   3.429   6.742   6.500
 8348SOL     OW25942   2.465   0.208   1.582
 8348SOL    HW125943   2.413   0.294   1.580
 8348SOL    HW225944   2.452   0.164   1.671
 8349SOL     OW25945   1.432   6.514   1.711
 8349SOL    HW125946   1.457   6.513   1.614
 8349SOL    HW225947   1.424   6.420   1.744
 8350SOL     OW25948   2.798   6.693   6.250
 8350SOL    HW125949   2.765   6.719   6.341
 8350SOL    HW225950   2.843   6.603   6.256
 8351SOL     OW25951   5.798   5.373   4.109
 8351SOL    HW125952   5.717   5.373   4.169
 8351SOL    HW225953   5.773   5.410   4.020
 8352SOL     OW25954   1.649   7.009   3.052
 8352SOL    HW125955   1.696   7.009   3.140
 8352SOL    HW225956   1.711   6.974   2.981
 8353SOL     OW25957   0.719   3.990   0.976
 8353SOL    HW125958   0.695   4.065   0.914
 8353SOL    HW225959   0.814   4.001   1.005
 8354SOL     OW25960   3.422   6.790   4.018
 8354SOL    HW125961   3.332   6.757   4.048
 8354SOL    HW225962   3.450   6.866   4.076
 8355SOL     OW25963   1.793   0.976   5.298
 8355SOL    HW125964   1.786   0.994   5.201
 8355SOL    HW225965   1.881   0.932   5.317
 8356SOL     OW25966   0.849   5.421   1.384
 8356SOL    HW125967   0.866   5.455   1.476
 8356SOL    HW225968   0.924   5.361   1.357
 8357SOL     OW25969   3.500   6.082   5.728
 8357SOL    HW125970   3.419   6.138   5.747
 8357SOL    HW225971   3.483   6.025   5.647
 8358SOL     OW25972   0.887   2.861   5.134
 8358SOL    HW125973   0.931   2.854   5.223
 8358SOL    HW225974   0.862   2.957   5.117
 8359SOL     OW25975   2.222   1.856   4.360
 8359SOL    HW125976   2.189   1.935   4.410
 8359SOL    HW225977   2.289   1.885   4.292
 8360SOL     OW25978   4.613   0.013   1.397
 8360SOL    HW125979   4.553   0.015   1.477
 8360SOL    HW225980   4.689   6.974   1.414
 8361SOL     OW25981   3.506   0.656   0.122
 8361SOL    HW125982   3.411   0.657   0.089
 8361SOL    HW225983   3.520   0.732   0.186
 8362SOL     OW25984   5.828   2.017   1.193
 8362SOL    HW125985   5.779   1.932   1.173
 8362SOL    HW225986   5.839   2.069   1.108
 8363SOL     OW25987   5.103   1.470   0.694
 8363SOL    HW125988   5.104   1.553   0.639
 8363SOL    HW225989   5.051   1.399   0.646
 8364SOL     OW25990   0.419   3.366   4.291
 8364SOL    HW125991   0.351   3.390   4.360
 8364SOL    HW225992   0.374   3.325   4.212
 8365SOL     OW25993   1.302   2.620   2.779
 8365SOL    HW125994   1.398   2.630   2.754
 8365SOL    HW225995   1.256   2.708   2.771
 8366SOL     OW25996   3.934   5.021   0.777
 8366SOL    HW125997   3.844   5.013   0.819
 8366SOL    HW225998   3.951   5.116   0.751
 8367SOL     OW25999   3.541   5.270   5.328
 8367SOL    HW126000   3.618   5.225   5.283
 8367SOL    HW226001   3.552   5.264   5.427
 8368SOL     OW26002   1.130   6.021   0.610
 8368SOL    HW126003   1.196   6.019   0.685
 8368SOL    HW226004   1.054   5.960   0.630
 8369SOL     OW26005   0.505   1.005   6.568
 8369SOL    HW126006   0.501   1.005   6.468
 8369SOL    HW226007   0.591   0.962   6.597
 8370SOL     OW26008   2.214   0.629   5.896
 8370SOL    HW126009   2.293   0.598   5.843
 8370SOL    HW226010   2.219   0.728   5.909
 8371SOL     OW26011   1.680   3.262   6.659
 8371SOL    HW126012   1.763   3.310   6.629
 8371SOL    HW226013   1.705   3.190   6.724
 8372SOL     OW26014   1.771   6.180   1.286
 8372SOL    HW126015   1.821   6.113   1.232
 8372SOL    HW226016   1.735   6.251   1.227
 8373SOL     OW26017   1.571   0.676   4.466
 8373SOL    HW126018   1.574   0.773   4.442
 8373SOL    HW226019   1.479   0.653   4.498
 8374SOL     OW26020   0.292   0.316   5.052
 8374SOL    HW126021   0.261   0.221   5.058
 8374SOL    HW226022   0.262   0.356   4.965
 8375SOL     OW26023   3.972   6.757   6.486
 8375SOL    HW126024   3.892   6.776   6.543
 8375SOL    HW226025   4.050   6.809   6.521
 8376SOL     OW26026   1.416   1.578   3.753
 8376SOL    HW126027   1.348   1.573   3.826
 8376SOL    HW226028   1.421   1.490   3.706
 8377SOL     OW26029   5.973   6.279   0.404
 8377SOL    HW126030   5.903   6.255   0.337
 8377SOL    HW226031   6.061   6.291   0.357
 8378SOL     OW26032   3.927   5.335   3.965
 8378SOL    HW126033   3.962   5.414   4.015
 8378SOL    HW226034   3.980   5.321   3.882
 8379SOL     OW26035   4.803   2.639   2.166
 8379SOL    HW126036   4.865   2.709   2.202
 8379SOL    HW226037   4.722   2.633   2.224
 8380SOL     OW26038   0.332   6.912   6.533
 8380SOL    HW126039   0.278   6.835   6.566
 8380SOL    HW226040   0.316   6.992   6.591
 8381SOL     OW26041   0.188   2.809   3.534
 8381SOL    HW126042   0.288   2.816   3.537
 8381SOL    HW226043   0.149   2.859   3.611
 8382SOL     OW26044   2.324   6.844   1.226
 8382SOL    HW126045   2.292   6.860   1.132
 8382SOL    HW226046   2.344   6.932   1.269
 8383SOL     OW26047   2.980   0.092   5.494
 8383SOL    HW126048   2.905   0.147   5.532
 8383SOL    HW226049   3.064   0.145   5.495
 8384SOL     OW26050   6.964   1.504   0.949
 8384SOL    HW126051   7.001   1.517   1.041
 8384SOL    HW226052   6.908   1.584   0.924
 8385SOL     OW26053   4.280   1.855   0.435
 8385SOL    HW126054   4.210   1.881   0.368
 8385SOL    HW226055   4.252   1.887   0.526
 8386SOL     OW26056   2.401   5.502   1.122
 8386SOL    HW126057   2.402   5.458   1.032
 8386SOL    HW226058   2.336   5.578   1.121
 8387SOL     OW26059   1.637   2.145   1.477
 8387SOL    HW126060   1.718   2.086   1.480
 8387SOL    HW226061   1.555   2.091   1.497
 8388SOL     OW26062   1.460   6.435   1.005
 8388SOL    HW126063   1.460   6.534   0.995
 8388SOL    HW226064   1.366   6.401   1.004
 8389SOL     OW26065   0.258   3.548   4.435
 8389SOL    HW126066   0.275   3.539   4.533
 8389SOL    HW226067   0.202   3.472   4.403
 8390SOL     OW26068   3.987   6.634   6.857
 8390SOL    HW126069   4.017   6.728   6.876
 8390SOL    HW226070   3.924   6.635   6.780
 8391SOL     OW26071   4.762   5.130   1.529
 8391SOL    HW126072   4.685   5.065   1.526
 8391SOL    HW226073   4.813   5.116   1.614
 8392SOL     OW26074   6.524   5.500   5.909
 8392SOL    HW126075   6.464   5.501   5.828
 8392SOL    HW226076   6.570   5.589   5.917
 8393SOL     OW26077   6.894   6.643   3.765
 8393SOL    HW126078   6.841   6.709   3.712
 8393SOL    HW226079   6.978   6.619   3.716
 8394SOL     OW26080   6.881   2.805   1.533
 8394SOL    HW126081   6.855   2.899   1.511
 8394SOL    HW226082   6.868   2.789   1.631
 8395SOL     OW26083   1.244   6.094   4.696
 8395SOL    HW126084   1.328   6.050   4.665
 8395SOL    HW226085   1.173   6.024   4.711
 8396SOL     OW26086   4.233   4.707   2.389
 8396SOL    HW126087   4.161   4.692   2.321
 8396SOL    HW226088   4.300   4.772   2.354
 8397SOL     OW26089   2.236   0.967   3.730
 8397SOL    HW126090   2.198   0.914   3.655
 8397SOL    HW226091   2.318   0.922   3.765
 8398SOL     OW26092   4.369   2.093   6.472
 8398SOL    HW126093   4.450   2.116   6.419
 8398SOL    HW226094   4.365   1.994   6.486
 8399SOL     OW26095   6.763   0.392   0.267
 8399SOL    HW126096   6.811   0.480   0.269
 8399SOL    HW226097   6.667   0.408   0.245
 8400SOL     OW26098   1.158   0.151   3.734
 8400SOL    HW126099   1.165   0.248   3.710
 8400SOL    HW226100   1.193   0.138   3.827
 8401SOL     OW26101   3.601   2.269   6.011
 8401SOL    HW126102   3.520   2.212   6.019
 8401SOL    HW226103   3.643   2.281   6.102
 8402SOL     OW26104   4.208   1.782   5.514
 8402SOL    HW126105   4.148   1.858   5.489
 8402SOL    HW226106   4.220   1.722   5.436
 8403SOL     OW26107   0.657   1.715   3.148
 8403SOL    HW126108   0.581   1.746   3.205
 8403SOL    HW226109   0.744   1.740   3.192
 8404SOL     OW26110   5.240   5.762   6.899
 8404SOL    HW126111   5.288   5.689   6.948
 8404SOL    HW226112   5.168   5.722   6.843
 8405SOL     OW26113   2.074   0.821   6.404
 8405SOL    HW126114   2.131   0.903   6.406
 8405SOL    HW226115   1.997   0.836   6.342
 8406SOL     OW26116   4.257   0.544   0.882
 8406SOL    HW126117   4.237   0.514   0.975
 8406SOL    HW226118   4.172   0.554   0.831
 8407SOL     OW26119   4.639   6.586   3.709
 8407SOL    HW126120   4.651   6.670   3.657
 8407SOL    HW226121   4.612   6.512   3.648
 8408SOL     OW26122   4.969   2.728   2.561
 8408SOL    HW126123   4.921   2.787   2.626
 8408SOL    HW226124   5.063   2.761   2.549
 8409SOL     OW26125   6.158   3.137   3.129
 8409SOL    HW126126   6.222   3.082   3.075
 8409SOL    HW226127   6.098   3.076   3.181
 8410SOL     OW26128   4.709   0.642   1.493
 8410SOL    HW126129   4.708   0.632   1.593
 8410SOL    HW226130   4.804   0.639   1.461
 8411SOL     OW26131   1.420   5.421   5.597
 8411SOL    HW126132   1.490   5.398   5.529
 8411SOL    HW226133   1.464   5.436   5.686
 8412SOL     OW26134   4.209   1.851   1.975
 8412SOL    HW126135   4.157   1.770   2.000
 8412SOL    HW226136   4.284   1.864   2.040
 8413SOL     OW26137   4.830   4.750   0.665
 8413SOL    HW126138   4.814   4.801   0.750
 8413SOL    HW226139   4.846   4.654   0.687
 8414SOL     OW26140   4.443   5.777   2.744
 8414SOL    HW126141   4.395   5.706   2.692
 8414SOL    HW226142   4.521   5.810   2.692
 8415SOL     OW26143   6.492   5.837   4.164
 8415SOL    HW126144   6.589   5.841   4.140
 8415SOL    HW226145   6.473   5.902   4.237
 8416SOL     OW26146   5.712   4.474   3.261
 8416SOL    HW126147   5.674   4.385   3.287
 8416SOL    HW226148   5.732   4.475   3.163
 8417SOL     OW26149   1.058   5.153   6.411
 8417SOL    HW126150   1.040   5.126   6.316
 8417SOL    HW226151   0.986   5.117   6.470
 8418SOL     OW26152   6.251   5.399   1.535
 8418SOL    HW126153   6.306   5.334   1.588
 8418SOL    HW226154   6.311   5.469   1.497
 8419SOL     OW26155   5.354   1.532   2.935
 8419SOL    HW126156   5.448   1.557   2.915
 8419SOL    HW226157   5.308   1.609   2.979
 8420SOL     OW26158   4.128   0.131   0.976
 8420SOL    HW126159   4.187   0.176   0.908
 8420SOL    HW226160   4.174   0.049   1.010
 8421SOL     OW26161   2.847   6.263   1.075
 8421SOL    HW126162   2.758   6.228   1.103
 8421SOL    HW226163   2.835   6.337   1.009
 8422SOL     OW26164   4.406   0.496   1.502
 8422SOL    HW126165   4.436   0.514   1.409
 8422SOL    HW226166   4.451   0.560   1.565
 8423SOL     OW26167   3.884   4.186   6.070
 8423SOL    HW126168   3.979   4.216   6.076
 8423SOL    HW226169   3.826   4.263   6.043
 8424SOL     OW26170   2.501   2.537   2.767
 8424SOL    HW126171   2.413   2.542   2.718
 8424SOL    HW226172   2.576   2.546   2.701
 8425SOL     OW26173   5.742   5.832   0.979
 8425SOL    HW126174   5.794   5.749   0.960
 8425SOL    HW226175   5.802   5.911   0.971
 8426SOL     OW26176   3.299   2.985   4.311
 8426SOL    HW126177   3.242   3.004   4.231
 8426SOL    HW226178   3.247   3.006   4.395
 8427SOL     OW26179   2.941   3.641   5.602
 8427SOL    HW126180   2.994   3.604   5.526
 8427SOL    HW226181   2.860   3.584   5.617
 8428SOL     OW26182   6.661   4.327   1.465
 8428SOL    HW126183   6.691   4.283   1.380
 8428SOL    HW226184   6.575   4.376   1.449
 8429SOL     OW26185   1.909   4.136   3.515
 8429SOL    HW126186   1.949   4.068   3.576
 8429SOL    HW226187   1.981   4.174   3.456
 8430SOL     OW26188   3.857   5.901   3.740
 8430SOL    HW126189   3.814   5.963   3.675
 8430SOL    HW226190   3.826   5.807   3.722
 8431SOL     OW26191   3.031   5.799   0.854
 8431SOL    HW126192   3.058   5.819   0.760
 8431SOL    HW226193   3.045   5.881   0.910
 8432SOL     OW26194   5.630   0.114   6.069
 8432SOL    HW126195   5.701   0.125   6.000
 8432SOL    HW226196   5.541   0.141   6.030
 8433SOL     OW26197   6.519   2.439   0.395
 8433SOL    HW126198   6.550   2.391   0.313
 8433SOL    HW226199   6.596   2.449   0.458
 8434SOL     OW26200   2.766   6.414   5.436
 8434SOL    HW126201   2.819   6.426   5.520
 8434SOL    HW226202   2.711   6.331   5.443
 8435SOL     OW26203   5.160   0.611   0.811
 8435SOL    HW126204   5.128   0.546   0.742
 8435SOL    HW226205   5.125   0.584   0.901
 8436SOL     OW26206   3.399   6.817   4.607
 8436SOL    HW126207   3.456   6.778   4.535
 8436SOL    HW226208   3.308   6.836   4.571
 8437SOL     OW26209   1.398   0.135   3.171
 8437SOL    HW126210   1.383   0.039   3.194
 8437SOL    HW226211   1.463   0.141   3.095
 8438SOL     OW26212   2.832   5.119   2.182
 8438SOL    HW126213   2.850   5.174   2.100
 8438SOL    HW226214   2.830   5.022   2.157
 8439SOL     OW26215   6.351   4.983   1.310
 8439SOL    HW126216   6.442   5.016   1.286
 8439SOL    HW226217   6.282   5.038   1.262
 8440SOL     OW26218   0.573   1.928   4.112
 8440SOL    HW126219   0.496   1.894   4.057
 8440SOL    HW226220   0.655   1.874   4.092
 8441SOL     OW26221   5.629   6.675   0.073
 8441SOL    HW126222   5.613   6.728   7.013
 8441SOL    HW226223   5.626   6.578   0.052
 8442SOL     OW26224   3.623   2.787   5.898
 8442SOL    HW126225   3.587   2.819   5.986
 8442SOL    HW226226   3.559   2.722   5.857
 8443SOL     OW26227   1.055   6.387   3.465
 8443SOL    HW126228   1.126   6.405   3.533
 8443SOL    HW226229   0.993   6.465   3.460
 8444SOL     OW26230   3.154   5.704   3.533
 8444SOL    HW126231   3.092   5.648   3.588
 8444SOL    HW226232   3.247   5.698   3.570
 8445SOL     OW26233   3.640   5.218   1.552
 8445SOL    HW126234   3.572   5.234   1.624
 8445SOL    HW226235   3.729   5.200   1.593
 8446SOL     OW26236   4.360   5.004   0.561
 8446SOL    HW126237   4.278   5.060   0.548
 8446SOL    HW226238   4.342   4.934   0.630
 8447SOL     OW26239   5.851   2.393   2.219
 8447SOL    HW126240   5.758   2.429   2.229
 8447SOL    HW226241   5.881   2.404   2.124
 8448SOL     OW26242   5.731   4.720   4.493
 8448SOL    HW126243   5.727   4.812   4.453
 8448SOL    HW226244   5.770   4.725   4.585
 8449SOL     OW26245   6.114   3.353   4.133
 8449SOL    HW126246   6.179   3.328   4.061
 8449SOL    HW226247   6.107   3.279   4.199
 8450SOL     OW26248   1.672   5.567   2.142
 8450SOL    HW126249   1.674   5.538   2.047
 8450SOL    HW226250   1.724   5.652   2.152
 8451SOL     OW26251   4.916   3.063   0.766
 8451SOL    HW126252   4.949   3.065   0.672
 8451SOL    HW226253   4.827   3.017   0.770
 8452SOL     OW26254   0.121   0.929   1.947
 8452SOL    HW126255   0.156   1.015   1.910
 8452SOL    HW226256   0.049   0.949   2.014
 8453SOL     OW26257   6.711   4.282   6.953
 8453SOL    HW126258   6.754   4.343   6.886
 8453SOL    HW226259   6.614   4.305   6.962
 8454SOL     OW26260   0.457   6.380   0.478
 8454SOL    HW126261   0.436   6.296   0.529
 8454SOL    HW226262   0.525   6.433   0.529
 8455SOL     OW26263   5.443   1.993   1.296
 8455SOL    HW126264   5.528   2.035   1.328
 8455SOL    HW226265   5.408   2.045   1.217
 8456SOL     OW26266   4.444   4.433   3.177
 8456SOL    HW126267   4.527   4.412   3.127
 8456SOL    HW226268   4.389   4.499   3.125
 8457SOL     OW26269   0.156   6.388   5.169
 8457SOL    HW126270   0.186   6.483   5.155
 8457SOL    HW226271   0.179   6.334   5.088
 8458SOL     OW26272   2.313   1.483   6.871
 8458SOL    HW126273   2.288   1.393   6.906
 8458SOL    HW226274   2.343   1.541   6.946
 8459SOL     OW26275   3.109   6.285   1.913
 8459SOL    HW126276   3.076   6.216   1.978
 8459SOL    HW226277   3.031   6.330   1.870
 8460SOL     OW26278   4.645   2.558   5.542
 8460SOL    HW126279   4.589   2.518   5.614
 8460SOL    HW226280   4.600   2.638   5.504
 8461SOL     OW26281   0.733   3.978   2.732
 8461SOL    HW126282   0.679   3.895   2.718
 8461SOL    HW226283   0.828   3.954   2.752
 8462SOL     OW26284   3.619   2.454   0.514
 8462SOL    HW126285   3.623   2.537   0.570
 8462SOL    HW226286   3.538   2.401   0.537
 8463SOL     OW26287   6.390   0.443   6.986
 8463SOL    HW126288   6.328   0.519   6.965
 8463SOL    HW226289   6.367   0.365   6.929
 8464SOL     OW26290   5.916   3.863   5.779
 8464SOL    HW126291   5.863   3.778   5.785
 8464SOL    HW226292   6.012   3.840   5.762
 8465SOL     OW26293   2.378   2.183   0.865
 8465SOL    HW126294   2.426   2.215   0.784
 8465SOL    HW226295   2.442   2.174   0.941
 8466SOL     OW26296   6.943   0.077   5.792
 8466SOL    HW126297   6.883   0.156   5.781
 8466SOL    HW226298   6.892   7.016   5.774
 8467SOL     OW26299   3.655   0.796   1.392
 8467SOL    HW126300   3.650   0.713   1.448
 8467SOL    HW226301   3.721   0.781   1.317
 8468SOL     OW26302   4.685   2.586   0.474
 8468SOL    HW126303   4.655   2.631   0.558
 8468SOL    HW226304   4.778   2.553   0.486
 8469SOL     OW26305   2.635   1.800   5.488
 8469SOL    HW126306   2.590   1.734   5.429
 8469SOL    HW226307   2.702   1.852   5.434
 8470SOL     OW26308   0.728   4.816   0.115
 8470SOL    HW126309   0.686   4.888   0.169
 8470SOL    HW226310   0.778   4.754   0.176
 8471SOL     OW26311   4.241   0.364   4.731
 8471SOL    HW126312   4.201   0.453   4.752
 8471SOL    HW226313   4.168   0.302   4.702
 8472SOL     OW26314   6.499   0.527   5.751
 8472SOL    HW126315   6.415   0.530   5.698
 8472SOL    HW226316   6.531   0.620   5.768
 8473SOL     OW26317   6.908   5.771   1.076
 8473SOL    HW126318   6.960   5.706   1.021
 8473SOL    HW226319   6.811   5.748   1.073
 8474SOL     OW26320   3.447   3.578   2.387
 8474SOL    HW126321   3.475   3.666   2.427
 8474SOL    HW226322   3.466   3.579   2.289
 8475SOL     OW26323   0.337   2.964   3.258
 8475SOL    HW126324   0.324   2.894   3.187
 8475SOL    HW226325   0.249   3.004   3.282
 8476SOL     OW26326   6.319   1.328   1.204
 8476SOL    HW126327   6.277   1.403   1.254
 8476SOL    HW226328   6.305   1.342   1.106
 8477SOL     OW26329   4.872   6.514   2.813
 8477SOL    HW126330   4.935   6.496   2.737
 8477SOL    HW226331   4.787   6.463   2.799
 8478SOL     OW26332   1.542   6.804   6.040
 8478SOL    HW126333   1.449   6.839   6.031
 8478SOL    HW226334   1.607   6.880   6.030
 8479SOL     OW26335   1.088   2.126   0.933
 8479SOL    HW126336   1.054   2.053   0.874
 8479SOL    HW226337   1.033   2.209   0.918
 8480SOL     OW26338   5.377   2.797   0.461
 8480SOL    HW126339   5.303   2.740   0.424
 8480SOL    HW226340   5.341   2.854   0.535
 8481SOL     OW26341   4.589   2.755   4.928
 8481SOL    HW126342   4.554   2.677   4.876
 8481SOL    HW226343   4.604   2.832   4.867
 8482SOL     OW26344   4.753   6.984   2.771
 8482SOL    HW126345   4.768   0.023   2.848
 8482SOL    HW226346   4.712   0.012   2.695
 8483SOL     OW26347   3.572   5.953   2.134
 8483SOL    HW126348   3.586   6.048   2.104
 8483SOL    HW226349   3.535   5.954   2.228
 8484SOL     OW26350   0.045   6.006   3.645
 8484SOL    HW126351   7.017   6.080   3.691
 8484SOL    HW226352   7.004   5.934   3.618
 8485SOL     OW26353   3.529   2.587   0.262
 8485SOL    HW126354   3.542   2.537   0.347
 8485SOL    HW226355   3.458   2.541   0.207
 8486SOL     OW26356   1.852   1.675   2.537
 8486SOL    HW126357   1.911   1.600   2.508
 8486SOL    HW226358   1.897   1.762   2.519
 8487SOL     OW26359   5.792   1.741   5.461
 8487SOL    HW126360   5.706   1.717   5.507
 8487SOL    HW226361   5.851   1.789   5.525
 8488SOL     OW26362   5.553   6.328   1.420
 8488SOL    HW126363   5.567   6.265   1.344
 8488SOL    HW226364   5.538   6.277   1.505
 8489SOL     OW26365   6.460   1.593   1.494
 8489SOL    HW126366   6.371   1.586   1.539
 8489SOL    HW226367   6.529   1.550   1.551
 8490SOL     OW26368   3.779   6.452   5.139
 8490SOL    HW126369   3.831   6.368   5.121
 8490SOL    HW226370   3.682   6.432   5.133
 8491SOL     OW26371   2.373   6.106   1.842
 8491SOL    HW126372   2.413   6.087   1.753
 8491SOL    HW226373   2.283   6.062   1.848
 8492SOL     OW26374   5.427   4.279   5.602
 8492SOL    HW126375   5.411   4.181   5.597
 8492SOL    HW226376   5.455   4.313   5.512
 8493SOL     OW26377   2.076   2.299   5.685
 8493SOL    HW126378   2.130   2.274   5.766
 8493SOL    HW226379   2.137   2.328   5.612
 8494SOL     OW26380   4.165   5.004   1.222
 8494SOL    HW126381   4.067   5.002   1.241
 8494SOL    HW226382   4.187   5.087   1.170
 8495SOL     OW26383   6.576   4.815   2.092
 8495SOL    HW126384   6.569   4.911   2.065
 8495SOL    HW226385   6.550   4.757   2.015
 8496SOL     OW26386   1.640   1.793   2.413
 8496SOL    HW126387   1.661   1.779   2.316
 8496SOL    HW226388   1.702   1.737   2.468
 8497SOL     OW26389   6.587   0.602   3.624
 8497SOL    HW126390   6.655   0.537   3.657
 8497SOL    HW226391   6.621   0.695   3.636
 8498SOL     OW26392   6.077   6.218   3.112
 8498SOL    HW126393   6.134   6.289   3.153
 8498SOL    HW226394   6.030   6.168   3.184
 8499SOL     OW26395   2.259   3.910   6.501
 8499SOL    HW126396   2.254   3.990   6.562
 8499SOL    HW226397   2.341   3.917   6.444
 8500SOL     OW26398   1.745   6.146   5.681
 8500SOL    HW126399   1.778   6.086   5.609
 8500SOL    HW226400   1.778   6.114   5.770
 8501SOL     OW26401   0.077   2.720   6.301
 8501SOL    HW126402   0.075   2.653   6.226
 8501SOL    HW226403   0.003   2.701   6.365
 8502SOL     OW26404   0.127   3.350   1.304
 8502SOL    HW126405   0.035   3.312   1.303
 8502SOL    HW226406   0.181   3.305   1.375
 8503SOL     OW26407   1.185   5.165   4.899
 8503SOL    HW126408   1.189   5.106   4.979
 8503SOL    HW226409   1.089   5.189   4.880
 8504SOL     OW26410   2.404   4.954   2.755
 8504SOL    HW126411   2.403   4.858   2.728
 8504SOL    HW226412   2.447   5.009   2.683
 8505SOL     OW26413   6.615   3.366   3.057
 8505SOL    HW126414   6.573   3.306   3.125
 8505SOL    HW226415   6.584   3.339   2.965
 8506SOL     OW26416   1.109   1.321   0.121
 8506SOL    HW126417   1.195   1.357   0.159
 8506SOL    HW226418   1.117   1.222   0.108
 8507SOL     OW26419   3.610   6.966   4.733
 8507SOL    HW126420   3.695   6.915   4.720
 8507SOL    HW226421   3.535   6.918   4.687
 8508SOL     OW26422   4.958   1.808   4.414
 8508SOL    HW126423   4.877   1.753   4.392
 8508SOL    HW226424   4.957   1.891   4.359
 8509SOL     OW26425   4.555   1.217   3.464
 8509SOL    HW126426   4.469   1.207   3.515
 8509SOL    HW226427   4.618   1.274   3.516
 8510SOL     OW26428   5.775   4.727   2.362
 8510SOL    HW126429   5.820   4.723   2.452
 8510SOL    HW226430   5.845   4.732   2.290
 8511SOL     OW26431   6.286   4.459   2.655
 8511SOL    HW126432   6.352   4.502   2.717
 8511SOL    HW226433   6.233   4.530   2.608
 8512SOL     OW26434   2.640   1.202   2.631
 8512SOL    HW126435   2.560   1.195   2.572
 8512SOL    HW226436   2.693   1.117   2.626
 8513SOL     OW26437   6.929   5.601   0.624
 8513SOL    HW126438   6.838   5.600   0.667
 8513SOL    HW226439   6.995   5.641   0.687
 8514SOL     OW26440   1.815   1.976   3.706
 8514SOL    HW126441   1.883   2.022   3.764
 8514SOL    HW226442   1.788   2.037   3.632
 8515SOL     OW26443   4.648   2.202   1.071
 8515SOL    HW126444   4.622   2.284   1.020
 8515SOL    HW226445   4.682   2.228   1.161
 8516SOL     OW26446   0.266   1.881   2.055
 8516SOL    HW126447   0.181   1.859   2.103
 8516SOL    HW226448   0.315   1.796   2.034
 8517SOL     OW26449   0.625   2.712   5.779
 8517SOL    HW126450   0.541   2.670   5.747
 8517SOL    HW226451   0.604   2.791   5.836
 8518SOL     OW26452   4.557   3.821   0.253
 8518SOL    HW126453   4.576   3.730   0.289
 8518SOL    HW226454   4.532   3.882   0.328
 8519SOL     OW26455   1.948   5.182   2.128
 8519SOL    HW126456   1.927   5.234   2.211
 8519SOL    HW226457   1.899   5.221   2.050
 8520SOL     OW26458   3.617   1.823   1.024
 8520SOL    HW126459   3.637   1.750   0.958
 8520SOL    HW226460   3.624   1.787   1.117
 8521SOL     OW26461   1.924   5.019   5.893
 8521SOL    HW126462   1.885   5.075   5.820
 8521SOL    HW226463   1.917   4.922   5.870
 8522SOL     OW26464   1.543   5.951   1.691
 8522SOL    HW126465   1.547   6.018   1.616
 8522SOL    HW226466   1.635   5.917   1.709
 8523SOL     OW26467   3.273   0.081   6.565
 8523SOL    HW126468   3.352   0.061   6.506
 8523SOL    HW226469   3.188   0.065   6.513
 8524SOL     OW26470   1.079   1.999   4.859
 8524SOL    HW126471   1.048   2.088   4.824
 8524SOL    HW226472   1.081   2.002   4.959
 8525SOL     OW26473   6.436   4.066   2.911
 8525SOL    HW126474   6.366   4.136   2.894
 8525SOL    HW226475   6.524   4.109   2.929
 8526SOL     OW26476   3.281   4.603   0.822
 8526SOL    HW126477   3.366   4.592   0.875
 8526SOL    HW226478   3.203   4.581   0.880
 8527SOL     OW26479   2.976   0.043   4.886
 8527SOL    HW126480   2.916   6.992   4.853
 8527SOL    HW226481   3.010   0.096   4.808
 8528SOL     OW26482   5.192   3.050   5.990
 8528SOL    HW126483   5.246   2.967   6.000
 8528SOL    HW226484   5.113   3.046   6.051
 8529SOL     OW26485   0.979   0.265   0.160
 8529SOL    HW126486   0.902   0.241   0.101
 8529SOL    HW226487   0.948   0.327   0.233
 8530SOL     OW26488   2.063   4.111   5.459
 8530SOL    HW126489   1.981   4.058   5.474
 8530SOL    HW226490   2.144   4.052   5.466
 8531SOL     OW26491   5.918   4.615   2.127
 8531SOL    HW126492   5.853   4.677   2.083
 8531SOL    HW226493   5.869   4.543   2.175
 8532SOL     OW26494   4.037   4.881   4.492
 8532SOL    HW126495   4.002   4.917   4.578
 8532SOL    HW226496   3.970   4.897   4.419
 8533SOL     OW26497   2.112   7.005   6.091
 8533SOL    HW126498   2.089   0.058   6.028
 8533SOL    HW226499   2.085   0.008   6.184
 8534SOL     OW26500   6.815   3.595   3.937
 8534SOL    HW126501   6.809   3.669   3.871
 8534SOL    HW226502   6.790   3.508   3.893
 8535SOL     OW26503   0.343   1.730   5.354
 8535SOL    HW126504   0.286   1.648   5.358
 8535SOL    HW226505   0.333   1.774   5.265
 8536SOL     OW26506   5.724   1.529   4.824
 8536SOL    HW126507   5.677   1.612   4.855
 8536SOL    HW226508   5.809   1.554   4.779
 8537SOL     OW26509   5.775   1.254   2.173
 8537SOL    HW126510   5.722   1.181   2.130
 8537SOL    HW226511   5.846   1.285   2.110
 8538SOL     OW26512   0.914   1.499   5.418
 8538SOL    HW126513   0.846   1.554   5.370
 8538SOL    HW226514   0.872   1.413   5.449
 8539SOL     OW26515   6.393   1.915   2.248
 8539SOL    HW126516   6.439   1.827   2.237
 8539SOL    HW226517   6.370   1.952   2.158
 8540SOL     OW26518   3.396   1.569   0.205
 8540SOL    HW126519   3.367   1.506   0.277
 8540SOL    HW226520   3.352   1.658   0.218
 8541SOL     OW26521   3.118   1.993   4.307
 8541SOL    HW126522   3.095   2.060   4.236
 8541SOL    HW226523   3.146   1.907   4.264
 8542SOL     OW26524   2.533   4.590   5.520
 8542SOL    HW126525   2.484   4.603   5.607
 8542SOL    HW226526   2.508   4.502   5.481
 8543SOL     OW26527   3.270   1.395   6.521
 8543SOL    HW126528   3.324   1.421   6.441
 8543SOL    HW226529   3.323   1.413   6.604
 8544SOL     OW26530   5.543   2.846   4.497
 8544SOL    HW126531   5.502   2.937   4.491
 8544SOL    HW226532   5.483   2.780   4.452
 8545SOL     OW26533   4.163   6.805   4.720
 8545SOL    HW126534   4.135   6.714   4.749
 8545SOL    HW226535   4.245   6.833   4.769
 8546SOL     OW26536   0.530   0.323   2.341
 8546SOL    HW126537   0.473   0.379   2.402
 8546SOL    HW226538   0.482   0.307   2.255
 8547SOL     OW26539   1.297   0.013   6.318
 8547SOL    HW126540   1.217   0.034   6.374
 8547SOL    HW226541   1.268   6.982   6.239
 8548SOL     OW26542   6.925   3.648   5.614
 8548SOL    HW126543   6.863   3.721   5.583
 8548SOL    HW226544   7.003   3.688   5.662
 8549SOL     OW26545   0.507   2.243   4.518
 8549SOL    HW126546   0.574   2.310   4.549
 8549SOL    HW226547   0.555   2.167   4.474
 8550SOL     OW26548   1.326   4.595   0.169
 8550SOL    HW126549   1.253   4.546   0.119
 8550SOL    HW226550   1.315   4.579   0.267
 8551SOL     OW26551   2.797   2.891   0.215
 8551SOL    HW126552   2.734   2.886   0.137
 8551SOL    HW226553   2.880   2.841   0.194
 8552SOL     OW26554   1.881   0.578   3.162
 8552SOL    HW126555   1.808   0.607   3.100
 8552SOL    HW226556   1.874   0.479   3.177
 8553SOL     OW26557   4.346   4.094   6.337
 8553SOL    HW126558   4.306   4.168   6.283
 8553SOL    HW226559   4.367   4.126   6.429
 8554SOL     OW26560   0.120   5.751   0.767
 8554SOL    HW126561   0.172   5.736   0.683
 8554SOL    HW226562   0.122   5.848   0.791
 8555SOL     OW26563   3.355   1.389   3.451
 8555SOL    HW126564   3.429   1.430   3.504
 8555SOL    HW226565   3.301   1.328   3.509
 8556SOL     OW26566   2.214   5.987   5.017
 8556SOL    HW126567   2.264   6.069   5.048
 8556SOL    HW226568   2.119   5.994   5.044
 8557SOL     OW26569   6.673   0.188   2.345
 8557SOL    HW126570   6.623   0.261   2.298
 8557SOL    HW226571   6.641   0.100   2.311
 8558SOL     OW26572   2.130   5.814   3.096
 8558SOL    HW126573   2.181   5.892   3.132
 8558SOL    HW226574   2.155   5.731   3.147
 8559SOL     OW26575   2.038   6.903   2.806
 8559SOL    HW126576   2.078   6.993   2.788
 8559SOL    HW226577   2.081   6.863   2.887
 8560SOL     OW26578   1.203   5.598   2.104
 8560SOL    HW126579   1.270   5.667   2.079
 8560SOL    HW226580   1.190   5.598   2.204
 8561SOL     OW26581   3.019   6.997   3.193
 8561SOL    HW126582   2.959   0.054   3.188
 8561SOL    HW226583   3.112   0.001   3.167
 8562SOL     OW26584   3.616   6.317   6.809
 8562SOL    HW126585   3.550   6.334   6.882
 8562SOL    HW226586   3.707   6.346   6.840
 8563SOL     OW26587   0.921   4.992   2.198
 8563SOL    HW126588   0.982   5.070   2.187
 8563SOL    HW226589   0.919   4.940   2.112
 8564SOL     OW26590   3.122   6.863   5.374
 8564SOL    HW126591   3.081   6.944   5.416
 8564SOL    HW226592   3.055   6.818   5.315
 8565SOL     OW26593   3.364   4.878   1.055
 8565SOL    HW126594   3.298   4.858   0.982
 8565SOL    HW226595   3.321   4.861   1.143
 8566SOL     OW26596   1.115   0.297   1.727
 8566SOL    HW126597   1.122   0.214   1.782
 8566SOL    HW226598   1.110   0.272   1.630
 8567SOL     OW26599   0.836   2.184   2.335
 8567SOL    HW126600   0.931   2.202   2.359
 8567SOL    HW226601   0.780   2.183   2.418
 8568SOL     OW26602   5.495   2.304   0.317
 8568SOL    HW126603   5.563   2.240   0.283
 8568SOL    HW226604   5.494   2.303   0.417
 8569SOL     OW26605   5.177   2.065   5.146
 8569SOL    HW126606   5.146   2.121   5.223
 8569SOL    HW226607   5.260   2.104   5.107
 8570SOL     OW26608   1.101   1.472   4.235
 8570SOL    HW126609   1.136   1.484   4.142
 8570SOL    HW226610   1.147   1.395   4.279
 8571SOL     OW26611   1.028   6.167   5.508
 8571SOL    HW126612   1.005   6.121   5.422
 8571SOL    HW226613   0.974   6.128   5.582
 8572SOL     OW26614   1.735   4.397   5.540
 8572SOL    HW126615   1.694   4.307   5.524
 8572SOL    HW226616   1.810   4.388   5.605
 8573SOL     OW26617   3.153   5.683   6.109
 8573SOL    HW126618   3.101   5.761   6.145
 8573SOL    HW226619   3.251   5.702   6.118
 8574SOL     OW26620   5.921   0.235   6.189
 8574SOL    HW126621   5.866   0.195   6.263
 8574SOL    HW226622   6.017   0.240   6.219
 8575SOL     OW26623   2.606   2.218   3.599
 8575SOL    HW126624   2.598   2.317   3.607
 8575SOL    HW226625   2.626   2.193   3.504
 8576SOL     OW26626   1.515   4.768   4.600
 8576SOL    HW126627   1.527   4.855   4.553
 8576SOL    HW226628   1.419   4.756   4.626
 8577SOL     OW26629   1.412   0.383   6.265
 8577SOL    HW126630   1.406   0.315   6.338
 8577SOL    HW226631   1.336   0.370   6.201
 8578SOL     OW26632   6.881   4.876   5.212
 8578SOL    HW126633   6.913   4.951   5.271
 8578SOL    HW226634   6.785   4.891   5.190
 8579SOL     OW26635   1.855   6.407   2.023
 8579SOL    HW126636   1.841   6.499   2.058
 8579SOL    HW226637   1.872   6.344   2.098
 8580SOL     OW26638   2.023   5.566   0.622
 8580SOL    HW126639   2.013   5.520   0.711
 8580SOL    HW226640   1.962   5.645   0.619
 8581SOL     OW26641   3.164   4.523   1.459
 8581SOL    HW126642   3.104   4.465   1.514
 8581SOL    HW226643   3.109   4.574   1.393
 8582SOL     OW26644   4.737   4.413   5.189
 8582SOL    HW126645   4.721   4.409   5.090
 8582SOL    HW226646   4.804   4.344   5.215
 8583SOL     OW26647   3.691   6.913   3.741
 8583SOL    HW126648   3.593   6.909   3.717
 8583SOL    HW226649   3.729   7.000   3.709
 8584SOL     OW26650   1.233   6.461   5.699
 8584SOL    HW126651   1.139   6.429   5.703
 8584SOL    HW226652   1.267   6.453   5.605
 8585SOL     OW26653   6.167   1.215   0.364
 8585SOL    HW126654   6.162   1.248   0.458
 8585SOL    HW226655   6.166   1.115   0.365
 8586SOL     OW26656   3.326   6.463   2.022
 8586SOL    HW126657   3.241   6.410   2.015
 8586SOL    HW226658   3.308   6.548   2.071
 8587SOL     OW26659   0.740   0.761   4.457
 8587SOL    HW126660   0.743   0.673   4.410
 8587SOL    HW226661   0.807   0.762   4.531
 8588SOL     OW26662   4.780   1.352   6.845
 8588SOL    HW126663   4.831   1.270   6.873
 8588SOL    HW226664   4.741   1.337   6.754
 8589SOL     OW26665   6.194   2.571   4.793
 8589SOL    HW126666   6.268   2.564   4.860
 8589SOL    HW226667   6.191   2.664   4.756
 8590SOL     OW26668   0.379   0.771   2.218
 8590SOL    HW126669   0.371   0.799   2.314
 8590SOL    HW226670   0.335   0.839   2.159
 8591SOL     OW26671   0.194   4.028   0.059
 8591SOL    HW126672   0.142   4.029   0.145
 8591SOL    HW226673   0.140   3.983   7.011
 8592SOL     OW26674   5.605   1.977   6.911
 8592SOL    HW126675   5.544   1.921   6.967
 8592SOL    HW226676   5.550   2.032   6.848
 8593SOL     OW26677   3.432   0.892   6.699
 8593SOL    HW126678   3.421   0.979   6.651
 8593SOL    HW226679   3.356   0.831   6.677
 8594SOL     OW26680   5.628   2.449   5.394
 8594SOL    HW126681   5.713   2.475   5.441
 8594SOL    HW226682   5.646   2.369   5.337
 8595SOL     OW26683   6.674   1.285   3.885
 8595SOL    HW126684   6.689   1.208   3.947
 8595SOL    HW226685   6.608   1.348   3.925
 8596SOL     OW26686   1.339   4.752   3.006
 8596SOL    HW126687   1.392   4.772   3.088
 8596SOL    HW226688   1.243   4.743   3.030
 8597SOL     OW26689   5.386   1.863   1.970
 8597SOL    HW126690   5.308   1.921   1.994
 8597SOL    HW226691   5.372   1.825   1.879
 8598SOL     OW26692   5.614   0.643   6.477
 8598SOL    HW126693   5.644   0.588   6.555
 8598SOL    HW226694   5.664   0.615   6.395
 8599SOL     OW26695   1.960   2.456   4.677
 8599SOL    HW126696   1.875   2.473   4.726
 8599SOL    HW226697   2.012   2.384   4.724
 8600SOL     OW26698   5.242   4.021   0.202
 8600SOL    HW126699   5.307   3.968   0.256
 8600SOL    HW226700   5.200   3.962   0.133
 8601SOL     OW26701   0.793   1.735   4.020
 8601SOL    HW126702   0.810   1.692   4.109
 8601SOL    HW226703   0.744   1.672   3.961
 8602SOL     OW26704   2.600   6.662   2.377
 8602SOL    HW126705   2.579   6.719   2.456
 8602SOL    HW226706   2.581   6.713   2.293
 8603SOL     OW26707   5.375   6.964   1.291
 8603SOL    HW126708   5.409   6.925   1.205
 8603SOL    HW226709   5.398   6.903   1.367
 8604SOL     OW26710   1.297   2.458   6.074
 8604SOL    HW126711   1.333   2.530   6.132
 8604SOL    HW226712   1.307   2.369   6.120
 8605SOL     OW26713   2.276   5.329   3.926
 8605SOL    HW126714   2.326   5.294   4.005
 8605SOL    HW226715   2.318   5.414   3.895
 8606SOL     OW26716   1.885   2.760   6.820
 8606SOL    HW126717   1.876   2.667   6.858
 8606SOL    HW226718   1.794   2.798   6.804
 8607SOL     OW26719   2.766   4.722   6.024
 8607SOL    HW126720   2.712   4.806   6.015
 8607SOL    HW226721   2.726   4.651   5.967
 8608SOL     OW26722   2.352   4.607   2.717
 8608SOL    HW126723   2.446   4.639   2.708
 8608SOL    HW226724   2.298   4.636   2.638
 8609SOL     OW26725   4.987   0.695   3.262
 8609SOL    HW126726   4.887   0.696   3.258
 8609SOL    HW226727   5.024   0.718   3.172
 8610SOL     OW26728   0.298   1.230   2.942
 8610SOL    HW126729   0.241   1.278   3.008
 8610SOL    HW226730   0.327   1.295   2.871
 8611SOL     OW26731   2.875   1.656   4.186
 8611SOL    HW126732   2.842   1.709   4.108
 8611SOL    HW226733   2.963   1.691   4.216
 8612SOL     OW26734   3.022   3.345   1.043
 8612SOL    HW126735   3.012   3.264   0.986
 8612SOL    HW226736   3.046   3.319   1.136
 8613SOL     OW26737   3.116   1.992   1.865
 8613SOL    HW126738   3.209   1.979   1.831
 8613SOL    HW226739   3.078   2.076   1.828
 8614SOL     OW26740   1.177   2.964   4.060
 8614SOL    HW126741   1.122   3.023   4.001
 8614SOL    HW226742   1.272   2.966   4.029
 8615SOL     OW26743   4.216   1.954   5.087
 8615SOL    HW126744   4.145   2.024   5.080
 8615SOL    HW226745   4.306   1.996   5.070
 8616SOL     OW26746   3.040   4.767   2.014
 8616SOL    HW126747   2.968   4.698   2.007
 8616SOL    HW226748   3.076   4.769   2.107
 8617SOL     OW26749   5.776   1.265   4.446
 8617SOL    HW126750   5.745   1.217   4.364
 8617SOL    HW226751   5.698   1.300   4.497
 8618SOL     OW26752   6.329   4.716   1.231
 8618SOL    HW126753   6.347   4.810   1.258
 8618SOL    HW226754   6.402   4.684   1.170
 8619SOL     OW26755   4.417   5.186   1.841
 8619SOL    HW126756   4.338   5.138   1.803
 8619SOL    HW226757   4.417   5.178   1.941
 8620SOL     OW26758   2.003   6.100   3.424
 8620SOL    HW126759   2.020   6.002   3.419
 8620SOL    HW226760   1.907   6.116   3.448
 8621SOL     OW26761   5.382   2.287   2.273
 8621SOL    HW126762   5.303   2.315   2.328
 8621SOL    HW226763   5.402   2.190   2.289
 8622SOL     OW26764   5.012   4.015   1.561
 8622SOL    HW126765   4.957   3.938   1.595
 8622SOL    HW226766   4.968   4.101   1.587
 8623SOL     OW26767   1.137   4.213   5.825
 8623SOL    HW126768   1.139   4.223   5.726
 8623SOL    HW226769   1.126   4.116   5.849
 8624SOL     OW26770   1.928   3.740   5.025
 8624SOL    HW126771   1.869   3.658   5.023
 8624SOL    HW226772   1.955   3.764   4.932
 8625SOL     OW26773   4.794   1.067   5.313
 8625SOL    HW126774   4.777   1.132   5.387
 8625SOL    HW226775   4.892   1.049   5.306
 8626SOL     OW26776   3.863   2.226   6.803
 8626SOL    HW126777   3.917   2.247   6.721
 8626SOL    HW226778   3.822   2.135   6.793
 8627SOL     OW26779   1.809   1.759   2.182
 8627SOL    HW126780   1.794   1.661   2.188
 8627SOL    HW226781   1.760   1.796   2.103
 8628SOL     OW26782   6.118   6.546   0.493
 8628SOL    HW126783   6.190   6.478   0.507
 8628SOL    HW226784   6.106   6.562   0.395
 8629SOL     OW26785   1.600   6.547   4.865
 8629SOL    HW126786   1.586   6.642   4.837
 8629SOL    HW226787   1.538   6.525   4.940
 8630SOL     OW26788   4.776   3.025   3.691
 8630SOL    HW126789   4.824   3.056   3.773
 8630SOL    HW226790   4.694   3.082   3.677
 8631SOL     OW26791   1.138   5.465   6.407
 8631SOL    HW126792   1.165   5.378   6.367
 8631SOL    HW226793   1.145   5.537   6.339
 8632SOL     OW26794   4.038   5.093   5.457
 8632SOL    HW126795   4.031   4.997   5.429
 8632SOL    HW226796   4.108   5.139   5.402
 8633SOL     OW26797   5.738   2.840   5.956
 8633SOL    HW126798   5.781   2.922   5.919
 8633SOL    HW226799   5.692   2.863   6.042
 8634SOL     OW26800   5.190   4.316   6.734
 8634SOL    HW126801   5.285   4.289   6.752
 8634SOL    HW226802   5.164   4.287   6.642
 8635SOL     OW26803   5.494   3.168   6.719
 8635SOL    HW126804   5.435   3.090   6.698
 8635SOL    HW226805   5.451   3.224   6.789
 8636SOL     OW26806   5.758   5.996   0.577
 8636SOL    HW126807   5.856   6.015   0.586
 8636SOL    HW226808   5.718   6.060   0.512
 8637SOL     OW26809   1.986   1.282   6.700
 8637SOL    HW126810   2.067   1.250   6.652
 8637SOL    HW226811   1.905   1.234   6.665
 8638SOL     OW26812   3.887   2.127   4.860
 8638SOL    HW126813   3.954   2.189   4.818
 8638SOL    HW226814   3.855   2.062   4.791
 8639SOL     OW26815   5.487   2.970   0.241
 8639SOL    HW126816   5.457   2.908   0.314
 8639SOL    HW226817   5.505   2.917   0.158
 8640SOL     OW26818   3.996   3.328   6.625
 8640SOL    HW126819   3.951   3.314   6.714
 8640SOL    HW226820   4.007   3.426   6.609
 8641SOL     OW26821   4.014   4.850   4.101
 8641SOL    HW126822   3.964   4.846   4.187
 8641SOL    HW226823   4.029   4.946   4.075
 8642SOL     OW26824   0.906   6.665   4.376
 8642SOL    HW126825   0.935   6.650   4.471
 8642SOL    HW226826   0.921   6.760   4.352
 8643SOL     OW26827   2.084   0.726   6.679
 8643SOL    HW126828   2.165   0.670   6.696
 8643SOL    HW226829   2.081   0.752   6.583
 8644SOL     OW26830   5.708   2.342   5.884
 8644SOL    HW126831   5.675   2.289   5.963
 8644SOL    HW226832   5.642   2.334   5.809
 8645SOL     OW26833   4.161   4.599   1.364
 8645SOL    HW126834   4.205   4.513   1.391
 8645SOL    HW226835   4.072   4.580   1.322
 8646SOL     OW26836   0.420   2.016   6.775
 8646SOL    HW126837   0.421   2.110   6.742
 8646SOL    HW226838   0.505   1.970   6.747
 8647SOL     OW26839   2.479   4.792   6.811
 8647SOL    HW126840   2.539   4.860   6.770
 8647SOL    HW226841   2.496   4.702   6.770
 8648SOL     OW26842   6.804   0.388   2.556
 8648SOL    HW126843   6.888   0.439   2.536
 8648SOL    HW226844   6.805   0.301   2.507
 8649SOL     OW26845   5.710   5.638   6.788
 8649SOL    HW126846   5.740   5.703   6.718
 8649SOL    HW226847   5.672   5.557   6.744
 8650SOL     OW26848   1.727   5.783   5.057
 8650SOL    HW126849   1.812   5.731   5.057
 8650SOL    HW226850   1.670   5.754   5.133
 8651SOL     OW26851   3.957   0.689   0.599
 8651SOL    HW126852   3.919   0.778   0.622
 8651SOL    HW226853   3.898   0.617   0.634
 8652SOL     OW26854   1.367   5.052   2.865
 8652SOL    HW126855   1.276   5.092   2.860
 8652SOL    HW226856   1.361   4.960   2.904
 8653SOL     OW26857   0.141   0.977   6.335
 8653SOL    HW126858   0.121   1.045   6.405
 8653SOL    HW226859   0.234   0.942   6.348
 8654SOL     OW26860   0.776   5.003   1.273
 8654SOL    HW126861   0.695   4.954   1.307
 8654SOL    HW226862   0.829   4.943   1.214
 8655SOL     OW26863   6.216   0.569   4.479
 8655SOL    HW126864   6.118   0.588   4.492
 8655SOL    HW226865   6.252   0.522   4.559
 8656SOL     OW26866   6.409   0.829   1.968
 8656SOL    HW126867   6.408   0.777   1.883
 8656SOL    HW226868   6.503   0.849   1.995
 8657SOL     OW26869   5.490   6.216   0.137
 8657SOL    HW126870   5.422   6.147   0.114
 8657SOL    HW226871   5.445   6.304   0.150
 8658SOL     OW26872   6.349   6.433   0.383
 8658SOL    HW126873   6.340   6.532   0.391
 8658SOL    HW226874   6.398   6.397   0.463
 8659SOL     OW26875   4.932   2.202   2.216
 8659SOL    HW126876   4.927   2.286   2.162
 8659SOL    HW226877   4.999   2.214   2.289
 8660SOL     OW26878   6.841   3.727   1.618
 8660SOL    HW126879   6.742   3.723   1.606
 8660SOL    HW226880   6.871   3.651   1.674
 8661SOL     OW26881   6.388   3.922   1.242
 8661SOL    HW126882   6.408   3.904   1.339
 8661SOL    HW226883   6.418   4.014   1.219
 8662SOL     OW26884   4.401   5.615   1.574
 8662SOL    HW126885   4.368   5.588   1.665
 8662SOL    HW226886   4.325   5.653   1.521
 8663SOL     OW26887   2.310   5.595   2.376
 8663SOL    HW126888   2.274   5.602   2.469
 8663SOL    HW226889   2.236   5.572   2.313
 8664SOL     OW26890   2.152   5.204   1.637
 8664SOL    HW126891   2.176   5.285   1.584
 8664SOL    HW226892   2.202   5.125   1.601
 8665SOL     OW26893   5.489   5.391   4.887
 8665SOL    HW126894   5.532   5.308   4.921
 8665SOL    HW226895   5.407   5.410   4.941
 8666SOL     OW26896   5.685   1.114   3.791
 8666SOL    HW126897   5.598   1.075   3.761
 8666SOL    HW226898   5.706   1.195   3.737
 8667SOL     OW26899   4.592   1.956   4.347
 8667SOL    HW126900   4.625   1.863   4.331
 8667SOL    HW226901   4.556   1.963   4.440
 8668SOL     OW26902   5.416   3.827   3.534
 8668SOL    HW126903   5.479   3.894   3.495
 8668SOL    HW226904   5.430   3.738   3.492
 8669SOL     OW26905   0.275   6.482   6.923
 8669SOL    HW126906   0.364   6.483   6.968
 8669SOL    HW226907   0.202   6.471   6.991
 8670SOL     OW26908   4.184   5.504   6.334
 8670SOL    HW126909   4.206   5.586   6.386
 8670SOL    HW226910   4.088   5.481   6.346
 8671SOL     OW26911   6.742   1.632   3.309
 8671SOL    HW126912   6.766   1.679   3.394
 8671SOL    HW226913   6.655   1.668   3.275
 8672SOL     OW26914   0.645   5.567   3.857
 8672SOL    HW126915   0.733   5.582   3.902
 8672SOL    HW226916   0.605   5.656   3.832
 8673SOL     OW26917   5.798   1.783   6.996
 8673SOL    HW126918   5.833   1.869   0.011
 8673SOL    HW226919   5.704   1.797   6.963
 8674SOL     OW26920   5.864   5.438   3.107
 8674SOL    HW126921   5.897   5.466   3.017
 8674SOL    HW226922   5.936   5.388   3.155
 8675SOL     OW26923   4.025   1.574   5.173
 8675SOL    HW126924   4.108   1.623   5.201
 8675SOL    HW226925   4.007   1.591   5.077
 8676SOL     OW26926   5.013   6.780   3.135
 8676SOL    HW126927   4.971   6.867   3.107
 8676SOL    HW226928   4.950   6.732   3.196
 8677SOL     OW26929   2.096   5.634   6.272
 8677SOL    HW126930   2.100   5.704   6.201
 8677SOL    HW226931   2.160   5.561   6.251
 8678SOL     OW26932   1.125   0.547   0.848
 8678SOL    HW126933   1.099   0.481   0.918
 8678SOL    HW226934   1.200   0.511   0.794
 8679SOL     OW26935   0.815   1.282   3.438
 8679SOL    HW126936   0.732   1.297   3.492
 8679SOL    HW226937   0.863   1.369   3.426
 8680SOL     OW26938   6.291   3.959   0.164
 8680SOL    HW126939   6.241   4.016   0.230
 8680SOL    HW226940   6.351   3.897   0.213
 8681SOL     OW26941   4.931   5.556   1.485
 8681SOL    HW126942   4.863   5.509   1.542
 8681SOL    HW226943   4.886   5.630   1.435
 8682SOL     OW26944   6.005   6.938   2.755
 8682SOL    HW126945   6.073   6.885   2.806
 8682SOL    HW226946   5.919   6.888   2.752
 8683SOL     OW26947   1.349   2.330   5.349
 8683SOL    HW126948   1.340   2.237   5.386
 8683SOL    HW226949   1.444   2.344   5.319
 8684SOL     OW26950   5.659   3.416   4.468
 8684SOL    HW126951   5.598   3.488   4.502
 8684SOL    HW226952   5.693   3.442   4.377
 8685SOL     OW26953   5.941   2.637   6.151
 8685SOL    HW126954   5.904   2.674   6.065
 8685SOL    HW226955   5.911   2.694   6.227
 8686SOL     OW26956   6.657   0.868   2.067
 8686SOL    HW126957   6.677   0.772   2.089
 8686SOL    HW226958   6.663   0.923   2.150
 8687SOL     OW26959   5.290   5.112   2.658
 8687SOL    HW126960   5.191   5.111   2.665
 8687SOL    HW226961   5.325   5.199   2.693
 8688SOL     OW26962   1.276   5.223   6.932
 8688SOL    HW126963   1.196   5.197   6.878
 8688SOL    HW226964   1.282   5.323   6.936
 8689SOL     OW26965   4.047   2.421   0.756
 8689SOL    HW126966   3.972   2.403   0.693
 8689SOL    HW226967   4.107   2.491   0.718
 8690SOL     OW26968   1.496   3.586   4.469
 8690SOL    HW126969   1.407   3.573   4.513
 8690SOL    HW226970   1.516   3.683   4.464
 8691SOL     OW26971   4.328   2.056   6.047
 8691SOL    HW126972   4.395   2.025   5.979
 8691SOL    HW226973   4.238   2.017   6.025
 8692SOL     OW26974   3.349   0.928   4.189
 8692SOL    HW126975   3.378   1.010   4.140
 8692SOL    HW226976   3.330   0.854   4.124
 8693SOL     OW26977   5.612   0.311   0.403
 8693SOL    HW126978   5.646   0.216   0.402
 8693SOL    HW226979   5.534   0.318   0.465
 8694SOL     OW26980   5.452   1.185   4.464
 8694SOL    HW126981   5.352   1.176   4.454
 8694SOL    HW226982   5.472   1.243   4.543
 8695SOL     OW26983   4.451   3.492   6.132
 8695SOL    HW126984   4.377   3.495   6.199
 8695SOL    HW226985   4.430   3.554   6.056
 8696SOL     OW26986   2.597   5.656   5.257
 8696SOL    HW126987   2.553   5.737   5.295
 8696SOL    HW226988   2.604   5.586   5.328
 8697SOL     OW26989   0.374   4.318   6.595
 8697SOL    HW126990   0.304   4.289   6.660
 8697SOL    HW226991   0.456   4.347   6.644
 8698SOL     OW26992   5.014   6.098   5.098
 8698SOL    HW126993   5.047   6.143   5.181
 8698SOL    HW226994   4.927   6.053   5.117
 8699SOL     OW26995   1.711   2.868   4.832
 8699SOL    HW126996   1.811   2.868   4.828
 8699SOL    HW226997   1.674   2.796   4.774
 8700SOL     OW26998   0.930   0.706   4.661
 8700SOL    HW126999   0.854   0.683   4.721
 8700SOL    HW227000   1.008   0.736   4.716
 8701SOL     OW27001   1.802   1.128   0.707
 8701SOL    HW127002   1.859   1.163   0.632
 8701SOL    HW227003   1.754   1.204   0.750
 8702SOL     OW27004   5.252   5.047   1.961
 8702SOL    HW127005   5.333   5.103   1.977
 8702SOL    HW227006   5.173   5.105   1.942
 8703SOL     OW27007   2.790   4.694   6.919
 8703SOL    HW127008   2.857   4.654   6.982
 8703SOL    HW227009   2.807   4.792   6.912
 8704SOL     OW27010   0.451   4.248   3.550
 8704SOL    HW127011   0.415   4.156   3.535
 8704SOL    HW227012   0.417   4.310   3.479
 8705SOL     OW27013   5.095   1.768   6.292
 8705SOL    HW127014   5.044   1.765   6.206
 8705SOL    HW227015   5.097   1.861   6.327
 8706SOL     OW27016   4.862   2.153   0.285
 8706SOL    HW127017   4.793   2.189   0.223
 8706SOL    HW227018   4.838   2.059   0.311
 8707SOL     OW27019   0.486   1.676   4.900
 8707SOL    HW127020   0.445   1.747   4.842
 8707SOL    HW227021   0.434   1.591   4.890
 8708SOL     OW27022   4.173   1.929   3.786
 8708SOL    HW127023   4.180   1.936   3.886
 8708SOL    HW227024   4.120   1.848   3.762
 8709SOL     OW27025   6.502   6.964   6.816
 8709SOL    HW127026   6.509   0.032   6.859
 8709SOL    HW227027   6.438   6.969   6.740
 8710SOL     OW27028   1.927   2.793   3.322
 8710SOL    HW127029   1.834   2.792   3.358
 8710SOL    HW227030   1.985   2.851   3.380
 8711SOL     OW27031   2.332   6.512   2.916
 8711SOL    HW127032   2.406   6.507   2.984
 8711SOL    HW227033   2.367   6.552   2.832
 8712SOL     OW27034   3.286   1.536   4.362
 8712SOL    HW127035   3.250   1.466   4.300
 8712SOL    HW227036   3.318   1.493   4.446
 8713SOL     OW27037   6.689   3.065   1.872
 8713SOL    HW127038   6.684   3.001   1.949
 8713SOL    HW227039   6.643   3.150   1.895
 8714SOL     OW27040   1.588   0.317   5.448
 8714SOL    HW127041   1.559   0.228   5.483
 8714SOL    HW227042   1.511   0.381   5.453
 8715SOL     OW27043   3.869   0.945   0.716
 8715SOL    HW127044   3.966   0.960   0.736
 8715SOL    HW227045   3.813   0.988   0.787
 8716SOL     OW27046   0.101   6.565   0.152
 8716SOL    HW127047   0.147   6.573   0.241
 8716SOL    HW227048   0.017   6.512   0.163
 8717SOL     OW27049   2.881   3.610   5.032
 8717SOL    HW127050   2.899   3.690   4.975
 8717SOL    HW227051   2.846   3.640   5.121
 8718SOL     OW27052   1.450   2.637   6.218
 8718SOL    HW127053   1.548   2.658   6.212
 8718SOL    HW227054   1.420   2.641   6.313
 8719SOL     OW27055   3.401   0.187   0.435
 8719SOL    HW127056   3.445   0.172   0.347
 8719SOL    HW227057   3.456   0.250   0.490
 8720SOL     OW27058   1.237   6.591   6.098
 8720SOL    HW127059   1.214   6.567   6.193
 8720SOL    HW227060   1.328   6.557   6.076
 8721SOL     OW27061   6.769   1.922   1.085
 8721SOL    HW127062   6.866   1.941   1.069
 8721SOL    HW227063   6.754   1.907   1.182
 8722SOL     OW27064   3.180   1.266   1.476
 8722SOL    HW127065   3.092   1.293   1.517
 8722SOL    HW227066   3.255   1.303   1.531
 8723SOL     OW27067   5.341   6.956   1.721
 8723SOL    HW127068   5.356   6.906   1.806
 8723SOL    HW227069   5.257   7.010   1.728
 8724SOL     OW27070   5.755   6.669   4.183
 8724SOL    HW127071   5.692   6.707   4.116
 8724SOL    HW227072   5.815   6.741   4.218
 8725SOL     OW27073   1.712   5.480   5.672
 8725SOL    HW127074   1.702   5.579   5.674
 8725SOL    HW227075   1.782   5.455   5.606
 8726SOL     OW27076   7.014   0.796   2.288
 8726SOL    HW127077   0.038   0.811   2.376
 8726SOL    HW227078   6.924   0.839   2.290
 8727SOL     OW27079   6.337   0.202   1.178
 8727SOL    HW127080   6.357   0.273   1.110
 8727SOL    HW227081   6.423   0.171   1.220
 8728SOL     OW27082   5.915   0.739   2.247
 8728SOL    HW127083   5.944   0.643   2.249
 8728SOL    HW227084   5.851   0.753   2.171
 8729SOL     OW27085   3.479   4.669   5.433
 8729SOL    HW127086   3.563   4.706   5.395
 8729SOL    HW227087   3.500   4.593   5.494
 8730SOL     OW27088   5.127   3.930   2.666
 8730SOL    HW127089   5.083   4.017   2.646
 8730SOL    HW227090   5.090   3.859   2.607
 8731SOL     OW27091   0.404   4.003   3.445
 8731SOL    HW127092   0.488   3.953   3.463
 8731SOL    HW227093   0.407   4.040   3.352
 8732SOL     OW27094   5.803   5.137   2.036
 8732SOL    HW127095   5.900   5.149   2.018
 8732SOL    HW227096   5.774   5.202   2.107
 8733SOL     OW27097   1.226   5.513   0.702
 8733SOL    HW127098   1.136   5.545   0.732
 8733SOL    HW227099   1.263   5.449   0.769
 8734SOL     OW27100   0.776   3.153   3.452
 8734SOL    HW127101   0.864   3.197   3.468
 8734SOL    HW227102   0.777   3.060   3.490
 8735SOL     OW27103   0.493   2.930   5.982
 8735SOL    HW127104   0.396   2.950   5.973
 8735SOL    HW227105   0.508   2.871   6.061
 8736SOL     OW27106   6.938   5.545   1.923
 8736SOL    HW127107   6.885   5.504   1.849
 8736SOL    HW227108   6.902   5.636   1.943
 8737SOL     OW27109   1.921   6.508   0.232
 8737SOL    HW127110   1.844   6.484   0.173
 8737SOL    HW227111   1.985   6.566   0.182
 8738SOL     OW27112   2.558   5.902   3.783
 8738SOL    HW127113   2.514   5.972   3.839
 8738SOL    HW227114   2.488   5.843   3.741
 8739SOL     OW27115   5.627   5.474   6.049
 8739SOL    HW127116   5.570   5.468   6.131
 8739SOL    HW227117   5.707   5.531   6.068
 8740SOL     OW27118   4.094   1.660   3.822
 8740SOL    HW127119   4.123   1.597   3.751
 8740SOL    HW227120   4.161   1.661   3.896
 8741SOL     OW27121   2.458   0.760   2.855
 8741SOL    HW127122   2.456   0.859   2.849
 8741SOL    HW227123   2.546   0.726   2.820
 8742SOL     OW27124   4.801   0.300   1.842
 8742SOL    HW127125   4.720   0.244   1.862
 8742SOL    HW227126   4.838   0.338   1.927
 8743SOL     OW27127   1.400   0.465   1.471
 8743SOL    HW127128   1.391   0.520   1.388
 8743SOL    HW227129   1.417   0.525   1.550
 8744SOL     OW27130   4.409   2.619   0.428
 8744SOL    HW127131   4.508   2.615   0.412
 8744SOL    HW227132   4.366   2.681   0.363
 8745SOL     OW27133   5.788   2.075   6.239
 8745SOL    HW127134   5.828   2.034   6.321
 8745SOL    HW227135   5.776   2.173   6.253
 8746SOL     OW27136   5.382   5.872   4.452
 8746SOL    HW127137   5.333   5.899   4.534
 8746SOL    HW227138   5.382   5.772   4.444
 8747SOL     OW27139   0.595   1.525   2.771
 8747SOL    HW127140   0.577   1.621   2.748
 8747SOL    HW227141   0.692   1.513   2.792
 8748SOL     OW27142   0.312   1.464   4.888
 8748SOL    HW127143   0.233   1.483   4.946
 8748SOL    HW227144   0.284   1.409   4.810
 8749SOL     OW27145   1.856   0.204   5.790
 8749SOL    HW127146   1.868   0.105   5.788
 8749SOL    HW227147   1.931   0.245   5.842
 8750SOL     OW27148   3.551   3.776   5.713
 8750SOL    HW127149   3.646   3.797   5.736
 8750SOL    HW227150   3.490   3.824   5.776
 8751SOL     OW27151   6.853   1.590   2.533
 8751SOL    HW127152   6.863   1.650   2.454
 8751SOL    HW227153   6.887   1.498   2.509
 8752SOL     OW27154   3.614   2.715   6.749
 8752SOL    HW127155   3.609   2.740   6.652
 8752SOL    HW227156   3.631   2.617   6.758
 8753SOL     OW27157   3.035   2.273   6.312
 8753SOL    HW127158   2.937   2.270   6.332
 8753SOL    HW227159   3.056   2.358   6.264
 8754SOL     OW27160   2.132   4.546   5.519
 8754SOL    HW127161   2.164   4.633   5.481
 8754SOL    HW227162   2.145   4.473   5.452
 8755SOL     OW27163   2.200   0.491   0.957
 8755SOL    HW127164   2.147   0.502   1.041
 8755SOL    HW227165   2.187   0.571   0.899
 8756SOL     OW27166   2.017   3.192   3.200
 8756SOL    HW127167   2.076   3.161   3.125
 8756SOL    HW227168   2.004   3.291   3.193
 8757SOL     OW27169   4.677   5.548   6.766
 8757SOL    HW127170   4.674   5.602   6.850
 8757SOL    HW227171   4.726   5.462   6.784
 8758SOL     OW27172   4.624   6.384   2.828
 8758SOL    HW127173   4.593   6.442   2.903
 8758SOL    HW227174   4.559   6.310   2.813
 8759SOL     OW27175   5.403   3.211   0.195
 8759SOL    HW127176   5.308   3.202   0.165
 8759SOL    HW227177   5.448   3.121   0.194
 8760SOL     OW27178   2.599   0.571   4.375
 8760SOL    HW127179   2.517   0.546   4.426
 8760SOL    HW227180   2.582   0.654   4.322
 8761SOL     OW27181   6.057   2.109   1.292
 8761SOL    HW127182   5.967   2.086   1.254
 8761SOL    HW227183   6.095   2.186   1.242
 8762SOL     OW27184   0.491   5.327   4.622
 8762SOL    HW127185   0.590   5.317   4.612
 8762SOL    HW227186   0.446   5.285   4.543
 8763SOL     OW27187   5.794   0.032   5.640
 8763SOL    HW127188   5.759   0.125   5.646
 8763SOL    HW227189   5.802   7.016   5.732
 8764SOL     OW27190   4.366   6.700   5.840
 8764SOL    HW127191   4.361   6.797   5.814
 8764SOL    HW227192   4.372   6.644   5.757
 8765SOL     OW27193   4.859   0.836   4.240
 8765SOL    HW127194   4.854   0.912   4.176
 8765SOL    HW227195   4.906   0.759   4.197
 8766SOL     OW27196   4.332   4.355   5.338
 8766SOL    HW127197   4.288   4.419   5.274
 8766SOL    HW227198   4.296   4.263   5.323
 8767SOL     OW27199   5.212   6.597   3.052
 8767SOL    HW127200   5.172   6.506   3.054
 8767SOL    HW227201   5.147   6.663   3.091
 8768SOL     OW27202   1.091   2.650   0.352
 8768SOL    HW127203   1.171   2.687   0.399
 8768SOL    HW227204   1.043   2.724   0.304
 8769SOL     OW27205   0.102   1.358   3.126
 8769SOL    HW127206   0.073   1.454   3.131
 8769SOL    HW227207   0.043   1.303   3.184
 8770SOL     OW27208   4.685   4.471   2.452
 8770SOL    HW127209   4.686   4.408   2.530
 8770SOL    HW227210   4.712   4.422   2.369
 8771SOL     OW27211   1.284   2.252   6.260
 8771SOL    HW127212   1.231   2.188   6.205
 8771SOL    HW227213   1.347   2.201   6.318
 8772SOL     OW27214   4.594   0.454   6.476
 8772SOL    HW127215   4.497   0.437   6.493
 8772SOL    HW227216   4.639   0.476   6.562
 8773SOL     OW27217   5.747   2.647   3.173
 8773SOL    HW127218   5.665   2.704   3.164
 8773SOL    HW227219   5.723   2.551   3.160
 8774SOL     OW27220   1.249   0.219   0.296
 8774SOL    HW127221   1.158   0.228   0.257
 8774SOL    HW227222   1.292   0.310   0.300
 8775SOL     OW27223   5.265   0.962   5.818
 8775SOL    HW127224   5.174   0.940   5.782
 8775SOL    HW227225   5.258   1.040   5.879
 8776SOL     OW27226   4.706   3.543   0.830
 8776SOL    HW127227   4.607   3.535   0.819
 8776SOL    HW227228   4.732   3.639   0.826
 8777SOL     OW27229   6.767   4.589   3.340
 8777SOL    HW127230   6.783   4.636   3.427
 8777SOL    HW227231   6.749   4.492   3.358
 8778SOL     OW27232   5.090   2.782   5.692
 8778SOL    HW127233   5.172   2.827   5.727
 8778SOL    HW227234   5.088   2.687   5.725
 8779SOL     OW27235   2.557   5.778   2.681
 8779SOL    HW127236   2.497   5.726   2.742
 8779SOL    HW227237   2.652   5.748   2.695
 8780SOL     OW27238   0.071   0.247   3.015
 8780SOL    HW127239   0.012   0.192   2.956
 8780SOL    HW227240   0.161   0.203   3.021
 8781SOL     OW27241   4.985   0.591   3.847
 8781SOL    HW127242   4.942   0.681   3.841
 8781SOL    HW227243   4.953   0.534   3.772
 8782SOL     OW27244   6.559   0.806   1.437
 8782SOL    HW127245   6.589   0.791   1.531
 8782SOL    HW227246   6.589   0.897   1.407
 8783SOL     OW27247   6.803   4.260   3.319
 8783SOL    HW127248   6.785   4.226   3.227
 8783SOL    HW227249   6.814   4.182   3.382
 8784SOL     OW27250   0.001   6.661   6.056
 8784SOL    HW127251   7.020   6.579   5.998
 8784SOL    HW227252   0.011   6.742   5.999
 8785SOL     OW27253   6.495   5.335   6.869
 8785SOL    HW127254   6.480   5.409   6.935
 8785SOL    HW227255   6.465   5.364   6.778
 8786SOL     OW27256   2.876   1.458   1.298
 8786SOL    HW127257   2.962   1.505   1.315
 8786SOL    HW227258   2.848   1.472   1.203
 8787SOL     OW27259   3.115   0.906   2.303
 8787SOL    HW127260   3.130   0.975   2.374
 8787SOL    HW227261   3.195   0.846   2.299
 8788SOL     OW27262   0.141   1.203   5.322
 8788SOL    HW127263   0.104   1.128   5.376
 8788SOL    HW227264   0.240   1.191   5.311
 8789SOL     OW27265   6.560   4.988   5.429
 8789SOL    HW127266   6.630   4.933   5.474
 8789SOL    HW227267   6.470   4.964   5.466
 8790SOL     OW27268   6.091   0.986   6.407
 8790SOL    HW127269   6.031   0.916   6.446
 8790SOL    HW227270   6.185   0.952   6.405
 8791SOL     OW27271   4.954   6.730   4.963
 8791SOL    HW127272   4.998   6.788   4.894
 8791SOL    HW227273   4.949   6.779   5.050
 8792SOL     OW27274   3.347   5.269   2.809
 8792SOL    HW127275   3.383   5.274   2.903
 8792SOL    HW227276   3.423   5.254   2.745
 8793SOL     OW27277   0.523   5.026   2.692
 8793SOL    HW127278   0.581   5.059   2.617
 8793SOL    HW227279   0.491   5.104   2.746
 8794SOL     OW27280   5.763   0.926   3.126
 8794SOL    HW127281   5.815   1.006   3.094
 8794SOL    HW227282   5.697   0.900   3.056
 8795SOL     OW27283   1.195   4.698   5.791
 8795SOL    HW127284   1.098   4.722   5.793
 8795SOL    HW227285   1.238   4.728   5.877
 8796SOL     OW27286   5.447   2.730   3.184
 8796SOL    HW127287   5.419   2.637   3.162
 8796SOL    HW227288   5.387   2.767   3.255
 8797SOL     OW27289   0.290   6.871   5.831
 8797SOL    HW127290   0.207   6.881   5.887
 8797SOL    HW227291   0.346   6.797   5.868
 8798SOL     OW27292   4.747   6.218   6.849
 8798SOL    HW127293   4.749   6.287   6.921
 8798SOL    HW227294   4.652   6.195   6.828
 8799SOL     OW27295   2.462   4.917   3.591
 8799SOL    HW127296   2.402   4.996   3.599
 8799SOL    HW227297   2.526   4.916   3.668
 8800SOL     OW27298   5.207   5.074   6.579
 8800SOL    HW127299   5.185   5.041   6.487
 8800SOL    HW227300   5.158   5.159   6.596
 8801SOL     OW27301   5.965   1.532   4.686
 8801SOL    HW127302   5.980   1.438   4.716
 8801SOL    HW227303   5.943   1.533   4.589
 8802SOL     OW27304   1.591   5.764   5.957
 8802SOL    HW127305   1.639   5.774   6.044
 8802SOL    HW227306   1.523   5.837   5.948
 8803SOL     OW27307   6.952   0.050   0.376
 8803SOL    HW127308   6.865   0.070   0.332
 8803SOL    HW227309   6.991   0.135   0.413
 8804SOL     OW27310   2.516   6.183   1.310
 8804SOL    HW127311   2.428   6.229   1.297
 8804SOL    HW227312   2.541   6.133   1.227
 8805SOL     OW27313   3.593   5.419   3.341
 8805SOL    HW127314   3.633   5.405   3.250
 8805SOL    HW227315   3.623   5.345   3.402
 8806SOL     OW27316   2.510   5.213   0.937
 8806SOL    HW127317   2.562   5.288   0.894
 8806SOL    HW227318   2.573   5.143   0.968
 8807SOL     OW27319   4.604   1.483   0.302
 8807SOL    HW127320   4.572   1.393   0.273
 8807SOL    HW227321   4.664   1.521   0.232
 8808SOL     OW27322   6.808   2.254   6.120
 8808SOL    HW127323   6.773   2.315   6.049
 8808SOL    HW227324   6.733   2.197   6.155
 8809SOL     OW27325   2.600   4.587   3.422
 8809SOL    HW127326   2.625   4.514   3.486
 8809SOL    HW227327   2.672   4.657   3.422
 8810SOL     OW27328   5.819   0.466   4.934
 8810SOL    HW127329   5.767   0.516   5.003
 8810SOL    HW227330   5.913   0.452   4.966
 8811SOL     OW27331   3.016   0.727   3.347
 8811SOL    HW127332   3.046   0.821   3.362
 8811SOL    HW227333   3.074   0.685   3.277
 8812SOL     OW27334   2.359   0.572   0.298
 8812SOL    HW127335   2.452   0.591   0.268
 8812SOL    HW227336   2.353   0.577   0.398
 8813SOL     OW27337   1.852   5.195   2.925
 8813SOL    HW127338   1.918   5.192   3.000
 8813SOL    HW227339   1.759   5.201   2.962
 8814SOL     OW27340   6.068   0.151   0.436
 8814SOL    HW127341   6.010   0.086   0.486
 8814SOL    HW227342   6.011   0.205   0.375
 8815SOL     OW27343   5.677   0.011   1.406
 8815SOL    HW127344   5.666   6.940   1.438
 8815SOL    HW227345   5.652   0.017   1.310
 8816SOL     OW27346   0.951   6.544   6.577
 8816SOL    HW127347   0.968   6.553   6.478
 8816SOL    HW227348   0.917   6.452   6.597
 8817SOL     OW27349   0.069   4.126   3.634
 8817SOL    HW127350   0.092   4.119   3.537
 8817SOL    HW227351   0.031   4.216   3.653
 8818SOL     OW27352   1.397   5.629   3.718
 8818SOL    HW127353   1.355   5.720   3.717
 8818SOL    HW227354   1.373   5.583   3.803
 8819SOL     OW27355   6.331   4.933   5.650
 8819SOL    HW127356   6.328   4.835   5.633
 8819SOL    HW227357   6.404   4.953   5.716
 8820SOL     OW27358   2.570   0.860   5.453
 8820SOL    HW127359   2.597   0.777   5.405
 8820SOL    HW227360   2.475   0.882   5.432
 8821SOL     OW27361   1.598   5.764   0.672
 8821SOL    HW127362   1.539   5.715   0.735
 8821SOL    HW227363   1.542   5.823   0.613
 8822SOL     OW27364   0.549   0.505   3.289
 8822SOL    HW127365   0.576   0.489   3.194
 8822SOL    HW227366   0.538   0.603   3.305
 8823SOL     OW27367   1.825   1.112   2.452
 8823SOL    HW127368   1.776   1.199   2.460
 8823SOL    HW227369   1.914   1.127   2.409
 8824SOL     OW27370   1.496   1.050   0.676
 8824SOL    HW127371   1.553   0.998   0.612
 8824SOL    HW227372   1.553   1.114   0.727
 8825SOL     OW27373   1.510   1.613   1.553
 8825SOL    HW127374   1.578   1.542   1.571
 8825SOL    HW227375   1.555   1.693   1.515
 8826SOL     OW27376   0.795   3.617   1.027
 8826SOL    HW127377   0.869   3.613   0.960
 8826SOL    HW227378   0.718   3.561   0.996
 8827SOL     OW27379   4.245   0.428   2.958
 8827SOL    HW127380   4.153   0.463   2.979
 8827SOL    HW227381   4.272   0.363   3.029
 8828SOL     OW27382   4.063   4.951   6.894
 8828SOL    HW127383   4.041   4.945   6.991
 8828SOL    HW227384   4.053   4.861   6.852
 8829SOL     OW27385   5.644   1.798   1.116
 8829SOL    HW127386   5.586   1.734   1.065
 8829SOL    HW227387   5.590   1.842   1.188
 8830SOL     OW27388   2.334   1.479   2.431
 8830SOL    HW127389   2.367   1.568   2.461
 8830SOL    HW227390   2.411   1.423   2.401
 8831SOL     OW27391   5.782   2.631   2.711
 8831SOL    HW127392   5.800   2.719   2.755
 8831SOL    HW227393   5.823   2.558   2.765
 8832SOL     OW27394   6.038   5.850   3.591
 8832SOL    HW127395   5.964   5.915   3.575
 8832SOL    HW227396   6.124   5.900   3.605
 8833SOL     OW27397   3.523   4.452   6.246
 8833SOL    HW127398   3.493   4.358   6.266
 8833SOL    HW227399   3.563   4.455   6.154
 8834SOL     OW27400   5.742   3.570   4.199
 8834SOL    HW127401   5.650   3.538   4.175
 8834SOL    HW227402   5.782   3.618   4.121
 8835SOL     OW27403   5.003   0.774   6.274
 8835SOL    HW127404   4.924   0.813   6.228
 8835SOL    HW227405   5.043   0.842   6.336
 8836SOL     OW27406   4.604   1.603   1.151
 8836SOL    HW127407   4.682   1.552   1.115
 8836SOL    HW227408   4.608   1.603   1.251
 8837SOL     OW27409   0.339   6.980   2.823
 8837SOL    HW127410   0.277   6.917   2.870
 8837SOL    HW227411   0.425   6.933   2.804
 8838SOL     OW27412   1.743   4.346   3.541
 8838SOL    HW127413   1.767   4.399   3.622
 8838SOL    HW227414   1.793   4.259   3.541
 8839SOL     OW27415   4.322   6.655   2.183
 8839SOL    HW127416   4.361   6.686   2.269
 8839SOL    HW227417   4.258   6.723   2.148
 8840SOL     OW27418   0.112   0.683   2.080
 8840SOL    HW127419   0.121   0.761   2.019
 8840SOL    HW227420   0.065   0.711   2.164
 8841SOL     OW27421   6.295   1.730   4.019
 8841SOL    HW127422   6.235   1.659   4.056
 8841SOL    HW227423   6.243   1.815   4.008
 8842SOL     OW27424   3.088   3.514   3.418
 8842SOL    HW127425   3.072   3.602   3.372
 8842SOL    HW227426   3.059   3.521   3.514
 8843SOL     OW27427   1.894   3.676   3.987
 8843SOL    HW127428   1.860   3.738   4.058
 8843SOL    HW227429   1.844   3.691   3.902
 8844SOL     OW27430   6.506   1.237   4.811
 8844SOL    HW127431   6.422   1.237   4.757
 8844SOL    HW227432   6.497   1.301   4.887
 8845SOL     OW27433   2.368   4.125   0.713
 8845SOL    HW127434   2.302   4.049   0.705
 8845SOL    HW227435   2.449   4.093   0.761
 8846SOL     OW27436   3.453   4.926   4.421
 8846SOL    HW127437   3.354   4.915   4.415
 8846SOL    HW227438   3.479   4.944   4.516
 8847SOL     OW27439   2.510   0.941   3.221
 8847SOL    HW127440   2.522   0.969   3.125
 8847SOL    HW227441   2.600   0.919   3.260
 8848SOL     OW27442   3.002   2.120   2.460
 8848SOL    HW127443   2.975   2.031   2.421
 8848SOL    HW227444   2.974   2.193   2.398
 8849SOL     OW27445   3.471   5.052   3.254
 8849SOL    HW127446   3.527   5.113   3.310
 8849SOL    HW227447   3.399   5.011   3.311
 8850SOL     OW27448   2.479   0.888   0.148
 8850SOL    HW127449   2.569   0.873   0.106
 8850SOL    HW227450   2.411   0.830   0.103
 8851SOL     OW27451   1.112   5.137   1.865
 8851SOL    HW127452   1.168   5.135   1.782
 8851SOL    HW227453   1.105   5.045   1.903
 8852SOL     OW27454   4.404   3.912   5.834
 8852SOL    HW127455   4.502   3.926   5.841
 8852SOL    HW227456   4.356   3.983   5.887
 8853SOL     OW27457   3.477   0.575   5.830
 8853SOL    HW127458   3.526   0.496   5.794
 8853SOL    HW227459   3.541   0.651   5.843
 8854SOL     OW27460   3.507   1.425   6.313
 8854SOL    HW127461   3.585   1.468   6.266
 8854SOL    HW227462   3.423   1.471   6.285
 8855SOL     OW27463   6.631   6.159   0.169
 8855SOL    HW127464   6.669   6.217   0.241
 8855SOL    HW227465   6.547   6.200   0.134
 8856SOL     OW27466   6.744   1.013   5.856
 8856SOL    HW127467   6.807   1.040   5.928
 8856SOL    HW227468   6.767   1.063   5.772
 8857SOL     OW27469   6.635   2.314   4.332
 8857SOL    HW127470   6.668   2.225   4.363
 8857SOL    HW227471   6.539   2.325   4.358
 8858SOL     OW27472   1.185   2.428   5.562
 8858SOL    HW127473   1.233   2.392   5.482
 8858SOL    HW227474   1.209   2.374   5.642
 8859SOL     OW27475   6.975   0.938   4.177
 8859SOL    HW127476   0.027   0.871   4.183
 8859SOL    HW227477   6.895   0.894   4.138
 8860SOL     OW27478   0.801   3.433   3.158
 8860SOL    HW127479   0.887   3.386   3.142
 8860SOL    HW227480   0.756   3.451   3.071
 8861SOL     OW27481   3.656   1.907   5.802
 8861SOL    HW127482   3.596   1.956   5.739
 8861SOL    HW227483   3.695   1.972   5.867
 8862SOL     OW27484   6.002   0.453   3.053
 8862SOL    HW127485   5.971   0.547   3.045
 8862SOL    HW227486   5.981   0.418   3.145
 8863SOL     OW27487   1.226   5.804   3.992
 8863SOL    HW127488   1.178   5.837   4.074
 8863SOL    HW227489   1.213   5.705   3.984
 8864SOL     OW27490   2.120   2.724   6.318
 8864SOL    HW127491   2.063   2.775   6.253
 8864SOL    HW227492   2.210   2.766   6.323
 8865SOL     OW27493   3.127   1.653   5.783
 8865SOL    HW127494   3.102   1.562   5.817
 8865SOL    HW227495   3.049   1.714   5.792
 8866SOL     OW27496   4.676   6.834   3.626
 8866SOL    HW127497   4.732   6.836   3.543
 8866SOL    HW227498   4.727   6.874   3.702
 8867SOL     OW27499   5.283   3.978   2.330
 8867SOL    HW127500   5.196   4.025   2.349
 8867SOL    HW227501   5.336   3.971   2.414
 8868SOL     OW27502   6.552   3.536   0.462
 8868SOL    HW127503   6.568   3.539   0.363
 8868SOL    HW227504   6.581   3.447   0.498
 8869SOL     OW27505   4.500   5.691   4.203
 8869SOL    HW127506   4.489   5.695   4.104
 8869SOL    HW227507   4.449   5.766   4.246
 8870SOL     OW27508   4.223   0.213   0.727
 8870SOL    HW127509   4.166   0.183   0.650
 8870SOL    HW227510   4.313   0.171   0.721
 8871SOL     OW27511   0.836   0.857   3.706
 8871SOL    HW127512   0.897   0.781   3.728
 8871SOL    HW227513   0.814   0.855   3.609
 8872SOL     OW27514   1.499   4.822   4.972
 8872SOL    HW127515   1.542   4.822   5.062
 8872SOL    HW227516   1.503   4.729   4.934
 8873SOL     OW27517   0.651   5.663   2.050
 8873SOL    HW127518   0.578   5.594   2.049
 8873SOL    HW227519   0.739   5.617   2.058
 8874SOL     OW27520   2.888   6.417   1.832
 8874SOL    HW127521   2.862   6.333   1.785
 8874SOL    HW227522   2.882   6.494   1.767
 8875SOL     OW27523   6.261   3.687   4.525
 8875SOL    HW127524   6.359   3.705   4.531
 8875SOL    HW227525   6.239   3.654   4.433
 8876SOL     OW27526   1.993   0.367   4.137
 8876SOL    HW127527   1.990   0.271   4.166
 8876SOL    HW227528   2.073   0.411   4.177
 8877SOL     OW27529   2.498   1.643   4.147
 8877SOL    HW127530   2.564   1.641   4.072
 8877SOL    HW227531   2.429   1.713   4.129
 8878SOL     OW27532   6.963   5.934   0.438
 8878SOL    HW127533   6.963   5.935   0.538
 8878SOL    HW227534   6.985   5.842   0.405
 8879SOL     OW27535   5.093   4.755   1.812
 8879SOL    HW127536   5.156   4.724   1.883
 8879SOL    HW227537   5.050   4.675   1.769
 8880SOL     OW27538   6.078   5.148   4.682
 8880SOL    HW127539   6.051   5.206   4.605
 8880SOL    HW227540   6.001   5.091   4.710
 8881SOL     OW27541   6.361   6.742   4.552
 8881SOL    HW127542   6.280   6.718   4.499
 8881SOL    HW227543   6.334   6.795   4.632
 8882SOL     OW27544   5.472   1.566   1.071
 8882SOL    HW127545   5.401   1.601   1.132
 8882SOL    HW227546   5.432   1.548   0.981
 8883SOL     OW27547   1.969   6.896   5.554
 8883SOL    HW127548   1.911   6.838   5.496
 8883SOL    HW227549   1.974   6.987   5.514
 8884SOL     OW27550   5.940   4.520   6.371
 8884SOL    HW127551   5.858   4.576   6.386
 8884SOL    HW227552   6.009   4.543   6.440
 8885SOL     OW27553   0.644   3.284   0.562
 8885SOL    HW127554   0.665   3.237   0.648
 8885SOL    HW227555   0.597   3.370   0.582
 8886SOL     OW27556   3.626   5.959   5.192
 8886SOL    HW127557   3.630   5.886   5.260
 8886SOL    HW227558   3.570   5.930   5.115
 8887SOL     OW27559   3.172   1.587   1.631
 8887SOL    HW127560   3.118   1.503   1.627
 8887SOL    HW227561   3.115   1.665   1.604
 8888SOL     OW27562   1.526   1.566   0.474
 8888SOL    HW127563   1.622   1.585   0.494
 8888SOL    HW227564   1.469   1.639   0.511
 8889SOL     OW27565   5.599   0.047   5.194
 8889SOL    HW127566   5.654   0.030   5.276
 8889SOL    HW227567   5.514   0.093   5.221
 8890SOL     OW27568   6.219   5.267   3.881
 8890SOL    HW127569   6.318   5.253   3.873
 8890SOL    HW227570   6.200   5.364   3.897
 8891SOL     OW27571   5.329   3.533   5.566
 8891SOL    HW127572   5.405   3.595   5.583
 8891SOL    HW227573   5.250   3.584   5.532
 8892SOL     OW27574   3.810   5.837   3.345
 8892SOL    HW127575   3.899   5.797   3.366
 8892SOL    HW227576   3.739   5.768   3.359
 8893SOL     OW27577   0.876   6.734   2.679
 8893SOL    HW127578   0.862   6.823   2.722
 8893SOL    HW227579   0.809   6.722   2.606
 8894SOL     OW27580   3.939   2.491   5.674
 8894SOL    HW127581   3.955   2.543   5.590
 8894SOL    HW227582   4.021   2.493   5.731
 8895SOL     OW27583   6.608   1.794   1.669
 8895SOL    HW127584   6.511   1.768   1.673
 8895SOL    HW227585   6.661   1.718   1.632
 8896SOL     OW27586   1.812   3.210   5.440
 8896SOL    HW127587   1.891   3.189   5.383
 8896SOL    HW227588   1.737   3.148   5.418
 8897SOL     OW27589   1.714   2.892   3.465
 8897SOL    HW127590   1.766   2.975   3.444
 8897SOL    HW227591   1.621   2.915   3.492
 8898SOL     OW27592   5.456   3.944   3.801
 8898SOL    HW127593   5.424   4.037   3.816
 8898SOL    HW227594   5.413   3.906   3.719
 8899SOL     OW27595   1.987   4.703   7.013
 8899SOL    HW127596   2.022   4.650   6.936
 8899SOL    HW227597   2.064   4.736   0.046
 8900SOL     OW27598   5.736   2.862   2.119
 8900SOL    HW127599   5.827   2.833   2.147
 8900SOL    HW227600   5.681   2.884   2.200
 8901SOL     OW27601   1.782   1.758   4.640
 8901SOL    HW127602   1.748   1.668   4.612
 8901SOL    HW227603   1.755   1.775   4.735
 8902SOL     OW27604   2.558   6.895   0.966
 8902SOL    HW127605   2.615   6.875   0.886
 8902SOL    HW227606   2.463   6.874   0.945
 8903SOL     OW27607   0.789   1.417   4.779
 8903SOL    HW127608   0.694   1.431   4.751
 8903SOL    HW227609   0.850   1.464   4.716
 8904SOL     OW27610   6.018   5.588   3.724
 8904SOL    HW127611   6.041   5.645   3.644
 8904SOL    HW227612   6.096   5.584   3.786
 8905SOL     OW27613   1.960   4.608   4.264
 8905SOL    HW127614   1.917   4.673   4.203
 8905SOL    HW227615   2.060   4.614   4.254
 8906SOL     OW27616   6.876   6.763   6.623
 8906SOL    HW127617   6.902   6.666   6.624
 8906SOL    HW227618   6.832   6.786   6.710
 8907SOL     OW27619   3.090   2.188   4.493
 8907SOL    HW127620   3.041   2.269   4.460
 8907SOL    HW227621   3.098   2.122   4.419
 8908SOL     OW27622   1.059   3.588   6.873
 8908SOL    HW127623   1.135   3.632   6.825
 8908SOL    HW227624   1.033   3.504   6.825
 8909SOL     OW27625   2.053   0.521   5.602
 8909SOL    HW127626   1.993   0.451   5.564
 8909SOL    HW227627   2.015   0.556   5.687
 8910SOL     OW27628   0.850   2.843   5.684
 8910SOL    HW127629   0.924   2.777   5.671
 8910SOL    HW227630   0.762   2.794   5.682
 8911SOL     OW27631   4.462   2.379   4.909
 8911SOL    HW127632   4.496   2.467   4.875
 8911SOL    HW227633   4.394   2.395   4.980
 8912SOL     OW27634   4.080   2.743   0.900
 8912SOL    HW127635   4.103   2.711   0.992
 8912SOL    HW227636   4.116   2.679   0.832
 8913SOL     OW27637   4.931   4.898   6.766
 8913SOL    HW127638   5.022   4.875   6.801
 8913SOL    HW227639   4.922   4.865   6.672
 8914SOL     OW27640   3.801   0.587   4.741
 8914SOL    HW127641   3.799   0.665   4.804
 8914SOL    HW227642   3.838   0.616   4.653
 8915SOL     OW27643   1.043   2.811   3.785
 8915SOL    HW127644   0.949   2.800   3.816
 8915SOL    HW227645   1.105   2.765   3.849
 8916SOL     OW27646   6.912   4.294   0.699
 8916SOL    HW127647   6.866   4.277   0.612
 8916SOL    HW227648   6.983   4.225   0.713
 8917SOL     OW27649   6.512   4.407   6.276
 8917SOL    HW127650   6.586   4.445   6.220
 8917SOL    HW227651   6.503   4.459   6.360
 8918SOL     OW27652   6.785   3.808   0.941
 8918SOL    HW127653   6.868   3.766   0.905
 8918SOL    HW227654   6.748   3.872   0.874
 8919SOL     OW27655   3.765   3.736   0.605
 8919SOL    HW127656   3.751   3.697   0.696
 8919SOL    HW227657   3.679   3.774   0.571
 8920SOL     OW27658   1.101   6.817   0.190
 8920SOL    HW127659   1.053   6.885   0.134
 8920SOL    HW227660   1.036   6.747   0.220
 8921SOL     OW27661   2.633   2.107   2.577
 8921SOL    HW127662   2.662   2.073   2.667
 8921SOL    HW227663   2.654   2.204   2.570
 8922SOL     OW27664   3.622   4.969   1.142
 8922SOL    HW127665   3.545   4.927   1.095
 8922SOL    HW227666   3.589   5.044   1.200
 8923SOL     OW27667   1.171   3.045   6.158
 8923SOL    HW127668   1.227   2.987   6.099
 8923SOL    HW227669   1.229   3.088   6.228
 8924SOL     OW27670   3.234   6.012   5.945
 8924SOL    HW127671   3.290   5.942   5.900
 8924SOL    HW227672   3.222   6.090   5.883
 8925SOL     OW27673   0.615   1.303   2.402
 8925SOL    HW127674   0.635   1.243   2.324
 8925SOL    HW227675   0.516   1.320   2.406
 8926SOL     OW27676   5.681   3.926   6.133
 8926SOL    HW127677   5.642   3.846   6.087
 8926SOL    HW227678   5.700   3.903   6.229
 8927SOL     OW27679   1.226   1.635   4.665
 8927SOL    HW127680   1.301   1.632   4.599
 8927SOL    HW227681   1.168   1.554   4.654
 8928SOL     OW27682   0.142   1.049   5.849
 8928SOL    HW127683   0.167   1.060   5.753
 8928SOL    HW227684   0.082   0.970   5.859
 8929SOL     OW27685   6.677   3.790   4.093
 8929SOL    HW127686   6.748   3.729   4.055
 8929SOL    HW227687   6.668   3.870   4.035
 8930SOL     OW27688   1.734   4.069   4.558
 8930SOL    HW127689   1.767   4.026   4.643
 8930SOL    HW227690   1.718   4.166   4.574
 8931SOL     OW27691   3.070   3.030   1.385
 8931SOL    HW127692   3.108   3.032   1.477
 8931SOL    HW227693   3.112   2.957   1.332
 8932SOL     OW27694   5.267   0.179   0.312
 8932SOL    HW127695   5.262   0.249   0.382
 8932SOL    HW227696   5.318   0.100   0.347
 8933SOL     OW27697   1.368   2.839   6.054
 8933SOL    HW127698   1.450   2.894   6.037
 8933SOL    HW227699   1.390   2.765   6.118
 8934SOL     OW27700   2.817   5.237   4.548
 8934SOL    HW127701   2.823   5.288   4.634
 8934SOL    HW227702   2.740   5.174   4.552
 8935SOL     OW27703   5.803   3.575   1.444
 8935SOL    HW127704   5.705   3.586   1.462
 8935SOL    HW227705   5.830   3.636   1.370
 8936SOL     OW27706   1.373   3.589   0.948
 8936SOL    HW127707   1.321   3.512   0.984
 8936SOL    HW227708   1.446   3.556   0.888
 8937SOL     OW27709   0.162   0.328   4.627
 8937SOL    HW127710   0.178   0.365   4.718
 8937SOL    HW227711   0.221   0.375   4.561
 8938SOL     OW27712   6.750   0.974   0.216
 8938SOL    HW127713   6.705   1.059   0.244
 8938SOL    HW227714   6.846   0.992   0.197
 8939SOL     OW27715   5.802   3.750   4.587
 8939SOL    HW127716   5.849   3.736   4.500
 8939SOL    HW227717   5.734   3.678   4.600
 8940SOL     OW27718   5.923   1.390   1.304
 8940SOL    HW127719   5.844   1.405   1.244
 8940SOL    HW227720   5.891   1.381   1.399
 8941SOL     OW27721   6.493   2.543   3.086
 8941SOL    HW127722   6.394   2.542   3.076
 8941SOL    HW227723   6.536   2.505   3.004
 8942SOL     OW27724   1.025   5.665   5.307
 8942SOL    HW127725   1.114   5.699   5.277
 8942SOL    HW227726   1.013   5.685   5.404
 8943SOL     OW27727   3.907   5.427   7.010
 8943SOL    HW127728   3.879   5.515   6.973
 8943SOL    HW227729   3.992   5.438   0.039
 8944SOL     OW27730   5.078   5.987   4.853
 8944SOL    HW127731   5.127   5.910   4.893
 8944SOL    HW227732   5.044   6.046   4.927
 8945SOL     OW27733   6.922   2.248   4.476
 8945SOL    HW127734   6.916   2.291   4.386
 8945SOL    HW227735   6.897   2.151   4.468
 8946SOL     OW27736   3.829   1.059   4.088
 8946SOL    HW127737   3.837   0.961   4.071
 8946SOL    HW227738   3.840   1.077   4.186
 8947SOL     OW27739   1.822   3.180   5.725
 8947SOL    HW127740   1.794   3.085   5.718
 8947SOL    HW227741   1.820   3.223   5.635
 8948SOL     OW27742   5.954   6.030   3.285
 8948SOL    HW127743   5.942   6.080   3.371
 8948SOL    HW227744   6.011   5.949   3.301
 8949SOL     OW27745   4.083   5.935   0.504
 8949SOL    HW127746   4.064   5.962   0.599
 8949SOL    HW227747   4.146   5.857   0.504
 8950SOL     OW27748   4.215   3.119   1.049
 8950SOL    HW127749   4.144   3.057   1.016
 8950SOL    HW227750   4.253   3.171   0.972
 8951SOL     OW27751   2.037   0.805   4.754
 8951SOL    HW127752   1.974   0.741   4.711
 8951SOL    HW227753   1.994   0.895   4.761
 8952SOL     OW27754   0.791   4.914   3.580
 8952SOL    HW127755   0.745   4.922   3.491
 8952SOL    HW227756   0.722   4.911   3.652
 8953SOL     OW27757   0.572   4.899   1.039
 8953SOL    HW127758   0.492   4.888   1.098
 8953SOL    HW227759   0.630   4.818   1.046
 8954SOL     OW27760   0.052   0.052   4.102
 8954SOL    HW127761   0.043   0.114   4.023
 8954SOL    HW227762   0.063   6.981   4.070
 8955SOL     OW27763   6.889   4.845   3.267
 8955SOL    HW127764   6.863   4.902   3.345
 8955SOL    HW227765   6.843   4.756   3.274
 8956SOL     OW27766   1.397   1.132   5.429
 8956SOL    HW127767   1.495   1.144   5.417
 8956SOL    HW227768   1.365   1.059   5.368
 8957SOL     OW27769   2.246   4.600   1.250
 8957SOL    HW127770   2.244   4.670   1.322
 8957SOL    HW227771   2.267   4.644   1.163
 8958SOL     OW27772   0.844   2.425   5.647
 8958SOL    HW127773   0.898   2.365   5.588
 8958SOL    HW227774   0.900   2.454   5.724
 8959SOL     OW27775   1.800   4.093   2.796
 8959SOL    HW127776   1.847   4.007   2.779
 8959SOL    HW227777   1.855   4.169   2.760
 8960SOL     OW27778   5.490   5.411   4.002
 8960SOL    HW127779   5.537   5.454   4.080
 8960SOL    HW227780   5.393   5.403   4.022
 8961SOL     OW27781   3.390   1.168   4.061
 8961SOL    HW127782   3.340   1.133   3.981
 8961SOL    HW227783   3.480   1.199   4.032
 8962SOL     OW27784   6.426   5.247   1.694
 8962SOL    HW127785   6.489   5.238   1.616
 8962SOL    HW227786   6.387   5.157   1.715
 8963SOL     OW27787   3.784   6.513   4.700
 8963SOL    HW127788   3.698   6.546   4.662
 8963SOL    HW227789   3.786   6.413   4.699
 8964SOL     OW27790   6.099   2.872   2.871
 8964SOL    HW127791   6.131   2.800   2.810
 8964SOL    HW227792   6.145   2.864   2.959
 8965SOL     OW27793   2.715   5.299   7.008
 8965SOL    HW127794   2.734   5.385   6.962
 8965SOL    HW227795   2.682   5.231   6.942
 8966SOL     OW27796   6.743   4.510   0.750
 8966SOL    HW127797   6.750   4.565   0.666
 8966SOL    HW227798   6.821   4.448   0.755
 8967SOL     OW27799   3.895   0.829   2.289
 8967SOL    HW127800   3.813   0.886   2.282
 8967SOL    HW227801   3.868   0.733   2.293
 8968SOL     OW27802   4.271   6.158   2.284
 8968SOL    HW127803   4.367   6.139   2.263
 8968SOL    HW227804   4.218   6.074   2.279
 8969SOL     OW27805   0.400   0.383   3.554
 8969SOL    HW127806   0.454   0.303   3.580
 8969SOL    HW227807   0.326   0.355   3.492
 8970SOL     OW27808   2.109   2.584   6.567
 8970SOL    HW127809   2.114   2.648   6.644
 8970SOL    HW227810   2.117   2.634   6.481
 8971SOL     OW27811   5.616   6.070   1.157
 8971SOL    HW127812   5.644   5.991   1.102
 8971SOL    HW227813   5.686   6.091   1.225
 8972SOL     OW27814   4.740   3.772   0.589
 8972SOL    HW127815   4.656   3.824   0.574
 8972SOL    HW227816   4.767   3.779   0.685
 8973SOL     OW27817   6.703   2.781   3.108
 8973SOL    HW127818   6.606   2.786   3.130
 8973SOL    HW227819   6.720   2.703   3.049
 8974SOL     OW27820   1.773   3.504   3.700
 8974SOL    HW127821   1.777   3.604   3.704
 8974SOL    HW227822   1.863   3.467   3.678
 8975SOL     OW27823   0.755   6.083   6.911
 8975SOL    HW127824   0.677   6.036   6.953
 8975SOL    HW227825   0.760   6.060   6.814
 8976SOL     OW27826   6.994   5.669   0.376
 8976SOL    HW127827   6.957   5.625   0.458
 8976SOL    HW227828   6.978   5.611   0.297
 8977SOL     OW27829   6.772   3.649   6.683
 8977SOL    HW127830   6.718   3.731   6.669
 8977SOL    HW227831   6.850   3.649   6.620
 8978SOL     OW27832   5.961   6.921   4.889
 8978SOL    HW127833   5.943   6.979   4.968
 8978SOL    HW227834   5.956   6.976   4.806
 8979SOL     OW27835   1.517   4.712   6.175
 8979SOL    HW127836   1.584   4.767   6.126
 8979SOL    HW227837   1.544   4.703   6.270
 8980SOL     OW27838   4.958   2.918   5.503
 8980SOL    HW127839   5.014   2.878   5.575
 8980SOL    HW227840   4.896   2.849   5.466
 8981SOL     OW27841   4.712   1.894   5.598
 8981SOL    HW127842   4.732   1.927   5.690
 8981SOL    HW227843   4.776   1.934   5.533
 8982SOL     OW27844   0.485   1.858   0.751
 8982SOL    HW127845   0.406   1.797   0.745
 8982SOL    HW227846   0.486   1.904   0.840
 8983SOL     OW27847   0.418   5.812   0.971
 8983SOL    HW127848   0.417   5.721   1.013
 8983SOL    HW227849   0.376   5.878   1.033
 8984SOL     OW27850   6.657   6.078   3.935
 8984SOL    HW127851   6.656   6.124   4.024
 8984SOL    HW227852   6.567   6.039   3.918
 8985SOL     OW27853   2.671   1.953   1.202
 8985SOL    HW127854   2.664   2.006   1.286
 8985SOL    HW227855   2.657   1.856   1.223
 8986SOL     OW27856   4.093   5.125   2.907
 8986SOL    HW127857   4.164   5.141   2.839
 8986SOL    HW227858   4.080   5.027   2.920
 8987SOL     OW27859   2.933   0.372   1.630
 8987SOL    HW127860   3.004   0.414   1.575
 8987SOL    HW227861   2.843   0.388   1.589
 8988SOL     OW27862   2.231   4.632   0.453
 8988SOL    HW127863   2.159   4.599   0.393
 8988SOL    HW227864   2.310   4.570   0.448
 8989SOL     OW27865   5.199   4.026   2.070
 8989SOL    HW127866   5.171   3.940   2.026
 8989SOL    HW227867   5.276   4.008   2.132
 8990SOL     OW27868   2.765   5.252   1.651
 8990SOL    HW127869   2.690   5.232   1.714
 8990SOL    HW227870   2.795   5.347   1.665
 8991SOL     OW27871   2.436   1.211   0.782
 8991SOL    HW127872   2.399   1.121   0.805
 8991SOL    HW227873   2.448   1.265   0.866
 8992SOL     OW27874   6.557   2.563   6.694
 8992SOL    HW127875   6.650   2.587   6.666
 8992SOL    HW227876   6.528   2.481   6.643
 8993SOL     OW27877   4.595   2.530   2.444
 8993SOL    HW127878   4.635   2.453   2.494
 8993SOL    HW227879   4.501   2.508   2.419
 8994SOL     OW27880   0.808   5.944   4.588
 8994SOL    HW127881   0.868   5.966   4.511
 8994SOL    HW227882   0.714   5.934   4.555
 8995SOL     OW27883   1.080   2.656   5.673
 8995SOL    HW127884   1.124   2.677   5.760
 8995SOL    HW227885   1.122   2.574   5.634
 8996SOL     OW27886   0.456   4.658   1.953
 8996SOL    HW127887   0.515   4.594   2.002
 8996SOL    HW227888   0.513   4.719   1.897
 8997SOL     OW27889   4.392   1.486   6.471
 8997SOL    HW127890   4.406   1.472   6.374
 8997SOL    HW227891   4.297   1.463   6.495
 8998SOL     OW27892   0.689   2.632   4.059
 8998SOL    HW127893   0.699   2.648   4.157
 8998SOL    HW227894   0.593   2.616   4.038
 8999SOL     OW27895   3.866   0.183   6.772
 8999SOL    HW127896   3.772   0.182   6.739
 8999SOL    HW227897   3.882   0.268   6.824
 9000SOL     OW27898   2.388   4.295   6.432
 9000SOL    HW127899   2.351   4.293   6.525
 9000SOL    HW227900   2.436   4.210   6.413
 9001SOL     OW27901   1.845   5.473   3.154
 9001SOL    HW127902   1.944   5.471   3.143
 9001SOL    HW227903   1.820   5.431   3.242
 9002SOL     OW27904   0.685   4.960   4.946
 9002SOL    HW127905   0.618   4.958   4.872
 9002SOL    HW227906   0.774   4.932   4.912
 9003SOL     OW27907   5.546   2.690   1.299
 9003SOL    HW127908   5.619   2.677   1.232
 9003SOL    HW227909   5.495   2.773   1.277
 9004SOL     OW27910   4.194   6.856   1.852
 9004SOL    HW127911   4.149   6.767   1.861
 9004SOL    HW227912   4.227   6.868   1.759
 9005SOL     OW27913   6.117   1.982   4.352
 9005SOL    HW127914   6.212   1.953   4.341
 9005SOL    HW227915   6.080   2.010   4.263
 9006SOL     OW27916   1.225   5.857   1.109
 9006SOL    HW127917   1.185   5.948   1.102
 9006SOL    HW227918   1.248   5.823   1.018
 9007SOL     OW27919   3.667   5.902   3.975
 9007SOL    HW127920   3.577   5.863   3.958
 9007SOL    HW227921   3.734   5.860   3.913
 9008SOL     OW27922   6.652   5.401   2.562
 9008SOL    HW127923   6.748   5.381   2.544
 9008SOL    HW227924   6.631   5.494   2.532
 9009SOL     OW27925   2.573   6.629   0.677
 9009SOL    HW127926   2.550   6.724   0.657
 9009SOL    HW227927   2.599   6.582   0.593
 9010SOL     OW27928   1.090   0.084   4.530
 9010SOL    HW127929   1.033   0.096   4.449
 9010SOL    HW227930   1.035   0.050   4.606
 9011SOL     OW27931   4.090   1.881   1.535
 9011SOL    HW127932   4.166   1.923   1.583
 9011SOL    HW227933   4.011   1.943   1.537
 9012SOL     OW27934   2.691   5.057   1.049
 9012SOL    HW127935   2.720   4.976   1.099
 9012SOL    HW227936   2.770   5.097   1.002
 9013SOL     OW27937   6.006   6.018   4.676
 9013SOL    HW127938   5.963   5.938   4.718
 9013SOL    HW227939   6.103   5.998   4.659
 9014SOL     OW27940   1.489   1.333   0.023
 9014SOL    HW127941   1.542   1.368   0.099
 9014SOL    HW227942   1.440   1.408   7.001
 9015SOL     OW27943   6.271   0.712   0.543
 9015SOL    HW127944   6.183   0.731   0.586
 9015SOL    HW227945   6.339   0.691   0.614
 9016SOL     OW27946   6.901   6.289   6.388
 9016SOL    HW127947   6.885   6.253   6.479
 9016SOL    HW227948   6.974   6.359   6.392
 9017SOL     OW27949   5.489   2.883   2.775
 9017SOL    HW127950   5.529   2.793   2.789
 9017SOL    HW227951   5.528   2.925   2.694
 9018SOL     OW27952   4.398   1.498   5.538
 9018SOL    HW127953   4.428   1.422   5.479
 9018SOL    HW227954   4.470   1.566   5.544
 9019SOL     OW27955   1.138   0.370   1.060
 9019SOL    HW127956   1.046   0.330   1.059
 9019SOL    HW227957   1.206   0.297   1.048
 9020SOL     OW27958   1.441   3.459   2.000
 9020SOL    HW127959   1.367   3.514   1.960
 9020SOL    HW227960   1.406   3.369   2.024
 9021SOL     OW27961   5.985   0.317   3.953
 9021SOL    HW127962   5.978   0.413   3.982
 9021SOL    HW227963   5.897   0.287   3.917
 9022SOL     OW27964   2.654   0.512   1.305
 9022SOL    HW127965   2.653   0.461   1.390
 9022SOL    HW227966   2.703   0.459   1.235
 9023SOL     OW27967   3.902   3.103   2.757
 9023SOL    HW127968   3.881   3.037   2.685
 9023SOL    HW227969   3.960   3.175   2.721
 9024SOL     OW27970   1.370   5.656   6.544
 9024SOL    HW127971   1.401   5.601   6.466
 9024SOL    HW227972   1.272   5.640   6.559
 9025SOL     OW27973   6.686   5.841   0.887
 9025SOL    HW127974   6.674   5.743   0.871
 9025SOL    HW227975   6.686   5.889   0.799
 9026SOL     OW27976   3.707   3.275   2.888
 9026SOL    HW127977   3.631   3.214   2.911
 9026SOL    HW227978   3.781   3.221   2.849
 9027SOL     OW27979   2.465   1.805   3.353
 9027SOL    HW127980   2.410   1.780   3.273
 9027SOL    HW227981   2.446   1.741   3.427
 9028SOL     OW27982   2.360   4.064   5.839
 9028SOL    HW127983   2.360   4.157   5.801
 9028SOL    HW227984   2.275   4.048   5.889
 9029SOL     OW27985   3.108   5.537   5.160
 9029SOL    HW127986   3.185   5.570   5.214
 9029SOL    HW227987   3.036   5.503   5.222
 9030SOL     OW27988   2.046   0.797   3.170
 9030SOL    HW127989   2.034   0.699   3.157
 9030SOL    HW227990   1.960   0.837   3.202
 9031SOL     OW27991   5.050   5.214   5.619
 9031SOL    HW127992   5.074   5.307   5.591
 9031SOL    HW227993   5.134   5.161   5.630
 9032SOL     OW27994   3.987   2.992   0.932
 9032SOL    HW127995   4.010   2.904   0.891
 9032SOL    HW227996   3.970   3.059   0.859
 9033SOL     OW27997   1.714   3.974   3.425
 9033SOL    HW127998   1.667   3.961   3.512
 9033SOL    HW227999   1.781   4.048   3.434
 9034SOL     OW28000   3.257   7.018   4.912
 9034SOL    HW128001   3.254   6.942   4.846
 9034SOL    HW228002   3.164   0.025   4.933
 9035SOL     OW28003   1.223   6.351   5.430
 9035SOL    HW128004   1.152   6.288   5.463
 9035SOL    HW228005   1.258   6.318   5.342
 9036SOL     OW28006   1.445   1.393   4.527
 9036SOL    HW128007   1.390   1.332   4.469
 9036SOL    HW228008   1.435   1.487   4.496
 9037SOL     OW28009   1.405   4.485   6.414
 9037SOL    HW128010   1.477   4.494   6.345
 9037SOL    HW228011   1.431   4.413   6.479
 9038SOL     OW28012   4.580   0.581   5.022
 9038SOL    HW128013   4.558   0.545   4.931
 9038SOL    HW228014   4.666   0.541   5.054
 9039SOL     OW28015   1.617   4.537   4.702
 9039SOL    HW128016   1.568   4.547   4.788
 9039SOL    HW228017   1.613   4.622   4.650
 9040SOL     OW28018   2.761   1.743   3.090
 9040SOL    HW128019   2.821   1.813   3.052
 9040SOL    HW228020   2.791   1.652   3.060
 9041SOL     OW28021   0.509   2.129   1.816
 9041SOL    HW128022   0.587   2.133   1.880
 9041SOL    HW228023   0.493   2.033   1.791
 9042SOL     OW28024   3.328   6.357   3.939
 9042SOL    HW128025   3.379   6.279   3.904
 9042SOL    HW228026   3.246   6.371   3.883
 9043SOL     OW28027   2.053   0.953   6.006
 9043SOL    HW128028   2.148   0.925   5.997
 9043SOL    HW228029   2.043   1.047   5.973
 9044SOL     OW28030   6.500   1.156   1.290
 9044SOL    HW128031   6.524   1.094   1.215
 9044SOL    HW228032   6.411   1.199   1.270
 9045SOL     OW28033   3.780   1.787   2.450
 9045SOL    HW128034   3.745   1.718   2.386
 9045SOL    HW228035   3.705   1.821   2.507
 9046SOL     OW28036   3.462   3.434   4.237
 9046SOL    HW128037   3.438   3.365   4.305
 9046SOL    HW228038   3.553   3.470   4.257
 9047SOL     OW28039   1.822   3.458   5.023
 9047SOL    HW128040   1.920   3.455   5.044
 9047SOL    HW228041   1.797   3.376   4.972
 9048SOL     OW28042   5.851   2.995   6.276
 9048SOL    HW128043   5.782   3.053   6.233
 9048SOL    HW228044   5.869   3.028   6.369
 9049SOL     OW28045   4.434   6.590   6.157
 9049SOL    HW128046   4.399   6.646   6.082
 9049SOL    HW228047   4.486   6.513   6.120
 9050SOL     OW28048   0.367   5.195   5.736
 9050SOL    HW128049   0.337   5.125   5.671
 9050SOL    HW228050   0.447   5.241   5.699
 9051SOL     OW28051   4.739   6.290   1.157
 9051SOL    HW128052   4.830   6.322   1.184
 9051SOL    HW228053   4.736   6.279   1.058
 9052SOL     OW28054   1.878   3.111   3.773
 9052SOL    HW128055   1.889   3.039   3.842
 9052SOL    HW228056   1.795   3.163   3.791
 9053SOL     OW28057   2.332   1.569   3.225
 9053SOL    HW128058   2.399   1.498   3.247
 9053SOL    HW228059   2.250   1.555   3.281
 9054SOL     OW28060   1.204   0.094   2.189
 9054SOL    HW128061   1.256   0.142   2.260
 9054SOL    HW228062   1.108   0.086   2.218
 9055SOL     OW28063   7.018   3.984   3.243
 9055SOL    HW128064   6.920   3.964   3.232
 9055SOL    HW228065   0.007   4.078   3.275
 9056SOL     OW28066   5.844   0.272   1.899
 9056SOL    HW128067   5.805   0.246   1.811
 9056SOL    HW228068   5.843   0.193   1.961
 9057SOL     OW28069   5.850   5.630   6.082
 9057SOL    HW128070   5.898   5.716   6.099
 9057SOL    HW228071   5.912   5.553   6.100
 9058SOL     OW28072   1.759   1.795   3.507
 9058SOL    HW128073   1.789   1.856   3.581
 9058SOL    HW228074   1.703   1.847   3.443
 9059SOL     OW28075   0.398   1.544   4.079
 9059SOL    HW128076   0.403   1.569   4.176
 9059SOL    HW228077   0.490   1.546   4.040
 9060SOL     OW28078   0.129   3.259   1.713
 9060SOL    HW128079   0.035   3.229   1.696
 9060SOL    HW228080   0.134   3.309   1.799
 9061SOL     OW28081   4.117   5.926   2.220
 9061SOL    HW128082   4.120   5.851   2.153
 9061SOL    HW228083   4.047   5.907   2.288
 9062SOL     OW28084   1.765   5.114   2.408
 9062SOL    HW128085   1.806   5.196   2.368
 9062SOL    HW228086   1.800   5.101   2.501
 9063SOL     OW28087   2.761   0.339   2.858
 9063SOL    HW128088   2.676   0.286   2.852
 9063SOL    HW228089   2.839   0.280   2.839
 9064SOL     OW28090   5.890   3.693   3.997
 9064SOL    HW128091   5.863   3.782   3.959
 9064SOL    HW228092   5.949   3.645   3.932
 9065SOL     OW28093   3.701   5.361   6.750
 9065SOL    HW128094   3.628   5.335   6.814
 9065SOL    HW228095   3.768   5.287   6.744
 9066SOL     OW28096   5.780   0.711   0.049
 9066SOL    HW128097   5.878   0.695   0.036
 9066SOL    HW228098   5.760   0.719   0.146
 9067SOL     OW28099   6.010   0.022   5.218
 9067SOL    HW128100   6.063   6.960   5.217
 9067SOL    HW228101   6.064   0.096   5.177
 9068SOL     OW28102   2.993   0.471   5.196
 9068SOL    HW128103   2.986   0.397   5.129
 9068SOL    HW228104   3.032   0.552   5.152
 9069SOL     OW28105   3.413   2.354   1.697
 9069SOL    HW128106   3.481   2.281   1.686
 9069SOL    HW228107   3.458   2.443   1.689
 9070SOL     OW28108   0.499   3.240   6.155
 9070SOL    HW128109   0.484   3.293   6.238
 9070SOL    HW228110   0.596   3.216   6.147
 9071SOL     OW28111   4.752   6.735   0.719
 9071SOL    HW128112   4.849   6.746   0.699
 9071SOL    HW228113   4.737   6.652   0.773
 9072SOL     OW28114   5.808   0.634   1.690
 9072SOL    HW128115   5.838   0.604   1.781
 9072SOL    HW228116   5.725   0.585   1.665
 9073SOL     OW28117   3.650   6.285   0.993
 9073SOL    HW128118   3.693   6.238   1.070
 9073SOL    HW228119   3.604   6.368   1.026
 9074SOL     OW28120   1.839   0.519   1.615
 9074SOL    HW128121   1.774   0.584   1.655
 9074SOL    HW228122   1.823   0.514   1.516
 9075SOL     OW28123   0.915   0.238   1.069
 9075SOL    HW128124   0.952   0.173   1.135
 9075SOL    HW228125   0.881   0.319   1.116
 9076SOL     OW28126   5.602   1.410   4.607
 9076SOL    HW128127   5.654   1.438   4.689
 9076SOL    HW228128   5.508   1.442   4.616
 9077SOL     OW28129   5.732   1.127   6.542
 9077SOL    HW128130   5.663   1.090   6.480
 9077SOL    HW228131   5.709   1.221   6.566
 9078SOL     OW28132   5.309   3.619   0.479
 9078SOL    HW128133   5.360   3.563   0.545
 9078SOL    HW228134   5.345   3.602   0.387
 9079SOL     OW28135   1.880   6.333   4.028
 9079SOL    HW128136   1.969   6.365   4.060
 9079SOL    HW228137   1.869   6.356   3.931
 9080SOL     OW28138   5.493   2.734   6.903
 9080SOL    HW128139   5.541   2.791   6.969
 9080SOL    HW228140   5.558   2.698   6.836
 9081SOL     OW28141   3.490   0.011   2.424
 9081SOL    HW128142   3.544   6.983   2.491
 9081SOL    HW228143   3.551   0.059   2.361
 9082SOL     OW28144   2.785   6.655   5.744
 9082SOL    HW128145   2.744   6.731   5.693
 9082SOL    HW228146   2.746   6.651   5.836
 9083SOL     OW28147   3.953   4.168   5.392
 9083SOL    HW128148   3.887   4.198   5.323
 9083SOL    HW228149   3.924   4.079   5.428
 9084SOL     OW28150   2.795   2.841   6.077
 9084SOL    HW128151   2.881   2.791   6.063
 9084SOL    HW228152   2.808   2.936   6.051
 9085SOL     OW28153   1.195   5.075   0.590
 9085SOL    HW128154   1.288   5.057   0.558
 9085SOL    HW228155   1.134   5.003   0.557
 9086SOL     OW28156   6.715   4.549   1.019
 9086SOL    HW128157   6.766   4.468   1.050
 9086SOL    HW228158   6.682   4.534   0.926
 9087SOL     OW28159   4.530   2.900   1.616
 9087SOL    HW128160   4.538   2.975   1.682
 9087SOL    HW228161   4.539   2.813   1.664
 9088SOL     OW28162   6.752   6.264   0.938
 9088SOL    HW128163   6.707   6.180   0.966
 9088SOL    HW228164   6.809   6.299   1.012
 9089SOL     OW28165   4.567   6.115   5.369
 9089SOL    HW128166   4.518   6.136   5.285
 9089SOL    HW228167   4.564   6.016   5.386
 9090SOL     OW28168   6.400   6.194   3.636
 9090SOL    HW128169   6.401   6.160   3.730
 9090SOL    HW228170   6.373   6.291   3.636
 9091SOL     OW28171   2.739   3.855   0.618
 9091SOL    HW128172   2.797   3.922   0.572
 9091SOL    HW228173   2.669   3.822   0.555
 9092SOL     OW28174   0.110   1.118   0.746
 9092SOL    HW128175   0.084   1.161   0.833
 9092SOL    HW228176   0.028   1.085   0.700
 9093SOL     OW28177   1.972   6.027   6.719
 9093SOL    HW128178   2.064   5.998   6.742
 9093SOL    HW228179   1.953   6.006   6.623
 9094SOL     OW28180   6.388   5.122   2.995
 9094SOL    HW128181   6.407   5.219   3.014
 9094SOL    HW228182   6.331   5.084   3.067
 9095SOL     OW28183   4.634   3.839   6.839
 9095SOL    HW128184   4.665   3.766   6.778
 9095SOL    HW228185   4.674   3.826   6.929
 9096SOL     OW28186   5.583   4.130   1.862
 9096SOL    HW128187   5.620   4.223   1.872
 9096SOL    HW228188   5.622   4.072   1.934
 9097SOL     OW28189   0.846   2.578   0.168
 9097SOL    HW128190   0.916   2.508   0.156
 9097SOL    HW228191   0.873   2.662   0.119
 9098SOL     OW28192   3.694   2.434   6.678
 9098SOL    HW128193   3.661   2.384   6.598
 9098SOL    HW228194   3.737   2.370   6.742
 9099SOL     OW28195   2.968   3.423   6.967
 9099SOL    HW128196   2.924   3.501   6.923
 9099SOL    HW228197   2.929   3.338   6.931
 9100SOL     OW28198   1.218   3.640   4.028
 9100SOL    HW128199   1.224   3.739   4.044
 9100SOL    HW228200   1.251   3.591   4.109
 9101SOL     OW28201   2.431   2.261   2.876
 9101SOL    HW128202   2.412   2.220   2.965
 9101SOL    HW228203   2.441   2.360   2.887
 9102SOL     OW28204   2.789   0.097   2.238
 9102SOL    HW128205   2.693   0.075   2.223
 9102SOL    HW228206   2.823   0.152   2.162
 9103SOL     OW28207   6.408   3.207   6.751
 9103SOL    HW128208   6.497   3.202   6.797
 9103SOL    HW228209   6.349   3.271   6.801
 9104SOL     OW28210   5.631   6.459   2.725
 9104SOL    HW128211   5.665   6.427   2.813
 9104SOL    HW228212   5.535   6.486   2.734
 9105SOL     OW28213   1.867   1.455   0.231
 9105SOL    HW128214   1.958   1.474   0.266
 9105SOL    HW228215   1.870   1.447   0.131
 9106SOL     OW28216   6.860   3.782   7.010
 9106SOL    HW128217   6.838   3.854   6.943
 9106SOL    HW228218   6.818   3.696   6.982
 9107SOL     OW28219   3.339   0.684   6.057
 9107SOL    HW128220   3.411   0.672   5.988
 9107SOL    HW228221   3.380   0.717   6.142
 9108SOL     OW28222   4.643   3.687   5.703
 9108SOL    HW128223   4.657   3.781   5.736
 9108SOL    HW228224   4.649   3.686   5.603
 9109SOL     OW28225   0.798   3.155   2.626
 9109SOL    HW128226   0.887   3.151   2.671
 9109SOL    HW228227   0.806   3.204   2.539
 9110SOL     OW28228   1.877   4.028   3.935
 9110SOL    HW128229   1.913   4.013   3.843
 9110SOL    HW228230   1.779   4.049   3.930
 9111SOL     OW28231   4.422   1.256   0.649
 9111SOL    HW128232   4.345   1.232   0.590
 9111SOL    HW228233   4.466   1.172   0.682
 9112SOL     OW28234   0.461   4.622   4.087
 9112SOL    HW128235   0.530   4.645   4.155
 9112SOL    HW228236   0.501   4.562   4.017
 9113SOL     OW28237   5.628   1.254   2.459
 9113SOL    HW128238   5.669   1.225   2.373
 9113SOL    HW228239   5.561   1.187   2.489
 9114SOL     OW28240   0.564   4.848   1.787
 9114SOL    HW128241   0.616   4.930   1.808
 9114SOL    HW228242   0.498   4.867   1.715
 9115SOL     OW28243   7.018   4.649   5.215
 9115SOL    HW128244   6.985   4.743   5.219
 9115SOL    HW228245   6.989   4.600   5.296
 9116SOL     OW28246   6.610   1.403   1.307
 9116SOL    HW128247   6.550   1.324   1.306
 9116SOL    HW228248   6.565   1.479   1.354
 9117SOL     OW28249   5.938   2.835   0.031
 9117SOL    HW128250   5.947   2.862   0.127
 9117SOL    HW228251   5.981   2.746   0.018
 9118SOL     OW28252   6.611   4.029   0.517
 9118SOL    HW128253   6.545   3.954   0.516
 9118SOL    HW228254   6.686   4.008   0.580
 9119SOL     OW28255   4.988   0.831   1.656
 9119SOL    HW128256   4.968   0.780   1.573
 9119SOL    HW228257   4.924   0.907   1.665
 9120SOL     OW28258   5.973   1.865   5.664
 9120SOL    HW128259   5.957   1.917   5.748
 9120SOL    HW228260   6.013   1.926   5.594
 9121SOL     OW28261   3.152   0.960   5.307
 9121SOL    HW128262   3.136   0.994   5.214
 9121SOL    HW228263   3.105   1.019   5.372
 9122SOL     OW28264   1.561   4.130   2.261
 9122SOL    HW128265   1.526   4.213   2.305
 9122SOL    HW228266   1.509   4.113   2.177
 9123SOL     OW28267   1.981   1.360   4.293
 9123SOL    HW128268   2.052   1.428   4.312
 9123SOL    HW228269   2.009   1.302   4.217
 9124SOL     OW28270   5.421   6.456   6.859
 9124SOL    HW128271   5.496   6.463   6.793
 9124SOL    HW228272   5.391   6.360   6.864
 9125SOL     OW28273   4.734   3.827   0.868
 9125SOL    HW128274   4.664   3.898   0.874
 9125SOL    HW228275   4.772   3.810   0.959
 9126SOL     OW28276   5.723   3.090   1.385
 9126SOL    HW128277   5.687   3.118   1.475
 9126SOL    HW228278   5.717   3.168   1.322
 9127SOL     OW28279   6.748   1.607   5.928
 9127SOL    HW128280   6.661   1.623   5.975
 9127SOL    HW228281   6.824   1.626   5.991
 9128SOL     OW28282   5.392   1.418   5.129
 9128SOL    HW128283   5.311   1.459   5.087
 9128SOL    HW228284   5.365   1.364   5.209
 9129SOL     OW28285   0.503   2.430   0.344
 9129SOL    HW128286   0.503   2.415   0.443
 9129SOL    HW228287   0.565   2.505   0.322
 9130SOL     OW28288   0.162   3.377   6.264
 9130SOL    HW128289   0.192   3.295   6.313
 9130SOL    HW228290   0.241   3.426   6.227
 9131SOL     OW28291   5.836   2.601   4.721
 9131SOL    HW128292   5.876   2.511   4.703
 9131SOL    HW228293   5.862   2.631   4.813
 9132SOL     OW28294   0.778   5.331   4.568
 9132SOL    HW128295   0.797   5.426   4.592
 9132SOL    HW228296   0.787   5.319   4.469
 9133SOL     OW28297   3.327   6.538   1.535
 9133SOL    HW128298   3.311   6.461   1.473
 9133SOL    HW228299   3.399   6.515   1.600
 9134SOL     OW28300   4.799   5.641   1.128
 9134SOL    HW128301   4.726   5.585   1.168
 9134SOL    HW228302   4.814   5.613   1.033
 9135SOL     OW28303   6.428   6.857   1.788
 9135SOL    HW128304   6.497   6.923   1.760
 9135SOL    HW228305   6.391   6.883   1.877
 9136SOL     OW28306   4.924   6.613   6.604
 9136SOL    HW128307   4.901   6.541   6.539
 9136SOL    HW228308   4.887   6.590   6.694
 9137SOL     OW28309   5.360   1.491   0.316
 9137SOL    HW128310   5.290   1.421   0.304
 9137SOL    HW228311   5.318   1.575   0.350
 9138SOL     OW28312   0.355   5.770   6.630
 9138SOL    HW128313   0.337   5.851   6.685
 9138SOL    HW228314   0.453   5.750   6.631
 9139SOL     OW28315   2.618   2.036   3.353
 9139SOL    HW128316   2.548   1.965   3.349
 9139SOL    HW228317   2.703   1.996   3.388
 9140SOL     OW28318   6.997   3.428   2.634
 9140SOL    HW128319   0.046   3.379   2.683
 9140SOL    HW228320   6.910   3.419   2.684
 9141SOL     OW28321   5.544   0.464   0.834
 9141SOL    HW128322   5.629   0.432   0.873
 9141SOL    HW228323   5.471   0.460   0.902
 9142SOL     OW28324   0.750   2.495   1.012
 9142SOL    HW128325   0.660   2.453   1.014
 9142SOL    HW228326   0.745   2.583   0.964
 9143SOL     OW28327   6.246   3.364   6.879
 9143SOL    HW128328   6.225   3.326   6.969
 9143SOL    HW228329   6.171   3.347   6.816
 9144SOL     OW28330   2.261   5.146   4.562
 9144SOL    HW128331   2.325   5.196   4.620
 9144SOL    HW228332   2.258   5.050   4.591
 9145SOL     OW28333   0.256   5.647   0.325
 9145SOL    HW128334   0.268   5.566   0.267
 9145SOL    HW228335   0.168   5.640   0.373
 9146SOL     OW28336   5.312   3.116   3.470
 9146SOL    HW128337   5.260   3.074   3.396
 9146SOL    HW228338   5.295   3.067   3.556
 9147SOL     OW28339   6.181   0.292   5.201
 9147SOL    HW128340   6.192   0.325   5.107
 9147SOL    HW228341   6.092   0.321   5.237
 9148SOL     OW28342   5.355   6.013   1.391
 9148SOL    HW128343   5.401   5.962   1.319
 9148SOL    HW228344   5.289   5.953   1.438
 9149SOL     OW28345   5.970   3.889   2.466
 9149SOL    HW128346   5.986   3.841   2.380
 9149SOL    HW228347   6.050   3.882   2.524
 9150SOL     OW28348   3.802   5.308   1.316
 9150SOL    HW128349   3.765   5.305   1.409
 9150SOL    HW228350   3.739   5.358   1.256
 9151SOL     OW28351   2.049   4.075   3.223
 9151SOL    HW128352   1.994   4.140   3.170
 9151SOL    HW228353   2.103   4.125   3.290
 9152SOL     OW28354   2.002   4.335   4.582
 9152SOL    HW128355   2.028   4.275   4.507
 9152SOL    HW228356   2.054   4.311   4.664
 9153SOL     OW28357   0.424   2.678   6.832
 9153SOL    HW128358   0.473   2.639   6.911
 9153SOL    HW228359   0.472   2.759   6.799
 9154SOL     OW28360   4.773   4.664   6.988
 9154SOL    HW128361   4.717   4.664   6.905
 9154SOL    HW228362   4.857   4.716   6.972
 9155SOL     OW28363   1.645   3.496   2.430
 9155SOL    HW128364   1.558   3.475   2.476
 9155SOL    HW228365   1.678   3.413   2.385
 9156SOL     OW28366   1.007   2.293   0.207
 9156SOL    HW128367   1.096   2.328   0.234
 9156SOL    HW228368   1.018   2.209   0.154
 9157SOL     OW28369   1.397   4.003   6.368
 9157SOL    HW128370   1.381   3.915   6.323
 9157SOL    HW228371   1.494   4.013   6.388
 9158SOL     OW28372   5.545   3.566   4.661
 9158SOL    HW128373   5.564   3.478   4.706
 9158SOL    HW228374   5.471   3.613   4.709
 9159SOL     OW28375   1.657   1.292   2.033
 9159SOL    HW128376   1.665   1.217   2.098
 9159SOL    HW228377   1.690   1.377   2.076
 9160SOL     OW28378   6.735   6.031   5.485
 9160SOL    HW128379   6.702   6.125   5.493
 9160SOL    HW228380   6.677   5.982   5.420
 9161SOL     OW28381   5.521   4.626   4.006
 9161SOL    HW128382   5.499   4.673   4.092
 9161SOL    HW228383   5.580   4.684   3.950
 9162SOL     OW28384   4.126   1.254   3.457
 9162SOL    HW128385   4.198   1.321   3.478
 9162SOL    HW228386   4.044   1.276   3.510
 9163SOL     OW28387   0.957   2.508   4.964
 9163SOL    HW128388   0.947   2.534   5.060
 9163SOL    HW228389   0.901   2.568   4.908
 9164SOL     OW28390   2.768   0.103   6.804
 9164SOL    HW128391   2.734   0.182   6.854
 9164SOL    HW228392   2.705   0.026   6.815
 9165SOL     OW28393   6.368   0.902   5.281
 9165SOL    HW128394   6.342   0.952   5.199
 9165SOL    HW228395   6.301   0.830   5.299
 9166SOL     OW28396   4.608   6.040   1.376
 9166SOL    HW128397   4.701   6.057   1.341
 9166SOL    HW228398   4.541   6.065   1.306
 9167SOL     OW28399   2.424   2.049   6.239
 9167SOL    HW128400   2.426   2.145   6.211
 9167SOL    HW228401   2.514   2.024   6.275
 9168SOL     OW28402   6.969   6.112   5.807
 9168SOL    HW128403   6.901   6.095   5.877
 9168SOL    HW228404   0.038   6.095   5.844
 9169SOL     OW28405   6.404   0.657   6.268
 9169SOL    HW128406   6.399   0.738   6.325
 9169SOL    HW228407   6.483   0.665   6.206
 9170SOL     OW28408   1.315   0.395   6.661
 9170SOL    HW128409   1.320   0.314   6.719
 9170SOL    HW228410   1.407   0.421   6.632
 9171SOL     OW28411   4.105   5.098   0.434
 9171SOL    HW128412   4.017   5.059   0.462
 9171SOL    HW228413   4.094   5.146   0.347
 9172SOL     OW28414   5.184   0.715   2.627
 9172SOL    HW128415   5.187   0.697   2.726
 9172SOL    HW228416   5.092   0.696   2.592
 9173SOL     OW28417   5.862   4.134   6.074
 9173SOL    HW128418   5.795   4.059   6.075
 9173SOL    HW228419   5.825   4.212   6.125
 9174SOL     OW28420   6.466   4.439   0.746
 9174SOL    HW128421   6.454   4.536   0.726
 9174SOL    HW228422   6.562   4.421   0.768
 9175SOL     OW28423   1.316   6.345   6.594
 9175SOL    HW128424   1.341   6.358   6.690
 9175SOL    HW228425   1.262   6.261   6.585
 9176SOL     OW28426   2.550   1.200   3.529
 9176SOL    HW128427   2.532   1.220   3.433
 9176SOL    HW228428   2.619   1.127   3.535
 9177SOL     OW28429   0.640   4.658   4.267
 9177SOL    HW128430   0.726   4.702   4.241
 9177SOL    HW228431   0.658   4.568   4.306
 9178SOL     OW28432   1.648   5.444   0.798
 9178SOL    HW128433   1.688   5.535   0.812
 9178SOL    HW228434   1.677   5.409   0.709
 9179SOL     OW28435   2.037   5.084   3.872
 9179SOL    HW128436   2.000   5.111   3.961
 9179SOL    HW228437   1.969   5.103   3.801
 9180SOL     OW28438   6.672   3.073   3.877
 9180SOL    HW128439   6.707   3.021   3.800
 9180SOL    HW228440   6.617   3.014   3.936
 9181SOL     OW28441   5.812   2.647   4.396
 9181SOL    HW128442   5.808   2.741   4.430
 9181SOL    HW228443   5.739   2.593   4.436
 9182SOL     OW28444   2.703   6.953   3.111
 9182SOL    HW128445   2.740   0.022   3.122
 9182SOL    HW228446   2.662   6.923   3.198
 9183SOL     OW28447   4.582   4.159   6.994
 9183SOL    HW128448   4.491   4.185   0.003
 9183SOL    HW228449   4.600   4.064   7.019
 9184SOL     OW28450   4.339   1.882   0.859
 9184SOL    HW128451   4.392   1.963   0.885
 9184SOL    HW228452   4.284   1.902   0.778
 9185SOL     OW28453   5.180   6.619   5.208
 9185SOL    HW128454   5.218   6.600   5.118
 9185SOL    HW228455   5.217   6.554   5.274
 9186SOL     OW28456   6.040   6.675   4.471
 9186SOL    HW128457   6.078   6.607   4.534
 9186SOL    HW228458   5.941   6.663   4.465
 9187SOL     OW28459   3.564   1.926   0.458
 9187SOL    HW128460   3.477   1.956   0.420
 9187SOL    HW228461   3.582   1.831   0.430
 9188SOL     OW28462   2.065   0.617   1.930
 9188SOL    HW128463   2.161   0.605   1.905
 9188SOL    HW228464   2.010   0.550   1.881
 9189SOL     OW28465   3.283   5.432   1.991
 9189SOL    HW128466   3.218   5.455   2.064
 9189SOL    HW228467   3.271   5.495   1.915
 9190SOL     OW28468   1.552   3.915   5.214
 9190SOL    HW128469   1.626   3.953   5.268
 9190SOL    HW228470   1.577   3.914   5.118
 9191SOL     OW28471   5.515   1.060   0.266
 9191SOL    HW128472   5.537   1.092   0.358
 9191SOL    HW228473   5.575   1.104   0.199
 9192SOL     OW28474   6.937   2.438   6.285
 9192SOL    HW128475   6.888   2.363   6.241
 9192SOL    HW228476   6.964   2.411   6.378
 9193SOL     OW28477   4.231   3.830   5.253
 9193SOL    HW128478   4.288   3.755   5.219
 9193SOL    HW228479   4.145   3.834   5.202
 9194SOL     OW28480   2.952   1.254   2.925
 9194SOL    HW128481   3.011   1.323   2.884
 9194SOL    HW228482   2.982   1.163   2.896
 9195SOL     OW28483   0.680   3.692   3.098
 9195SOL    HW128484   0.745   3.629   3.141
 9195SOL    HW228485   0.635   3.646   3.021
 9196SOL     OW28486   5.612   6.751   3.688
 9196SOL    HW128487   5.633   6.798   3.602
 9196SOL    HW228488   5.514   6.760   3.708
 9197SOL     OW28489   2.908   4.832   1.452
 9197SOL    HW128490   2.812   4.834   1.422
 9197SOL    HW228491   2.967   4.861   1.376
 9198SOL     OW28492   6.262   4.255   6.574
 9198SOL    HW128493   6.261   4.164   6.615
 9198SOL    HW228494   6.350   4.271   6.529
 9199SOL     OW28495   6.776   3.395   5.551
 9199SOL    HW128496   6.846   3.337   5.509
 9199SOL    HW228497   6.808   3.426   5.641
 9200SOL     OW28498   3.289   6.549   6.216
 9200SOL    HW128499   3.381   6.585   6.232
 9200SOL    HW228500   3.295   6.453   6.188
 9201SOL     OW28501   0.193   3.611   0.132
 9201SOL    HW128502   0.190   3.649   0.039
 9201SOL    HW228503   0.114   3.643   0.183
 9202SOL     OW28504   0.806   5.921   3.776
 9202SOL    HW128505   0.809   6.019   3.756
 9202SOL    HW228506   0.711   5.890   3.778
 9203SOL     OW28507   6.106   2.813   6.011
 9203SOL    HW128508   6.073   2.734   6.063
 9203SOL    HW228509   6.150   2.877   6.074
 9204SOL     OW28510   5.001   3.419   4.531
 9204SOL    HW128511   4.983   3.387   4.624
 9204SOL    HW228512   5.095   3.397   4.506
 9205SOL     OW28513   5.347   5.586   3.522
 9205SOL    HW128514   5.372   5.659   3.458
 9205SOL    HW228515   5.276   5.529   3.481
 9206SOL     OW28516   3.287   5.761   3.283
 9206SOL    HW128517   3.225   5.703   3.335
 9206SOL    HW228518   3.238   5.801   3.206
 9207SOL     OW28519   4.765   4.280   0.313
 9207SOL    HW128520   4.665   4.275   0.318
 9207SOL    HW228521   4.796   4.243   0.226
 9208SOL     OW28522   5.416   4.581   2.985
 9208SOL    HW128523   5.355   4.637   2.929
 9208SOL    HW228524   5.391   4.485   2.975
 9209SOL     OW28525   4.838   0.944   0.129
 9209SOL    HW128526   4.912   1.006   0.101
 9209SOL    HW228527   4.830   0.870   0.063
 9210SOL     OW28528   1.156   1.990   1.456
 9210SOL    HW128529   1.076   1.947   1.498
 9210SOL    HW228530   1.134   2.018   1.362
 9211SOL     OW28531   5.981   2.919   5.784
 9211SOL    HW128532   5.954   3.013   5.805
 9211SOL    HW228533   6.041   2.884   5.856
 9212SOL     OW28534   4.928   5.367   4.234
 9212SOL    HW128535   4.832   5.391   4.222
 9212SOL    HW228536   4.948   5.281   4.186
 9213SOL     OW28537   5.545   4.604   5.151
 9213SOL    HW128538   5.533   4.513   5.193
 9213SOL    HW228539   5.640   4.633   5.163
 9214SOL     OW28540   0.002   3.456   5.435
 9214SOL    HW128541   6.958   3.512   5.485
 9214SOL    HW228542   0.059   3.515   5.378
 9215SOL     OW28543   1.935   3.712   2.156
 9215SOL    HW128544   2.010   3.714   2.090
 9215SOL    HW228545   1.920   3.804   2.191
 9216SOL     OW28546   2.618   6.944   3.375
 9216SOL    HW128547   2.581   0.005   3.416
 9216SOL    HW228548   2.593   6.866   3.432
 9217SOL     OW28549   6.035   3.408   6.150
 9217SOL    HW128550   6.101   3.449   6.087
 9217SOL    HW228551   6.070   3.321   6.184
 9218SOL     OW28552   3.381   0.906   6.982
 9218SOL    HW128553   3.401   0.994   0.003
 9218SOL    HW228554   3.412   0.908   6.887
 9219SOL     OW28555   5.401   3.938   6.210
 9219SOL    HW128556   5.447   4.014   6.164
 9219SOL    HW228557   5.457   3.905   6.285
 9220SOL     OW28558   0.902   6.225   1.774
 9220SOL    HW128559   0.905   6.163   1.853
 9220SOL    HW228560   0.957   6.307   1.794
 9221SOL     OW28561   1.606   0.651   3.068
 9221SOL    HW128562   1.535   0.708   3.028
 9221SOL    HW228563   1.566   0.590   3.136
 9222SOL     OW28564   2.560   5.939   5.652
 9222SOL    HW128565   2.471   5.983   5.640
 9222SOL    HW228566   2.600   5.967   5.739
 9223SOL     OW28567   1.336   2.058   4.305
 9223SOL    HW128568   1.365   2.149   4.334
 9223SOL    HW228569   1.274   2.019   4.374
 9224SOL     OW28570   0.810   5.362   4.280
 9224SOL    HW128571   0.723   5.410   4.290
 9224SOL    HW228572   0.812   5.316   4.191
 9225SOL     OW28573   3.253   6.038   6.501
 9225SOL    HW128574   3.311   6.019   6.422
 9225SOL    HW228575   3.308   6.081   6.573
 9226SOL     OW28576   7.021   6.779   1.341
 9226SOL    HW128577   0.078   6.807   1.396
 9226SOL    HW228578   0.021   6.785   1.244
 9227SOL     OW28579   1.964   5.537   1.183
 9227SOL    HW128580   1.895   5.543   1.255
 9227SOL    HW228581   2.040   5.599   1.203
 9228SOL     OW28582   3.174   1.024   6.733
 9228SOL    HW128583   3.264   1.058   6.704
 9228SOL    HW228584   3.114   1.102   6.753
 9229SOL     OW28585   1.223   5.335   5.401
 9229SOL    HW128586   1.244   5.372   5.491
 9229SOL    HW228587   1.125   5.347   5.382
 9230SOL     OW28588   5.262   2.957   3.255
 9230SOL    HW128589   5.197   2.885   3.232
 9230SOL    HW228590   5.306   2.991   3.172
 9231SOL     OW28591   1.259   3.576   4.586
 9231SOL    HW128592   1.168   3.541   4.563
 9231SOL    HW228593   1.252   3.643   4.660
 9232SOL     OW28594   3.565   5.146   6.498
 9232SOL    HW128595   3.596   5.241   6.492
 9232SOL    HW228596   3.614   5.100   6.572
 9233SOL     OW28597   5.861   5.887   1.851
 9233SOL    HW128598   5.827   5.852   1.764
 9233SOL    HW228599   5.950   5.931   1.837
 9234SOL     OW28600   3.632   5.318   7.019
 9234SOL    HW128601   3.719   5.347   0.037
 9234SOL    HW228602   3.560   5.383   0.023
 9235SOL     OW28603   1.894   2.907   3.958
 9235SOL    HW128604   1.974   2.872   4.007
 9235SOL    HW228605   1.812   2.891   4.012
 9236SOL     OW28606   1.857   4.168   6.692
 9236SOL    HW128607   1.849   4.133   6.599
 9236SOL    HW228608   1.887   4.264   6.689
 9237SOL     OW28609   0.115   6.191   3.145
 9237SOL    HW128610   0.159   6.268   3.100
 9237SOL    HW228611   0.182   6.120   3.165
 9238SOL     OW28612   1.807   2.571   6.500
 9238SOL    HW128613   1.761   2.583   6.588
 9238SOL    HW228614   1.899   2.537   6.516
 9239SOL     OW28615   0.191   3.805   6.870
 9239SOL    HW128616   0.285   3.838   6.860
 9239SOL    HW228617   0.127   3.880   6.855
 9240SOL     OW28618   5.598   2.482   2.276
 9240SOL    HW128619   5.532   2.556   2.259
 9240SOL    HW228620   5.549   2.401   2.307
 9241SOL     OW28621   0.877   5.425   6.073
 9241SOL    HW128622   0.896   5.328   6.089
 9241SOL    HW228623   0.781   5.444   6.096
 9242SOL     OW28624   1.427   4.793   0.527
 9242SOL    HW128625   1.430   4.883   0.481
 9242SOL    HW228626   1.517   4.773   0.566
 9243SOL     OW28627   0.810   0.073   1.548
 9243SOL    HW128628   0.758   7.022   1.505
 9243SOL    HW228629   0.747   0.146   1.576
 9244SOL     OW28630   3.600   4.928   6.066
 9244SOL    HW128631   3.569   4.916   6.161
 9244SOL    HW228632   3.525   4.962   6.010
 9245SOL     OW28633   1.211   5.538   3.958
 9245SOL    HW128634   1.142   5.466   3.957
 9245SOL    HW228635   1.293   5.506   4.005
 9246SOL     OW28636   6.301   6.568   2.103
 9246SOL    HW128637   6.223   6.617   2.143
 9246SOL    HW228638   6.386   6.612   2.130
 9247SOL     OW28639   2.209   6.350   3.314
 9247SOL    HW128640   2.192   6.264   3.363
 9247SOL    HW228641   2.224   6.330   3.217
 9248SOL     OW28642   2.657   2.007   4.511
 9248SOL    HW128643   2.659   1.933   4.444
 9248SOL    HW228644   2.746   2.053   4.512
 9249SOL     OW28645   3.592   4.534   0.934
 9249SOL    HW128646   3.607   4.618   0.987
 9249SOL    HW228647   3.585   4.456   0.997
 9250SOL     OW28648   5.982   3.079   3.832
 9250SOL    HW128649   5.916   3.124   3.892
 9250SOL    HW228650   5.940   2.997   3.792
 9251SOL     OW28651   3.808   1.709   2.837
 9251SOL    HW128652   3.871   1.633   2.820
 9251SOL    HW228653   3.799   1.723   2.936
 9252SOL     OW28654   5.217   0.855   3.833
 9252SOL    HW128655   5.251   0.789   3.766
 9252SOL    HW228656   5.118   0.845   3.842
 9253SOL     OW28657   5.345   5.138   6.172
 9253SOL    HW128658   5.441   5.153   6.150
 9253SOL    HW228659   5.299   5.227   6.183
 9254SOL     OW28660   5.836   5.209   3.691
 9254SOL    HW128661   5.747   5.239   3.724
 9254SOL    HW228662   5.894   5.185   3.769
 9255SOL     OW28663   4.501   4.035   0.858
 9255SOL    HW128664   4.477   4.108   0.795
 9255SOL    HW228665   4.541   4.073   0.941
 9256SOL     OW28666   3.009   0.616   2.824
 9256SOL    HW128667   3.034   0.699   2.775
 9256SOL    HW228668   3.034   0.624   2.921
 9257SOL     OW28669   0.352   4.413   3.345
 9257SOL    HW128670   0.401   4.406   3.258
 9257SOL    HW228671   0.301   4.499   3.347
 9258SOL     OW28672   3.268   3.792   2.909
 9258SOL    HW128673   3.368   3.798   2.907
 9258SOL    HW228674   3.239   3.704   2.871
 9259SOL     OW28675   0.291   2.315   6.909
 9259SOL    HW128676   0.358   2.326   6.982
 9259SOL    HW228677   0.339   2.313   6.821
 9260SOL     OW28678   6.028   1.759   5.054
 9260SOL    HW128679   6.052   1.669   5.091
 9260SOL    HW228680   5.968   1.806   5.118
 9261SOL     OW28681   2.670   1.450   0.143
 9261SOL    HW128682   2.737   1.502   0.197
 9261SOL    HW228683   2.593   1.424   0.201
 9262SOL     OW28684   6.594   4.898   5.175
 9262SOL    HW128685   6.576   4.935   5.266
 9262SOL    HW228686   6.512   4.908   5.119
 9263SOL     OW28687   4.908   6.995   1.622
 9263SOL    HW128688   4.882   0.043   1.687
 9263SOL    HW228689   4.913   6.907   1.669
 9264SOL     OW28690   5.022   4.647   0.396
 9264SOL    HW128691   5.028   4.690   0.486
 9264SOL    HW228692   4.983   4.712   0.330
 9265SOL     OW28693   3.829   2.071   0.395
 9265SOL    HW128694   3.780   2.149   0.355
 9265SOL    HW228695   3.766   2.016   0.449
 9266SOL     OW28696   1.341   6.734   1.171
 9266SOL    HW128697   1.348   6.737   1.271
 9266SOL    HW228698   1.253   6.694   1.145
 9267SOL     OW28699   6.740   2.665   4.589
 9267SOL    HW128700   6.711   2.622   4.503
 9267SOL    HW228701   6.716   2.762   4.588
 9268SOL     OW28702   1.284   5.360   2.380
 9268SOL    HW128703   1.261   5.266   2.407
 9268SOL    HW228704   1.378   5.362   2.344
 9269SOL     OW28705   3.929   1.351   6.724
 9269SOL    HW128706   3.998   1.335   6.654
 9269SOL    HW228707   3.926   1.273   6.787
 9270SOL     OW28708   4.368   6.961   5.836
 9270SOL    HW128709   4.412   6.995   5.918
 9270SOL    HW228710   4.421   6.988   5.755
 9271SOL     OW28711   5.970   0.135   1.041
 9271SOL    HW128712   6.050   0.183   1.078
 9271SOL    HW228713   5.893   0.145   1.105
 9272SOL     OW28714   0.996   6.000   5.293
 9272SOL    HW128715   1.068   5.952   5.345
 9272SOL    HW228716   0.958   5.939   5.224
 9273SOL     OW28717   5.265   6.819   2.886
 9273SOL    HW128718   5.222   6.757   2.951
 9273SOL    HW228719   5.316   6.767   2.818
 9274SOL     OW28720   6.392   1.443   6.982
 9274SOL    HW128721   6.408   1.432   0.058
 9274SOL    HW228722   6.400   1.539   6.958
 9275SOL     OW28723   6.229   0.961   0.406
 9275SOL    HW128724   6.190   0.871   0.389
 9275SOL    HW228725   6.315   0.950   0.456
 9276SOL     OW28726   1.471   3.307   1.691
 9276SOL    HW128727   1.389   3.358   1.718
 9276SOL    HW228728   1.479   3.308   1.591
 9277SOL     OW28729   4.500   3.955   0.490
 9277SOL    HW128730   4.412   3.910   0.499
 9277SOL    HW228731   4.496   4.046   0.532
 9278SOL     OW28732   2.007   0.252   6.050
 9278SOL    HW128733   1.913   0.254   6.084
 9278SOL    HW228734   2.048   0.342   6.061
 9279SOL     OW28735   3.698   1.018   2.324
 9279SOL    HW128736   3.691   1.107   2.278
 9279SOL    HW228737   3.608   0.975   2.327
 9280SOL     OW28738   2.349   1.634   2.945
 9280SOL    HW128739   2.316   1.648   3.039
 9280SOL    HW228740   2.317   1.546   2.912
 9281SOL     OW28741   2.131   3.345   6.429
 9281SOL    HW128742   2.071   3.425   6.434
 9281SOL    HW228743   2.224   3.374   6.410
 9282SOL     OW28744   5.439   0.504   3.691
 9282SOL    HW128745   5.355   0.476   3.737
 9282SOL    HW228746   5.418   0.527   3.595
 9283SOL     OW28747   5.422   1.006   3.697
 9283SOL    HW128748   5.366   1.076   3.655
 9283SOL    HW228749   5.376   0.971   3.779
 9284SOL     OW28750   2.524   3.563   5.504
 9284SOL    HW128751   2.527   3.495   5.431
 9284SOL    HW228752   2.587   3.537   5.577
 9285SOL     OW28753   4.631   2.116   0.743
 9285SOL    HW128754   4.681   2.200   0.721
 9285SOL    HW228755   4.557   2.138   0.807
 9286SOL     OW28756   5.162   5.577   1.025
 9286SOL    HW128757   5.219   5.547   1.102
 9286SOL    HW228758   5.177   5.518   0.946
 9287SOL     OW28759   3.312   4.965   0.492
 9287SOL    HW128760   3.253   5.044   0.476
 9287SOL    HW228761   3.255   4.887   0.521
 9288SOL     OW28762   4.612   1.712   2.976
 9288SOL    HW128763   4.697   1.658   2.971
 9288SOL    HW228764   4.602   1.766   2.892
 9289SOL     OW28765   3.801   0.588   2.179
 9289SOL    HW128766   3.733   0.518   2.206
 9289SOL    HW228767   3.753   0.668   2.143
 9290SOL     OW28768   5.837   1.074   2.818
 9290SOL    HW128769   5.752   1.036   2.783
 9290SOL    HW228770   5.837   1.068   2.918
 9291SOL     OW28771   1.192   5.884   5.446
 9291SOL    HW128772   1.223   5.790   5.462
 9291SOL    HW228773   1.260   5.948   5.482
 9292SOL     OW28774   1.913   2.906   6.290
 9292SOL    HW128775   1.980   2.884   6.361
 9292SOL    HW228776   1.855   2.827   6.274
 9293SOL     OW28777   5.328   3.016   6.341
 9293SOL    HW128778   5.358   2.924   6.365
 9293SOL    HW228779   5.246   3.039   6.395
 9294SOL     OW28780   4.351   0.308   5.747
 9294SOL    HW128781   4.443   0.271   5.759
 9294SOL    HW228782   4.293   0.241   5.700
 9295SOL     OW28783   5.452   1.302   4.890
 9295SOL    HW128784   5.524   1.352   4.842
 9295SOL    HW228785   5.421   1.357   4.968
 9296SOL     OW28786   1.757   5.746   0.029
 9296SOL    HW128787   1.783   5.827   7.000
 9296SOL    HW228788   1.696   5.773   0.104
 9297SOL     OW28789   0.410   6.824   2.511
 9297SOL    HW128790   0.310   6.818   2.516
 9297SOL    HW228791   0.437   6.916   2.484
 9298SOL     OW28792   1.037   6.417   6.288
 9298SOL    HW128793   1.130   6.439   6.317
 9298SOL    HW228794   0.979   6.498   6.298
 9299SOL     OW28795   0.360   2.407   4.955
 9299SOL    HW128796   0.275   2.460   4.948
 9299SOL    HW228797   0.366   2.368   5.047
 9300SOL     OW28798   0.093   4.613   5.905
 9300SOL    HW128799   0.170   4.596   5.966
 9300SOL    HW228800   0.121   4.597   5.810
 9301SOL     OW28801   5.532   5.443   4.632
 9301SOL    HW128802   5.504   5.423   4.726
 9301SOL    HW228803   5.621   5.401   4.614
 9302SOL     OW28804   2.137   2.743   4.051
 9302SOL    HW128805   2.072   2.668   4.050
 9302SOL    HW228806   2.207   2.729   3.980
 9303SOL     OW28807   2.583   3.974   0.799
 9303SOL    HW128808   2.612   3.921   0.720
 9303SOL    HW228809   2.555   3.912   0.872
 9304SOL     OW28810   4.071   4.519   1.744
 9304SOL    HW128811   3.976   4.543   1.767
 9304SOL    HW228812   4.074   4.426   1.709
 9305SOL     OW28813   3.240   0.983   0.860
 9305SOL    HW128814   3.218   0.967   0.956
 9305SOL    HW228815   3.254   1.081   0.844
 9306SOL     OW28816   0.457   5.285   5.344
 9306SOL    HW128817   0.440   5.189   5.364
 9306SOL    HW228818   0.532   5.292   5.278
 9307SOL     OW28819   1.158   3.462   1.194
 9307SOL    HW128820   1.174   3.439   1.290
 9307SOL    HW228821   1.185   3.557   1.178
 9308SOL     OW28822   2.208   3.428   0.390
 9308SOL    HW128823   2.142   3.495   0.356
 9308SOL    HW228824   2.225   3.444   0.487
 9309SOL     OW28825   3.659   4.665   6.044
 9309SOL    HW128826   3.687   4.656   6.139
 9309SOL    HW228827   3.635   4.760   6.024
 9310SOL     OW28828   4.907   5.253   6.279
 9310SOL    HW128829   5.003   5.250   6.307
 9310SOL    HW228830   4.873   5.160   6.265
 9311SOL     OW28831   4.624   4.688   1.753
 9311SOL    HW128832   4.533   4.730   1.746
 9311SOL    HW228833   4.693   4.754   1.725
 9312SOL     OW28834   1.192   3.843   0.763
 9312SOL    HW128835   1.204   3.928   0.814
 9312SOL    HW228836   1.281   3.806   0.737
 9313SOL     OW28837   0.479   0.569   0.995
 9313SOL    HW128838   0.439   0.603   1.080
 9313SOL    HW228839   0.568   0.611   0.982
 9314SOL     OW28840   5.953   4.093   6.804
 9314SOL    HW128841   5.869   4.102   6.856
 9314SOL    HW228842   5.942   4.136   6.714
 9315SOL     OW28843   6.357   0.094   5.267
 9315SOL    HW128844   6.268   0.138   5.279
 9315SOL    HW228845   6.365   0.018   5.332
 9316SOL     OW28846   5.479   6.890   5.902
 9316SOL    HW128847   5.574   6.922   5.904
 9316SOL    HW228848   5.427   6.934   5.974
 9317SOL     OW28849   5.583   5.245   3.808
 9317SOL    HW128850   5.538   5.156   3.815
 9317SOL    HW228851   5.548   5.305   3.880
 9318SOL     OW28852   5.730   1.215   5.730
 9318SOL    HW128853   5.750   1.201   5.633
 9318SOL    HW228854   5.657   1.152   5.758
 9319SOL     OW28855   2.869   2.314   6.604
 9319SOL    HW128856   2.961   2.275   6.602
 9319SOL    HW228857   2.806   2.247   6.644
 9320SOL     OW28858   3.097   0.547   4.848
 9320SOL    HW128859   3.117   0.617   4.916
 9320SOL    HW228860   3.030   0.582   4.782
 9321SOL     OW28861   0.319   0.498   4.448
 9321SOL    HW128862   0.406   0.525   4.489
 9321SOL    HW228863   0.244   0.549   4.491
 9322SOL     OW28864   0.042   3.667   6.047
 9322SOL    HW128865   6.969   3.658   6.020
 9322SOL    HW228866   0.097   3.599   5.999
 9323SOL     OW28867   1.351   0.543   5.287
 9323SOL    HW128868   1.310   0.547   5.378
 9323SOL    HW228869   1.428   0.607   5.282
 9324SOL     OW28870   1.473   4.217   1.597
 9324SOL    HW128871   1.407   4.245   1.527
 9324SOL    HW228872   1.445   4.255   1.685
 9325SOL     OW28873   5.803   1.446   0.186
 9325SOL    HW128874   5.841   1.476   0.099
 9325SOL    HW228875   5.828   1.350   0.202
 9326SOL     OW28876   2.674   5.107   0.703
 9326SOL    HW128877   2.654   5.202   0.725
 9326SOL    HW228878   2.588   5.056   0.694
 9327SOL     OW28879   4.997   0.290   2.688
 9327SOL    HW128880   5.027   0.328   2.776
 9327SOL    HW228881   5.073   0.292   2.623
 9328SOL     OW28882   2.614   1.022   4.798
 9328SOL    HW128883   2.651   0.930   4.785
 9328SOL    HW228884   2.653   1.083   4.728
 9329SOL     OW28885   5.979   3.844   0.732
 9329SOL    HW128886   5.889   3.859   0.691
 9329SOL    HW228887   5.969   3.836   0.831
 9330SOL     OW28888   6.397   0.411   5.372
 9330SOL    HW128889   6.392   0.504   5.407
 9330SOL    HW228890   6.311   0.389   5.325
 9331SOL     OW28891   2.052   0.965   6.805
 9331SOL    HW128892   2.149   0.987   6.806
 9331SOL    HW228893   2.038   0.877   6.759
 9332SOL     OW28894   4.105   4.613   0.580
 9332SOL    HW128895   4.095   4.672   0.659
 9332SOL    HW228896   4.015   4.575   0.555
 9333SOL     OW28897   3.687   4.075   6.807
 9333SOL    HW128898   3.704   4.109   6.900
 9333SOL    HW228899   3.624   4.137   6.760
 9334SOL     OW28900   5.253   6.488   3.597
 9334SOL    HW128901   5.309   6.415   3.637
 9334SOL    HW228902   5.297   6.520   3.513
 9335SOL     OW28903   1.134   0.824   6.878
 9335SOL    HW128904   1.080   0.746   6.912
 9335SOL    HW228905   1.110   0.841   6.783
 9336SOL     OW28906   3.504   6.560   5.306
 9336SOL    HW128907   3.435   6.503   5.261
 9336SOL    HW228908   3.485   6.656   5.288
 9337SOL     OW28909   4.077   1.382   4.642
 9337SOL    HW128910   4.165   1.379   4.593
 9337SOL    HW228911   4.087   1.336   4.730
 9338SOL     OW28912   6.351   0.135   1.639
 9338SOL    HW128913   6.312   0.158   1.728
 9338SOL    HW228914   6.305   0.187   1.568
 9339SOL     OW28915   6.072   6.355   0.826
 9339SOL    HW128916   5.984   6.343   0.781
 9339SOL    HW228917   6.130   6.416   0.772
 9340SOL     OW28918   4.662   4.680   3.261
 9340SOL    HW128919   4.631   4.593   3.298
 9340SOL    HW228920   4.602   4.753   3.294
 9341SOL     OW28921   6.798   5.162   0.949
 9341SOL    HW128922   6.720   5.150   0.888
 9341SOL    HW228923   6.817   5.259   0.960
 9342SOL     OW28924   3.041   6.611   3.977
 9342SOL    HW128925   3.025   6.702   3.938
 9342SOL    HW228926   3.077   6.621   4.069
 9343SOL     OW28927   5.256   3.950   1.645
 9343SOL    HW128928   5.180   3.988   1.592
 9343SOL    HW228929   5.297   4.021   1.702
 9344SOL     OW28930   5.178   6.759   1.928
 9344SOL    HW128931   5.135   6.849   1.936
 9344SOL    HW228932   5.164   6.708   2.013
 9345SOL     OW28933   6.833   5.801   1.955
 9345SOL    HW128934   6.746   5.775   1.997
 9345SOL    HW228935   6.818   5.868   1.883
 9346SOL     OW28936   5.449   0.757   1.382
 9346SOL    HW128937   5.472   0.789   1.474
 9346SOL    HW228938   5.528   0.709   1.343
 9347SOL     OW28939   3.650   3.967   0.298
 9347SOL    HW128940   3.554   3.949   0.318
 9347SOL    HW228941   3.691   4.020   0.372
 9348SOL     OW28942   2.271   6.222   3.076
 9348SOL    HW128943   2.365   6.190   3.066
 9348SOL    HW228944   2.226   6.223   2.987
 9349SOL     OW28945   6.201   5.014   2.261
 9349SOL    HW128946   6.249   4.927   2.271
 9349SOL    HW228947   6.207   5.046   2.167
 9350SOL     OW28948   6.915   2.541   5.614
 9350SOL    HW128949   6.963   2.534   5.701
 9350SOL    HW228950   6.958   2.610   5.557
 9351SOL     OW28951   3.381   0.175   6.273
 9351SOL    HW128952   3.425   0.125   6.348
 9351SOL    HW228953   3.450   0.214   6.212
 9352SOL     OW28954   3.864   1.203   6.307
 9352SOL    HW128955   3.867   1.238   6.214
 9352SOL    HW228956   3.865   1.103   6.305
 9353SOL     OW28957   0.542   3.901   0.714
 9353SOL    HW128958   0.519   3.996   0.732
 9353SOL    HW228959   0.637   3.894   0.683
 9354SOL     OW28960   0.221   2.251   6.094
 9354SOL    HW128961   0.188   2.199   6.016
 9354SOL    HW228962   0.196   2.204   6.179
 9355SOL     OW28963   0.060   1.872   4.804
 9355SOL    HW128964   0.080   1.774   4.810
 9355SOL    HW228965   0.060   1.900   4.708
 9356SOL     OW28966   4.649   6.300   2.135
 9356SOL    HW128967   4.600   6.343   2.059
 9356SOL    HW228968   4.593   6.303   2.218
 9357SOL     OW28969   1.455   3.302   6.531
 9357SOL    HW128970   1.454   3.219   6.475
 9357SOL    HW228971   1.545   3.313   6.572
 9358SOL     OW28972   0.040   3.149   2.301
 9358SOL    HW128973   0.068   3.083   2.370
 9358SOL    HW228974   6.964   3.161   2.304
 9359SOL     OW28975   1.839   3.556   5.806
 9359SOL    HW128976   1.797   3.481   5.757
 9359SOL    HW228977   1.920   3.588   5.756
 9360SOL     OW28978   1.289   5.590   6.882
 9360SOL    HW128979   1.377   5.636   6.890
 9360SOL    HW228980   1.223   5.651   6.839
 9361SOL     OW28981   1.657   5.464   2.604
 9361SOL    HW128982   1.635   5.381   2.654
 9361SOL    HW228983   1.668   5.540   2.669
 9362SOL     OW28984   1.914   2.771   2.463
 9362SOL    HW128985   1.937   2.681   2.501
 9362SOL    HW228986   1.964   2.785   2.378
 9363SOL     OW28987   3.813   6.487   1.970
 9363SOL    HW128988   3.798   6.522   2.062
 9363SOL    HW228989   3.739   6.517   1.910
 9364SOL     OW28990   3.831   3.189   6.109
 9364SOL    HW128991   3.892   3.140   6.047
 9364SOL    HW228992   3.810   3.279   6.071
 9365SOL     OW28993   2.344   1.865   4.085
 9365SOL    HW128994   2.248   1.877   4.064
 9365SOL    HW228995   2.394   1.950   4.066
 9366SOL     OW28996   3.730   5.656   6.159
 9366SOL    HW128997   3.735   5.558   6.177
 9366SOL    HW228998   3.822   5.695   6.164
 9367SOL     OW28999   0.313   6.689   2.993
 9367SOL    HW129000   0.255   6.676   2.912
 9367SOL    HW229001   0.275   6.637   3.069
 9368SOL     OW29002   2.794   0.987   2.588
 9368SOL    HW129003   2.886   0.986   2.549
 9368SOL    HW229004   2.729   0.949   2.522
 9369SOL     OW29005   6.485   5.718   4.686
 9369SOL    HW129006   6.521   5.737   4.595
 9369SOL    HW229007   6.517   5.788   4.750
 9370SOL     OW29008   5.491   7.015   3.479
 9370SOL    HW129009   5.419   0.043   3.431
 9370SOL    HW229010   5.574   0.048   3.483
 9371SOL     OW29011   2.890   5.391   0.844
 9371SOL    HW129012   2.809   5.450   0.840
 9371SOL    HW229013   2.972   5.446   0.826
 9372SOL     OW29014   5.113   0.692   1.866
 9372SOL    HW129015   5.144   0.604   1.828
 9372SOL    HW229016   5.067   0.744   1.794
 9373SOL     OW29017   5.187   1.711   2.250
 9373SOL    HW129018   5.282   1.739   2.233
 9373SOL    HW229019   5.128   1.791   2.240
 9374SOL     OW29020   0.165   3.396   0.308
 9374SOL    HW129021   0.125   3.382   0.217
 9374SOL    HW229022   0.248   3.451   0.299
 9375SOL     OW29023   0.785   1.461   1.494
 9375SOL    HW129024   0.686   1.479   1.494
 9375SOL    HW229025   0.803   1.378   1.442
 9376SOL     OW29026   2.313   4.047   1.090
 9376SOL    HW129027   2.371   4.107   1.034
 9376SOL    HW229028   2.220   4.085   1.093
 9377SOL     OW29029   1.858   5.498   3.561
 9377SOL    HW129030   1.880   5.440   3.640
 9377SOL    HW229031   1.938   5.504   3.502
 9378SOL     OW29032   1.630   1.203   3.904
 9378SOL    HW129033   1.674   1.267   3.967
 9378SOL    HW229034   1.630   1.243   3.812
 9379SOL     OW29035   5.079   6.817   5.715
 9379SOL    HW129036   5.124   6.740   5.761
 9379SOL    HW229037   4.983   6.794   5.699
 9380SOL     OW29038   4.661   5.463   5.481
 9380SOL    HW129039   4.667   5.443   5.579
 9380SOL    HW229040   4.741   5.516   5.453
 9381SOL     OW29041   4.366   3.064   5.689
 9381SOL    HW129042   4.430   2.989   5.671
 9381SOL    HW229043   4.348   3.113   5.604
 9382SOL     OW29044   3.317   0.747   3.966
 9382SOL    HW129045   3.382   0.681   4.003
 9382SOL    HW229046   3.232   0.699   3.942
 9383SOL     OW29047   6.254   5.866   4.651
 9383SOL    HW129048   6.316   5.790   4.669
 9383SOL    HW229049   6.170   5.831   4.610
 9384SOL     OW29050   4.505   0.423   1.872
 9384SOL    HW129051   4.491   0.333   1.831
 9384SOL    HW229052   4.546   0.412   1.963
 9385SOL     OW29053   3.996   1.510   3.554
 9385SOL    HW129054   3.961   1.457   3.631
 9385SOL    HW229055   4.089   1.542   3.575
 9386SOL     OW29056   3.018   5.781   5.088
 9386SOL    HW129057   2.934   5.768   5.037
 9386SOL    HW229058   3.060   5.693   5.107
 9387SOL     OW29059   2.828   1.796   0.208
 9387SOL    HW129060   2.901   1.727   0.207
 9387SOL    HW229061   2.770   1.784   0.128
 9388SOL     OW29062   2.789   5.657   3.126
 9388SOL    HW129063   2.849   5.727   3.087
 9388SOL    HW229064   2.786   5.668   3.226
 9389SOL     OW29065   2.081   0.322   3.539
 9389SOL    HW129066   2.114   0.384   3.468
 9389SOL    HW229067   1.995   0.281   3.510
 9390SOL     OW29068   5.882   4.756   6.684
 9390SOL    HW129069   5.808   4.811   6.723
 9390SOL    HW229070   5.959   4.815   6.662
 9391SOL     OW29071   1.526   0.742   5.282
 9391SOL    HW129072   1.462   0.818   5.270
 9391SOL    HW229073   1.580   0.757   5.365
 9392SOL     OW29074   5.594   5.190   5.988
 9392SOL    HW129075   5.565   5.281   6.016
 9392SOL    HW229076   5.534   5.157   5.915
 9393SOL     OW29077   3.421   6.764   6.859
 9393SOL    HW129078   3.520   6.758   6.849
 9393SOL    HW229079   3.394   6.860   6.869
 9394SOL     OW29080   6.752   0.865   1.709
 9394SOL    HW129081   6.661   0.906   1.696
 9394SOL    HW229082   6.748   0.798   1.783
 9395SOL     OW29083   3.508   1.578   1.137
 9395SOL    HW129084   3.509   1.545   1.232
 9395SOL    HW229085   3.528   1.502   1.075
 9396SOL     OW29086   2.274   4.111   3.992
 9396SOL    HW129087   2.213   4.059   4.052
 9396SOL    HW229088   2.329   4.173   4.047
 9397SOL     OW29089   3.528   6.261   6.301
 9397SOL    HW129090   3.581   6.277   6.384
 9397SOL    HW229091   3.571   6.190   6.247
 9398SOL     OW29092   6.313   1.077   5.021
 9398SOL    HW129093   6.271   1.167   5.035
 9398SOL    HW229094   6.401   1.088   4.976
 9399SOL     OW29095   1.328   2.925   5.139
 9399SOL    HW129096   1.410   2.884   5.101
 9399SOL    HW229097   1.319   2.898   5.235
 9400SOL     OW29098   4.851   1.466   1.067
 9400SOL    HW129099   4.905   1.385   1.093
 9400SOL    HW229100   4.905   1.524   1.006
 9401SOL     OW29101   6.557   0.982   3.199
 9401SOL    HW129102   6.583   0.893   3.162
 9401SOL    HW229103   6.621   1.052   3.167
 9402SOL     OW29104   1.201   5.520   2.571
 9402SOL    HW129105   1.252   5.465   2.505
 9402SOL    HW229106   1.104   5.518   2.548
 9403SOL     OW29107   6.557   1.427   1.681
 9403SOL    HW129108   6.586   1.337   1.646
 9403SOL    HW229109   6.537   1.420   1.778
 9404SOL     OW29110   0.918   2.042   0.477
 9404SOL    HW129111   1.008   2.030   0.520
 9404SOL    HW229112   0.930   2.051   0.378
 9405SOL     OW29113   2.200   4.152   3.744
 9405SOL    HW129114   2.228   4.130   3.837
 9405SOL    HW229115   2.275   4.199   3.697
 9406SOL     OW29116   0.512   2.623   6.571
 9406SOL    HW129117   0.463   2.609   6.657
 9406SOL    HW229118   0.599   2.669   6.589
 9407SOL     OW29119   2.489   4.911   3.318
 9407SOL    HW129120   2.394   4.926   3.291
 9407SOL    HW229121   2.491   4.875   3.412
 9408SOL     OW29122   6.333   2.673   5.860
 9408SOL    HW129123   6.251   2.722   5.887
 9408SOL    HW229124   6.327   2.646   5.764
 9409SOL     OW29125   6.480   5.400   0.916
 9409SOL    HW129126   6.494   5.303   0.898
 9409SOL    HW229127   6.447   5.445   0.833
 9410SOL     OW29128   1.825   0.720   2.891
 9410SOL    HW129129   1.857   0.812   2.912
 9410SOL    HW229130   1.742   0.700   2.943
 9411SOL     OW29131   4.124   3.676   2.982
 9411SOL    HW129132   4.031   3.711   2.989
 9411SOL    HW229133   4.160   3.656   3.073
 9412SOL     OW29134   1.330   1.351   2.172
 9412SOL    HW129135   1.284   1.263   2.174
 9412SOL    HW229136   1.336   1.384   2.077
 9413SOL     OW29137   4.382   5.318   3.540
 9413SOL    HW129138   4.425   5.234   3.572
 9413SOL    HW229139   4.450   5.376   3.497
 9414SOL     OW29140   2.806   1.389   3.110
 9414SOL    HW129141   2.853   1.314   3.062
 9414SOL    HW229142   2.716   1.404   3.069
 9415SOL     OW29143   2.098   6.816   3.116
 9415SOL    HW129144   2.191   6.779   3.116
 9415SOL    HW229145   2.102   6.916   3.117
 9416SOL     OW29146   0.159   1.472   6.002
 9416SOL    HW129147   0.081   1.428   5.958
 9416SOL    HW229148   0.176   1.430   6.091
 9417SOL     OW29149   3.524   0.642   0.819
 9417SOL    HW129150   3.424   0.642   0.821
 9417SOL    HW229151   3.558   0.710   0.884
 9418SOL     OW29152   2.964   0.708   1.628
 9418SOL    HW129153   3.014   0.639   1.576
 9418SOL    HW229154   3.015   0.794   1.627
 9419SOL     OW29155   2.384   4.582   6.214
 9419SOL    HW129156   2.364   4.647   6.288
 9419SOL    HW229157   2.441   4.508   6.249
 9420SOL     OW29158   5.721   4.917   0.746
 9420SOL    HW129159   5.700   4.875   0.657
 9420SOL    HW229160   5.657   4.991   0.764
 9421SOL     OW29161   2.699   6.340   4.530
 9421SOL    HW129162   2.799   6.337   4.517
 9421SOL    HW229163   2.665   6.429   4.499
 9422SOL     OW29164   3.267   5.576   2.671
 9422SOL    HW129165   3.171   5.597   2.651
 9422SOL    HW229166   3.279   5.566   2.770
 9423SOL     OW29167   3.518   6.278   3.652
 9423SOL    HW129168   3.520   6.210   3.726
 9423SOL    HW229169   3.582   6.352   3.672
 9424SOL     OW29170   4.522   2.223   4.312
 9424SOL    HW129171   4.428   2.251   4.329
 9424SOL    HW229172   4.529   2.123   4.320
 9425SOL     OW29173   5.377   4.090   1.288
 9425SOL    HW129174   5.289   4.136   1.296
 9425SOL    HW229175   5.365   4.004   1.238
 9426SOL     OW29176   3.595   1.942   6.279
 9426SOL    HW129177   3.660   1.873   6.313
 9426SOL    HW229178   3.595   1.941   6.179
 9427SOL     OW29179   3.058   5.437   3.370
 9427SOL    HW129180   3.123   5.399   3.436
 9427SOL    HW229181   3.101   5.443   3.280
 9428SOL     OW29182   0.054   0.694   1.187
 9428SOL    HW129183   0.072   0.769   1.124
 9428SOL    HW229184   0.007   0.729   1.268
 9429SOL     OW29185   1.758   3.685   3.353
 9429SOL    HW129186   1.709   3.620   3.412
 9429SOL    HW229187   1.744   3.778   3.387
 9430SOL     OW29188   0.153   2.540   5.313
 9430SOL    HW129189   0.175   2.584   5.226
 9430SOL    HW229190   0.234   2.496   5.350
 9431SOL     OW29191   6.427   4.704   0.702
 9431SOL    HW129192   6.473   4.725   0.788
 9431SOL    HW229193   6.335   4.743   0.703
 9432SOL     OW29194   6.109   0.478   3.773
 9432SOL    HW129195   6.112   0.396   3.831
 9432SOL    HW229196   6.140   0.557   3.827
 9433SOL     OW29197   2.937   6.287   3.133
 9433SOL    HW129198   3.005   6.308   3.063
 9433SOL    HW229199   2.951   6.194   3.167
 9434SOL     OW29200   5.768   5.891   2.428
 9434SOL    HW129201   5.732   5.847   2.346
 9434SOL    HW229202   5.728   5.847   2.509
 9435SOL     OW29203   0.145   2.540   3.793
 9435SOL    HW129204   0.166   2.538   3.695
 9435SOL    HW229205   0.097   2.624   3.816
 9436SOL     OW29206   1.492   2.502   1.600
 9436SOL    HW129207   1.554   2.573   1.567
 9436SOL    HW229208   1.405   2.544   1.626
 9437SOL     OW29209   0.802   6.114   2.846
 9437SOL    HW129210   0.870   6.182   2.876
 9437SOL    HW229211   0.846   6.047   2.787
 9438SOL     OW29212   0.587   0.186   1.944
 9438SOL    HW129213   0.588   0.286   1.946
 9438SOL    HW229214   0.668   0.153   1.895
 9439SOL     OW29215   0.897   3.223   0.190
 9439SOL    HW129216   0.915   3.259   0.098
 9439SOL    HW229217   0.805   3.248   0.218
 9440SOL     OW29218   3.814   4.832   3.088
 9440SOL    HW129219   3.719   4.827   3.117
 9440SOL    HW229220   3.874   4.818   3.167
 9441SOL     OW29221   5.813   4.539   5.948
 9441SOL    HW129222   5.715   4.553   5.934
 9441SOL    HW229223   5.863   4.588   5.877
 9442SOL     OW29224   5.714   4.049   1.500
 9442SOL    HW129225   5.800   4.085   1.536
 9442SOL    HW229226   5.681   3.976   1.560
 9443SOL     OW29227   2.410   5.249   0.589
 9443SOL    HW129228   2.324   5.226   0.636
 9443SOL    HW229229   2.401   5.227   0.492
 9444SOL     OW29230   1.920   3.782   0.673
 9444SOL    HW129231   1.828   3.821   0.673
 9444SOL    HW229232   1.919   3.695   0.723
 9445SOL     OW29233   5.917   3.421   2.800
 9445SOL    HW129234   5.996   3.478   2.820
 9445SOL    HW229235   5.916   3.341   2.861
 9446SOL     OW29236   6.089   5.279   5.276
 9446SOL    HW129237   6.117   5.325   5.191
 9446SOL    HW229238   6.046   5.346   5.336
 9447SOL     OW29239   5.534   4.758   3.702
 9447SOL    HW129240   5.575   4.774   3.612
 9447SOL    HW229241   5.517   4.660   3.713
 9448SOL     OW29242   0.053   6.935   5.968
 9448SOL    HW129243   0.050   6.961   6.065
 9448SOL    HW229244   0.018   7.011   5.913
 9449SOL     OW29245   5.282   6.982   0.011
 9449SOL    HW129246   5.251   7.015   6.944
 9449SOL    HW229247   5.204   6.971   0.072
 9450SOL     OW29248   2.499   5.928   3.246
 9450SOL    HW129249   2.402   5.951   3.236
 9450SOL    HW229250   2.507   5.839   3.291
 9451SOL     OW29251   4.747   6.137   5.871
 9451SOL    HW129252   4.799   6.201   5.814
 9451SOL    HW229253   4.650   6.146   5.852
 9452SOL     OW29254   1.643   3.997   6.869
 9452SOL    HW129255   1.599   3.967   6.784
 9452SOL    HW229256   1.694   4.082   6.852
 9453SOL     OW29257   2.822   5.364   2.819
 9453SOL    HW129258   2.774   5.317   2.893
 9453SOL    HW229259   2.921   5.355   2.833
 9454SOL     OW29260   3.400   3.551   6.562
 9454SOL    HW129261   3.363   3.489   6.631
 9454SOL    HW229262   3.473   3.504   6.511
 9455SOL     OW29263   2.659   1.805   3.693
 9455SOL    HW129264   2.749   1.764   3.679
 9455SOL    HW229265   2.592   1.762   3.633
 9456SOL     OW29266   7.005   3.241   0.445
 9456SOL    HW129267   6.994   3.239   0.544
 9456SOL    HW229268   0.062   3.297   0.421
 9457SOL     OW29269   1.102   4.342   4.314
 9457SOL    HW129270   1.134   4.307   4.402
 9457SOL    HW229271   1.058   4.268   4.263
 9458SOL     OW29272   0.358   3.546   6.205
 9458SOL    HW129273   0.304   3.629   6.194
 9458SOL    HW229274   0.454   3.565   6.184
 9459SOL     OW29275   5.198   4.773   3.823
 9459SOL    HW129276   5.242   4.716   3.753
 9459SOL    HW229277   5.179   4.717   3.904
 9460SOL     OW29278   2.158   3.915   4.561
 9460SOL    HW129279   2.179   3.823   4.526
 9460SOL    HW229280   2.072   3.946   4.522
 9461SOL     OW29281   0.592   1.791   1.600
 9461SOL    HW129282   0.609   1.875   1.549
 9461SOL    HW229283   0.498   1.761   1.583
 9462SOL     OW29284   1.583   3.165   3.523
 9462SOL    HW129285   1.681   3.180   3.507
 9462SOL    HW229286   1.560   3.196   3.615
 9463SOL     OW29287   5.986   0.579   1.201
 9463SOL    HW129288   6.054   0.645   1.167
 9463SOL    HW229289   5.965   0.599   1.297
 9464SOL     OW29290   5.782   0.347   0.909
 9464SOL    HW129291   5.818   0.438   0.888
 9464SOL    HW229292   5.857   0.286   0.935
 9465SOL     OW29293   7.022   3.922   1.655
 9465SOL    HW129294   6.951   3.863   1.618
 9465SOL    HW229295   0.032   3.885   1.742
 9466SOL     OW29296   3.223   4.453   5.331
 9466SOL    HW129297   3.247   4.535   5.279
 9466SOL    HW229298   3.129   4.426   5.311
 9467SOL     OW29299   1.363   2.718   1.161
 9467SOL    HW129300   1.354   2.627   1.202
 9467SOL    HW229301   1.278   2.741   1.112
 9468SOL     OW29302   5.575   4.095   6.462
 9468SOL    HW129303   5.642   4.167   6.446
 9468SOL    HW229304   5.498   4.132   6.513
 9469SOL     OW29305   0.157   5.476   1.822
 9469SOL    HW129306   0.086   5.487   1.892
 9469SOL    HW229307   0.188   5.380   1.821
 9470SOL     OW29308   5.134   3.151   0.206
 9470SOL    HW129309   5.142   3.052   0.211
 9470SOL    HW229310   5.056   3.176   0.148
 9471SOL     OW29311   6.345   2.646   4.221
 9471SOL    HW129312   6.367   2.648   4.318
 9471SOL    HW229313   6.292   2.563   4.201
 9472SOL     OW29314   6.744   2.962   5.111
 9472SOL    HW129315   6.686   2.999   5.183
 9472SOL    HW229316   6.709   2.872   5.084
 9473SOL     OW29317   3.096   4.783   0.199
 9473SOL    HW129318   3.070   4.805   0.293
 9473SOL    HW229319   3.042   4.705   0.167
 9474SOL     OW29320   0.009   3.725   0.888
 9474SOL    HW129321   0.048   3.743   0.798
 9474SOL    HW229322   0.076   3.748   0.959
 9475SOL     OW29323   3.792   2.990   0.313
 9475SOL    HW129324   3.836   2.909   0.351
 9475SOL    HW229325   3.729   3.029   0.381
 9476SOL     OW29326   4.061   3.892   4.271
 9476SOL    HW129327   4.140   3.932   4.223
 9476SOL    HW229328   4.046   3.799   4.238
 9477SOL     OW29329   0.866   3.025   0.435
 9477SOL    HW129330   0.912   3.047   0.349
 9477SOL    HW229331   0.934   3.006   0.506
 9478SOL     OW29332   5.420   3.386   1.475
 9478SOL    HW129333   5.482   3.431   1.411
 9478SOL    HW229334   5.332   3.432   1.474
 9479SOL     OW29335   4.383   6.443   0.376
 9479SOL    HW129336   4.433   6.505   0.437
 9479SOL    HW229337   4.302   6.489   0.341
 9480SOL     OW29338   5.565   5.117   0.390
 9480SOL    HW129339   5.495   5.120   0.461
 9480SOL    HW229340   5.521   5.115   0.300
 9481SOL     OW29341   5.035   3.358   2.477
 9481SOL    HW129342   5.042   3.375   2.378
 9481SOL    HW229343   5.123   3.326   2.511
 9482SOL     OW29344   0.468   1.272   2.710
 9482SOL    HW129345   0.526   1.237   2.636
 9482SOL    HW229346   0.505   1.360   2.742
 9483SOL     OW29347   1.589   0.305   0.608
 9483SOL    HW129348   1.585   0.224   0.550
 9483SOL    HW229349   1.497   0.330   0.637
 9484SOL     OW29350   3.989   6.674   4.467
 9484SOL    HW129351   4.036   6.611   4.529
 9484SOL    HW229352   4.039   6.760   4.461
 9485SOL     OW29353   0.525   0.903   0.901
 9485SOL    HW129354   0.533   0.872   0.996
 9485SOL    HW229355   0.614   0.937   0.870
 9486SOL     OW29356   4.043   6.172   1.082
 9486SOL    HW129357   4.057   6.239   1.009
 9486SOL    HW229358   4.106   6.095   1.069
 9487SOL     OW29359   3.288   3.831   3.955
 9487SOL    HW129360   3.307   3.759   4.022
 9487SOL    HW229361   3.298   3.921   3.999
 9488SOL     OW29362   2.801   0.082   1.351
 9488SOL    HW129363   2.880   0.030   1.317
 9488SOL    HW229364   2.728   0.080   1.283
 9489SOL     OW29365   4.906   4.251   1.620
 9489SOL    HW129366   4.909   4.298   1.532
 9489SOL    HW229367   4.812   4.248   1.654
 9490SOL     OW29368   6.227   5.595   3.045
 9490SOL    HW129369   6.187   5.617   3.133
 9490SOL    HW229370   6.234   5.496   3.034
 9491SOL     OW29371   5.158   4.312   4.249
 9491SOL    HW129372   5.089   4.382   4.227
 9491SOL    HW229373   5.112   4.225   4.266
 9492SOL     OW29374   4.069   3.251   4.636
 9492SOL    HW129375   3.999   3.246   4.565
 9492SOL    HW229376   4.143   3.187   4.616
 9493SOL     OW29377   2.387   5.725   4.064
 9493SOL    HW129378   2.463   5.771   4.110
 9493SOL    HW229379   2.325   5.793   4.026
 9494SOL     OW29380   5.460   2.976   3.049
 9494SOL    HW129381   5.476   2.960   2.951
 9494SOL    HW229382   5.440   2.889   3.094
 9495SOL     OW29383   6.875   2.082   3.448
 9495SOL    HW129384   6.959   2.131   3.428
 9495SOL    HW229385   6.873   1.996   3.397
 9496SOL     OW29386   6.201   3.400   1.703
 9496SOL    HW129387   6.208   3.477   1.767
 9496SOL    HW229388   6.176   3.433   1.613
 9497SOL     OW29389   5.834   6.729   5.334
 9497SOL    HW129390   5.776   6.794   5.383
 9497SOL    HW229391   5.810   6.729   5.237
 9498SOL     OW29392   5.576   5.717   4.665
 9498SOL    HW129393   5.625   5.747   4.747
 9498SOL    HW229394   5.594   5.620   4.649
 9499SOL     OW29395   1.945   5.029   6.193
 9499SOL    HW129396   1.941   5.001   6.097
 9499SOL    HW229397   2.041   5.046   6.219
 9500SOL     OW29398   4.464   0.117   0.678
 9500SOL    HW129399   4.429   0.134   0.586
 9500SOL    HW229400   4.533   0.186   0.700
 9501SOL     OW29401   2.839   1.056   5.112
 9501SOL    HW129402   2.748   1.041   5.073
 9501SOL    HW229403   2.840   1.142   5.163
 9502SOL     OW29404   5.840   2.642   5.010
 9502SOL    HW129405   5.885   2.681   5.091
 9502SOL    HW229406   5.760   2.590   5.039
 9503SOL     OW29407   0.365   1.396   0.510
 9503SOL    HW129408   0.426   1.457   0.460
 9503SOL    HW229409   0.347   1.314   0.456
 9504SOL     OW29410   6.793   3.694   0.449
 9504SOL    HW129411   6.851   3.709   0.529
 9504SOL    HW229412   6.720   3.630   0.473
 9505SOL     OW29413   5.273   5.024   4.995
 9505SOL    HW129414   5.319   5.076   4.923
 9505SOL    HW229415   5.175   5.017   4.974
 9506SOL     OW29416   1.809   2.498   6.965
 9506SOL    HW129417   1.877   2.440   7.011
 9506SOL    HW229418   1.767   2.559   0.009
 9507SOL     OW29419   0.838   1.272   2.088
 9507SOL    HW129420   0.914   1.332   2.113
 9507SOL    HW229421   0.841   1.253   1.990
 9508SOL     OW29422   6.372   2.099   1.972
 9508SOL    HW129423   6.330   2.011   1.950
 9508SOL    HW229424   6.408   2.141   1.889
 9509SOL     OW29425   0.324   0.930   4.110
 9509SOL    HW129426   0.412   0.904   4.151
 9509SOL    HW229427   0.297   0.862   4.042
 9510SOL     OW29428   1.616   3.939   3.687
 9510SOL    HW129429   1.524   3.916   3.657
 9510SOL    HW229430   1.611   4.007   3.761
 9511SOL     OW29431   1.754   0.140   1.353
 9511SOL    HW129432   1.724   0.053   1.313
 9511SOL    HW229433   1.682   0.174   1.414
 9512SOL     OW29434   6.184   1.846   1.317
 9512SOL    HW129435   6.102   1.830   1.371
 9512SOL    HW229436   6.180   1.939   1.278
 9513SOL     OW29437   2.164   4.029   6.039
 9513SOL    HW129438   2.133   4.023   6.134
 9513SOL    HW229439   2.084   4.026   5.978
 9514SOL     OW29440   2.382   5.636   5.866
 9514SOL    HW129441   2.476   5.609   5.846
 9514SOL    HW229442   2.330   5.554   5.891
 9515SOL     OW29443   1.707   5.637   1.035
 9515SOL    HW129444   1.671   5.557   1.083
 9515SOL    HW229445   1.806   5.643   1.051
 9516SOL     OW29446   6.102   5.144   6.767
 9516SOL    HW129447   6.183   5.109   6.720
 9516SOL    HW229448   6.053   5.207   6.707
 9517SOL     OW29449   1.376   3.853   1.529
 9517SOL    HW129450   1.431   3.781   1.572
 9517SOL    HW229451   1.428   3.896   1.456
 9518SOL     OW29452   1.913   1.804   0.574
 9518SOL    HW129453   1.891   1.708   0.557
 9518SOL    HW229454   1.872   1.862   0.503
 9519SOL     OW29455   3.617   3.182   4.622
 9519SOL    HW129456   3.558   3.162   4.700
 9519SOL    HW229457   3.678   3.104   4.606
 9520SOL     OW29458   2.359   1.919   3.012
 9520SOL    HW129459   2.444   1.972   3.008
 9520SOL    HW229460   2.378   1.826   2.979
 9521SOL     OW29461   5.345   6.367   2.464
 9521SOL    HW129462   5.437   6.406   2.468
 9521SOL    HW229463   5.335   6.314   2.380
 9522SOL     OW29464   2.635   5.524   1.271
 9522SOL    HW129465   2.542   5.517   1.234
 9522SOL    HW229466   2.699   5.545   1.196
 9523SOL     OW29467   3.178   5.336   4.751
 9523SOL    HW129468   3.097   5.290   4.788
 9523SOL    HW229469   3.199   5.299   4.661
 9524SOL     OW29470   3.420   2.822   1.489
 9524SOL    HW129471   3.403   2.844   1.393
 9524SOL    HW229472   3.349   2.863   1.546
 9525SOL     OW29473   2.324   2.988   5.833
 9525SOL    HW129474   2.400   2.931   5.862
 9525SOL    HW229475   2.283   2.949   5.750
 9526SOL     OW29476   5.200   5.785   1.923
 9526SOL    HW129477   5.122   5.742   1.877
 9526SOL    HW229478   5.227   5.867   1.872
 9527SOL     OW29479   0.919   0.429   2.862
 9527SOL    HW129480   1.010   0.444   2.901
 9527SOL    HW229481   0.928   0.413   2.764
 9528SOL     OW29482   6.747   0.694   0.264
 9528SOL    HW129483   6.770   0.789   0.283
 9528SOL    HW229484   6.692   0.657   0.339
 9529SOL     OW29485   6.537   3.109   5.306
 9529SOL    HW129486   6.488   3.027   5.276
 9529SOL    HW229487   6.493   3.147   5.387
 9530SOL     OW29488   1.885   3.475   2.588
 9530SOL    HW129489   1.873   3.486   2.686
 9530SOL    HW229490   1.809   3.518   2.539
 9531SOL     OW29491   4.515   6.002   2.917
 9531SOL    HW129492   4.461   5.933   2.869
 9531SOL    HW229493   4.537   5.969   3.009
 9532SOL     OW29494   6.770   6.382   2.241
 9532SOL    HW129495   6.677   6.404   2.272
 9532SOL    HW229496   6.766   6.347   2.147
 9533SOL     OW29497   6.565   0.433   4.951
 9533SOL    HW129498   6.583   0.516   4.898
 9533SOL    HW229499   6.514   0.369   4.895
 9534SOL     OW29500   6.287   3.390   5.287
 9534SOL    HW129501   6.190   3.390   5.262
 9534SOL    HW229502   6.342   3.425   5.211
 9535SOL     OW29503   2.489   1.338   5.506
 9535SOL    HW129504   2.588   1.353   5.516
 9535SOL    HW229505   2.469   1.307   5.413
 9536SOL     OW29506   3.058   4.685   5.305
 9536SOL    HW129507   3.058   4.641   5.395
 9536SOL    HW229508   2.982   4.649   5.250
 9537SOL     OW29509   2.731   6.837   2.879
 9537SOL    HW129510   2.756   6.740   2.889
 9537SOL    HW229511   2.742   6.883   2.967
 9538SOL     OW29512   6.712   2.241   4.068
 9538SOL    HW129513   6.647   2.281   4.003
 9538SOL    HW229514   6.691   2.273   4.160
 9539SOL     OW29515   1.416   3.277   5.188
 9539SOL    HW129516   1.386   3.292   5.094
 9539SOL    HW229517   1.501   3.328   5.204
 9540SOL     OW29518   5.263   3.693   4.252
 9540SOL    HW129519   5.215   3.609   4.229
 9540SOL    HW229520   5.259   3.708   4.351
 9541SOL     OW29521   2.917   1.790   5.929
 9541SOL    HW129522   2.898   1.725   6.003
 9541SOL    HW229523   2.861   1.766   5.849
 9542SOL     OW29524   4.950   3.713   4.465
 9542SOL    HW129525   5.024   3.736   4.528
 9542SOL    HW229526   4.927   3.616   4.474
 9543SOL     OW29527   2.780   0.962   4.486
 9543SOL    HW129528   2.780   0.968   4.386
 9543SOL    HW229529   2.849   0.896   4.515
 9544SOL     OW29530   0.274   1.599   3.107
 9544SOL    HW129531   0.348   1.645   3.156
 9544SOL    HW229532   0.188   1.649   3.123
 9545SOL     OW29533   6.504   4.992   3.525
 9545SOL    HW129534   6.568   4.987   3.602
 9545SOL    HW229535   6.422   5.042   3.554
 9546SOL     OW29536   2.694   2.486   5.919
 9546SOL    HW129537   2.661   2.541   5.996
 9546SOL    HW229538   2.789   2.512   5.898
 9547SOL     OW29539   2.242   6.283   4.031
 9547SOL    HW129540   2.206   6.357   3.976
 9547SOL    HW229541   2.235   6.307   4.128
 9548SOL     OW29542   6.010   6.418   4.976
 9548SOL    HW129543   5.917   6.452   4.988
 9548SOL    HW229544   6.073   6.495   4.971
 9549SOL     OW29545   2.873   3.863   1.291
 9549SOL    HW129546   2.955   3.811   1.265
 9549SOL    HW229547   2.793   3.824   1.245
 9550SOL     OW29548   0.037   1.261   0.105
 9550SOL    HW129549   6.964   1.289   0.101
 9550SOL    HW229550   0.046   1.178   0.160
 9551SOL     OW29551   6.501   0.932   3.973
 9551SOL    HW129552   6.588   0.978   3.991
 9551SOL    HW229553   6.513   0.870   3.895
 9552SOL     OW29554   1.055   5.910   2.279
 9552SOL    HW129555   1.020   5.976   2.345
 9552SOL    HW229556   1.019   5.932   2.188
 9553SOL     OW29557   6.430   3.573   6.852
 9553SOL    HW129558   6.512   3.537   6.897
 9553SOL    HW229559   6.357   3.505   6.857
 9554SOL     OW29560   2.692   0.310   1.496
 9554SOL    HW129561   2.752   0.238   1.460
 9554SOL    HW229562   2.612   0.269   1.539
 9555SOL     OW29563   0.941   1.213   1.417
 9555SOL    HW129564   0.956   1.120   1.449
 9555SOL    HW229565   0.966   1.219   1.320
 9556SOL     OW29566   3.040   2.658   0.907
 9556SOL    HW129567   3.035   2.561   0.882
 9556SOL    HW229568   2.997   2.712   0.835
 9557SOL     OW29569   6.520   0.707   3.071
 9557SOL    HW129570   6.425   0.680   3.053
 9557SOL    HW229571   6.579   0.673   2.997
 9558SOL     OW29572   5.844   5.530   4.558
 9558SOL    HW129573   5.790   5.611   4.534
 9558SOL    HW229574   5.931   5.559   4.598
 9559SOL     OW29575   0.188   3.625   1.391
 9559SOL    HW129576   0.095   3.655   1.411
 9559SOL    HW229577   0.187   3.539   1.342
 9560SOL     OW29578   1.349   1.908   2.797
 9560SOL    HW129579   1.400   1.967   2.735
 9560SOL    HW229580   1.255   1.900   2.766
 9561SOL     OW29581   1.867   6.524   0.497
 9561SOL    HW129582   1.770   6.546   0.484
 9561SOL    HW229583   1.899   6.466   0.422
 9562SOL     OW29584   3.484   6.666   4.845
 9562SOL    HW129585   3.465   6.725   4.767
 9562SOL    HW229586   3.431   6.697   4.925
 9563SOL     OW29587   5.792   6.742   0.289
 9563SOL    HW129588   5.780   6.841   0.280
 9563SOL    HW229589   5.730   6.695   0.226
 9564SOL     OW29590   2.921   6.979   6.639
 9564SOL    HW129591   2.890   0.014   6.715
 9564SOL    HW229592   2.953   0.014   6.564
 9565SOL     OW29593   4.305   6.261   5.252
 9565SOL    HW129594   4.364   6.256   5.171
 9565SOL    HW229595   4.213   6.287   5.224
 9566SOL     OW29596   3.336   4.520   0.403
 9566SOL    HW129597   3.383   4.547   0.319
 9566SOL    HW229598   3.404   4.498   0.473
 9567SOL     OW29599   6.709   5.100   6.489
 9567SOL    HW129600   6.631   5.095   6.551
 9567SOL    HW229601   6.687   5.052   6.404
 9568SOL     OW29602   5.134   2.727   6.725
 9568SOL    HW129603   5.079   2.723   6.808
 9568SOL    HW229604   5.128   2.640   6.676
 9569SOL     OW29605   0.217   0.497   2.249
 9569SOL    HW129606   0.218   0.560   2.171
 9569SOL    HW229607   0.271   0.536   2.324
 9570SOL     OW29608   0.804   2.242   1.684
 9570SOL    HW129609   0.802   2.319   1.747
 9570SOL    HW229610   0.802   2.157   1.736
 9571SOL     OW29611   2.772   3.621   6.908
 9571SOL    HW129612   2.774   3.687   6.833
 9571SOL    HW229613   2.677   3.605   6.936
 9572SOL     OW29614   1.741   5.292   1.039
 9572SOL    HW129615   1.716   5.315   0.945
 9572SOL    HW229616   1.662   5.303   1.099
 9573SOL     OW29617   0.481   1.764   6.539
 9573SOL    HW129618   0.575   1.751   6.573
 9573SOL    HW229619   0.475   1.730   6.446
 9574SOL     OW29620   4.022   3.128   4.353
 9574SOL    HW129621   3.948   3.088   4.408
 9574SOL    HW229622   4.023   3.086   4.263
 9575SOL     OW29623   5.451   0.769   0.775
 9575SOL    HW129624   5.404   0.835   0.716
 9575SOL    HW229625   5.386   0.699   0.804
 9576SOL     OW29626   3.027   0.986   2.880
 9576SOL    HW129627   3.078   0.975   2.794
 9576SOL    HW229628   2.940   0.938   2.873
 9577SOL     OW29629   1.192   0.934   3.471
 9577SOL    HW129630   1.199   0.907   3.567
 9577SOL    HW229631   1.101   0.969   3.453
 9578SOL     OW29632   0.175   3.872   3.461
 9578SOL    HW129633   0.252   3.934   3.470
 9578SOL    HW229634   0.131   3.885   3.372
 9579SOL     OW29635   1.261   5.489   3.194
 9579SOL    HW129636   1.217   5.564   3.145
 9579SOL    HW229637   1.320   5.526   3.265
 9580SOL     OW29638   5.056   2.846   0.895
 9580SOL    HW129639   4.996   2.915   0.856
 9580SOL    HW229640   5.133   2.829   0.833
 9581SOL     OW29641   1.452   5.355   6.738
 9581SOL    HW129642   1.445   5.450   6.766
 9581SOL    HW229643   1.381   5.333   6.671
 9582SOL     OW29644   4.270   4.773   4.852
 9582SOL    HW129645   4.294   4.681   4.883
 9582SOL    HW229646   4.337   4.839   4.887
 9583SOL     OW29647   2.874   3.526   1.298
 9583SOL    HW129648   2.931   3.445   1.307
 9583SOL    HW229649   2.788   3.512   1.347
 9584SOL     OW29650   6.181   5.910   6.916
 9584SOL    HW129651   6.216   5.864   6.835
 9584SOL    HW229652   6.081   5.911   6.913
 9585SOL     OW29653   6.753   1.158   3.092
 9585SOL    HW129654   6.759   1.147   2.993
 9585SOL    HW229655   6.734   1.254   3.114
 9586SOL     OW29656   6.297   3.966   1.708
 9586SOL    HW129657   6.339   4.054   1.728
 9586SOL    HW229658   6.234   3.941   1.782
 9587SOL     OW29659   6.252   0.100   2.463
 9587SOL    HW129660   6.176   0.134   2.520
 9587SOL    HW229661   6.337   0.105   2.515
 9588SOL     OW29662   0.612   1.724   2.065
 9588SOL    HW129663   0.588   1.696   2.158
 9588SOL    HW229664   0.571   1.813   2.046
 9589SOL     OW29665   3.050   5.900   6.260
 9589SOL    HW129666   3.006   5.988   6.239
 9589SOL    HW229667   3.134   5.916   6.312
 9590SOL     OW29668   0.135   4.914   2.582
 9590SOL    HW129669   0.160   4.904   2.486
 9590SOL    HW229670   0.203   4.869   2.639
 9591SOL     OW29671   3.047   5.581   0.015
 9591SOL    HW129672   3.028   5.490   7.000
 9591SOL    HW229673   3.061   5.645   6.962
 9592SOL     OW29674   3.720   5.035   1.922
 9592SOL    HW129675   3.667   4.953   1.944
 9592SOL    HW229676   3.705   5.104   1.993
 9593SOL     OW29677   5.275   1.128   4.781
 9593SOL    HW129678   5.287   1.115   4.682
 9593SOL    HW229679   5.335   1.201   4.812
 9594SOL     OW29680   6.955   5.482   3.754
 9594SOL    HW129681   6.902   5.398   3.768
 9594SOL    HW229682   0.028   5.459   3.740
 9595SOL     OW29683   1.960   4.337   4.249
 9595SOL    HW129684   1.979   4.435   4.256
 9595SOL    HW229685   2.014   4.298   4.175
 9596SOL     OW29686   0.320   5.244   0.265
 9596SOL    HW129687   0.287   5.271   0.175
 9596SOL    HW229688   0.407   5.290   0.284
 9597SOL     OW29689   6.936   4.175   1.111
 9597SOL    HW129690   6.937   4.244   1.183
 9597SOL    HW229691   0.005   4.167   1.071
 9598SOL     OW29692   0.449   3.985   4.982
 9598SOL    HW129693   0.387   3.964   4.907
 9598SOL    HW229694   0.519   3.914   4.989
 9599SOL     OW29695   2.882   0.595   4.661
 9599SOL    HW129696   2.794   0.574   4.705
 9599SOL    HW229697   2.865   0.644   4.575
 9600SOL     OW29698   2.383   6.918   5.816
 9600SOL    HW129699   2.467   6.888   5.770
 9600SOL    HW229700   2.374   6.871   5.903
 9601SOL     OW29701   6.352   4.170   5.949
 9601SOL    HW129702   6.254   4.148   5.943
 9601SOL    HW229703   6.375   4.191   6.044
 9602SOL     OW29704   6.976   5.074   6.535
 9602SOL    HW129705   6.877   5.088   6.534
 9602SOL    HW229706   6.999   5.006   6.605
 9603SOL     OW29707   2.106   6.960   4.372
 9603SOL    HW129708   2.039   6.900   4.328
 9603SOL    HW229709   2.174   6.904   4.420
 9604SOL     OW29710   5.000   0.451   0.654
 9604SOL    HW129711   4.927   0.501   0.701
 9604SOL    HW229712   4.993   0.354   0.674
 9605SOL     OW29713   0.218   5.067   5.942
 9605SOL    HW129714   0.127   5.064   5.902
 9605SOL    HW229715   0.280   5.117   5.882
 9606SOL     OW29716   1.180   6.693   4.600
 9606SOL    HW129717   1.215   6.605   4.568
 9606SOL    HW229718   1.256   6.756   4.616
 9607SOL     OW29719   1.212   2.057   1.948
 9607SOL    HW129720   1.226   1.959   1.939
 9607SOL    HW229721   1.191   2.096   1.859
 9608SOL     OW29722   0.272   6.507   2.374
 9608SOL    HW129723   0.185   6.539   2.338
 9608SOL    HW229724   0.265   6.409   2.393
 9609SOL     OW29725   1.380   3.684   5.185
 9609SOL    HW129726   1.445   3.609   5.178
 9609SOL    HW229727   1.422   3.761   5.232
 9610SOL     OW29728   1.760   3.482   5.498
 9610SOL    HW129729   1.685   3.453   5.558
 9610SOL    HW229730   1.799   3.402   5.453
 9611SOL     OW29731   0.326   0.030   1.076
 9611SOL    HW129732   0.373   0.117   1.062
 9611SOL    HW229733   0.249   0.023   1.013
 9612SOL     OW29734   6.107   3.013   0.772
 9612SOL    HW129735   6.196   2.968   0.768
 9612SOL    HW229736   6.053   2.974   0.846
 9613SOL     OW29737   4.971   6.034   4.100
 9613SOL    HW129738   5.050   6.050   4.158
 9613SOL    HW229739   4.975   5.941   4.063
 9614SOL     OW29740   3.931   3.920   1.381
 9614SOL    HW129741   3.936   3.940   1.283
 9614SOL    HW229742   3.851   3.965   1.420
 9615SOL     OW29743   1.762   6.329   2.494
 9615SOL    HW129744   1.720   6.282   2.417
 9615SOL    HW229745   1.763   6.268   2.574
 9616SOL     OW29746   4.326   3.483   1.082
 9616SOL    HW129747   4.375   3.491   0.995
 9616SOL    HW229748   4.344   3.393   1.122
 9617SOL     OW29749   1.256   3.919   4.381
 9617SOL    HW129750   1.224   4.005   4.420
 9617SOL    HW229751   1.187   3.848   4.396
 9618SOL     OW29752   3.131   0.335   0.068
 9618SOL    HW129753   3.157   0.252   0.118
 9618SOL    HW229754   3.092   0.310   7.002
 9619SOL     OW29755   1.481   0.129   0.863
 9619SOL    HW129756   1.538   0.205   0.893
 9619SOL    HW229757   1.538   0.051   0.839
 9620SOL     OW29758   4.676   2.191   0.069
 9620SOL    HW129759   4.591   2.143   0.088
 9620SOL    HW229760   4.729   2.139   0.001
 9621SOL     OW29761   1.451   0.946   1.970
 9621SOL    HW129762   1.520   1.002   2.016
 9621SOL    HW229763   1.392   1.006   1.914
 9622SOL     OW29764   6.028   1.350   6.766
 9622SOL    HW129765   6.077   1.266   6.792
 9622SOL    HW229766   6.023   1.355   6.666
 9623SOL     OW29767   4.175   5.046   6.476
 9623SOL    HW129768   4.231   4.966   6.497
 9623SOL    HW229769   4.226   5.108   6.417
 9624SOL     OW29770   5.360   4.600   5.397
 9624SOL    HW129771   5.350   4.611   5.298
 9624SOL    HW229772   5.406   4.512   5.416
 9625SOL     OW29773   4.715   4.346   6.868
 9625SOL    HW129774   4.802   4.349   6.917
 9625SOL    HW229775   4.648   4.294   6.920
 9626SOL     OW29776   2.272   5.820   4.520
 9626SOL    HW129777   2.288   5.850   4.615
 9626SOL    HW229778   2.333   5.870   4.459
 9627SOL     OW29779   0.667   4.428   4.932
 9627SOL    HW129780   0.758   4.396   4.958
 9627SOL    HW229781   0.668   4.527   4.922
 9628SOL     OW29782   5.755   3.924   0.629
 9628SOL    HW129783   5.691   4.000   0.640
 9628SOL    HW229784   5.728   3.869   0.550
 9629SOL     OW29785   6.645   6.262   3.215
 9629SOL    HW129786   6.733   6.223   3.242
 9629SOL    HW229787   6.646   6.283   3.118
 9630SOL     OW29788   6.306   5.995   5.424
 9630SOL    HW129789   6.221   5.991   5.372
 9630SOL    HW229790   6.297   6.061   5.499
 9631SOL     OW29791   4.457   1.610   0.921
 9631SOL    HW129792   4.408   1.696   0.907
 9631SOL    HW229793   4.492   1.607   1.014
 9632SOL     OW29794   2.290   5.293   1.272
 9632SOL    HW129795   2.322   5.369   1.215
 9632SOL    HW229796   2.202   5.260   1.237
 9633SOL     OW29797   4.049   3.705   0.525
 9633SOL    HW129798   4.049   3.630   0.459
 9633SOL    HW229799   3.956   3.724   0.555
 9634SOL     OW29800   6.064   5.316   3.241
 9634SOL    HW129801   6.102   5.408   3.242
 9634SOL    HW229802   6.052   5.284   3.335
 9635SOL     OW29803   0.822   4.585   5.373
 9635SOL    HW129804   0.784   4.632   5.453
 9635SOL    HW229805   0.766   4.505   5.353
 9636SOL     OW29806   3.700   1.532   6.137
 9636SOL    HW129807   3.786   1.487   6.113
 9636SOL    HW229808   3.632   1.513   6.065
 9637SOL     OW29809   3.497   3.369   1.359
 9637SOL    HW129810   3.486   3.350   1.261
 9637SOL    HW229811   3.409   3.401   1.396
 9638SOL     OW29812   0.221   3.485   5.933
 9638SOL    HW129813   0.210   3.388   5.911
 9638SOL    HW229814   0.291   3.495   6.004
 9639SOL     OW29815   4.140   2.298   1.903
 9639SOL    HW129816   4.127   2.389   1.864
 9639SOL    HW229817   4.060   2.241   1.883
 9640SOL     OW29818   3.347   0.756   2.317
 9640SOL    HW129819   3.408   0.727   2.244
 9640SOL    HW229820   3.366   0.852   2.340
 9641SOL     OW29821   5.628   6.494   2.198
 9641SOL    HW129822   5.650   6.402   2.165
 9641SOL    HW229823   5.636   6.497   2.297
 9642SOL     OW29824   1.097   6.733   3.978
 9642SOL    HW129825   1.034   6.656   3.986
 9642SOL    HW229826   1.179   6.714   4.032
 9643SOL     OW29827   5.136   3.764   3.832
 9643SOL    HW129828   5.050   3.724   3.863
 9643SOL    HW229829   5.205   3.692   3.820
 9644SOL     OW29830   2.014   5.867   5.357
 9644SOL    HW129831   1.996   5.897   5.263
 9644SOL    HW229832   1.983   5.773   5.369
 9645SOL     OW29833   2.421   4.491   5.030
 9645SOL    HW129834   2.376   4.417   5.081
 9645SOL    HW229835   2.519   4.490   5.052
 9646SOL     OW29836   3.011   5.611   2.619
 9646SOL    HW129837   2.926   5.633   2.666
 9646SOL    HW229838   2.990   5.563   2.534
 9647SOL     OW29839   0.160   6.922   3.229
 9647SOL    HW129840   0.177   6.929   3.130
 9647SOL    HW229841   0.078   6.866   3.244
 9648SOL     OW29842   4.726   2.979   1.157
 9648SOL    HW129843   4.665   3.012   1.229
 9648SOL    HW229844   4.821   3.001   1.181
 9649SOL     OW29845   2.459   3.944   6.702
 9649SOL    HW129846   2.476   4.033   6.659
 9649SOL    HW229847   2.494   3.871   6.643
 9650SOL     OW29848   5.304   3.942   3.151
 9650SOL    HW129849   5.365   4.020   3.134
 9650SOL    HW229850   5.266   3.909   3.065
 9651SOL     OW29851   4.141   0.981   0.802
 9651SOL    HW129852   4.210   0.997   0.731
 9651SOL    HW229853   4.183   0.933   0.879
 9652SOL     OW29854   0.711   5.240   1.025
 9652SOL    HW129855   0.636   5.246   1.091
 9652SOL    HW229856   0.798   5.259   1.071
 9653SOL     OW29857   4.572   4.507   5.634
 9653SOL    HW129858   4.572   4.429   5.572
 9653SOL    HW229859   4.628   4.486   5.714
 9654SOL     OW29860   3.274   3.393   3.167
 9654SOL    HW129861   3.186   3.433   3.194
 9654SOL    HW229862   3.262   3.296   3.147
 9655SOL     OW29863   6.868   1.541   0.485
 9655SOL    HW129864   6.838   1.548   0.390
 9655SOL    HW229865   6.961   1.504   0.488
 9656SOL     OW29866   4.701   2.384   0.684
 9656SOL    HW129867   4.645   2.465   0.668
 9656SOL    HW229868   4.783   2.388   0.627
 9657SOL     OW29869   5.925   4.353   2.776
 9657SOL    HW129870   5.936   4.310   2.866
 9657SOL    HW229871   5.839   4.405   2.775
 9658SOL     OW29872   5.952   2.086   2.730
 9658SOL    HW129873   6.051   2.092   2.748
 9658SOL    HW229874   5.923   1.991   2.739
 9659SOL     OW29875   0.972   2.421   0.443
 9659SOL    HW129876   1.017   2.507   0.417
 9659SOL    HW229877   0.945   2.371   0.361
 9660SOL     OW29878   0.758   6.859   2.241
 9660SOL    HW129879   0.693   6.932   2.261
 9660SOL    HW229880   0.709   6.772   2.232
 9661SOL     OW29881   4.219   6.152   1.349
 9661SOL    HW129882   4.218   6.054   1.364
 9661SOL    HW229883   4.165   6.174   1.268
 9662SOL     OW29884   5.093   3.779   0.562
 9662SOL    HW129885   5.159   3.717   0.520
 9662SOL    HW229886   5.010   3.728   0.585
 9663SOL     OW29887   0.448   5.904   2.570
 9663SOL    HW129888   0.546   5.911   2.549
 9663SOL    HW229889   0.435   5.845   2.649
 9664SOL     OW29890   5.320   4.403   4.450
 9664SOL    HW129891   5.338   4.502   4.446
 9664SOL    HW229892   5.264   4.376   4.373
 9665SOL     OW29893   5.900   6.347   5.646
 9665SOL    HW129894   5.990   6.345   5.689
 9665SOL    HW229895   5.881   6.259   5.603
 9666SOL     OW29896   6.354   3.607   2.194
 9666SOL    HW129897   6.311   3.524   2.230
 9666SOL    HW229898   6.326   3.686   2.249
 9667SOL     OW29899   3.845   3.300   0.354
 9667SOL    HW129900   3.875   3.259   0.268
 9667SOL    HW229901   3.767   3.249   0.390
 9668SOL     OW29902   1.126   0.874   6.604
 9668SOL    HW129903   1.057   0.914   6.544
 9668SOL    HW229904   1.142   0.779   6.579
 9669SOL     OW29905   2.028   6.853   1.726
 9669SOL    HW129906   2.014   6.930   1.787
 9669SOL    HW229907   1.939   6.815   1.699
 9670SOL     OW29908   0.252   5.461   5.301
 9670SOL    HW129909   0.320   5.388   5.311
 9670SOL    HW229910   0.297   5.550   5.315
 9671SOL     OW29911   6.577   4.481   0.403
 9671SOL    HW129912   6.613   4.512   0.315
 9671SOL    HW229913   6.478   4.496   0.405
 9672SOL     OW29914   1.495   4.882   3.191
 9672SOL    HW129915   1.511   4.836   3.279
 9672SOL    HW229916   1.425   4.952   3.202
 9673SOL     OW29917   3.228   3.722   1.398
 9673SOL    HW129918   3.153   3.735   1.333
 9673SOL    HW229919   3.310   3.768   1.364
 9674SOL     OW29920   3.929   6.678   3.245
 9674SOL    HW129921   3.899   6.750   3.308
 9674SOL    HW229922   3.887   6.693   3.156
 9675SOL     OW29923   4.814   2.402   6.915
 9675SOL    HW129924   4.823   2.305   6.893
 9675SOL    HW229925   4.761   2.413   6.999
 9676SOL     OW29926   1.459   3.318   6.160
 9676SOL    HW129927   1.498   3.303   6.069
 9676SOL    HW229928   1.438   3.415   6.172
 9677SOL     OW29929   6.795   4.901   5.547
 9677SOL    HW129930   6.850   4.975   5.507
 9677SOL    HW229931   6.826   4.883   5.640
 9678SOL     OW29932   3.015   3.494   4.163
 9678SOL    HW129933   3.011   3.395   4.179
 9678SOL    HW229934   3.007   3.543   4.250
 9679SOL     OW29935   2.080   6.865   3.844
 9679SOL    HW129936   2.081   6.788   3.779
 9679SOL    HW229937   2.022   6.938   3.808
 9680SOL     OW29938   4.518   0.439   4.797
 9680SOL    HW129939   4.570   0.420   4.714
 9680SOL    HW229940   4.427   0.399   4.790
 9681SOL     OW29941   2.973   2.333   0.638
 9681SOL    HW129942   2.972   2.395   0.560
 9681SOL    HW229943   2.992   2.240   0.606
 9682SOL     OW29944   4.766   3.980   3.502
 9682SOL    HW129945   4.765   3.961   3.403
 9682SOL    HW229946   4.744   3.896   3.552
 9683SOL     OW29947   3.209   6.496   1.176
 9683SOL    HW129948   3.207   6.464   1.081
 9683SOL    HW229949   3.147   6.574   1.186
 9684SOL     OW29950   0.678   4.137   5.081
 9684SOL    HW129951   0.731   4.133   4.997
 9684SOL    HW229952   0.581   4.129   5.059
 9685SOL     OW29953   4.651   4.334   1.234
 9685SOL    HW129954   4.617   4.302   1.322
 9685SOL    HW229955   4.582   4.390   1.189
 9686SOL     OW29956   0.413   2.927   6.381
 9686SOL    HW129957   0.347   2.929   6.306
 9686SOL    HW229958   0.366   2.948   6.467
 9687SOL     OW29959   0.017   1.150   3.524
 9687SOL    HW129960   6.949   1.154   3.567
 9687SOL    HW229961   0.007   1.125   3.427
 9688SOL     OW29962   1.028   2.968   0.653
 9688SOL    HW129963   1.081   2.894   0.694
 9688SOL    HW229964   1.001   3.033   0.724
 9689SOL     OW29965   0.968   4.811   6.702
 9689SOL    HW129966   1.047   4.782   6.648
 9689SOL    HW229967   0.949   4.742   6.771
 9690SOL     OW29968   6.011   6.541   6.034
 9690SOL    HW129969   6.014   6.441   6.033
 9690SOL    HW229970   6.103   6.577   6.053
 9691SOL     OW29971   2.832   3.904   1.559
 9691SOL    HW129972   2.821   3.885   1.461
 9691SOL    HW229973   2.872   3.824   1.604
 9692SOL     OW29974   4.540   5.930   1.065
 9692SOL    HW129975   4.551   5.884   0.977
 9692SOL    HW229976   4.622   5.985   1.084
 9693SOL     OW29977   6.257   3.865   3.052
 9693SOL    HW129978   6.288   3.948   3.006
 9693SOL    HW229979   6.325   3.792   3.041
 9694SOL     OW29980   3.012   1.130   1.783
 9694SOL    HW129981   3.013   1.093   1.876
 9694SOL    HW229982   3.037   1.227   1.785
 9695SOL     OW29983   6.774   2.741   3.373
 9695SOL    HW129984   6.873   2.733   3.383
 9695SOL    HW229985   6.752   2.765   3.278
 9696SOL     OW29986   5.341   2.691   1.514
 9696SOL    HW129987   5.399   2.745   1.453
 9696SOL    HW229988   5.353   2.723   1.608
 9697SOL     OW29989   0.460   5.981   0.318
 9697SOL    HW129990   0.423   6.059   0.269
 9697SOL    HW229991   0.437   5.988   0.415
 9698SOL     OW29992   5.659   2.578   6.020
 9698SOL    HW129993   5.666   2.673   5.988
 9698SOL    HW229994   5.685   2.516   5.946
 9699SOL     OW29995   6.959   5.857   0.059
 9699SOL    HW129996   6.986   5.786   0.125
 9699SOL    HW229997   0.018   5.902   0.024
 9700SOL     OW29998   5.861   5.001   4.809
 9700SOL    HW129999   5.867   4.908   4.773
 9700SOL    HW230000   5.892   5.001   4.904
 9701SOL     OW30001   5.164   4.151   6.054
 9701SOL    HW130002   5.095   4.080   6.035
 9701SOL    HW230003   5.254   4.117   6.027
 9702SOL     OW30004   3.759   2.418   6.994
 9702SOL    HW130005   3.760   2.337   6.936
 9702SOL    HW230006   3.852   2.440   0.001
 9703SOL     OW30007   5.125   3.289   3.700
 9703SOL    HW130008   5.145   3.384   3.676
 9703SOL    HW230009   5.177   3.227   3.642
 9704SOL     OW30010   3.526   6.269   1.633
 9704SOL    HW130011   3.462   6.195   1.655
 9704SOL    HW230012   3.579   6.245   1.552
 9705SOL     OW30013   5.163   4.580   6.270
 9705SOL    HW130014   5.234   4.596   6.339
 9705SOL    HW230015   5.151   4.481   6.256
 9706SOL     OW30016   2.988   2.360   0.903
 9706SOL    HW130017   2.999   2.342   0.805
 9706SOL    HW230018   3.053   2.305   0.955
 9707SOL     OW30019   6.385   4.881   2.573
 9707SOL    HW130020   6.377   4.842   2.482
 9707SOL    HW230021   6.468   4.847   2.617
 9708SOL     OW30022   0.280   1.566   3.662
 9708SOL    HW130023   0.334   1.487   3.692
 9708SOL    HW230024   0.217   1.538   3.589
 9709SOL     OW30025   5.170   5.632   2.657
 9709SOL    HW130026   5.173   5.587   2.568
 9709SOL    HW230027   5.239   5.705   2.660
 9710SOL     OW30028   0.206   1.663   1.416
 9710SOL    HW130029   0.297   1.671   1.377
 9710SOL    HW230030   0.171   1.753   1.439
 9711SOL     OW30031   4.331   5.162   6.237
 9711SOL    HW130032   4.256   5.200   6.181
 9711SOL    HW230033   4.386   5.237   6.274
 9712SOL     OW30034   5.405   3.546   0.212
 9712SOL    HW130035   5.366   3.455   0.203
 9712SOL    HW230036   5.505   3.539   0.211
 9713SOL     OW30037   2.140   4.264   3.386
 9713SOL    HW130038   2.176   4.306   3.469
 9713SOL    HW230039   2.133   4.333   3.314
 9714SOL     OW30040   4.310   6.426   6.348
 9714SOL    HW130041   4.352   6.346   6.306
 9714SOL    HW230042   4.350   6.509   6.310
 9715SOL     OW30043   5.742   4.115   6.957
 9715SOL    HW130044   5.690   4.199   6.942
 9715SOL    HW230045   5.678   4.039   6.971
 9716SOL     OW30046   3.195   4.242   6.840
 9716SOL    HW130047   3.138   4.159   6.840
 9716SOL    HW230048   3.240   4.251   6.929
 9717SOL     OW30049   5.264   6.964   6.059
 9717SOL    HW130050   5.213   6.996   5.980
 9717SOL    HW230051   5.266   0.012   6.129
 9718SOL     OW30052   5.231   3.245   1.087
 9718SOL    HW130053   5.146   3.225   1.037
 9718SOL    HW230054   5.276   3.324   1.046
 9719SOL     OW30055   5.848   0.687   6.014
 9719SOL    HW130056   5.928   0.666   6.070
 9719SOL    HW230057   5.875   0.750   5.940
 9720SOL     OW30058   0.874   4.271   2.229
 9720SOL    HW130059   0.859   4.246   2.324
 9720SOL    HW230060   0.824   4.356   2.208
 9721SOL     OW30061   0.537   1.222   0.066
 9721SOL    HW130062   0.590   1.228   7.004
 9721SOL    HW230063   0.502   1.313   0.090
 9722SOL     OW30064   3.743   1.372   4.943
 9722SOL    HW130065   3.655   1.329   4.963
 9722SOL    HW230066   3.789   1.395   5.029
 9723SOL     OW30067   3.937   6.432   3.793
 9723SOL    HW130068   3.957   6.465   3.885
 9723SOL    HW230069   3.912   6.336   3.797
 9724SOL     OW30070   1.276   5.041   0.232
 9724SOL    HW130071   1.337   5.016   0.157
 9724SOL    HW230072   1.194   4.984   0.228
 9725SOL     OW30073   4.362   6.156   6.276
 9725SOL    HW130074   4.284   6.130   6.220
 9725SOL    HW230075   4.436   6.090   6.263
 9726SOL     OW30076   4.455   1.375   3.252
 9726SOL    HW130077   4.464   1.310   3.327
 9726SOL    HW230078   4.538   1.375   3.197
 9727SOL     OW30079   0.732   2.539   6.803
 9727SOL    HW130080   0.767   2.446   6.813
 9727SOL    HW230081   0.674   2.561   6.881
 9728SOL     OW30082   0.617   0.620   5.205
 9728SOL    HW130083   0.576   0.690   5.264
 9728SOL    HW230084   0.716   0.617   5.222
 9729SOL     OW30085   1.293   4.744   3.624
 9729SOL    HW130086   1.300   4.739   3.723
 9729SOL    HW230087   1.340   4.666   3.583
 9730SOL     OW30088   1.628   4.407   2.938
 9730SOL    HW130089   1.638   4.499   2.977
 9730SOL    HW230090   1.627   4.413   2.838
 9731SOL     OW30091   5.048   5.630   1.768
 9731SOL    HW130092   5.112   5.554   1.772
 9731SOL    HW230093   4.992   5.623   1.685
 9732SOL     OW30094   0.830   4.049   2.048
 9732SOL    HW130095   0.892   4.084   1.978
 9732SOL    HW230096   0.824   4.114   2.124
 9733SOL     OW30097   4.885   5.665   0.345
 9733SOL    HW130098   4.907   5.671   0.247
 9733SOL    HW230099   4.903   5.572   0.377
 9734SOL     OW30100   0.094   0.531   0.368
 9734SOL    HW130101   0.179   0.497   0.408
 9734SOL    HW230102   0.071   0.477   0.287
 9735SOL     OW30103   1.847   3.146   3.419
 9735SOL    HW130104   1.909   3.147   3.341
 9735SOL    HW230105   1.893   3.185   3.499
 9736SOL     OW30106   5.554   1.362   5.517
 9736SOL    HW130107   5.626   1.419   5.555
 9736SOL    HW230108   5.484   1.345   5.588
 9737SOL     OW30109   5.304   2.442   3.127
 9737SOL    HW130110   5.292   2.345   3.147
 9737SOL    HW230111   5.217   2.482   3.099
 9738SOL     OW30112   2.493   6.938   0.066
 9738SOL    HW130113   2.452   6.959   0.155
 9738SOL    HW230114   2.479   7.014   0.003
 9739SOL     OW30115   5.091   5.617   0.666
 9739SOL    HW130116   5.057   5.534   0.621
 9739SOL    HW230117   5.191   5.614   0.668
 9740SOL     OW30118   0.129   1.460   3.447
 9740SOL    HW130119   0.117   1.370   3.489
 9740SOL    HW230120   0.197   1.454   3.374
 9741SOL     OW30121   2.190   0.934   2.660
 9741SOL    HW130122   2.097   0.912   2.631
 9741SOL    HW230123   2.253   0.920   2.584
 9742SOL     OW30124   3.527   1.134   0.274
 9742SOL    HW130125   3.582   1.211   0.244
 9742SOL    HW230126   3.465   1.106   0.200
 9743SOL     OW30127   6.766   3.814   3.776
 9743SOL    HW130128   6.849   3.840   3.727
 9743SOL    HW230129   6.690   3.869   3.743
 9744SOL     OW30130   1.171   6.698   2.143
 9744SOL    HW130131   1.084   6.718   2.187
 9744SOL    HW230132   1.246   6.736   2.198
 9745SOL     OW30133   4.511   2.836   6.620
 9745SOL    HW130134   4.454   2.779   6.561
 9745SOL    HW230135   4.551   2.910   6.566
 9746SOL     OW30136   5.579   0.689   5.676
 9746SOL    HW130137   5.569   0.709   5.773
 9746SOL    HW230138   5.548   0.596   5.657
 9747SOL     OW30139   2.947   2.192   1.788
 9747SOL    HW130140   2.910   2.226   1.874
 9747SOL    HW230141   2.942   2.263   1.718
 9748SOL     OW30142   6.045   6.822   3.466
 9748SOL    HW130143   6.135   6.859   3.446
 9748SOL    HW230144   6.007   6.868   3.547
 9749SOL     OW30145   1.333   0.874   4.142
 9749SOL    HW130146   1.421   0.828   4.156
 9749SOL    HW230147   1.349   0.962   4.097
 9750SOL     OW30148   5.922   5.371   3.495
 9750SOL    HW130149   5.888   5.303   3.561
 9750SOL    HW230150   5.886   5.461   3.518
 9751SOL     OW30151   2.414   0.295   1.270
 9751SOL    HW130152   2.436   0.384   1.309
 9751SOL    HW230153   2.456   0.286   1.180
 9752SOL     OW30154   4.393   1.297   5.350
 9752SOL    HW130155   4.434   1.206   5.348
 9752SOL    HW230156   4.298   1.291   5.319
 9753SOL     OW30157   0.175   5.814   6.419
 9753SOL    HW130158   0.231   5.789   6.498
 9753SOL    HW230159   0.126   5.733   6.386
 9754SOL     OW30160   1.967   0.120   1.093
 9754SOL    HW130161   1.898   0.180   1.134
 9754SOL    HW230162   1.981   0.040   1.152
 9755SOL     OW30163   3.866   3.658   4.464
 9755SOL    HW130164   3.953   3.607   4.469
 9755SOL    HW230165   3.880   3.742   4.413
 9756SOL     OW30166   5.522   2.344   5.634
 9756SOL    HW130167   5.567   2.367   5.548
 9756SOL    HW230168   5.459   2.418   5.659
 9757SOL     OW30169   5.766   4.464   4.484
 9757SOL    HW130170   5.794   4.441   4.577
 9757SOL    HW230171   5.734   4.558   4.481
 9758SOL     OW30172   2.218   0.475   6.983
 9758SOL    HW130173   2.222   0.565   0.004
 9758SOL    HW230174   2.262   0.407   0.019
 9759SOL     OW30175   1.338   0.842   7.019
 9759SOL    HW130176   1.420   0.865   6.967
 9759SOL    HW230177   1.262   0.824   6.955
 9760SOL     OW30178   4.972   3.434   5.682
 9760SOL    HW130179   5.010   3.346   5.709
 9760SOL    HW230180   4.980   3.445   5.583
 9761SOL     OW30181   0.642   2.043   1.477
 9761SOL    HW130182   0.637   2.042   1.377
 9761SOL    HW230183   0.711   2.109   1.506
 9762SOL     OW30184   3.428   2.092   4.539
 9762SOL    HW130185   3.340   2.139   4.547
 9762SOL    HW230186   3.470   2.084   4.630
 9763SOL     OW30187   4.933   2.110   2.753
 9763SOL    HW130188   4.905   2.116   2.848
 9763SOL    HW230189   4.915   2.197   2.707
 9764SOL     OW30190   6.447   2.801   3.212
 9764SOL    HW130191   6.444   2.703   3.194
 9764SOL    HW230192   6.376   2.825   3.278
 9765SOL     OW30193   6.684   6.490   3.353
 9765SOL    HW130194   6.642   6.415   3.302
 9765SOL    HW230195   6.678   6.471   3.451
 9766SOL     OW30196   2.253   6.634   2.334
 9766SOL    HW130197   2.167   6.627   2.284
 9766SOL    HW230198   2.320   6.570   2.295
 9767SOL     OW30199   3.352   1.766   5.303
 9767SOL    HW130200   3.403   1.846   5.271
 9767SOL    HW230201   3.281   1.742   5.237
 9768SOL     OW30202   5.488   1.146   1.567
 9768SOL    HW130203   5.460   1.241   1.578
 9768SOL    HW230204   5.412   1.092   1.530
 9769SOL     OW30205   4.461   0.569   4.372
 9769SOL    HW130206   4.465   0.470   4.377
 9769SOL    HW230207   4.530   0.609   4.434
 9770SOL     OW30208   4.086   1.010   6.177
 9770SOL    HW130209   4.013   0.959   6.222
 9770SOL    HW230210   4.102   0.971   6.086
 9771SOL     OW30211   2.572   5.410   0.747
 9771SOL    HW130212   2.518   5.381   0.668
 9771SOL    HW230213   2.555   5.507   0.764
 9772SOL     OW30214   1.353   6.008   1.384
 9772SOL    HW130215   1.365   6.061   1.300
 9772SOL    HW230216   1.407   6.050   1.457
 9773SOL     OW30217   5.592   5.394   4.287
 9773SOL    HW130218   5.540   5.471   4.326
 9773SOL    HW230219   5.645   5.350   4.358
 9774SOL     OW30220   6.519   5.115   2.004
 9774SOL    HW130221   6.507   5.064   1.919
 9774SOL    HW230222   6.449   5.186   2.011
 9775SOL     OW30223   2.827   0.422   3.587
 9775SOL    HW130224   2.882   0.344   3.557
 9775SOL    HW230225   2.739   0.390   3.623
 9776SOL     OW30226   0.157   4.702   5.542
 9776SOL    HW130227   0.156   4.772   5.471
 9776SOL    HW230228   0.079   4.640   5.529
 9777SOL     OW30229   5.922   5.306   0.633
 9777SOL    HW130230   5.831   5.341   0.656
 9777SOL    HW230231   5.980   5.310   0.715
 9778SOL     OW30232   0.304   2.068   4.447
 9778SOL    HW130233   0.360   2.149   4.462
 9778SOL    HW230234   0.362   1.989   4.428
 9779SOL     OW30235   0.597   2.022   4.360
 9779SOL    HW130236   0.586   1.998   4.264
 9779SOL    HW230237   0.633   1.943   4.410
 9780SOL     OW30238   2.825   2.381   0.151
 9780SOL    HW130239   2.898   2.398   0.085
 9780SOL    HW230240   2.751   2.447   0.138
 9781SOL     OW30241   2.421   2.390   4.978
 9781SOL    HW130242   2.373   2.335   4.910
 9781SOL    HW230243   2.412   2.487   4.956
 9782SOL     OW30244   0.237   1.496   0.751
 9782SOL    HW130245   0.192   1.429   0.810
 9782SOL    HW230246   0.294   1.448   0.684
 9783SOL     OW30247   4.777   2.930   3.195
 9783SOL    HW130248   4.816   3.020   3.178
 9783SOL    HW230249   4.765   2.917   3.294
 9784SOL     OW30250   3.390   1.461   6.754
 9784SOL    HW130251   3.349   1.464   6.845
 9784SOL    HW230252   3.489   1.453   6.762
 9785SOL     OW30253   0.546   2.072   6.054
 9785SOL    HW130254   0.557   1.990   5.998
 9785SOL    HW230255   0.581   2.055   6.146
 9786SOL     OW30256   2.885   4.042   0.450
 9786SOL    HW130257   2.841   4.123   0.411
 9786SOL    HW230258   2.883   3.968   0.383
 9787SOL     OW30259   3.109   2.985   2.832
 9787SOL    HW130260   3.053   3.066   2.812
 9787SOL    HW230261   3.050   2.913   2.868
 9788SOL     OW30262   0.835   0.253   3.241
 9788SOL    HW130263   0.794   0.312   3.170
 9788SOL    HW230264   0.928   0.227   3.213
 9789SOL     OW30265   1.500   5.106   0.361
 9789SOL    HW130266   1.414   5.078   0.319
 9789SOL    HW230267   1.571   5.112   0.291
 9790SOL     OW30268   6.555   5.077   6.736
 9790SOL    HW130269   6.583   5.011   6.806
 9790SOL    HW230270   6.569   5.170   6.770
 9791SOL     OW30271   0.743   0.283   7.022
 9791SOL    HW130272   0.667   0.238   6.975
 9791SOL    HW230273   0.752   0.377   6.989
 9792SOL     OW30274   3.506   4.163   0.843
 9792SOL    HW130275   3.593   4.117   0.826
 9792SOL    HW230276   3.506   4.200   0.936
 9793SOL     OW30277   4.377   0.181   2.508
 9793SOL    HW130278   4.294   0.204   2.456
 9793SOL    HW230279   4.356   0.109   2.574
 9794SOL     OW30280   0.004   4.010   6.826
 9794SOL    HW130281   6.974   4.046   6.903
 9794SOL    HW230282   6.966   3.994   6.748
 9795SOL     OW30283   1.305   1.848   4.830
 9795SOL    HW130284   1.293   1.763   4.780
 9795SOL    HW230285   1.216   1.893   4.842
 9796SOL     OW30286   4.044   3.157   2.292
 9796SOL    HW130287   4.060   3.139   2.389
 9796SOL    HW230288   3.990   3.083   2.253
 9797SOL     OW30289   2.439   5.675   0.489
 9797SOL    HW130290   2.348   5.683   0.447
 9797SOL    HW230291   2.498   5.622   0.429
 9798SOL     OW30292   3.498   0.709   2.098
 9798SOL    HW130293   3.540   0.720   2.008
 9798SOL    HW230294   3.463   0.615   2.107
 9799SOL     OW30295   2.443   4.313   5.487
 9799SOL    HW130296   2.450   4.260   5.402
 9799SOL    HW230297   2.501   4.270   5.557
 9800SOL     OW30298   4.987   5.197   5.155
 9800SOL    HW130299   4.989   5.264   5.230
 9800SOL    HW230300   5.054   5.125   5.172
 9801SOL     OW30301   4.722   3.920   0.062
 9801SOL    HW130302   4.659   3.896   0.136
 9801SOL    HW230303   4.801   3.969   0.099
 9802SOL     OW30304   6.442   4.227   1.683
 9802SOL    HW130305   6.390   4.304   1.646
 9802SOL    HW230306   6.528   4.219   1.633
 9803SOL     OW30307   1.940   2.207   6.360
 9803SOL    HW130308   1.951   2.147   6.280
 9803SOL    HW230309   1.989   2.293   6.343
 9804SOL     OW30310   1.104   6.187   3.058
 9804SOL    HW130311   1.157   6.223   3.134
 9804SOL    HW230312   1.163   6.175   2.978
 9805SOL     OW30313   0.814   0.098   2.769
 9805SOL    HW130314   0.898   0.057   2.804
 9805SOL    HW230315   0.835   0.172   2.706
 9806SOL     OW30316   1.566   0.879   6.853
 9806SOL    HW130317   1.543   0.858   6.758
 9806SOL    HW230318   1.583   0.977   6.862
 9807SOL     OW30319   3.440   3.853   1.269
 9807SOL    HW130320   3.386   3.887   1.192
 9807SOL    HW230321   3.513   3.919   1.289
 9808SOL     OW30322   3.750   6.703   4.967
 9808SOL    HW130323   3.658   6.697   4.929
 9808SOL    HW230324   3.772   6.616   5.013
 9809SOL     OW30325   0.973   3.702   6.263
 9809SOL    HW130326   1.032   3.647   6.324
 9809SOL    HW230327   1.029   3.768   6.214
 9810SOL     OW30328   2.184   2.688   3.568
 9810SOL    HW130329   2.138   2.642   3.644
 9810SOL    HW230330   2.261   2.632   3.537
 9811SOL     OW30331   5.553   4.816   3.050
 9811SOL    HW130332   5.526   4.828   3.146
 9811SOL    HW230333   5.524   4.726   3.018
 9812SOL     OW30334   3.924   1.687   5.622
 9812SOL    HW130335   3.948   1.598   5.584
 9812SOL    HW230336   3.937   1.686   5.721
 9813SOL     OW30337   4.690   1.327   0.523
 9813SOL    HW130338   4.641   1.383   0.456
 9813SOL    HW230339   4.689   1.231   0.494
 9814SOL     OW30340   0.043   0.208   6.510
 9814SOL    HW130341   0.108   0.168   6.574
 9814SOL    HW230342   6.991   0.144   6.493
 9815SOL     OW30343   5.228   3.694   4.543
 9815SOL    HW130344   5.302   3.759   4.530
 9815SOL    HW230345   5.193   3.701   4.637
 9816SOL     OW30346   1.104   0.695   6.195
 9816SOL    HW130347   1.183   0.689   6.134
 9816SOL    HW230348   1.063   0.605   6.204
 9817SOL     OW30349   2.881   6.574   3.227
 9817SOL    HW130350   2.927   6.627   3.156
 9817SOL    HW230351   2.854   6.485   3.190
 9818SOL     OW30352   0.696   0.412   3.724
 9818SOL    HW130353   0.726   0.378   3.635
 9818SOL    HW230354   0.775   0.449   3.773
 9819SOL     OW30355   4.974   3.415   3.306
 9819SOL    HW130356   5.005   3.473   3.381
 9819SOL    HW230357   4.958   3.323   3.340
 9820SOL     OW30358   4.082   2.803   6.393
 9820SOL    HW130359   4.011   2.834   6.456
 9820SOL    HW230360   4.042   2.786   6.303
 9821SOL     OW30361   4.837   1.500   6.408
 9821SOL    HW130362   4.775   1.493   6.487
 9821SOL    HW230363   4.931   1.488   6.439
 9822SOL     OW30364   1.606   0.314   3.521
 9822SOL    HW130365   1.520   0.263   3.522
 9822SOL    HW230366   1.675   0.261   3.471
 9823SOL     OW30367   2.761   0.560   0.017
 9823SOL    HW130368   2.723   0.615   6.965
 9823SOL    HW230369   2.858   0.582   0.028
 9824SOL     OW30370   1.830   4.959   4.384
 9824SOL    HW130371   1.819   4.902   4.465
 9824SOL    HW230372   1.873   5.046   4.411
 9825SOL     OW30373   4.869   5.748   5.476
 9825SOL    HW130374   4.945   5.779   5.419
 9825SOL    HW230375   4.894   5.757   5.573
 9826SOL     OW30376   4.901   4.610   6.564
 9826SOL    HW130377   4.875   4.573   6.476
 9826SOL    HW230378   5.000   4.627   6.565
 9827SOL     OW30379   2.058   3.546   3.390
 9827SOL    HW130380   2.107   3.633   3.382
 9827SOL    HW230381   2.011   3.527   3.304
 9828SOL     OW30382   2.557   2.768   5.698
 9828SOL    HW130383   2.549   2.804   5.791
 9828SOL    HW230384   2.523   2.674   5.695
 9829SOL     OW30385   3.982   4.945   0.145
 9829SOL    HW130386   4.025   4.886   0.214
 9829SOL    HW230387   3.890   4.970   0.175
 9830SOL     OW30388   6.177   2.574   2.096
 9830SOL    HW130389   6.099   2.523   2.058
 9830SOL    HW230390   6.183   2.664   2.051
 9831SOL     OW30391   2.501   5.114   1.272
 9831SOL    HW130392   2.428   5.181   1.285
 9831SOL    HW230393   2.547   5.131   1.184
 9832SOL     OW30394   5.091   5.341   2.928
 9832SOL    HW130395   5.095   5.328   3.027
 9832SOL    HW230396   5.080   5.252   2.884
 9833SOL     OW30397   3.447   3.733   5.057
 9833SOL    HW130398   3.465   3.831   5.055
 9833SOL    HW230399   3.489   3.692   5.139
 9834SOL     OW30400   2.613   4.565   5.258
 9834SOL    HW130401   2.706   4.537   5.234
 9834SOL    HW230402   2.614   4.613   5.346
 9835SOL     OW30403   4.133   3.351   5.378
 9835SOL    HW130404   4.054   3.339   5.318
 9835SOL    HW230405   4.102   3.372   5.471
 9836SOL     OW30406   6.833   4.747   3.546
 9836SOL    HW130407   6.780   4.823   3.583
 9836SOL    HW230408   6.916   4.734   3.601
 9837SOL     OW30409   3.041   0.318   3.134
 9837SOL    HW130410   3.050   0.364   3.222
 9837SOL    HW230411   3.054   0.384   3.060
 9838SOL     OW30412   2.077   6.964   6.666
 9838SOL    HW130413   2.028   6.886   6.625
 9838SOL    HW230414   2.121   6.934   6.751
 9839SOL     OW30415   5.665   0.664   3.693
 9839SOL    HW130416   5.744   0.605   3.678
 9839SOL    HW230417   5.585   0.608   3.715
 9840SOL     OW30418   5.717   1.266   0.938
 9840SOL    HW130419   5.690   1.212   1.017
 9840SOL    HW230420   5.816   1.265   0.929
 9841SOL     OW30421   2.039   4.753   5.189
 9841SOL    HW130422   2.050   4.792   5.281
 9841SOL    HW230423   2.128   4.744   5.146
 9842SOL     OW30424   3.763   3.405   2.290
 9842SOL    HW130425   3.684   3.395   2.230
 9842SOL    HW230426   3.847   3.398   2.237
 9843SOL     OW30427   6.063   0.868   1.241
 9843SOL    HW130428   6.021   0.901   1.326
 9843SOL    HW230429   6.023   0.917   1.163
 9844SOL     OW30430   6.193   0.464   2.188
 9844SOL    HW130431   6.094   0.475   2.192
 9844SOL    HW230432   6.216   0.367   2.191
 9845SOL     OW30433   2.009   2.609   2.974
 9845SOL    HW130434   2.055   2.665   3.043
 9845SOL    HW230435   1.985   2.520   3.013
 9846SOL     OW30436   3.793   3.451   1.855
 9846SOL    HW130437   3.728   3.396   1.908
 9846SOL    HW230438   3.855   3.499   1.917
 9847SOL     OW30439   3.524   2.987   3.739
 9847SOL    HW130440   3.599   2.972   3.674
 9847SOL    HW230441   3.555   2.964   3.831
 9848SOL     OW30442   3.899   3.360   5.031
 9848SOL    HW130443   3.821   3.402   4.986
 9848SOL    HW230444   3.980   3.419   5.019
 9849SOL     OW30445   0.605   6.951   6.493
 9849SOL    HW130446   0.675   6.889   6.531
 9849SOL    HW230447   0.514   6.913   6.510
 9850SOL     OW30448   5.792   0.137   4.133
 9850SOL    HW130449   5.775   0.089   4.219
 9850SOL    HW230450   5.773   0.076   4.056
 9851SOL     OW30451   5.936   0.685   4.508
 9851SOL    HW130452   5.966   0.772   4.548
 9851SOL    HW230453   5.856   0.652   4.558
 9852SOL     OW30454   4.148   2.171   3.621
 9852SOL    HW130455   4.109   2.151   3.531
 9852SOL    HW230456   4.174   2.085   3.665
 9853SOL     OW30457   4.891   4.007   5.048
 9853SOL    HW130458   4.847   4.023   5.136
 9853SOL    HW230459   4.834   4.046   4.975
 9854SOL     OW30460   6.812   5.379   5.076
 9854SOL    HW130461   6.792   5.449   5.007
 9854SOL    HW230462   6.730   5.326   5.094
 9855SOL     OW30463   2.179   3.291   1.218
 9855SOL    HW130464   2.096   3.331   1.256
 9855SOL    HW230465   2.224   3.235   1.287
 9856SOL     OW30466   5.206   4.786   5.110
 9856SOL    HW130467   5.197   4.719   5.036
 9856SOL    HW230468   5.223   4.876   5.071
 9857SOL     OW30469   4.810   2.929   2.670
 9857SOL    HW130470   4.826   2.976   2.583
 9857SOL    HW230471   4.828   2.991   2.746
 9858SOL     OW30472   0.533   0.839   1.164
 9858SOL    HW130473   0.619   0.856   1.212
 9858SOL    HW230474   0.468   0.796   1.226
 9859SOL     OW30475   6.195   6.820   2.530
 9859SOL    HW130476   6.200   6.747   2.599
 9859SOL    HW230477   6.151   6.900   2.570
 9860SOL     OW30478   1.199   1.594   3.451
 9860SOL    HW130479   1.244   1.508   3.424
 9860SOL    HW230480   1.268   1.664   3.467
 9861SOL     OW30481   3.017   0.170   3.553
 9861SOL    HW130482   3.061   0.220   3.479
 9861SOL    HW230483   3.012   0.073   3.529
 9862SOL     OW30484   3.934   2.861   0.098
 9862SOL    HW130485   3.924   2.938   0.160
 9862SOL    HW230486   3.867   2.791   0.120
 9863SOL     OW30487   3.189   0.194   2.597
 9863SOL    HW130488   3.100   0.189   2.642
 9863SOL    HW230489   3.199   0.118   2.533
 9864SOL     OW30490   4.057   6.973   3.753
 9864SOL    HW130491   3.969   6.954   3.796
 9864SOL    HW230492   4.042   7.013   3.663
 9865SOL     OW30493   1.331   0.632   4.616
 9865SOL    HW130494   1.272   0.662   4.691
 9865SOL    HW230495   1.343   0.532   4.621
 9866SOL     OW30496   5.540   4.718   6.249
 9866SOL    HW130497   5.564   4.754   6.159
 9866SOL    HW230498   5.623   4.706   6.303
 9867SOL     OW30499   6.473   0.723   1.199
 9867SOL    HW130500   6.531   0.642   1.199
 9867SOL    HW230501   6.474   0.765   1.290
 9868SOL     OW30502   0.370   3.497   5.493
 9868SOL    HW130503   0.294   3.494   5.428
 9868SOL    HW230504   0.455   3.520   5.445
 9869SOL     OW30505   1.191   3.142   1.844
 9869SOL    HW130506   1.132   3.064   1.862
 9869SOL    HW230507   1.245   3.163   1.925
 9870SOL     OW30508   3.768   6.087   2.828
 9870SOL    HW130509   3.824   6.009   2.855
 9870SOL    HW230510   3.722   6.125   2.909
 9871SOL     OW30511   0.192   6.063   5.874
 9871SOL    HW130512   0.262   6.131   5.893
 9871SOL    HW230513   0.208   5.982   5.930
 9872SOL     OW30514   2.269   5.638   4.303
 9872SOL    HW130515   2.321   5.683   4.230
 9872SOL    HW230516   2.275   5.694   4.387
 9873SOL     OW30517   2.586   2.540   0.176
 9873SOL    HW130518   2.567   2.522   0.079
 9873SOL    HW230519   2.580   2.638   0.193
 9874SOL     OW30520   5.847   3.161   5.057
 9874SOL    HW130521   5.808   3.071   5.038
 9874SOL    HW230522   5.778   3.232   5.040
 9875SOL     OW30523   5.903   6.644   1.861
 9875SOL    HW130524   5.853   6.700   1.928
 9875SOL    HW230525   5.868   6.550   1.864
 9876SOL     OW30526   6.604   0.036   3.539
 9876SOL    HW130527   6.544   6.984   3.567
 9876SOL    HW230528   6.608   0.105   3.611
 9877SOL     OW30529   6.762   5.709   4.416
 9877SOL    HW130530   6.754   5.807   4.401
 9877SOL    HW230531   6.821   5.669   4.346
 9878SOL     OW30532   2.524   4.821   5.148
 9878SOL    HW130533   2.601   4.855   5.203
 9878SOL    HW230534   2.502   4.728   5.176
 9879SOL     OW30535   5.759   5.270   5.196
 9879SOL    HW130536   5.708   5.288   5.280
 9879SOL    HW230537   5.833   5.338   5.187
 9880SOL     OW30538   3.865   0.698   6.919
 9880SOL    HW130539   3.796   0.761   6.884
 9880SOL    HW230540   3.873   0.619   6.857
 9881SOL     OW30541   1.093   1.166   4.717
 9881SOL    HW130542   1.142   1.212   4.791
 9881SOL    HW230543   1.149   1.091   4.682
 9882SOL     OW30544   1.622   3.070   4.419
 9882SOL    HW130545   1.612   3.151   4.476
 9882SOL    HW230546   1.678   3.092   4.339
 9883SOL     OW30547   1.180   6.391   1.062
 9883SOL    HW130548   1.197   6.359   1.155
 9883SOL    HW230549   1.148   6.486   1.064
 9884SOL     OW30550   4.721   2.296   1.663
 9884SOL    HW130551   4.740   2.325   1.757
 9884SOL    HW230552   4.801   2.248   1.626
 9885SOL     OW30553   6.902   2.119   4.881
 9885SOL    HW130554   6.983   2.166   4.845
 9885SOL    HW230555   6.906   2.023   4.854
 9886SOL     OW30556   1.437   4.810   1.666
 9886SOL    HW130557   1.505   4.841   1.732
 9886SOL    HW230558   1.380   4.740   1.709
 9887SOL     OW30559   3.971   0.197   6.517
 9887SOL    HW130560   3.936   0.189   6.610
 9887SOL    HW230561   4.058   0.246   6.518
 9888SOL     OW30562   5.375   5.097   2.390
 9888SOL    HW130563   5.439   5.022   2.404
 9888SOL    HW230564   5.332   5.122   2.477
 9889SOL     OW30565   6.562   4.821   0.913
 9889SOL    HW130566   6.619   4.901   0.893
 9889SOL    HW230567   6.508   4.839   0.995
 9890SOL     OW30568   1.036   2.853   1.265
 9890SOL    HW130569   0.983   2.768   1.271
 9890SOL    HW230570   0.981   2.923   1.220
 9891SOL     OW30571   5.758   3.372   1.872
 9891SOL    HW130572   5.675   3.386   1.819
 9891SOL    HW230573   5.747   3.293   1.933
 9892SOL     OW30574   0.980   4.875   1.959
 9892SOL    HW130575   1.025   4.788   1.979
 9892SOL    HW230576   0.932   4.868   1.871
 9893SOL     OW30577   0.450   0.647   2.016
 9893SOL    HW130578   0.442   0.709   1.938
 9893SOL    HW230579   0.417   0.694   2.098
 9894SOL     OW30580   3.107   2.176   0.276
 9894SOL    HW130581   3.089   2.246   0.206
 9894SOL    HW230582   3.023   2.127   0.297
 9895SOL     OW30583   5.494   3.866   5.204
 9895SOL    HW130584   5.485   3.933   5.278
 9895SOL    HW230585   5.561   3.797   5.229
 9896SOL     OW30586   6.298   1.102   0.743
 9896SOL    HW130587   6.303   1.085   0.645
 9896SOL    HW230588   6.389   1.095   0.783
 9897SOL     OW30589   5.799   6.846   2.486
 9897SOL    HW130590   5.848   6.933   2.477
 9897SOL    HW230591   5.710   6.854   2.440
 9898SOL     OW30592   1.242   5.276   5.807
 9898SOL    HW130593   1.283   5.221   5.880
 9898SOL    HW230594   1.299   5.357   5.791
 9899SOL     OW30595   1.519   5.344   1.213
 9899SOL    HW130596   1.502   5.384   1.303
 9899SOL    HW230597   1.455   5.269   1.197
 9900SOL     OW30598   1.202   3.095   2.973
 9900SOL    HW130599   1.195   2.995   2.980
 9900SOL    HW230600   1.288   3.125   3.014
 9901SOL     OW30601   3.009   0.797   6.755
 9901SOL    HW130602   3.057   0.729   6.811
 9901SOL    HW230603   3.060   0.883   6.757
 9902SOL     OW30604   2.964   4.625   1.232
 9902SOL    HW130605   2.922   4.559   1.294
 9902SOL    HW230606   2.893   4.672   1.180
 9903SOL     OW30607   5.390   1.414   1.577
 9903SOL    HW130608   5.293   1.407   1.551
 9903SOL    HW230609   5.437   1.475   1.514
 9904SOL     OW30610   0.668   3.884   6.660
 9904SOL    HW130611   0.625   3.845   6.579
 9904SOL    HW230612   0.721   3.813   6.708
 9905SOL     OW30613   2.504   0.336   5.774
 9905SOL    HW130614   2.413   0.331   5.734
 9905SOL    HW230615   2.507   0.409   5.842
 9906SOL     OW30616   1.880   2.919   0.334
 9906SOL    HW130617   1.832   2.855   0.394
 9906SOL    HW230618   1.874   3.011   0.372
 9907SOL     OW30619   1.507   0.678   1.214
 9907SOL    HW130620   1.427   0.704   1.161
 9907SOL    HW230621   1.573   0.754   1.215
 9908SOL     OW30622   6.549   2.024   4.707
 9908SOL    HW130623   6.524   2.121   4.704
 9908SOL    HW230624   6.611   2.007   4.783
 9909SOL     OW30625   3.852   0.804   2.594
 9909SOL    HW130626   3.929   0.836   2.649
 9909SOL    HW230627   3.869   0.824   2.498
 9910SOL     OW30628   1.214   4.956   1.547
 9910SOL    HW130629   1.243   5.052   1.545
 9910SOL    HW230630   1.293   4.898   1.566
 9911SOL     OW30631   2.654   6.052   2.406
 9911SOL    HW130632   2.733   6.112   2.418
 9911SOL    HW230633   2.581   6.080   2.468
 9912SOL     OW30634   3.713   1.636   0.803
 9912SOL    HW130635   3.704   1.541   0.773
 9912SOL    HW230636   3.807   1.667   0.789
 9913SOL     OW30637   6.213   3.577   0.778
 9913SOL    HW130638   6.297   3.534   0.743
 9913SOL    HW230639   6.182   3.646   0.713
 9914SOL     OW30640   6.197   0.706   5.187
 9914SOL    HW130641   6.147   0.669   5.265
 9914SOL    HW230642   6.286   0.661   5.178
 9915SOL     OW30643   5.954   0.737   3.560
 9915SOL    HW130644   5.899   0.807   3.605
 9915SOL    HW230645   6.040   0.725   3.609
 9916SOL     OW30646   2.045   2.289   2.909
 9916SOL    HW130647   2.098   2.312   2.828
 9916SOL    HW230648   2.095   2.318   2.991
 9917SOL     OW30649   4.238   4.095   5.947
 9917SOL    HW130650   4.184   4.179   5.940
 9917SOL    HW230651   4.178   4.016   5.947
 9918SOL     OW30652   1.388   2.447   3.013
 9918SOL    HW130653   1.333   2.493   2.944
 9918SOL    HW230654   1.444   2.377   2.970
 9919SOL     OW30655   1.471   5.675   0.893
 9919SOL    HW130656   1.561   5.655   0.933
 9919SOL    HW230657   1.400   5.655   0.960
 9920SOL     OW30658   5.416   0.683   2.521
 9920SOL    HW130659   5.323   0.698   2.557
 9920SOL    HW230660   5.457   0.771   2.499
 9921SOL     OW30661   4.369   6.247   4.217
 9921SOL    HW130662   4.454   6.235   4.166
 9921SOL    HW230663   4.292   6.251   4.153
 9922SOL     OW30664   3.794   4.117   0.858
 9922SOL    HW130665   3.791   4.062   0.775
 9922SOL    HW230666   3.757   4.064   0.934
 9923SOL     OW30667   5.991   4.246   6.565
 9923SOL    HW130668   6.091   4.243   6.567
 9923SOL    HW230669   5.959   4.325   6.617
 9924SOL     OW30670   5.889   2.474   2.951
 9924SOL    HW130671   5.909   2.567   2.983
 9924SOL    HW230672   5.845   2.423   3.024
 9925SOL     OW30673   0.402   5.285   4.257
 9925SOL    HW130674   0.440   5.230   4.183
 9925SOL    HW230675   0.413   5.236   4.344
 9926SOL     OW30676   4.168   2.582   1.146
 9926SOL    HW130677   4.073   2.602   1.168
 9926SOL    HW230678   4.173   2.492   1.101
 9927SOL     OW30679   1.716   0.634   0.827
 9927SOL    HW130680   1.782   0.665   0.758
 9927SOL    HW230681   1.763   0.620   0.914
 9928SOL     OW30682   4.830   4.741   3.594
 9928SOL    HW130683   4.762   4.726   3.665
 9928SOL    HW230684   4.907   4.678   3.606
 9929SOL     OW30685   3.614   4.109   4.464
 9929SOL    HW130686   3.519   4.083   4.445
 9929SOL    HW230687   3.675   4.056   4.404
 9930SOL     OW30688   0.107   6.820   5.650
 9930SOL    HW130689   0.159   6.805   5.566
 9930SOL    HW230690   0.163   6.872   5.715
 9931SOL     OW30691   0.123   4.931   4.728
 9931SOL    HW130692   0.075   4.918   4.642
 9931SOL    HW230693   0.064   4.904   4.804
 9932SOL     OW30694   2.730   3.231   5.561
 9932SOL    HW130695   2.715   3.166   5.487
 9932SOL    HW230696   2.796   3.193   5.626
 9933SOL     OW30697   1.714   6.621   4.048
 9933SOL    HW130698   1.652   6.570   4.108
 9933SOL    HW230699   1.749   6.700   4.097
 9934SOL     OW30700   0.186   2.131   6.341
 9934SOL    HW130701   0.170   2.061   6.410
 9934SOL    HW230702   0.224   2.213   6.384
 9935SOL     OW30703   2.616   0.042   1.173
 9935SOL    HW130704   2.535   0.057   1.229
 9935SOL    HW230705   2.591   7.012   1.092
 9936SOL     OW30706   5.846   4.593   0.529
 9936SOL    HW130707   5.907   4.604   0.449
 9936SOL    HW230708   5.801   4.680   0.548
 9937SOL     OW30709   0.380   2.054   1.577
 9937SOL    HW130710   0.353   2.113   1.653
 9937SOL    HW230711   0.470   2.081   1.544
 9938SOL     OW30712   5.457   4.993   3.801
 9938SOL    HW130713   5.491   4.905   3.767
 9938SOL    HW230714   5.357   4.988   3.810
 9939SOL     OW30715   4.337   2.904   1.231
 9939SOL    HW130716   4.380   2.829   1.181
 9939SOL    HW230717   4.305   2.973   1.167
 9940SOL     OW30718   0.965   0.476   1.859
 9940SOL    HW130719   1.029   0.429   1.798
 9940SOL    HW230720   0.968   0.432   1.949
 9941SOL     OW30721   3.404   3.757   5.445
 9941SOL    HW130722   3.453   3.778   5.530
 9941SOL    HW230723   3.322   3.704   5.467
 9942SOL     OW30724   3.559   5.143   2.663
 9942SOL    HW130725   3.629   5.199   2.620
 9942SOL    HW230726   3.571   5.047   2.635
 9943SOL     OW30727   0.864   4.977   6.515
 9943SOL    HW130728   0.896   4.920   6.591
 9943SOL    HW230729   0.839   4.918   6.437
 9944SOL     OW30730   0.720   4.585   6.338
 9944SOL    HW130731   0.687   4.601   6.431
 9944SOL    HW230732   0.753   4.671   6.299
 9945SOL     OW30733   4.897   5.916   0.009
 9945SOL    HW130734   4.975   5.973   0.036
 9945SOL    HW230735   4.908   5.824   0.046
 9946SOL     OW30736   6.049   0.173   3.698
 9946SOL    HW130737   6.018   0.244   3.761
 9946SOL    HW230738   6.101   0.215   3.623
 9947SOL     OW30739   2.838   2.290   4.449
 9947SOL    HW130740   2.894   2.231   4.507
 9947SOL    HW230741   2.751   2.308   4.494
 9948SOL     OW30742   6.881   5.045   6.224
 9948SOL    HW130743   6.826   4.968   6.194
 9948SOL    HW230744   6.933   5.019   6.306
 9949SOL     OW30745   6.752   4.677   4.057
 9949SOL    HW130746   6.730   4.613   3.983
 9949SOL    HW230747   6.846   4.662   4.088
 9950SOL     OW30748   5.797   6.015   6.304
 9950SOL    HW130749   5.750   5.944   6.356
 9950SOL    HW230750   5.858   6.065   6.364
 9951SOL     OW30751   1.486   2.668   3.135
 9951SOL    HW130752   1.466   2.593   3.072
 9951SOL    HW230753   1.550   2.636   3.205
 9952SOL     OW30754   1.246   4.273   0.328
 9952SOL    HW130755   1.306   4.248   0.252
 9952SOL    HW230756   1.301   4.301   0.406
 9953SOL     OW30757   6.210   2.728   3.952
 9953SOL    HW130758   6.145   2.701   3.882
 9953SOL    HW230759   6.264   2.649   3.980
 9954SOL     OW30760   1.165   0.300   5.412
 9954SOL    HW130761   1.184   0.363   5.487
 9954SOL    HW230762   1.099   0.342   5.349
 9955SOL     OW30763   4.759   3.969   6.493
 9955SOL    HW130764   4.747   3.877   6.530
 9955SOL    HW230765   4.755   4.036   6.568
 9956SOL     OW30766   1.032   5.285   3.940
 9956SOL    HW130767   0.951   5.322   3.895
 9956SOL    HW230768   1.005   5.207   3.997
 9957SOL     OW30769   5.782   0.247   1.628
 9957SOL    HW130770   5.832   0.161   1.626
 9957SOL    HW230771   5.685   0.230   1.610
 9958SOL     OW30772   2.468   5.590   6.816
 9958SOL    HW130773   2.471   5.490   6.822
 9958SOL    HW230774   2.425   5.616   6.730
 9959SOL     OW30775   4.138   3.639   3.904
 9959SOL    HW130776   4.236   3.654   3.917
 9959SOL    HW230777   4.119   3.623   3.808
 9960SOL     OW30778   0.008   0.256   1.937
 9960SOL    HW130779   0.017   0.158   1.952
 9960SOL    HW230780   6.985   0.298   2.016
 9961SOL     OW30781   1.320   4.852   4.370
 9961SOL    HW130782   1.399   4.911   4.392
 9961SOL    HW230783   1.258   4.849   4.449
 9962SOL     OW30784   4.721   1.144   2.426
 9962SOL    HW130785   4.782   1.071   2.394
 9962SOL    HW230786   4.645   1.104   2.477
 9963SOL     OW30787   2.354   2.309   6.126
 9963SOL    HW130788   2.306   2.396   6.126
 9963SOL    HW230789   2.453   2.326   6.130
 9964SOL     OW30790   4.683   3.917   5.889
 9964SOL    HW130791   4.677   4.013   5.914
 9964SOL    HW230792   4.685   3.860   5.972
 9965SOL     OW30793   4.137   5.166   6.031
 9965SOL    HW130794   4.071   5.125   6.093
 9965SOL    HW230795   4.157   5.102   5.957
 9966SOL     OW30796   2.406   5.778   2.111
 9966SOL    HW130797   2.490   5.824   2.141
 9966SOL    HW230798   2.341   5.774   2.187
 9967SOL     OW30799   6.251   5.960   1.448
 9967SOL    HW130800   6.349   5.959   1.428
 9967SOL    HW230801   6.219   6.055   1.453
 9968SOL     OW30802   3.269   4.256   6.233
 9968SOL    HW130803   3.187   4.293   6.189
 9968SOL    HW230804   3.251   4.241   6.330
 9969SOL     OW30805   1.907   2.905   4.394
 9969SOL    HW130806   1.950   2.826   4.436
 9969SOL    HW230807   1.889   2.974   4.465
 9970SOL     OW30808   5.351   4.591   2.433
 9970SOL    HW130809   5.387   4.625   2.347
 9970SOL    HW230810   5.319   4.668   2.489
 9971SOL     OW30811   2.850   3.508   0.503
 9971SOL    HW130812   2.775   3.546   0.556
 9971SOL    HW230813   2.815   3.470   0.417
 9972SOL     OW30814   3.589   4.286   0.602
 9972SOL    HW130815   3.539   4.254   0.683
 9972SOL    HW230816   3.634   4.373   0.623
 9973SOL     OW30817   4.255   1.641   4.054
 9973SOL    HW130818   4.247   1.735   4.085
 9973SOL    HW230819   4.244   1.578   4.131
 9974SOL     OW30820   6.195   3.593   3.431
 9974SOL    HW130821   6.203   3.604   3.332
 9974SOL    HW230822   6.250   3.515   3.460
 9975SOL     OW30823   6.261   4.308   0.136
 9975SOL    HW130824   6.215   4.244   0.076
 9975SOL    HW230825   6.356   4.280   0.148
 9976SOL     OW30826   0.547   5.342   5.593
 9976SOL    HW130827   0.509   5.433   5.579
 9976SOL    HW230828   0.521   5.282   5.517
 9977SOL     OW30829   0.119   5.521   6.391
 9977SOL    HW130830   0.041   5.460   6.385
 9977SOL    HW230831   0.201   5.474   6.358
 9978SOL     OW30832   6.412   3.078   3.692
 9978SOL    HW130833   6.364   3.046   3.774
 9978SOL    HW230834   6.503   3.110   3.716
 9979SOL     OW30835   6.037   4.664   5.780
 9979SOL    HW130836   5.977   4.657   5.700
 9979SOL    HW230837   6.072   4.573   5.802
 9980SOL     OW30838   1.712   1.710   6.359
 9980SOL    HW130839   1.789   1.692   6.420
 9980SOL    HW230840   1.646   1.769   6.406
 9981SOL     OW30841   2.444   1.805   1.510
 9981SOL    HW130842   2.381   1.857   1.452
 9981SOL    HW230843   2.466   1.859   1.591
 9982SOL     OW30844   0.356   1.320   3.699
 9982SOL    HW130845   0.362   1.279   3.790
 9982SOL    HW230846   0.307   1.259   3.638
 9983SOL     OW30847   1.148   2.200   2.866
 9983SOL    HW130848   1.142   2.256   2.783
 9983SOL    HW230849   1.087   2.121   2.857
 9984SOL     OW30850   1.669   6.978   0.527
 9984SOL    HW130851   1.655   6.946   0.621
 9984SOL    HW230852   1.594   0.016   0.501
 9985SOL     OW30853   2.576   0.993   1.748
 9985SOL    HW130854   2.504   0.965   1.811
 9985SOL    HW230855   2.643   0.918   1.738
 9986SOL     OW30856   5.390   4.246   0.097
 9986SOL    HW130857   5.352   4.338   0.111
 9986SOL    HW230858   5.343   4.181   0.156
 9987SOL     OW30859   6.214   1.994   3.225
 9987SOL    HW130860   6.196   2.009   3.322
 9987SOL    HW230861   6.128   2.000   3.174
 9988SOL     OW30862   0.011   5.178   5.046
 9988SOL    HW130863   6.963   5.212   5.108
 9988SOL    HW230864   0.089   5.241   5.048
 9989SOL     OW30865   6.087   4.223   3.287
 9989SOL    HW130866   6.038   4.244   3.371
 9989SOL    HW230867   6.074   4.127   3.264
 9990SOL     OW30868   2.303   0.426   2.647
 9990SOL    HW130869   2.330   0.342   2.599
 9990SOL    HW230870   2.274   0.403   2.740
 9991SOL     OW30871   2.236   3.100   4.029
 9991SOL    HW130872   2.256   3.011   3.989
 9991SOL    HW230873   2.207   3.089   4.124
 9992SOL     OW30874   4.579   3.554   0.351
 9992SOL    HW130875   4.486   3.535   0.382
 9992SOL    HW230876   4.641   3.486   0.389
 9993SOL     OW30877   4.071   0.528   2.023
 9993SOL    HW130878   4.152   0.582   2.046
 9993SOL    HW230879   3.992   0.563   2.073
 9994SOL     OW30880   0.082   4.423   3.997
 9994SOL    HW130881   0.049   4.501   4.050
 9994SOL    HW230882   0.036   4.340   4.028
 9995SOL     OW30883   3.059   0.833   2.612
 9995SOL    HW130884   3.068   0.924   2.572
 9995SOL    HW230885   3.099   0.765   2.550
 9996SOL     OW30886   3.180   3.234   1.806
 9996SOL    HW130887   3.274   3.200   1.817
 9996SOL    HW230888   3.127   3.210   1.887
 9997SOL     OW30889   4.048   1.773   0.944
 9997SOL    HW130890   4.041   1.871   0.928
 9997SOL    HW230891   4.042   1.755   1.043
 9998SOL     OW30892   6.428   3.869   1.509
 9998SOL    HW130893   6.417   3.770   1.501
 9998SOL    HW230894   6.373   3.903   1.586
 9999SOL     OW30895   6.115   4.003   4.862
 9999SOL    HW130896   6.123   3.904   4.872
 9999SOL    HW230897   6.030   4.024   4.815
10000SOL     OW30898   5.980   3.539   6.931
10000SOL    HW130899   5.922   3.485   6.871
10000SOL    HW230900   6.049   3.480   6.973
10001SOL     OW30901   5.647   1.060   2.054
10001SOL    HW130902   5.711   1.005   2.001
10001SOL    HW230903   5.568   1.083   1.997
10002SOL     OW30904   1.762   0.372   0.816
10002SOL    HW130905   1.717   0.461   0.811
10002SOL    HW230906   1.731   0.315   0.739
10003SOL     OW30907   3.643   1.534   3.645
10003SOL    HW130908   3.710   1.558   3.715
10003SOL    HW230909   3.686   1.540   3.554
10004SOL     OW30910   4.753   2.168   4.558
10004SOL    HW130911   4.692   2.131   4.487
10004SOL    HW230912   4.802   2.093   4.602
10005SOL     OW30913   4.538   0.308   3.815
10005SOL    HW130914   4.633   0.285   3.836
10005SOL    HW230915   4.493   0.228   3.775
10006SOL     OW30916   5.263   1.277   3.880
10006SOL    HW130917   5.307   1.212   3.942
10006SOL    HW230918   5.176   1.238   3.847
10007SOL     OW30919   0.916   4.852   4.760
10007SOL    HW130920   0.839   4.860   4.697
10007SOL    HW230921   0.946   4.757   4.764
10008SOL     OW30922   4.651   1.368   3.892
10008SOL    HW130923   4.725   1.383   3.957
10008SOL    HW230924   4.580   1.438   3.905
10009SOL     OW30925   1.744   4.251   1.121
10009SOL    HW130926   1.801   4.216   1.194
10009SOL    HW230927   1.719   4.346   1.141
10010SOL     OW30928   2.241   6.196   6.739
10010SOL    HW130929   2.289   6.109   6.742
10010SOL    HW230930   2.305   6.271   6.758
10011SOL     OW30931   5.588   2.319   4.791
10011SOL    HW130932   5.488   2.325   4.787
10011SOL    HW230933   5.623   2.287   4.703
10012SOL     OW30934   4.715   0.693   3.162
10012SOL    HW130935   4.664   0.617   3.203
10012SOL    HW230936   4.651   0.766   3.136
10013SOL     OW30937   1.198   1.475   3.968
10013SOL    HW130938   1.126   1.513   3.909
10013SOL    HW230939   1.204   1.377   3.955
10014SOL     OW30940   6.310   2.949   6.814
10014SOL    HW130941   6.370   3.018   6.774
10014SOL    HW230942   6.356   2.905   6.891
10015SOL     OW30943   2.510   4.240   0.518
10015SOL    HW130944   2.513   4.162   0.455
10015SOL    HW230945   2.459   4.214   0.599
10016SOL     OW30946   2.186   0.107   5.254
10016SOL    HW130947   2.109   0.128   5.314
10016SOL    HW230948   2.270   0.143   5.295
10017SOL     OW30949   2.558   2.420   2.338
10017SOL    HW130950   2.597   2.477   2.265
10017SOL    HW230951   2.609   2.435   2.423
10018SOL     OW30952   4.473   7.017   5.586
10018SOL    HW130953   4.523   6.973   5.512
10018SOL    HW230954   4.532   0.060   5.632
10019SOL     OW30955   1.067   1.483   2.956
10019SOL    HW130956   1.079   1.546   3.033
10019SOL    HW230957   1.114   1.518   2.876
10020SOL     OW30958   0.461   2.955   1.554
10020SOL    HW130959   0.410   2.898   1.618
10020SOL    HW230960   0.549   2.981   1.595
10021SOL     OW30961   0.058   2.507   0.832
10021SOL    HW130962   6.990   2.536   0.803
10021SOL    HW230963   0.052   2.466   0.923
10022SOL     OW30964   3.262   6.983   0.074
10022SOL    HW130965   3.255   0.009   0.161
10022SOL    HW230966   3.245   0.024   7.021
10023SOL     OW30967   1.442   4.938   6.389
10023SOL    HW130968   1.445   4.864   6.322
10023SOL    HW230969   1.525   4.994   6.380
10024SOL     OW30970   2.055   6.722   2.067
10024SOL    HW130971   2.096   6.651   2.010
10024SOL    HW230972   1.994   6.680   2.134
10025SOL     OW30973   1.421   1.226   1.221
10025SOL    HW130974   1.484   1.287   1.174
10025SOL    HW230975   1.467   1.186   1.301
10026SOL     OW30976   4.951   6.802   3.986
10026SOL    HW130977   5.027   6.779   4.048
10026SOL    HW230978   4.915   6.718   3.946
10027SOL     OW30979   6.650   4.324   5.438
10027SOL    HW130980   6.563   4.346   5.394
10027SOL    HW230981   6.712   4.283   5.372
10028SOL     OW30982   1.564   1.445   1.108
10028SOL    HW130983   1.660   1.468   1.124
10028SOL    HW230984   1.508   1.527   1.122
10029SOL     OW30985   3.680   2.017   4.467
10029SOL    HW130986   3.714   1.998   4.559
10029SOL    HW230987   3.583   2.042   4.472
10030SOL     OW30988   2.098   6.660   3.605
10030SOL    HW130989   2.170   6.693   3.544
10030SOL    HW230990   2.010   6.701   3.579
10031SOL     OW30991   6.162   4.969   4.235
10031SOL    HW130992   6.097   4.963   4.160
10031SOL    HW230993   6.124   4.925   4.316
10032SOL     OW30994   2.890   1.874   4.814
10032SOL    HW130995   2.975   1.826   4.794
10032SOL    HW230996   2.881   1.953   4.753
10033SOL     OW30997   5.803   2.126   3.798
10033SOL    HW130998   5.826   2.062   3.725
10033SOL    HW230999   5.773   2.075   3.879
10034SOL     OW31000   2.499   0.123   4.272
10034SOL    HW131001   2.512   0.067   4.190
10034SOL    HW231002   2.548   0.082   4.349
10035SOL     OW31003   6.586   4.268   1.949
10035SOL    HW131004   6.502   4.250   1.898
10035SOL    HW231005   6.663   4.227   1.901
10036SOL     OW31006   5.984   1.954   1.767
10036SOL    HW131007   5.911   1.892   1.795
10036SOL    HW231008   5.957   2.048   1.785
10037SOL     OW31009   6.554   1.050   0.843
10037SOL    HW131010   6.566   1.038   0.942
10037SOL    HW231011   6.550   1.148   0.822
10038SOL     OW31012   5.142   0.608   0.447
10038SOL    HW131013   5.115   0.700   0.474
10038SOL    HW231014   5.100   0.541   0.509
10039SOL     OW31015   3.691   0.468   3.433
10039SOL    HW131016   3.764   0.413   3.395
10039SOL    HW231017   3.603   0.439   3.395
10040SOL     OW31018   4.719   5.476   6.320
10040SOL    HW131019   4.777   5.394   6.326
10040SOL    HW231020   4.741   5.526   6.236
10041SOL     OW31021   4.191   6.258   7.010
10041SOL    HW131022   4.105   6.237   6.962
10041SOL    HW231023   4.197   6.357   0.000
10042SOL     OW31024   0.838   1.564   4.288
10042SOL    HW131025   0.850   1.643   4.348
10042SOL    HW231026   0.927   1.523   4.270
10043SOL     OW31027   6.134   1.285   5.048
10043SOL    HW131028   6.138   1.383   5.068
10043SOL    HW231029   6.092   1.237   5.126
10044SOL     OW31030   2.366   1.751   4.566
10044SOL    HW131031   2.287   1.748   4.504
10044SOL    HW231032   2.392   1.846   4.582
10045SOL     OW31033   3.899   0.229   3.063
10045SOL    HW131034   3.891   0.318   3.019
10045SOL    HW231035   3.855   0.231   3.153
10046SOL     OW31036   2.011   3.911   1.168
10046SOL    HW131037   2.031   4.004   1.198
10046SOL    HW231038   2.094   3.856   1.170
10047SOL     OW31039   0.808   3.524   4.814
10047SOL    HW131040   0.831   3.537   4.910
10047SOL    HW231041   0.747   3.445   4.804
10048SOL     OW31042   7.017   0.537   2.471
10048SOL    HW131043   0.036   0.625   2.491
10048SOL    HW231044   0.033   0.501   2.386
10049SOL     OW31045   1.532   1.719   5.789
10049SOL    HW131046   1.529   1.673   5.701
10049SOL    HW231047   1.626   1.739   5.814
10050SOL     OW31048   5.133   3.842   5.237
10050SOL    HW131049   5.169   3.812   5.149
10050SOL    HW231050   5.125   3.941   5.238
10051SOL     OW31051   6.511   3.975   5.355
10051SOL    HW131052   6.478   4.050   5.298
10051SOL    HW231053   6.538   4.011   5.444
10052SOL     OW31054   2.194   1.186   3.074
10052SOL    HW131055   2.234   1.163   3.163
10052SOL    HW231056   2.239   1.133   3.003
10053SOL     OW31057   4.395   5.694   3.918
10053SOL    HW131058   4.432   5.755   3.847
10053SOL    HW231059   4.295   5.690   3.910
10054SOL     OW31060   5.475   6.348   5.509
10054SOL    HW131061   5.573   6.325   5.514
10054SOL    HW231062   5.453   6.414   5.580
10055SOL     OW31063   6.123   1.322   5.356
10055SOL    HW131064   6.025   1.328   5.339
10055SOL    HW231065   6.151   1.226   5.363
10056SOL     OW31066   5.317   4.354   2.915
10056SOL    HW131067   5.245   4.285   2.913
10056SOL    HW231068   5.321   4.401   2.827
10057SOL     OW31069   4.774   3.370   5.259
10057SOL    HW131070   4.756   3.461   5.220
10057SOL    HW231071   4.855   3.375   5.318
10058SOL     OW31072   6.213   3.572   4.777
10058SOL    HW131073   6.226   3.615   4.687
10058SOL    HW231074   6.117   3.548   4.788
10059SOL     OW31075   0.301   1.665   6.728
10059SOL    HW131076   0.217   1.720   6.737
10059SOL    HW231077   0.367   1.715   6.672
10060SOL     OW31078   2.271   2.722   2.351
10060SOL    HW131079   2.210   2.775   2.292
10060SOL    HW231080   2.351   2.692   2.299
10061SOL     OW31081   4.472   1.567   3.894
10061SOL    HW131082   4.387   1.563   3.946
10061SOL    HW231083   4.511   1.659   3.901
10062SOL     OW31084   6.490   0.804   4.275
10062SOL    HW131085   6.393   0.783   4.283
10062SOL    HW231086   6.508   0.843   4.185
10063SOL     OW31087   3.030   1.273   4.383
10063SOL    HW131088   2.960   1.337   4.413
10063SOL    HW231089   3.088   1.316   4.314
10064SOL     OW31090   5.043   6.442   0.054
10064SOL    HW131091   5.091   6.515   0.102
10064SOL    HW231092   4.983   6.481   7.006
10065SOL     OW31093   2.294   0.674   2.305
10065SOL    HW131094   2.368   0.656   2.241
10065SOL    HW231095   2.262   0.587   2.344
10066SOL     OW31096   0.325   2.662   5.127
10066SOL    HW131097   0.283   2.723   5.059
10066SOL    HW231098   0.424   2.662   5.115
10067SOL     OW31099   0.169   3.655   5.722
10067SOL    HW131100   0.235   3.631   5.651
10067SOL    HW231101   0.181   3.592   5.800
10068SOL     OW31102   1.060   3.418   3.921
10068SOL    HW131103   0.972   3.415   3.968
10068SOL    HW231104   1.109   3.501   3.948
10069SOL     OW31105   3.060   5.056   1.881
10069SOL    HW131106   3.039   5.060   1.783
10069SOL    HW231107   3.047   5.147   1.921
10070SOL     OW31108   0.192   5.925   5.362
10070SOL    HW131109   0.146   5.874   5.434
10070SOL    HW231110   0.185   6.023   5.381
10071SOL     OW31111   0.592   6.609   4.483
10071SOL    HW131112   0.554   6.539   4.543
10071SOL    HW231113   0.690   6.595   4.472
10072SOL     OW31114   0.199   0.763   3.877
10072SOL    HW131115   0.231   0.695   3.811
10072SOL    HW231116   0.185   0.850   3.831
10073SOL     OW31117   6.983   4.361   3.728
10073SOL    HW131118   7.014   4.410   3.647
10073SOL    HW231119   0.022   4.380   3.805
10074SOL     OW31120   2.552   6.595   6.332
10074SOL    HW131121   2.539   6.687   6.294
10074SOL    HW231122   2.562   6.601   6.431
10075SOL     OW31123   1.504   2.195   1.919
10075SOL    HW131124   1.576   2.231   1.860
10075SOL    HW231125   1.442   2.270   1.945
10076SOL     OW31126   4.701   6.328   3.120
10076SOL    HW131127   4.699   6.231   3.147
10076SOL    HW231128   4.788   6.349   3.076
10077SOL     OW31129   4.136   2.908   0.567
10077SOL    HW131130   4.224   2.919   0.522
10077SOL    HW231131   4.090   2.997   0.573
10078SOL     OW31132   6.307   5.721   5.005
10078SOL    HW131133   6.375   5.655   4.973
10078SOL    HW231134   6.223   5.711   4.953
10079SOL     OW31135   6.490   2.987   2.761
10079SOL    HW131136   6.452   2.926   2.691
10079SOL    HW231137   6.588   2.996   2.748
10080SOL     OW31138   4.966   1.683   6.050
10080SOL    HW131139   4.883   1.689   6.105
10080SOL    HW231140   4.967   1.759   5.984
10081SOL     OW31141   0.928   1.676   6.999
10081SOL    HW131142   0.919   1.579   6.974
10081SOL    HW231143   0.997   1.719   6.942
10082SOL     OW31144   0.551   5.504   2.343
10082SOL    HW131145   0.486   5.446   2.390
10082SOL    HW231146   0.503   5.560   2.275
10083SOL     OW31147   3.078   6.852   3.837
10083SOL    HW131148   3.162   6.836   3.784
10083SOL    HW231149   3.080   6.943   3.877
10084SOL     OW31150   0.633   0.044   5.209
10084SOL    HW131151   0.556   0.063   5.270
10084SOL    HW231152   0.651   6.968   5.208
10085SOL     OW31153   3.924   0.307   0.923
10085SOL    HW131154   3.999   0.242   0.927
10085SOL    HW231155   3.887   0.310   0.830
10086SOL     OW31156   5.897   6.420   2.936
10086SOL    HW131157   5.826   6.353   2.960
10086SOL    HW231158   5.987   6.380   2.955
10087SOL     OW31159   6.136   5.794   3.945
10087SOL    HW131160   6.078   5.806   4.025
10087SOL    HW231161   6.081   5.804   3.862
10088SOL     OW31162   6.885   0.330   1.494
10088SOL    HW131163   6.918   0.285   1.410
10088SOL    HW231164   6.947   0.309   1.569
10089SOL     OW31165   3.373   1.962   3.066
10089SOL    HW131166   3.324   1.875   3.071
10089SOL    HW231167   3.439   1.958   2.990
10090SOL     OW31168   0.455   5.209   2.003
10090SOL    HW131169   0.529   5.180   2.064
10090SOL    HW231170   0.383   5.139   2.003
10091SOL     OW31171   0.014   6.031   6.692
10091SOL    HW131172   0.050   6.001   6.781
10091SOL    HW231173   0.090   6.047   6.629
10092SOL     OW31174   0.706   3.194   5.941
10092SOL    HW131175   0.758   3.141   5.874
10092SOL    HW231176   0.619   3.222   5.900
10093SOL     OW31177   5.042   3.512   5.140
10093SOL    HW131178   5.085   3.445   5.079
10093SOL    HW231179   4.953   3.539   5.103
10094SOL     OW31180   2.303   6.416   0.875
10094SOL    HW131181   2.293   6.481   0.799
10094SOL    HW231182   2.300   6.465   0.962
10095SOL     OW31183   5.281   1.702   4.424
10095SOL    HW131184   5.248   1.782   4.475
10095SOL    HW231185   5.379   1.711   4.406
10096SOL     OW31186   4.596   0.307   2.991
10096SOL    HW131187   4.580   0.335   2.896
10096SOL    HW231188   4.524   0.347   3.049
10097SOL     OW31189   2.200   1.847   6.509
10097SOL    HW131190   2.114   1.796   6.508
10097SOL    HW231191   2.185   1.939   6.545
10098SOL     OW31192   3.086   6.748   4.868
10098SOL    HW131193   3.045   6.831   4.906
10098SOL    HW231194   3.151   6.710   4.933
10099SOL     OW31195   6.901   4.591   1.845
10099SOL    HW131196   6.900   4.524   1.771
10099SOL    HW231197   6.948   4.552   1.925
10100SOL     OW31198   5.562   6.058   5.783
10100SOL    HW131199   5.607   6.142   5.754
10100SOL    HW231200   5.630   5.996   5.822
10101SOL     OW31201   6.634   3.257   1.428
10101SOL    HW131202   6.621   3.330   1.361
10101SOL    HW231203   6.699   3.286   1.497
10102SOL     OW31204   6.708   0.501   1.403
10102SOL    HW131205   6.764   0.428   1.441
10102SOL    HW231206   6.759   0.587   1.406
10103SOL     OW31207   1.811   0.457   5.140
10103SOL    HW131208   1.882   0.423   5.078
10103SOL    HW231209   1.781   0.384   5.201
10104SOL     OW31210   1.352   1.028   5.919
10104SOL    HW131211   1.439   0.996   5.958
10104SOL    HW231212   1.336   1.122   5.948
10105SOL     OW31213   1.613   0.461   5.779
10105SOL    HW131214   1.622   0.439   5.876
10105SOL    HW231215   1.694   0.512   5.749
10106SOL     OW31216   4.067   6.380   0.911
10106SOL    HW131217   4.058   6.477   0.933
10106SOL    HW231218   4.105   6.370   0.819
10107SOL     OW31219   5.269   1.574   6.204
10107SOL    HW131220   5.346   1.605   6.148
10107SOL    HW231221   5.217   1.653   6.236
10108SOL     OW31222   0.474   2.341   0.081
10108SOL    HW131223   0.542   2.280   0.041
10108SOL    HW231224   0.500   2.362   0.175
10109SOL     OW31225   0.853   1.084   0.562
10109SOL    HW131226   0.943   1.094   0.521
10109SOL    HW231227   0.806   1.172   0.563
10110SOL     OW31228   4.831   4.822   4.002
10110SOL    HW131229   4.893   4.778   3.937
10110SOL    HW231230   4.751   4.857   3.953
10111SOL     OW31231   0.331   3.609   3.008
10111SOL    HW131232   0.284   3.642   2.926
10111SOL    HW231233   0.325   3.678   3.080
10112SOL     OW31234   5.744   3.607   2.853
10112SOL    HW131235   5.770   3.682   2.792
10112SOL    HW231236   5.803   3.528   2.837
10113SOL     OW31237   4.354   6.962   1.022
10113SOL    HW131238   4.344   6.889   0.955
10113SOL    HW231239   4.431   7.021   0.997
10114SOL     OW31240   4.066   2.149   3.359
10114SOL    HW131241   4.005   2.103   3.294
10114SOL    HW231242   4.149   2.177   3.312
10115SOL     OW31243   3.624   1.741   4.966
10115SOL    HW131244   3.652   1.702   5.053
10115SOL    HW231245   3.613   1.840   4.975
10116SOL     OW31246   0.289   6.931   6.262
10116SOL    HW131247   0.325   6.939   6.355
10116SOL    HW231248   0.193   6.961   6.261
10117SOL     OW31249   7.005   6.092   5.513
10117SOL    HW131250   6.993   6.118   5.609
10117SOL    HW231251   6.917   6.064   5.475
10118SOL     OW31252   2.627   4.647   4.161
10118SOL    HW131253   2.680   4.684   4.085
10118SOL    HW231254   2.589   4.558   4.135
10119SOL     OW31255   6.432   4.937   4.286
10119SOL    HW131256   6.441   4.918   4.383
10119SOL    HW231257   6.336   4.930   4.259
10120SOL     OW31258   1.650   3.274   3.811
10120SOL    HW131259   1.672   3.361   3.766
10120SOL    HW231260   1.595   3.292   3.892
10121SOL     OW31261   5.865   4.538   0.965
10121SOL    HW131262   5.843   4.479   1.043
10121SOL    HW231263   5.865   4.483   0.881
10122SOL     OW31264   5.890   2.873   3.666
10122SOL    HW131265   5.910   2.806   3.737
10122SOL    HW231266   5.889   2.828   3.577
10123SOL     OW31267   5.733   6.591   0.925
10123SOL    HW131268   5.679   6.523   0.877
10123SOL    HW231269   5.830   6.575   0.909
10124SOL     OW31270   0.998   5.268   1.089
10124SOL    HW131271   1.061   5.244   1.015
10124SOL    HW231272   1.016   5.208   1.168
10125SOL     OW31273   2.674   1.666   1.192
10125SOL    HW131274   2.674   1.607   1.111
10125SOL    HW231275   2.608   1.632   1.258
10126SOL     OW31276   6.576   0.137   6.000
10126SOL    HW131277   6.544   0.054   5.955
10126SOL    HW231278   6.599   0.206   5.932
10127SOL     OW31279   2.003   3.997   6.873
10127SOL    HW131280   2.012   4.069   6.942
10127SOL    HW231281   1.984   4.038   6.784
10128SOL     OW31282   2.918   1.096   6.019
10128SOL    HW131283   2.993   1.091   5.954
10128SOL    HW231284   2.874   1.007   6.027
10129SOL     OW31285   0.163   2.140   2.345
10129SOL    HW131286   0.237   2.195   2.308
10129SOL    HW231287   0.149   2.060   2.287
10130SOL     OW31288   0.734   3.066   1.608
10130SOL    HW131289   0.757   3.027   1.697
10130SOL    HW231290   0.764   3.162   1.605
10131SOL     OW31291   1.204   0.629   4.103
10131SOL    HW131292   1.258   0.703   4.143
10131SOL    HW231293   1.217   0.546   4.158
10132SOL     OW31294   1.347   0.309   2.915
10132SOL    HW131295   1.282   0.384   2.924
10132SOL    HW231296   1.438   0.340   2.942
10133SOL     OW31297   4.494   6.589   0.951
10133SOL    HW131298   4.450   6.665   0.904
10133SOL    HW231299   4.444   6.566   1.034
10134SOL     OW31300   6.316   1.591   3.307
10134SOL    HW131301   6.259   1.628   3.233
10134SOL    HW231302   6.375   1.519   3.270
10135SOL     OW31303   5.040   1.893   3.335
10135SOL    HW131304   4.982   1.875   3.255
10135SOL    HW231305   5.080   1.984   3.327
10136SOL     OW31306   5.479   2.114   2.715
10136SOL    HW131307   5.574   2.113   2.685
10136SOL    HW231308   5.442   2.206   2.706
10137SOL     OW31309   0.168   5.162   6.379
10137SOL    HW131310   0.084   5.122   6.418
10137SOL    HW231311   0.216   5.093   6.326
10138SOL     OW31312   5.261   2.241   0.717
10138SOL    HW131313   5.347   2.285   0.692
10138SOL    HW231314   5.278   2.168   0.783
10139SOL     OW31315   3.664   3.414   4.838
10139SOL    HW131316   3.675   3.333   4.781
10139SOL    HW231317   3.686   3.496   4.785
10140SOL     OW31318   6.813   6.019   6.000
10140SOL    HW131319   6.874   6.003   6.077
10140SOL    HW231320   6.751   5.941   5.990
10141SOL     OW31321   4.498   0.962   3.698
10141SOL    HW131322   4.453   1.041   3.738
10141SOL    HW231323   4.595   0.983   3.683
10142SOL     OW31324   6.391   6.422   5.611
10142SOL    HW131325   6.417   6.513   5.579
10142SOL    HW231326   6.372   6.363   5.532
10143SOL     OW31327   5.587   2.633   0.550
10143SOL    HW131328   5.522   2.692   0.502
10143SOL    HW231329   5.662   2.610   0.488
10144SOL     OW31330   4.392   0.010   5.278
10144SOL    HW131331   4.302   6.990   5.286
10144SOL    HW231332   4.461   6.973   5.317
10145SOL     OW31333   3.979   5.840   3.070
10145SOL    HW131334   4.063   5.886   3.099
10145SOL    HW231335   3.915   5.836   3.146
10146SOL     OW31336   6.931   4.548   4.436
10146SOL    HW131337   6.845   4.508   4.406
10146SOL    HW231338   6.920   4.585   4.528
10147SOL     OW31339   5.072   4.540   6.848
10147SOL    HW131340   5.100   4.454   6.806
10147SOL    HW231341   5.020   4.594   6.782
10148SOL     OW31342   5.640   3.986   1.214
10148SOL    HW131343   5.650   4.040   1.131
10148SOL    HW231344   5.569   4.025   1.272
10149SOL     OW31345   5.122   4.866   1.557
10149SOL    HW131346   5.122   4.822   1.646
10149SOL    HW231347   5.137   4.797   1.486
10150SOL     OW31348   5.182   3.147   1.753
10150SOL    HW131349   5.088   3.113   1.765
10150SOL    HW231350   5.215   3.184   1.840
10151SOL     OW31351   0.842   6.578   5.774
10151SOL    HW131352   0.853   6.525   5.690
10151SOL    HW231353   0.914   6.554   5.839
10152SOL     OW31354   6.281   5.636   3.616
10152SOL    HW131355   6.286   5.734   3.635
10152SOL    HW231356   6.373   5.598   3.611
10153SOL     OW31357   4.477   6.102   4.011
10153SOL    HW131358   4.430   6.059   3.934
10153SOL    HW231359   4.561   6.144   3.980
10154SOL     OW31360   3.579   5.886   6.173
10154SOL    HW131361   3.592   5.789   6.152
10154SOL    HW231362   3.664   5.936   6.155
10155SOL     OW31363   5.187   2.585   5.435
10155SOL    HW131364   5.107   2.595   5.377
10155SOL    HW231365   5.186   2.657   5.505
10156SOL     OW31366   4.653   0.448   1.083
10156SOL    HW131367   4.708   0.441   1.000
10156SOL    HW231368   4.586   0.374   1.084
10157SOL     OW31369   6.893   1.910   0.151
10157SOL    HW131370   6.949   1.838   0.192
10157SOL    HW231371   6.922   1.999   0.186
10158SOL     OW31372   6.079   6.515   2.393
10158SOL    HW131373   6.061   6.471   2.480
10158SOL    HW231374   6.016   6.591   2.380
10159SOL     OW31375   4.138   3.402   2.842
10159SOL    HW131376   4.100   3.331   2.901
10159SOL    HW231377   4.188   3.469   2.898
10160SOL     OW31378   1.538   3.997   3.223
10160SOL    HW131379   1.569   4.039   3.138
10160SOL    HW231380   1.615   3.991   3.287
10161SOL     OW31381   3.603   4.867   6.894
10161SOL    HW131382   3.507   4.843   6.879
10161SOL    HW231383   3.610   4.928   6.973
10162SOL     OW31384   2.478   4.428   1.383
10162SOL    HW131385   2.499   4.366   1.458
10162SOL    HW231386   2.383   4.417   1.356
10163SOL     OW31387   0.929   5.659   6.444
10163SOL    HW131388   0.965   5.738   6.396
10163SOL    HW231389   0.993   5.582   6.435
10164SOL     OW31390   6.012   3.543   3.807
10164SOL    HW131391   6.009   3.586   3.716
10164SOL    HW231392   6.046   3.450   3.798
10165SOL     OW31393   6.457   2.594   3.926
10165SOL    HW131394   6.423   2.639   3.844
10165SOL    HW231395   6.485   2.663   3.993
10166SOL     OW31396   1.361   2.402   1.235
10166SOL    HW131397   1.279   2.437   1.281
10166SOL    HW231398   1.339   2.372   1.143
10167SOL     OW31399   0.038   5.257   0.338
10167SOL    HW131400   0.016   5.315   0.416
10167SOL    HW231401   0.135   5.234   0.340
10168SOL     OW31402   6.162   1.509   5.884
10168SOL    HW131403   6.086   1.550   5.835
10168SOL    HW231404   6.139   1.414   5.907
10169SOL     OW31405   6.573   3.737   3.288
10169SOL    HW131406   6.669   3.763   3.297
10169SOL    HW231407   6.553   3.715   3.192
10170SOL     OW31408   6.270   5.109   6.365
10170SOL    HW131409   6.255   5.041   6.293
10170SOL    HW231410   6.342   5.172   6.336
10171SOL     OW31411   0.370   2.792   5.374
10171SOL    HW131412   0.436   2.834   5.311
10171SOL    HW231413   0.294   2.754   5.321
10172SOL     OW31414   0.147   6.935   4.432
10172SOL    HW131415   0.183   6.989   4.508
10172SOL    HW231416   0.094   6.994   4.372
10173SOL     OW31417   2.314   3.383   6.825
10173SOL    HW131418   2.310   3.294   6.871
10173SOL    HW231419   2.223   3.405   6.788
10174SOL     OW31420   4.417   4.690   3.757
10174SOL    HW131421   4.426   4.789   3.769
10174SOL    HW231422   4.388   4.649   3.844
10175SOL     OW31423   6.376   1.809   3.497
10175SOL    HW131424   6.473   1.830   3.507
10175SOL    HW231425   6.363   1.746   3.421
10176SOL     OW31426   5.856   4.060   5.410
10176SOL    HW131427   5.839   3.962   5.405
10176SOL    HW231428   5.900   4.091   5.325
10177SOL     OW31429   1.740   6.738   1.147
10177SOL    HW131430   1.780   6.724   1.057
10177SOL    HW231431   1.651   6.783   1.138
10178SOL     OW31432   1.661   1.340   0.793
10178SOL    HW131433   1.719   1.398   0.850
10178SOL    HW231434   1.569   1.377   0.789
10179SOL     OW31435   0.412   3.965   6.754
10179SOL    HW131436   0.361   4.051   6.756
10179SOL    HW231437   0.500   3.979   6.709
10180SOL     OW31438   4.153   0.505   0.159
10180SOL    HW131439   4.213   0.462   0.227
10180SOL    HW231440   4.198   0.586   0.121
10181SOL     OW31441   6.925   3.035   1.342
10181SOL    HW131442   6.983   2.972   1.393
10181SOL    HW231443   6.905   2.997   1.252
10182SOL     OW31444   5.037   1.082   0.017
10182SOL    HW131445   4.998   1.111   6.952
10182SOL    HW231446   5.137   1.077   0.009
10183SOL     OW31447   5.803   3.136   5.873
10183SOL    HW131448   5.704   3.142   5.859
10183SOL    HW231449   5.850   3.199   5.811
10184SOL     OW31450   5.749   3.169   6.866
10184SOL    HW131451   5.676   3.182   6.799
10184SOL    HW231452   5.831   3.135   6.819
10185SOL     OW31453   5.097   6.486   2.569
10185SOL    HW131454   5.179   6.456   2.519
10185SOL    HW231455   5.022   6.500   2.505
10186SOL     OW31456   4.926   3.769   4.870
10186SOL    HW131457   4.921   3.830   4.949
10186SOL    HW231458   4.899   3.677   4.897
10187SOL     OW31459   1.636   4.132   5.482
10187SOL    HW131460   1.712   4.079   5.445
10187SOL    HW231461   1.574   4.159   5.408
10188SOL     OW31462   3.037   5.490   6.727
10188SOL    HW131463   3.077   5.569   6.681
10188SOL    HW231464   2.946   5.471   6.688
10189SOL     OW31465   1.763   0.849   6.502
10189SOL    HW131466   1.706   0.766   6.499
10189SOL    HW231467   1.806   0.863   6.413
10190SOL     OW31468   3.740   3.195   1.163
10190SOL    HW131469   3.821   3.208   1.220
10190SOL    HW231470   3.744   3.257   1.085
10191SOL     OW31471   5.903   6.057   0.927
10191SOL    HW131472   5.962   6.085   1.002
10191SOL    HW231473   5.918   6.117   0.848
10192SOL     OW31474   3.103   1.680   4.854
10192SOL    HW131475   3.099   1.587   4.891
10192SOL    HW231476   3.174   1.685   4.784
10193SOL     OW31477   2.876   3.737   2.637
10193SOL    HW131478   2.785   3.696   2.632
10193SOL    HW231479   2.897   3.761   2.731
10194SOL     OW31480   3.967   0.256   4.650
10194SOL    HW131481   3.876   0.289   4.626
10194SOL    HW231482   3.958   0.174   4.707
10195SOL     OW31483   7.004   7.013   1.532
10195SOL    HW131484   6.909   7.017   1.566
10195SOL    HW231485   7.005   0.003   1.433
10196SOL     OW31486   5.570   1.659   3.383
10196SOL    HW131487   5.491   1.604   3.356
10196SOL    HW231488   5.649   1.599   3.398
10197SOL     OW31489   5.017   1.110   4.067
10197SOL    HW131490   4.999   1.108   3.968
10197SOL    HW231491   5.067   1.193   4.090
10198SOL     OW31492   3.490   6.994   0.997
10198SOL    HW131493   3.503   6.919   0.932
10198SOL    HW231494   3.485   0.058   0.948
10199SOL     OW31495   0.744   1.588   6.686
10199SOL    HW131496   0.769   1.654   6.757
10199SOL    HW231497   0.680   1.522   6.723
10200SOL     OW31498   4.870   3.154   5.058
10200SOL    HW131499   4.855   3.250   5.078
10200SOL    HW231500   4.804   3.098   5.109
10201SOL     OW31501   0.508   6.465   1.294
10201SOL    HW131502   0.421   6.471   1.244
10201SOL    HW231503   0.577   6.519   1.247
10202SOL     OW31504   1.656   3.452   0.398
10202SOL    HW131505   1.574   3.407   0.432
10202SOL    HW231506   1.654   3.453   0.298
10203SOL     OW31507   1.307   3.090   1.535
10203SOL    HW131508   1.293   3.133   1.624
10203SOL    HW231509   1.368   3.148   1.480
10204SOL     OW31510   3.575   4.885   6.349
10204SOL    HW131511   3.555   4.955   6.416
10204SOL    HW231512   3.586   4.797   6.395
10205SOL     OW31513   3.718   0.984   2.779
10205SOL    HW131514   3.770   1.021   2.856
10205SOL    HW231515   3.778   0.925   2.724
10206SOL     OW31516   4.828   6.515   6.350
10206SOL    HW131517   4.770   6.454   6.403
10206SOL    HW231518   4.772   6.565   6.283
10207SOL     OW31519   1.901   0.844   0.649
10207SOL    HW131520   1.965   0.778   0.610
10207SOL    HW231521   1.951   0.907   0.709
10208SOL     OW31522   6.435   4.843   4.551
10208SOL    HW131523   6.498   4.871   4.623
10208SOL    HW231524   6.346   4.820   4.592
10209SOL     OW31525   1.001   0.823   5.481
10209SOL    HW131526   0.956   0.847   5.567
10209SOL    HW231527   0.984   0.895   5.414
10210SOL     OW31528   5.111   0.168   1.566
10210SOL    HW131529   5.054   0.092   1.595
10210SOL    HW231530   5.074   0.254   1.602
10211SOL     OW31531   4.343   5.953   5.654
10211SOL    HW131532   4.245   5.948   5.671
10211SOL    HW231533   4.391   5.967   5.741
10212SOL     OW31534   0.249   1.400   4.621
10212SOL    HW131535   0.249   1.363   4.528
10212SOL    HW231536   0.168   1.367   4.669
10213SOL     OW31537   6.797   1.782   2.305
10213SOL    HW131538   6.798   1.867   2.359
10213SOL    HW231539   6.702   1.757   2.286
10214SOL     OW31540   1.122   2.135   2.309
10214SOL    HW131541   1.192   2.097   2.369
10214SOL    HW231542   1.166   2.191   2.238
10215SOL     OW31543   3.376   2.909   4.706
10215SOL    HW131544   3.431   2.871   4.780
10215SOL    HW231545   3.317   2.982   4.742
10216SOL     OW31546   0.194   0.162   0.746
10216SOL    HW131547   0.289   0.138   0.724
10216SOL    HW231548   0.193   0.228   0.821
10217SOL     OW31549   2.735   1.350   4.134
10217SOL    HW131550   2.758   1.354   4.037
10217SOL    HW231551   2.746   1.440   4.176
10218SOL     OW31552   1.449   0.772   1.546
10218SOL    HW131553   1.393   0.811   1.474
10218SOL    HW231554   1.523   0.835   1.569
10219SOL     OW31555   0.447   3.118   2.211
10219SOL    HW131556   0.508   3.115   2.131
10219SOL    HW231557   0.496   3.159   2.288
10220SOL     OW31558   4.414   1.614   2.444
10220SOL    HW131559   4.415   1.697   2.388
10220SOL    HW231560   4.320   1.579   2.449
10221SOL     OW31561   1.582   2.515   3.362
10221SOL    HW131562   1.613   2.526   3.457
10221SOL    HW231563   1.500   2.458   3.361
10222SOL     OW31564   1.562   3.237   5.921
10222SOL    HW131565   1.521   3.173   5.856
10222SOL    HW231566   1.652   3.203   5.949
10223SOL     OW31567   1.553   6.145   6.873
10223SOL    HW131568   1.649   6.171   6.865
10223SOL    HW231569   1.540   6.054   6.835
10224SOL     OW31570   7.007   1.110   4.876
10224SOL    HW131571   0.013   1.075   4.787
10224SOL    HW231572   6.979   1.205   4.868
10225SOL     OW31573   1.969   6.360   5.929
10225SOL    HW131574   1.967   6.424   5.853
10225SOL    HW231575   1.973   6.266   5.894
10226SOL     OW31576   2.700   6.837   6.895
10226SOL    HW131577   2.621   6.799   6.943
10226SOL    HW231578   2.757   6.762   6.860
10227SOL     OW31579   4.781   4.912   0.894
10227SOL    HW131580   4.749   4.890   0.986
10227SOL    HW231581   4.706   4.949   0.840
10228SOL     OW31582   1.354   5.985   2.304
10228SOL    HW131583   1.343   5.947   2.212
10228SOL    HW231584   1.339   5.914   2.372
10229SOL     OW31585   0.566   1.179   4.066
10229SOL    HW131586   0.473   1.214   4.073
10229SOL    HW231587   0.631   1.256   4.060
10230SOL     OW31588   6.370   6.829   4.185
10230SOL    HW131589   6.411   6.882   4.260
10230SOL    HW231590   6.330   6.745   4.222
10231SOL     OW31591   6.808   5.671   5.806
10231SOL    HW131592   6.857   5.747   5.763
10231SOL    HW231593   6.825   5.587   5.755
10232SOL     OW31594   2.603   1.012   3.798
10232SOL    HW131595   2.557   1.099   3.812
10232SOL    HW231596   2.567   0.944   3.862
10233SOL     OW31597   5.350   3.580   5.199
10233SOL    HW131598   5.287   3.595   5.275
10233SOL    HW231599   5.302   3.532   5.125
10234SOL     OW31600   4.973   1.238   1.116
10234SOL    HW131601   5.018   1.207   1.200
10234SOL    HW231602   4.926   1.161   1.073
10235SOL     OW31603   4.587   2.382   0.248
10235SOL    HW131604   4.538   2.335   0.321
10235SOL    HW231605   4.594   2.322   0.168
10236SOL     OW31606   2.023   6.973   2.472
10236SOL    HW131607   2.043   0.024   2.536
10236SOL    HW231608   1.925   6.967   2.457
10237SOL     OW31609   6.108   3.609   1.247
10237SOL    HW131610   6.119   3.701   1.209
10237SOL    HW231611   6.084   3.615   1.344
10238SOL     OW31612   3.423   4.173   3.917
10238SOL    HW131613   3.332   4.133   3.924
10238SOL    HW231614   3.464   4.179   4.008
10239SOL     OW31615   0.914   4.323   5.008
10239SOL    HW131616   0.923   4.262   5.087
10239SOL    HW231617   1.002   4.330   4.961
10240SOL     OW31618   1.819   4.898   3.253
10240SOL    HW131619   1.756   4.857   3.318
10240SOL    HW231620   1.844   4.990   3.284
10241SOL     OW31621   0.297   0.363   1.966
10241SOL    HW131622   0.273   0.441   2.023
10241SOL    HW231623   0.215   0.319   1.932
10242SOL     OW31624   6.503   1.316   6.693
10242SOL    HW131625   6.482   1.375   6.771
10242SOL    HW231626   6.424   1.314   6.631
10243SOL     OW31627   0.441   5.571   1.160
10243SOL    HW131628   0.534   5.596   1.130
10243SOL    HW231629   0.436   5.576   1.260
10244SOL     OW31630   1.925   4.911   0.622
10244SOL    HW131631   1.913   5.010   0.629
10244SOL    HW231632   2.023   4.890   0.623
10245SOL     OW31633   3.339   4.807   6.861
10245SOL    HW131634   3.256   4.838   6.815
10245SOL    HW231635   3.338   4.836   6.957
10246SOL     OW31636   2.970   3.693   3.969
10246SOL    HW131637   2.979   3.626   4.043
10246SOL    HW231638   3.042   3.679   3.902
10247SOL     OW31639   0.212   5.372   5.035
10247SOL    HW131640   0.277   5.429   4.985
10247SOL    HW231641   0.221   5.389   5.133
10248SOL     OW31642   3.519   6.673   2.347
10248SOL    HW131643   3.493   6.599   2.409
10248SOL    HW231644   3.444   6.692   2.284
10249SOL     OW31645   3.528   1.521   5.936
10249SOL    HW131646   3.459   1.449   5.928
10249SOL    HW231647   3.549   1.556   5.845
10250SOL     OW31648   6.622   2.039   0.888
10250SOL    HW131649   6.697   2.034   0.953
10250SOL    HW231650   6.535   2.039   0.937
10251SOL     OW31651   2.839   2.282   4.845
10251SOL    HW131652   2.765   2.271   4.911
10251SOL    HW231653   2.920   2.317   4.892
10252SOL     OW31654   6.381   5.990   0.616
10252SOL    HW131655   6.322   5.943   0.551
10252SOL    HW231656   6.329   6.063   0.662
10253SOL     OW31657   5.427   5.705   0.453
10253SOL    HW131658   5.507   5.745   0.410
10253SOL    HW231659   5.348   5.713   0.391
10254SOL     OW31660   4.086   2.003   5.465
10254SOL    HW131661   3.999   2.003   5.416
10254SOL    HW231662   4.070   2.024   5.562
10255SOL     OW31663   2.293   5.428   1.511
10255SOL    HW131664   2.297   5.373   1.427
10255SOL    HW231665   2.383   5.465   1.531
10256SOL     OW31666   5.927   0.567   1.453
10256SOL    HW131667   5.897   0.597   1.544
10256SOL    HW231668   5.999   0.499   1.463
10257SOL     OW31669   1.766   5.358   4.286
10257SOL    HW131670   1.755   5.425   4.213
10257SOL    HW231671   1.692   5.366   4.352
10258SOL     OW31672   4.709   0.293   4.146
10258SOL    HW131673   4.616   0.330   4.137
10258SOL    HW231674   4.742   0.263   4.056
10259SOL     OW31675   0.977   4.993   3.078
10259SOL    HW131676   1.032   5.062   3.030
10259SOL    HW231677   0.937   4.930   3.011
10260SOL     OW31678   0.333   0.464   2.964
10260SOL    HW131679   0.335   0.398   3.040
10260SOL    HW231680   0.386   0.545   2.990
10261SOL     OW31681   6.664   5.689   2.732
10261SOL    HW131682   6.686   5.659   2.639
10261SOL    HW231683   6.631   5.783   2.729
10262SOL     OW31684   2.394   6.595   4.270
10262SOL    HW131685   2.327   6.622   4.339
10262SOL    HW231686   2.375   6.643   4.184
10263SOL     OW31687   4.697   1.173   6.590
10263SOL    HW131688   4.797   1.168   6.590
10263SOL    HW231689   4.660   1.120   6.514
10264SOL     OW31690   5.503   2.372   6.899
10264SOL    HW131691   5.408   2.365   6.930
10264SOL    HW231692   5.518   2.307   6.824
10265SOL     OW31693   3.025   2.228   3.008
10265SOL    HW131694   2.960   2.301   3.026
10265SOL    HW231695   3.030   2.210   2.910
10266SOL     OW31696   3.431   2.836   5.563
10266SOL    HW131697   3.521   2.794   5.574
10266SOL    HW231698   3.370   2.771   5.517
10267SOL     OW31699   5.917   1.920   6.442
10267SOL    HW131700   5.898   1.976   6.523
10267SOL    HW231701   5.893   1.825   6.462
10268SOL     OW31702   4.138   5.721   2.055
10268SOL    HW131703   4.223   5.745   2.008
10268SOL    HW231704   4.095   5.643   2.009
10269SOL     OW31705   1.290   2.019   5.175
10269SOL    HW131706   1.388   2.035   5.163
10269SOL    HW231707   1.245   2.106   5.198
10270SOL     OW31708   2.314   5.433   3.151
10270SOL    HW131709   2.385   5.386   3.204
10270SOL    HW231710   2.285   5.515   3.199
10271SOL     OW31711   4.223   2.640   0.655
10271SOL    HW131712   4.173   2.726   0.641
10271SOL    HW231713   4.293   2.631   0.583
10272SOL     OW31714   0.394   0.153   4.295
10272SOL    HW131715   0.397   0.249   4.268
10272SOL    HW231716   0.387   0.146   4.394
10273SOL     OW31717   4.726   5.011   3.299
10273SOL    HW131718   4.747   5.018   3.202
10273SOL    HW231719   4.643   4.956   3.311
10274SOL     OW31720   0.814   4.052   4.838
10274SOL    HW131721   0.786   3.958   4.820
10274SOL    HW231722   0.825   4.101   4.752
10275SOL     OW31723   0.488   6.189   1.959
10275SOL    HW131724   0.435   6.263   2.001
10275SOL    HW231725   0.559   6.159   2.023
10276SOL     OW31726   5.550   5.643   5.805
10276SOL    HW131727   5.582   5.574   5.870
10276SOL    HW231728   5.574   5.734   5.839
10277SOL     OW31729   2.536   5.429   3.668
10277SOL    HW131730   2.480   5.466   3.742
10277SOL    HW231731   2.583   5.503   3.620
10278SOL     OW31732   5.677   0.934   4.386
10278SOL    HW131733   5.585   0.974   4.389
10278SOL    HW231734   5.693   0.881   4.470
10279SOL     OW31735   1.820   6.064   4.289
10279SOL    HW131736   1.768   6.149   4.283
10279SOL    HW231737   1.824   6.021   4.199
10280SOL     OW31738   1.549   3.519   1.351
10280SOL    HW131739   1.589   3.564   1.432
10280SOL    HW231740   1.550   3.582   1.274
10281SOL     OW31741   6.586   2.220   2.940
10281SOL    HW131742   6.494   2.212   2.979
10281SOL    HW231743   6.579   2.251   2.845
10282SOL     OW31744   6.157   4.427   4.378
10282SOL    HW131745   6.200   4.503   4.332
10282SOL    HW231746   6.164   4.345   4.321
10283SOL     OW31747   0.918   3.322   0.549
10283SOL    HW131748   0.934   3.320   0.450
10283SOL    HW231749   0.823   3.296   0.568
10284SOL     OW31750   5.194   3.786   5.498
10284SOL    HW131751   5.178   3.812   5.403
10284SOL    HW231752   5.155   3.855   5.559
10285SOL     OW31753   4.351   0.982   0.598
10285SOL    HW131754   4.383   0.909   0.659
10285SOL    HW231755   4.287   0.943   0.531
10286SOL     OW31756   3.057   2.182   4.112
10286SOL    HW131757   3.114   2.177   4.030
10286SOL    HW231758   3.001   2.266   4.109
10287SOL     OW31759   2.135   6.245   2.282
10287SOL    HW131760   2.226   6.238   2.240
10287SOL    HW231761   2.125   6.335   2.325
10288SOL     OW31762   4.857   6.521   2.416
10288SOL    HW131763   4.820   6.606   2.453
10288SOL    HW231764   4.863   6.528   2.316
10289SOL     OW31765   3.228   1.062   2.683
10289SOL    HW131766   3.258   1.156   2.701
10289SOL    HW231767   3.303   0.999   2.704
10290SOL     OW31768   3.590   4.117   2.078
10290SOL    HW131769   3.571   4.202   2.030
10290SOL    HW231770   3.686   4.091   2.064
10291SOL     OW31771   4.151   1.183   4.173
10291SOL    HW131772   4.134   1.150   4.266
10291SOL    HW231773   4.198   1.112   4.120
10292SOL     OW31774   1.258   0.967   4.602
10292SOL    HW131775   1.297   0.875   4.605
10292SOL    HW231776   1.199   0.975   4.522
10293SOL     OW31777   2.105   5.710   3.695
10293SOL    HW131778   2.082   5.704   3.792
10293SOL    HW231779   2.023   5.732   3.643
10294SOL     OW31780   4.818   3.889   2.587
10294SOL    HW131781   4.795   3.979   2.550
10294SOL    HW231782   4.784   3.818   2.525
10295SOL     OW31783   6.052   5.275   5.899
10295SOL    HW131784   6.065   5.337   5.977
10295SOL    HW231785   5.965   5.296   5.854
10296SOL     OW31786   5.085   3.056   6.521
10296SOL    HW131787   4.998   3.091   6.487
10296SOL    HW231788   5.101   3.091   6.614
10297SOL     OW31789   1.852   6.656   5.000
10297SOL    HW131790   1.786   6.586   4.972
10297SOL    HW231791   1.807   6.723   5.059
10298SOL     OW31792   3.974   5.115   2.235
10298SOL    HW131793   3.885   5.106   2.280
10298SOL    HW231794   4.022   5.028   2.239
10299SOL     OW31795   4.807   4.542   2.870
10299SOL    HW131796   4.710   4.524   2.858
10299SOL    HW231797   4.857   4.511   2.790
10300SOL     OW31798   1.980   4.546   2.889
10300SOL    HW131799   1.952   4.595   2.972
10300SOL    HW231800   1.984   4.610   2.812
10301SOL     OW31801   6.234   2.516   3.107
10301SOL    HW131802   6.155   2.569   3.078
10301SOL    HW231803   6.210   2.460   3.187
10302SOL     OW31804   0.249   6.248   4.162
10302SOL    HW131805   0.184   6.276   4.091
10302SOL    HW231806   0.297   6.165   4.131
10303SOL     OW31807   2.829   5.312   1.351
10303SOL    HW131808   2.788   5.317   1.442
10303SOL    HW231809   2.787   5.382   1.292
10304SOL     OW31810   5.476   0.862   2.912
10304SOL    HW131811   5.548   0.803   2.949
10304SOL    HW231812   5.387   0.819   2.926
10305SOL     OW31813   0.464   5.334   7.013
10305SOL    HW131814   0.515   5.420   7.010
10305SOL    HW231815   0.528   5.257   0.002
10306SOL     OW31816   4.856   6.558   6.894
10306SOL    HW131817   4.870   6.644   6.944
10306SOL    HW231818   4.801   6.496   6.950
10307SOL     OW31819   1.900   2.133   4.204
10307SOL    HW131820   1.929   2.106   4.295
10307SOL    HW231821   1.930   2.227   4.186
10308SOL     OW31822   2.490   5.057   3.917
10308SOL    HW131823   2.515   5.024   4.008
10308SOL    HW231824   2.394   5.086   3.917
10309SOL     OW31825   6.578   0.201   3.789
10309SOL    HW131826   6.545   0.275   3.846
10309SOL    HW231827   6.607   0.124   3.846
10310SOL     OW31828   4.061   2.488   1.675
10310SOL    HW131829   4.028   2.414   1.616
10310SOL    HW231830   4.134   2.538   1.629
10311SOL     OW31831   0.553   5.942   1.331
10311SOL    HW131832   0.509   6.008   1.392
10311SOL    HW231833   0.487   5.872   1.304
10312SOL     OW31834   2.784   5.790   1.113
10312SOL    HW131835   2.875   5.787   1.154
10312SOL    HW231836   2.783   5.733   1.031
10313SOL     OW31837   3.547   0.436   1.649
10313SOL    HW131838   3.501   0.357   1.609
10313SOL    HW231839   3.646   0.426   1.639
10314SOL     OW31840   6.508   0.688   1.692
10314SOL    HW131841   6.409   0.693   1.687
10314SOL    HW231842   6.536   0.592   1.692
10315SOL     OW31843   5.959   5.415   4.879
10315SOL    HW131844   5.959   5.341   4.812
10315SOL    HW231845   5.978   5.379   4.970
10316SOL     OW31846   6.125   2.905   4.907
10316SOL    HW131847   6.186   2.892   4.829
10316SOL    HW231848   6.030   2.896   4.877
10317SOL     OW31849   3.303   5.005   6.245
10317SOL    HW131850   3.398   5.030   6.263
10317SOL    HW231851   3.284   5.017   6.147
10318SOL     OW31852   5.276   5.774   0.234
10318SOL    HW131853   5.367   5.769   0.195
10318SOL    HW231854   5.243   5.869   0.231
10319SOL     OW31855   1.172   3.038   5.697
10319SOL    HW131856   1.080   3.071   5.675
10319SOL    HW231857   1.239   3.109   5.674
10320SOL     OW31858   0.878   0.738   1.291
10320SOL    HW131859   0.961   0.713   1.342
10320SOL    HW231860   0.895   0.824   1.242
10321SOL     OW31861   4.059   0.380   4.410
10321SOL    HW131862   4.049   0.365   4.509
10321SOL    HW231863   4.043   0.294   4.362
10322SOL     OW31864   6.116   5.650   0.050
10322SOL    HW131865   6.080   5.570   0.002
10322SOL    HW231866   6.087   5.733   0.003
10323SOL     OW31867   6.400   3.745   6.112
10323SOL    HW131868   6.486   3.715   6.071
10323SOL    HW231869   6.349   3.800   6.046
10324SOL     OW31870   3.283   2.955   3.181
10324SOL    HW131871   3.289   2.951   3.280
10324SOL    HW231872   3.203   3.011   3.155
10325SOL     OW31873   6.700   4.623   3.071
10325SOL    HW131874   6.638   4.700   3.052
10325SOL    HW231875   6.729   4.627   3.166
10326SOL     OW31876   4.462   2.950   6.868
10326SOL    HW131877   4.395   2.904   6.926
10326SOL    HW231878   4.469   2.903   6.781
10327SOL     OW31879   2.679   1.624   2.416
10327SOL    HW131880   2.744   1.578   2.477
10327SOL    HW231881   2.652   1.711   2.456
10328SOL     OW31882   6.421   3.165   1.553
10328SOL    HW131883   6.498   3.207   1.506
10328SOL    HW231884   6.407   3.210   1.641
10329SOL     OW31885   3.624   0.148   4.404
10329SOL    HW131886   3.618   0.119   4.499
10329SOL    HW231887   3.664   0.239   4.399
10330SOL     OW31888   3.443   5.800   2.671
10330SOL    HW131889   3.404   5.772   2.759
10330SOL    HW231890   3.489   5.888   2.681
10331SOL     OW31891   6.345   0.323   3.170
10331SOL    HW131892   6.356   0.384   3.248
10331SOL    HW231893   6.280   0.361   3.105
10332SOL     OW31894   6.057   1.330   0.631
10332SOL    HW131895   5.993   1.381   0.688
10332SOL    HW231896   6.147   1.374   0.634
10333SOL     OW31897   6.503   4.332   4.709
10333SOL    HW131898   6.580   4.272   4.686
10333SOL    HW231899   6.536   4.426   4.721
10334SOL     OW31900   2.323   5.848   3.614
10334SOL    HW131901   2.237   5.830   3.662
10334SOL    HW231902   2.319   5.938   3.571
10335SOL     OW31903   2.362   4.154   7.021
10335SOL    HW131904   2.337   4.197   0.086
10335SOL    HW231905   2.358   4.055   0.009
10336SOL     OW31906   5.451   0.007   3.050
10336SOL    HW131907   5.384   6.957   3.060
10336SOL    HW231908   5.476   0.017   2.954
10337SOL     OW31909   6.471   6.640   5.316
10337SOL    HW131910   6.386   6.603   5.279
10337SOL    HW231911   6.549   6.592   5.276
10338SOL     OW31912   3.139   6.719   1.490
10338SOL    HW131913   3.047   6.687   1.515
10338SOL    HW231914   3.203   6.642   1.498
10339SOL     OW31915   3.703   4.520   0.677
10339SOL    HW131916   3.640   4.559   0.744
10339SOL    HW231917   3.729   4.590   0.611
10340SOL     OW31918   1.410   5.351   0.147
10340SOL    HW131919   1.326   5.402   0.134
10340SOL    HW231920   1.389   5.253   0.154
10341SOL     OW31921   2.426   3.204   1.695
10341SOL    HW131922   2.418   3.280   1.760
10341SOL    HW231923   2.522   3.196   1.666
10342SOL     OW31924   2.524   5.870   5.388
10342SOL    HW131925   2.552   5.938   5.321
10342SOL    HW231926   2.565   5.891   5.477
10343SOL     OW31927   2.505   4.024   0.374
10343SOL    HW131928   2.548   3.990   0.290
10343SOL    HW231929   2.434   3.959   0.403
10344SOL     OW31930   3.846   3.780   3.009
10344SOL    HW131931   3.810   3.687   2.999
10344SOL    HW231932   3.801   3.825   3.086
10345SOL     OW31933   1.768   0.137   6.284
10345SOL    HW131934   1.669   0.123   6.275
10345SOL    HW231935   1.789   0.234   6.275
10346SOL     OW31936   6.226   0.692   1.346
10346SOL    HW131937   6.146   0.743   1.314
10346SOL    HW231938   6.298   0.696   1.277
10347SOL     OW31939   4.771   2.541   1.815
10347SOL    HW131940   4.718   2.539   1.731
10347SOL    HW231941   4.775   2.635   1.850
10348SOL     OW31942   6.869   1.250   6.402
10348SOL    HW131943   6.863   1.309   6.322
10348SOL    HW231944   6.838   1.158   6.379
10349SOL     OW31945   6.780   1.393   0.715
10349SOL    HW131946   6.798   1.466   0.649
10349SOL    HW231947   6.825   1.414   0.801
10350SOL     OW31948   3.212   5.978   4.859
10350SOL    HW131949   3.287   6.038   4.832
10350SOL    HW231950   3.129   6.032   4.873
10351SOL     OW31951   6.413   4.930   6.071
10351SOL    HW131952   6.353   4.852   6.052
10351SOL    HW231953   6.363   5.015   6.057
10352SOL     OW31954   5.272   2.347   6.379
10352SOL    HW131955   5.176   2.372   6.397
10352SOL    HW231956   5.304   2.395   6.297
10353SOL     OW31957   6.412   3.734   4.174
10353SOL    HW131958   6.506   3.759   4.151
10353SOL    HW231959   6.365   3.813   4.214
10354SOL     OW31960   0.843   3.039   1.138
10354SOL    HW131961   0.879   3.132   1.145
10354SOL    HW231962   0.763   3.029   1.197
10355SOL     OW31963   0.987   0.768   0.807
10355SOL    HW131964   1.049   0.690   0.817
10355SOL    HW231965   1.015   0.823   0.728
10356SOL     OW31966   6.873   3.528   5.856
10356SOL    HW131967   6.909   3.561   5.769
10356SOL    HW231968   6.854   3.430   5.849
10357SOL     OW31969   3.656   2.437   5.614
10357SOL    HW131970   3.595   2.369   5.654
10357SOL    HW231971   3.750   2.422   5.646
10358SOL     OW31972   0.986   3.110   3.878
10358SOL    HW131973   1.014   3.206   3.879
10358SOL    HW231974   0.952   3.086   3.787
10359SOL     OW31975   5.244   2.013   2.200
10359SOL    HW131976   5.210   2.090   2.145
10359SOL    HW231977   5.214   2.024   2.295
10360SOL     OW31978   5.495   5.977   2.690
10360SOL    HW131979   5.532   5.991   2.781
10360SOL    HW231980   5.493   5.879   2.669
10361SOL     OW31981   2.739   0.869   2.822
10361SOL    HW131982   2.741   0.769   2.829
10361SOL    HW231983   2.776   0.897   2.734
10362SOL     OW31984   0.517   5.241   2.885
10362SOL    HW131985   0.491   5.336   2.869
10362SOL    HW231986   0.463   5.203   2.960
10363SOL     OW31987   4.682   2.466   1.038
10363SOL    HW131988   4.667   2.563   1.056
10363SOL    HW231989   4.758   2.457   0.973
10364SOL     OW31990   4.747   4.557   1.955
10364SOL    HW131991   4.690   4.475   1.964
10364SOL    HW231992   4.693   4.632   1.917
10365SOL     OW31993   5.937   4.704   0.133
10365SOL    HW131994   6.008   4.700   0.062
10365SOL    HW231995   5.959   4.777   0.198
10366SOL     OW31996   3.555   6.737   3.506
10366SOL    HW131997   3.479   6.680   3.539
10366SOL    HW231998   3.636   6.717   3.561
10367SOL     OW31999   0.022   1.839   2.205
10367SOL    HW132000   0.078   1.842   2.289
10367SOL    HW232001   6.950   1.817   2.229
10368SOL     OW32002   1.922   0.901   2.603
10368SOL    HW132003   1.890   0.983   2.556
10368SOL    HW232004   1.900   0.908   2.700
10369SOL     OW32005   2.659   6.298   6.082
10369SOL    HW132006   2.603   6.218   6.104
10369SOL    HW232007   2.609   6.357   6.020
10370SOL     OW32008   6.153   1.532   5.154
10370SOL    HW132009   6.128   1.483   5.237
10370SOL    HW232010   6.241   1.577   5.167
10371SOL     OW32011   2.053   6.594   4.084
10371SOL    HW132012   1.983   6.643   4.032
10371SOL    HW232013   2.143   6.614   4.046
10372SOL     OW32014   2.971   1.135   0.944
10372SOL    HW132015   2.995   1.055   0.889
10372SOL    HW232016   3.006   1.123   1.037
10373SOL     OW32017   0.457   6.765   4.974
10373SOL    HW132018   0.453   6.770   4.875
10373SOL    HW232019   0.459   6.857   5.013
10374SOL     OW32020   3.218   0.457   3.680
10374SOL    HW132021   3.253   0.378   3.730
10374SOL    HW232022   3.172   0.519   3.744
10375SOL     OW32023   2.771   2.015   6.022
10375SOL    HW132024   2.673   2.013   6.004
10375SOL    HW232025   2.815   1.938   5.974
10376SOL     OW32026   0.954   6.131   4.159
10376SOL    HW132027   0.902   6.097   4.081
10376SOL    HW232028   0.922   6.223   4.183
10377SOL     OW32029   0.272   1.296   1.548
10377SOL    HW132030   0.176   1.279   1.571
10377SOL    HW232031   0.308   1.368   1.608
10378SOL     OW32032   5.989   5.971   5.843
10378SOL    HW132033   5.974   6.056   5.894
10378SOL    HW232034   6.060   5.985   5.775
10379SOL     OW32035   3.058   5.452   4.126
10379SOL    HW132036   2.996   5.424   4.200
10379SOL    HW232037   3.047   5.389   4.049
10380SOL     OW32038   0.720   2.479   5.209
10380SOL    HW132039   0.662   2.539   5.153
10380SOL    HW232040   0.815   2.512   5.205
10381SOL     OW32041   4.396   4.115   1.250
10381SOL    HW132042   4.358   4.023   1.264
10381SOL    HW232043   4.470   4.111   1.182
10382SOL     OW32044   3.244   5.840   1.807
10382SOL    HW132045   3.160   5.834   1.861
10382SOL    HW232046   3.265   5.936   1.791
10383SOL     OW32047   1.205   3.981   0.288
10383SOL    HW132048   1.167   3.930   0.365
10383SOL    HW232049   1.197   4.079   0.306
10384SOL     OW32050   6.871   6.758   0.389
10384SOL    HW132051   6.863   6.740   0.291
10384SOL    HW232052   6.839   6.850   0.409
10385SOL     OW32053   4.405   6.144   6.878
10385SOL    HW132054   4.348   6.190   6.946
10385SOL    HW232055   4.370   6.164   6.786
10386SOL     OW32056   0.454   0.724   5.685
10386SOL    HW132057   0.466   0.638   5.635
10386SOL    HW232058   0.471   0.708   5.783
10387SOL     OW32059   5.229   2.845   2.633
10387SOL    HW132060   5.313   2.834   2.685
10387SOL    HW232061   5.203   2.941   2.632
10388SOL     OW32062   0.950   6.450   1.498
10388SOL    HW132063   0.971   6.359   1.463
10388SOL    HW232064   1.034   6.494   1.530
10389SOL     OW32065   5.823   3.750   1.227
10389SOL    HW132066   5.798   3.845   1.248
10389SOL    HW232067   5.868   3.746   1.138
10390SOL     OW32068   2.076   2.965   0.147
10390SOL    HW132069   2.019   2.928   0.220
10390SOL    HW232070   2.131   2.891   0.108
10391SOL     OW32071   0.354   6.038   4.715
10391SOL    HW132072   0.401   6.112   4.763
10391SOL    HW232073   0.317   5.973   4.781
10392SOL     OW32074   5.803   5.148   5.528
10392SOL    HW132075   5.813   5.232   5.475
10392SOL    HW232076   5.865   5.078   5.492
10393SOL     OW32077   2.142   2.930   3.455
10393SOL    HW132078   2.174   2.980   3.375
10393SOL    HW232079   2.203   2.852   3.471
10394SOL     OW32080   2.666   5.441   5.047
10394SOL    HW132081   2.641   5.523   5.098
10394SOL    HW232082   2.639   5.360   5.099
10395SOL     OW32083   0.533   0.584   1.490
10395SOL    HW132084   0.593   0.512   1.525
10395SOL    HW232085   0.508   0.564   1.396
10396SOL     OW32086   3.440   1.937   3.946
10396SOL    HW132087   3.467   1.872   3.875
10396SOL    HW232088   3.459   1.898   4.036
10397SOL     OW32089   3.463   1.197   4.367
10397SOL    HW132090   3.422   1.110   4.395
10397SOL    HW232091   3.427   1.224   4.278
10398SOL     OW32092   5.825   2.553   0.367
10398SOL    HW132093   5.847   2.456   0.380
10398SOL    HW232094   5.901   2.598   0.320
10399SOL     OW32095   4.907   2.175   3.138
10399SOL    HW132096   4.834   2.157   3.204
10399SOL    HW232097   4.876   2.244   3.072
10400SOL     OW32098   4.603   5.744   6.973
10400SOL    HW132099   4.617   5.673   0.019
10400SOL    HW232100   4.690   5.787   6.950
10401SOL     OW32101   6.949   6.509   2.602
10401SOL    HW132102   6.968   6.574   2.675
10401SOL    HW232103   6.978   6.548   2.514
10402SOL     OW32104   6.797   1.506   5.324
10402SOL    HW132105   6.731   1.541   5.258
10402SOL    HW232106   6.863   1.578   5.346
10403SOL     OW32107   4.700   2.797   2.976
10403SOL    HW132108   4.682   2.859   2.899
10403SOL    HW232109   4.724   2.851   3.057
10404SOL     OW32110   5.768   6.620   4.450
10404SOL    HW132111   5.721   6.539   4.488
10404SOL    HW232112   5.721   6.649   4.367
10405SOL     OW32113   1.530   6.661   4.475
10405SOL    HW132114   1.460   6.603   4.516
10405SOL    HW232115   1.605   6.674   4.540
10406SOL     OW32116   1.989   3.367   3.610
10406SOL    HW132117   2.006   3.413   3.523
10406SOL    HW232118   2.042   3.282   3.614
10407SOL     OW32119   2.749   6.796   6.511
10407SOL    HW132120   2.803   6.860   6.566
10407SOL    HW232121   2.719   6.720   6.568
10408SOL     OW32122   4.533   0.177   1.230
10408SOL    HW132123   4.570   0.103   1.286
10408SOL    HW232124   4.479   0.239   1.286
10409SOL     OW32125   6.931   5.106   1.352
10409SOL    HW132126   6.905   5.060   1.267
10409SOL    HW232127   6.849   5.128   1.405
10410SOL     OW32128   4.672   1.814   2.009
10410SOL    HW132129   4.771   1.829   2.004
10410SOL    HW232130   4.655   1.719   2.037
10411SOL     OW32131   2.829   6.758   3.758
10411SOL    HW132132   2.839   6.698   3.678
10411SOL    HW232133   2.903   6.824   3.759
10412SOL     OW32134   0.148   1.516   0.144
10412SOL    HW132135   0.104   1.428   0.126
10412SOL    HW232136   0.106   1.558   0.224
10413SOL     OW32137   0.075   2.757   0.504
10413SOL    HW132138   0.146   2.737   0.571
10413SOL    HW232139   0.104   2.831   0.445
10414SOL     OW32140   4.425   5.463   5.814
10414SOL    HW132141   4.340   5.415   5.837
10414SOL    HW232142   4.492   5.397   5.779
10415SOL     OW32143   1.329   4.005   5.368
10415SOL    HW132144   1.341   4.103   5.356
10415SOL    HW232145   1.406   3.956   5.328
10416SOL     OW32146   5.663   0.340   5.299
10416SOL    HW132147   5.710   0.252   5.311
10416SOL    HW232148   5.565   0.323   5.286
10417SOL     OW32149   3.069   4.831   3.936
10417SOL    HW132150   3.102   4.828   3.842
10417SOL    HW232151   3.147   4.848   3.998
10418SOL     OW32152   6.325   4.007   6.252
10418SOL    HW132153   6.358   3.913   6.240
10418SOL    HW232154   6.225   4.007   6.254
10419SOL     OW32155   3.098   6.725   6.132
10419SOL    HW132156   3.154   6.644   6.147
10419SOL    HW232157   3.008   6.712   6.172
10420SOL     OW32158   0.225   3.729   4.176
10420SOL    HW132159   0.211   3.658   4.246
10420SOL    HW232160   0.304   3.785   4.200
10421SOL     OW32161   0.951   2.556   3.959
10421SOL    HW132162   1.033   2.603   3.992
10421SOL    HW232163   0.883   2.551   4.032
10422SOL     OW32164   5.801   3.473   5.327
10422SOL    HW132165   5.707   3.438   5.327
10422SOL    HW232166   5.862   3.405   5.366
10423SOL     OW32167   5.253   5.070   5.668
10423SOL    HW132168   5.255   4.993   5.604
10423SOL    HW232169   5.283   5.038   5.758
10424SOL     OW32170   4.380   2.933   0.503
10424SOL    HW132171   4.410   2.983   0.421
10424SOL    HW232172   4.446   2.946   0.576
10425SOL     OW32173   1.116   6.398   1.795
10425SOL    HW132174   1.060   6.476   1.767
10425SOL    HW232175   1.133   6.403   1.893
10426SOL     OW32176   5.267   5.145   0.474
10426SOL    HW132177   5.234   5.115   0.563
10426SOL    HW232178   5.270   5.067   0.411
10427SOL     OW32179   3.785   0.847   6.556
10427SOL    HW132180   3.790   0.913   6.631
10427SOL    HW232181   3.704   0.790   6.567
10428SOL     OW32182   3.818   0.736   3.828
10428SOL    HW132183   3.749   0.666   3.811
10428SOL    HW232184   3.823   0.755   3.926
10429SOL     OW32185   6.878   4.404   1.261
10429SOL    HW132186   6.795   4.445   1.298
10429SOL    HW232187   6.955   4.422   1.323
10430SOL     OW32188   5.113   0.349   4.894
10430SOL    HW132189   5.087   0.414   4.965
10430SOL    HW232190   5.177   0.282   4.932
10431SOL     OW32191   2.609   5.796   4.210
10431SOL    HW132192   2.581   5.743   4.290
10431SOL    HW232193   2.691   5.849   4.232
10432SOL     OW32194   5.286   0.010   4.347
10432SOL    HW132195   5.356   0.000   4.418
10432SOL    HW232196   5.199   0.035   4.389
10433SOL     OW32197   0.990   6.057   1.987
10433SOL    HW132198   1.057   6.121   1.950
10433SOL    HW232199   0.991   5.973   1.933
10434SOL     OW32200   3.895   6.397   3.102
10434SOL    HW132201   3.994   6.397   3.086
10434SOL    HW232202   3.869   6.315   3.151
10435SOL     OW32203   0.557   0.913   5.321
10435SOL    HW132204   0.547   0.924   5.420
10435SOL    HW232205   0.476   0.951   5.275
10436SOL     OW32206   6.883   4.716   5.796
10436SOL    HW132207   6.960   4.694   5.855
10436SOL    HW232208   6.839   4.632   5.765
10437SOL     OW32209   4.992   3.927   6.114
10437SOL    HW132210   4.903   3.904   6.073
10437SOL    HW232211   5.054   3.849   6.104
10438SOL     OW32212   6.239   6.491   0.004
10438SOL    HW132213   6.281   6.577   0.033
10438SOL    HW232214   6.144   6.488   0.036
10439SOL     OW32215   3.619   0.977   4.947
10439SOL    HW132216   3.542   0.953   5.006
10439SOL    HW232217   3.589   1.042   4.878
10440SOL     OW32218   1.482   6.576   0.641
10440SOL    HW132219   1.536   6.520   0.578
10440SOL    HW232220   1.417   6.632   0.588
10441SOL     OW32221   3.938   1.211   1.287
10441SOL    HW132222   3.874   1.207   1.364
10441SOL    HW232223   4.023   1.255   1.317
10442SOL     OW32224   4.196   6.017   6.622
10442SOL    HW132225   4.284   5.970   6.632
10442SOL    HW232226   4.121   5.951   6.626
10443SOL     OW32227   4.928   3.718   4.010
10443SOL    HW132228   4.940   3.623   4.041
10443SOL    HW232229   4.899   3.775   4.087
10444SOL     OW32230   4.507   5.451   3.941
10444SOL    HW132231   4.505   5.383   3.868
10444SOL    HW232232   4.475   5.539   3.906
10445SOL     OW32233   0.765   4.387   4.639
10445SOL    HW132234   0.693   4.322   4.663
10445SOL    HW232235   0.779   4.385   4.540
10446SOL     OW32236   1.332   3.163   5.430
10446SOL    HW132237   1.306   3.242   5.487
10446SOL    HW232238   1.366   3.196   5.342
10447SOL     OW32239   0.529   1.210   1.905
10447SOL    HW132240   0.585   1.186   1.826
10447SOL    HW232241   0.532   1.309   1.919
10448SOL     OW32242   4.779   0.835   2.363
10448SOL    HW132243   4.692   0.799   2.398
10448SOL    HW232244   4.788   0.815   2.266
10449SOL     OW32245   2.451   5.185   4.898
10449SOL    HW132246   2.386   5.257   4.924
10449SOL    HW232247   2.484   5.202   4.805
10450SOL     OW32248   0.784   1.529   0.447
10450SOL    HW132249   0.869   1.497   0.405
10450SOL    HW232250   0.801   1.614   0.497
10451SOL     OW32251   1.543   5.432   2.327
10451SOL    HW132252   1.593   5.427   2.414
10451SOL    HW232253   1.602   5.470   2.256
10452SOL     OW32254   6.384   2.809   2.011
10452SOL    HW132255   6.307   2.873   2.015
10452SOL    HW232256   6.451   2.842   1.946
10453SOL     OW32257   3.744   6.634   1.205
10453SOL    HW132258   3.682   6.556   1.207
10453SOL    HW232259   3.765   6.658   1.110
10454SOL     OW32260   4.302   3.502   0.328
10454SOL    HW132261   4.323   3.509   0.230
10454SOL    HW232262   4.203   3.514   0.341
10455SOL     OW32263   6.403   6.438   3.188
10455SOL    HW132264   6.316   6.407   3.226
10455SOL    HW232265   6.465   6.360   3.178
10456SOL     OW32266   2.692   6.498   0.886
10456SOL    HW132267   2.642   6.534   0.807
10456SOL    HW232268   2.677   6.399   0.892
10457SOL     OW32269   3.268   3.536   2.088
10457SOL    HW132270   3.259   3.530   1.988
10457SOL    HW232271   3.195   3.594   2.125
10458SOL     OW32272   6.712   1.474   6.462
10458SOL    HW132273   6.755   1.406   6.521
10458SOL    HW232274   6.640   1.521   6.514
10459SOL     OW32275   5.214   5.950   1.697
10459SOL    HW132276   5.209   5.879   1.628
10459SOL    HW232277   5.129   6.003   1.697
10460SOL     OW32278   0.691   4.466   2.158
10460SOL    HW132279   0.698   4.552   2.209
10460SOL    HW232280   0.597   4.432   2.161
10461SOL     OW32281   0.229   5.354   6.051
10461SOL    HW132282   0.214   5.448   6.021
10461SOL    HW232283   0.144   5.302   6.038
10462SOL     OW32284   5.809   1.529   3.400
10462SOL    HW132285   5.797   1.516   3.302
10462SOL    HW232286   5.892   1.583   3.417
10463SOL     OW32287   3.947   2.773   5.553
10463SOL    HW132288   3.954   2.854   5.495
10463SOL    HW232289   4.039   2.742   5.578
10464SOL     OW32290   6.636   0.254   0.970
10464SOL    HW132291   6.601   0.170   1.010
10464SOL    HW232292   6.716   0.233   0.913
10465SOL     OW32293   6.338   5.455   1.249
10465SOL    HW132294   6.371   5.428   1.158
10465SOL    HW232295   6.301   5.374   1.296
10466SOL     OW32296   4.359   4.836   6.542
10466SOL    HW132297   4.432   4.876   6.599
10466SOL    HW232298   4.318   4.759   6.591
10467SOL     OW32299   2.414   1.590   6.197
10467SOL    HW132300   2.321   1.602   6.233
10467SOL    HW232301   2.478   1.580   6.272
10468SOL     OW32302   3.826   5.129   2.995
10468SOL    HW132303   3.839   5.119   3.094
10468SOL    HW232304   3.915   5.136   2.950
10469SOL     OW32305   3.916   4.321   5.762
10469SOL    HW132306   3.947   4.337   5.668
10469SOL    HW232307   3.825   4.279   5.760
10470SOL     OW32308   2.386   2.431   3.421
10470SOL    HW132309   2.321   2.355   3.430
10470SOL    HW232310   2.460   2.418   3.488
10471SOL     OW32311   2.802   2.315   1.137
10471SOL    HW132312   2.784   2.402   1.183
10471SOL    HW232313   2.877   2.327   1.072
10472SOL     OW32314   4.319   5.320   0.502
10472SOL    HW132315   4.284   5.231   0.473
10472SOL    HW232316   4.267   5.393   0.458
10473SOL     OW32317   6.943   0.445   6.435
10473SOL    HW132318   0.001   0.500   6.457
10473SOL    HW232319   6.969   0.349   6.431
10474SOL     OW32320   4.418   2.076   4.545
10474SOL    HW132321   4.400   2.166   4.586
10474SOL    HW232322   4.413   2.006   4.616
10475SOL     OW32323   4.586   6.933   2.198
10475SOL    HW132324   4.643   7.012   2.175
10475SOL    HW232325   4.496   6.944   2.155
10476SOL     OW32326   6.925   6.387   0.008
10476SOL    HW132327   6.961   6.387   6.937
10476SOL    HW232328   6.919   6.292   0.040
10477SOL     OW32329   6.632   1.745   4.173
10477SOL    HW132330   6.646   1.833   4.129
10477SOL    HW232331   6.665   1.672   4.113
10478SOL     OW32332   0.327   0.544   1.284
10478SOL    HW132333   0.283   0.455   1.293
10478SOL    HW232334   0.259   0.617   1.292
10479SOL     OW32335   0.599   2.733   1.430
10479SOL    HW132336   0.686   2.739   1.478
10479SOL    HW232337   0.533   2.797   1.472
10480SOL     OW32338   6.730   0.165   1.875
10480SOL    HW132339   6.707   0.137   1.782
10480SOL    HW232340   6.829   0.181   1.882
10481SOL     OW32341   2.634   0.005   4.474
10481SOL    HW132342   2.684   0.076   4.524
10481SOL    HW232343   2.699   6.959   4.442
10482SOL     OW32344   6.499   5.528   5.015
10482SOL    HW132345   6.593   5.539   4.984
10482SOL    HW232346   6.495   5.456   5.085
10483SOL     OW32347   6.713   5.520   0.062
10483SOL    HW132348   6.810   5.528   0.086
10483SOL    HW232349   6.667   5.461   0.129
10484SOL     OW32350   6.060   1.344   1.615
10484SOL    HW132351   6.004   1.285   1.672
10484SOL    HW232352   6.106   1.289   1.545
10485SOL     OW32353   3.334   4.031   1.867
10485SOL    HW132354   3.371   3.944   1.901
10485SOL    HW232355   3.238   4.018   1.841
10486SOL     OW32356   6.812   0.569   6.229
10486SOL    HW132357   6.831   0.666   6.239
10486SOL    HW232358   6.870   0.517   6.292
10487SOL     OW32359   4.775   1.848   2.329
10487SOL    HW132360   4.803   1.889   2.416
10487SOL    HW232361   4.834   1.881   2.256
10488SOL     OW32362   2.466   1.633   5.339
10488SOL    HW132363   2.380   1.583   5.330
10488SOL    HW232364   2.523   1.618   5.259
10489SOL     OW32365   6.183   0.188   4.463
10489SOL    HW132366   6.253   0.150   4.524
10489SOL    HW232367   6.227   0.234   4.386
10490SOL     OW32368   6.292   1.609   0.848
10490SOL    HW132369   6.304   1.670   0.926
10490SOL    HW232370   6.218   1.644   0.790
10491SOL     OW32371   2.602   2.192   5.296
10491SOL    HW132372   2.643   2.115   5.247
10491SOL    HW232373   2.503   2.194   5.279
10492SOL     OW32374   5.058   5.946   1.034
10492SOL    HW132375   5.120   5.962   0.957
10492SOL    HW232376   5.103   5.888   1.102
10493SOL     OW32377   3.007   6.391   2.230
10493SOL    HW132378   3.004   6.295   2.201
10493SOL    HW232379   2.950   6.446   2.168
10494SOL     OW32380   5.502   4.460   6.319
10494SOL    HW132381   5.596   4.431   6.338
10494SOL    HW232382   5.499   4.559   6.309
10495SOL     OW32383   0.939   6.883   0.999
10495SOL    HW132384   1.020   6.901   0.943
10495SOL    HW232385   0.946   6.934   1.084
10496SOL     OW32386   6.005   4.057   6.362
10496SOL    HW132387   6.052   4.131   6.313
10496SOL    HW232388   5.984   4.087   6.455
10497SOL     OW32389   1.757   6.833   2.267
10497SOL    HW132390   1.766   6.922   2.223
10497SOL    HW232391   1.684   6.835   2.334
10498SOL     OW32392   5.359   5.363   0.604
10498SOL    HW132393   5.345   5.284   0.544
10498SOL    HW232394   5.283   5.369   0.669
10499SOL     OW32395   4.980   0.382   2.036
10499SOL    HW132396   4.994   0.287   2.065
10499SOL    HW232397   5.046   0.440   2.083
10500SOL     OW32398   5.867   1.203   5.494
10500SOL    HW132399   5.881   1.142   5.416
10500SOL    HW232400   5.914   1.290   5.477
10501SOL     OW32401   2.313   5.173   1.862
10501SOL    HW132402   2.255   5.182   1.781
10501SOL    HW232403   2.287   5.090   1.912
10502SOL     OW32404   2.899   2.786   1.104
10502SOL    HW132405   2.903   2.738   1.017
10502SOL    HW232406   2.829   2.857   1.099
10503SOL     OW32407   4.976   3.268   0.937
10503SOL    HW132408   4.903   3.300   0.998
10503SOL    HW232409   4.939   3.203   0.872
10504SOL     OW32410   0.479   3.150   5.201
10504SOL    HW132411   0.399   3.163   5.261
10504SOL    HW232412   0.469   3.208   5.121
10505SOL     OW32413   5.829   5.240   1.223
10505SOL    HW132414   5.837   5.164   1.159
10505SOL    HW232415   5.896   5.230   1.297
10506SOL     OW32416   0.697   3.564   0.022
10506SOL    HW132417   0.610   3.584   0.067
10506SOL    HW232418   0.705   3.465   0.007
10507SOL     OW32419   2.245   5.722   1.120
10507SOL    HW132420   2.282   5.754   1.207
10507SOL    HW232421   2.208   5.800   1.069
10508SOL     OW32422   7.017   5.366   4.795
10508SOL    HW132423   0.074   5.305   4.785
10508SOL    HW232424   6.986   5.363   4.890
10509SOL     OW32425   6.691   5.248   5.355
10509SOL    HW132426   6.646   5.333   5.384
10509SOL    HW232427   6.623   5.174   5.354
10510SOL     OW32428   4.497   6.648   0.493
10510SOL    HW132429   4.533   6.698   0.414
10510SOL    HW232430   4.490   6.710   0.571
10511SOL     OW32431   3.060   1.339   2.109
10511SOL    HW132432   3.060   1.397   2.028
10511SOL    HW232433   3.152   1.304   2.126
10512SOL     OW32434   3.644   0.767   5.897
10512SOL    HW132435   3.620   0.814   5.982
10512SOL    HW232436   3.708   0.823   5.845
10513SOL     OW32437   6.719   3.564   3.617
10513SOL    HW132438   6.807   3.556   3.570
10513SOL    HW232439   6.678   3.473   3.627
10514SOL     OW32440   0.616   3.084   1.318
10514SOL    HW132441   0.524   3.122   1.306
10514SOL    HW232442   0.615   3.021   1.396
10515SOL     OW32443   1.722   3.657   4.652
10515SOL    HW132444   1.702   3.628   4.746
10515SOL    HW232445   1.690   3.750   4.638
10516SOL     OW32446   2.987   1.744   0.626
10516SOL    HW132447   3.037   1.733   0.540
10516SOL    HW232448   3.020   1.826   0.673
10517SOL     OW32449   0.957   3.298   1.132
10517SOL    HW132450   1.034   3.362   1.144
10517SOL    HW232451   0.875   3.336   1.175
10518SOL     OW32452   6.880   6.415   1.471
10518SOL    HW132453   6.925   6.492   1.516
10518SOL    HW232454   6.949   6.351   1.437
10519SOL     OW32455   3.100   3.749   0.756
10519SOL    HW132456   3.074   3.718   0.665
10519SOL    HW232457   3.021   3.788   0.802
10520SOL     OW32458   0.667   2.368   5.995
10520SOL    HW132459   0.611   2.408   6.068
10520SOL    HW232460   0.711   2.441   5.943
10521SOL     OW32461   6.636   5.377   1.178
10521SOL    HW132462   6.632   5.439   1.256
10521SOL    HW232463   6.593   5.421   1.099
10522SOL     OW32464   0.086   1.995   4.575
10522SOL    HW132465   0.062   2.090   4.592
10522SOL    HW232466   0.168   1.990   4.518
10523SOL     OW32467   0.600   4.787   2.781
10523SOL    HW132468   0.609   4.730   2.700
10523SOL    HW232469   0.576   4.880   2.754
10524SOL     OW32470   6.996   6.485   4.531
10524SOL    HW132471   0.029   6.462   4.451
10524SOL    HW232472   6.984   6.403   4.588
10525SOL     OW32473   3.387   0.842   5.044
10525SOL    HW132474   3.441   0.764   5.077
10525SOL    HW232475   3.330   0.813   4.968
10526SOL     OW32476   1.097   0.094   1.900
10526SOL    HW132477   0.999   0.077   1.904
10526SOL    HW232478   1.133   0.108   1.992
10527SOL     OW32479   1.325   0.959   5.253
10527SOL    HW132480   1.245   0.901   5.266
10527SOL    HW232481   1.345   0.966   5.155
10528SOL     OW32482   1.672   3.914   6.345
10528SOL    HW132483   1.697   3.886   6.252
10528SOL    HW232484   1.716   3.853   6.411
10529SOL     OW32485   2.216   6.117   4.256
10529SOL    HW132486   2.296   6.173   4.278
10529SOL    HW232487   2.138   6.177   4.237
10530SOL     OW32488   1.439   0.197   6.476
10530SOL    HW132489   1.403   0.107   6.456
10530SOL    HW232490   1.514   0.189   6.542
10531SOL     OW32491   2.053   2.370   4.224
10531SOL    HW132492   2.091   2.435   4.290
10531SOL    HW232493   2.105   2.285   4.227
10532SOL     OW32494   0.517   6.628   6.719
10532SOL    HW132495   0.501   6.563   6.645
10532SOL    HW232496   0.597   6.684   6.697
10533SOL     OW32497   3.182   6.443   3.457
10533SOL    HW132498   3.146   6.532   3.486
10533SOL    HW232499   3.121   6.371   3.490
10534SOL     OW32500   6.298   5.445   2.180
10534SOL    HW132501   6.308   5.505   2.261
10534SOL    HW232502   6.231   5.374   2.199
10535SOL     OW32503   2.040   1.863   2.516
10535SOL    HW132504   2.079   1.809   2.590
10535SOL    HW232505   2.080   1.954   2.516
10536SOL     OW32506   4.769   0.601   4.438
10536SOL    HW132507   4.788   0.580   4.342
10536SOL    HW232508   4.850   0.642   4.480
10537SOL     OW32509   4.485   6.166   4.485
10537SOL    HW132510   4.441   6.196   4.400
10537SOL    HW232511   4.576   6.208   4.492
10538SOL     OW32512   6.474   3.551   0.740
10538SOL    HW132513   6.487   3.644   0.774
10538SOL    HW232514   6.484   3.549   0.641
10539SOL     OW32515   6.547   5.144   0.828
10539SOL    HW132516   6.464   5.094   0.853
10539SOL    HW232517   6.544   5.166   0.730
10540SOL     OW32518   1.587   3.023   5.452
10540SOL    HW132519   1.514   3.091   5.448
10540SOL    HW232520   1.552   2.940   5.496
10541SOL     OW32521   4.033   3.914   2.178
10541SOL    HW132522   4.125   3.927   2.141
10541SOL    HW232523   4.039   3.876   2.270
10542SOL     OW32524   6.695   1.249   5.142
10542SOL    HW132525   6.615   1.269   5.198
10542SOL    HW232526   6.770   1.311   5.167
10543SOL     OW32527   0.931   1.770   4.455
10543SOL    HW132528   0.933   1.776   4.555
10543SOL    HW232529   0.906   1.859   4.417
10544SOL     OW32530   2.494   6.510   1.945
10544SOL    HW132531   2.570   6.566   1.911
10544SOL    HW232532   2.487   6.520   2.044
10545SOL     OW32533   0.754   2.038   1.177
10545SOL    HW132534   0.784   1.943   1.178
10545SOL    HW232535   0.687   2.051   1.104
10546SOL     OW32536   2.480   6.286   0.315
10546SOL    HW132537   2.479   6.227   0.396
10546SOL    HW232538   2.538   6.244   0.244
10547SOL     OW32539   5.414   3.199   3.184
10547SOL    HW132540   5.448   3.113   3.144
10547SOL    HW232541   5.463   3.217   3.269
10548SOL     OW32542   6.997   4.230   4.177
10548SOL    HW132543   6.905   4.258   4.153
10548SOL    HW232544   6.994   4.168   4.256
10549SOL     OW32545   0.627   1.240   1.161
10549SOL    HW132546   0.574   1.219   1.079
10549SOL    HW232547   0.698   1.307   1.138
10550SOL     OW32548   4.375   6.848   3.564
10550SOL    HW132549   4.475   6.849   3.574
10550SOL    HW232550   4.332   6.835   3.654
10551SOL     OW32551   2.508   2.165   6.517
10551SOL    HW132552   2.422   2.152   6.467
10551SOL    HW232553   2.571   2.092   6.493
10552SOL     OW32554   1.907   0.916   5.750
10552SOL    HW132555   1.923   0.893   5.846
10552SOL    HW232556   1.994   0.940   5.706
10553SOL     OW32557   0.562   4.858   1.408
10553SOL    HW132558   0.499   4.839   1.483
10553SOL    HW232559   0.553   4.787   1.338
10554SOL     OW32560   4.893   4.965   1.229
10554SOL    HW132561   4.980   4.943   1.187
10554SOL    HW232562   4.831   4.887   1.222
10555SOL     OW32563   2.706   2.886   0.824
10555SOL    HW132564   2.641   2.909   0.897
10555SOL    HW232565   2.665   2.817   0.764
10556SOL     OW32566   1.146   1.228   3.936
10556SOL    HW132567   1.088   1.208   3.857
10556SOL    HW232568   1.090   1.229   4.019
10557SOL     OW32569   2.110   2.831   3.132
10557SOL    HW132570   2.087   2.915   3.084
10557SOL    HW232571   2.039   2.811   3.199
10558SOL     OW32572   3.929   5.920   5.551
10558SOL    HW132573   3.938   5.857   5.629
10558SOL    HW232574   3.917   6.013   5.585
10559SOL     OW32575   4.449   1.097   1.872
10559SOL    HW132576   4.372   1.077   1.811
10559SOL    HW232577   4.435   1.186   1.915
10560SOL     OW32578   4.833   0.168   2.922
10560SOL    HW132579   4.777   0.249   2.941
10560SOL    HW232580   4.894   0.187   2.845
10561SOL     OW32581   3.616   4.380   1.706
10561SOL    HW132582   3.518   4.358   1.706
10561SOL    HW232583   3.628   4.478   1.718
10562SOL     OW32584   4.295   5.280   6.962
10562SOL    HW132585   4.252   5.253   6.876
10562SOL    HW232586   4.287   5.205   0.005
10563SOL     OW32587   0.346   1.015   2.100
10563SOL    HW132588   0.322   1.073   2.178
10563SOL    HW232589   0.300   1.047   2.018
10564SOL     OW32590   5.433   6.280   3.702
10564SOL    HW132591   5.441   6.184   3.729
10564SOL    HW232592   5.509   6.332   3.742
10565SOL     OW32593   0.120   6.517   5.698
10565SOL    HW132594   0.111   6.454   5.621
10565SOL    HW232595   0.073   6.602   5.678
10566SOL     OW32596   3.901   1.595   6.579
10566SOL    HW132597   3.996   1.628   6.575
10566SOL    HW232598   3.900   1.500   6.610
10567SOL     OW32599   2.211   2.373   5.477
10567SOL    HW132600   2.305   2.338   5.485
10567SOL    HW232601   2.214   2.470   5.455
10568SOL     OW32602   6.898   3.275   0.961
10568SOL    HW132603   6.939   3.353   1.008
10568SOL    HW232604   6.799   3.286   0.959
10569SOL     OW32605   6.228   0.827   2.316
10569SOL    HW132606   6.286   0.780   2.250
10569SOL    HW232607   6.133   0.797   2.304
10570SOL     OW32608   1.546   4.737   3.416
10570SOL    HW132609   1.539   4.644   3.453
10570SOL    HW232610   1.508   4.802   3.481
10571SOL     OW32611   0.525   4.762   5.098
10571SOL    HW132612   0.575   4.783   5.014
10571SOL    HW232613   0.458   4.690   5.080
10572SOL     OW32614   6.792   4.638   2.708
10572SOL    HW132615   6.834   4.604   2.623
10572SOL    HW232616   6.807   4.571   2.781
10573SOL     OW32617   5.410   0.853   4.934
10573SOL    HW132618   5.427   0.948   4.961
10573SOL    HW232619   5.317   0.845   4.898
10574SOL     OW32620   0.709   1.440   4.078
10574SOL    HW132621   0.755   1.491   4.151
10574SOL    HW232622   0.769   1.434   3.998
10575SOL     OW32623   6.910   0.579   3.753
10575SOL    HW132624   6.859   0.496   3.731
10575SOL    HW232625   6.984   0.558   3.816
10576SOL     OW32626   0.528   5.899   4.534
10576SOL    HW132627   0.465   5.977   4.529
10576SOL    HW232628   0.481   5.817   4.503
10577SOL     OW32629   1.783   4.516   0.633
10577SOL    HW132630   1.779   4.477   0.541
10577SOL    HW232631   1.872   4.496   0.674
10578SOL     OW32632   4.057   1.662   3.231
10578SOL    HW132633   4.142   1.633   3.188
10578SOL    HW232634   4.076   1.728   3.304
10579SOL     OW32635   4.011   2.666   1.425
10579SOL    HW132636   3.974   2.629   1.340
10579SOL    HW232637   4.101   2.626   1.442
10580SOL     OW32638   6.855   0.002   6.506
10580SOL    HW132639   6.786   0.059   6.551
10580SOL    HW232640   6.854   6.933   6.546
10581SOL     OW32641   5.713   0.229   2.908
10581SOL    HW132642   5.788   0.165   2.922
10581SOL    HW232643   5.691   0.274   2.994
10582SOL     OW32644   4.586   4.587   6.045
10582SOL    HW132645   4.529   4.514   6.007
10582SOL    HW232646   4.611   4.651   5.973
10583SOL     OW32647   4.440   1.027   4.106
10583SOL    HW132648   4.384   0.947   4.127
10583SOL    HW232649   4.472   1.068   4.191
10584SOL     OW32650   6.924   0.442   0.590
10584SOL    HW132651   6.829   0.411   0.588
10584SOL    HW232652   6.949   0.479   0.501
10585SOL     OW32653   2.838   1.762   5.043
10585SOL    HW132654   2.857   1.784   4.948
10585SOL    HW232655   2.914   1.709   5.081
10586SOL     OW32656   4.912   4.537   5.688
10586SOL    HW132657   4.994   4.485   5.666
10586SOL    HW232658   4.840   4.474   5.718
10587SOL     OW32659   6.763   5.345   6.813
10587SOL    HW132660   6.819   5.422   6.846
10587SOL    HW232661   6.667   5.369   6.821
10588SOL     OW32662   1.717   1.602   5.201
10588SOL    HW132663   1.657   1.525   5.225
10588SOL    HW232664   1.781   1.573   5.130
10589SOL     OW32665   5.441   0.755   4.402
10589SOL    HW132666   5.480   0.668   4.434
10589SOL    HW232667   5.447   0.759   4.302
10590SOL     OW32668   0.449   0.060   0.719
10590SOL    HW132669   0.503   0.002   0.659
10590SOL    HW232670   0.510   0.108   0.782
10591SOL     OW32671   1.947   2.042   0.030
10591SOL    HW132672   1.997   1.958   0.049
10591SOL    HW232673   1.998   2.097   6.987
10592SOL     OW32674   6.011   3.655   2.964
10592SOL    HW132675   5.918   3.653   3.000
10592SOL    HW232676   6.075   3.675   3.038
10593SOL     OW32677   3.186   5.995   1.370
10593SOL    HW132678   3.135   6.079   1.348
10593SOL    HW232679   3.256   5.980   1.301
10594SOL     OW32680   5.262   1.332   2.723
10594SOL    HW132681   5.238   1.396   2.649
10594SOL    HW232682   5.280   1.383   2.807
10595SOL     OW32683   5.522   0.039   0.113
10595SOL    HW132684   5.498   0.136   0.107
10595SOL    HW232685   5.442   7.007   0.090
10596SOL     OW32686   4.037   0.940   0.263
10596SOL    HW132687   3.970   0.874   0.230
10596SOL    HW232688   4.065   1.000   0.188
10597SOL     OW32689   3.487   1.362   5.455
10597SOL    HW132690   3.503   1.460   5.457
10597SOL    HW232691   3.393   1.344   5.427
10598SOL     OW32692   3.389   2.795   0.392
10598SOL    HW132693   3.441   2.722   0.348
10598SOL    HW232694   3.291   2.771   0.391
10599SOL     OW32695   5.358   3.638   6.600
10599SOL    HW132696   5.411   3.623   6.517
10599SOL    HW232697   5.266   3.601   6.588
10600SOL     OW32698   3.513   2.612   1.673
10600SOL    HW132699   3.601   2.640   1.711
10600SOL    HW232700   3.495   2.666   1.590
10601SOL     OW32701   1.375   4.724   5.530
10601SOL    HW132702   1.366   4.685   5.438
10601SOL    HW232703   1.353   4.655   5.598
10602SOL     OW32704   1.357   1.174   1.511
10602SOL    HW132705   1.432   1.224   1.552
10602SOL    HW232706   1.301   1.236   1.456
10603SOL     OW32707   3.816   0.223   3.346
10603SOL    HW132708   3.876   0.153   3.386
10603SOL    HW232709   3.720   0.196   3.359
10604SOL     OW32710   6.364   5.279   5.274
10604SOL    HW132711   6.418   5.218   5.217
10604SOL    HW232712   6.267   5.256   5.265
10605SOL     OW32713   2.382   5.965   6.773
10605SOL    HW132714   2.472   5.938   6.807
10605SOL    HW232715   2.311   5.922   6.828
10606SOL     OW32716   0.353   0.485   0.733
10606SOL    HW132717   0.265   0.523   0.706
10606SOL    HW232718   0.390   0.538   0.810
10607SOL     OW32719   4.071   4.635   6.304
10607SOL    HW132720   4.080   4.642   6.205
10607SOL    HW232721   4.015   4.711   6.338
10608SOL     OW32722   6.713   4.373   4.303
10608SOL    HW132723   6.618   4.354   4.326
10608SOL    HW232724   6.724   4.374   4.203
10609SOL     OW32725   2.789   6.548   0.064
10609SOL    HW132726   2.825   6.562   6.994
10609SOL    HW232727   2.692   6.524   0.058
10610SOL     OW32728   0.785   2.287   4.254
10610SOL    HW132729   0.778   2.366   4.315
10610SOL    HW232730   0.708   2.286   4.191
10611SOL     OW32731   2.709   4.429   6.771
10611SOL    HW132732   2.746   4.509   6.723
10611SOL    HW232733   2.672   4.457   6.859
10612SOL     OW32734   4.039   1.979   4.644
10612SOL    HW132735   4.061   2.067   4.686
10612SOL    HW232736   4.054   1.906   4.711
10613SOL     OW32737   5.741   5.862   5.882
10613SOL    HW132738   5.836   5.876   5.854
10613SOL    HW232739   5.738   5.824   5.975
10614SOL     OW32740   4.920   1.659   5.015
10614SOL    HW132741   4.859   1.727   4.974
10614SOL    HW232742   4.889   1.568   4.988
10615SOL     OW32743   3.774   0.661   6.235
10615SOL    HW132744   3.786   0.623   6.327
10615SOL    HW232745   3.719   0.599   6.180
10616SOL     OW32746   2.453   6.942   6.662
10616SOL    HW132747   2.524   6.919   6.729
10616SOL    HW232748   2.387   7.004   6.704
10617SOL     OW32749   3.209   4.116   1.301
10617SOL    HW132750   3.114   4.114   1.269
10617SOL    HW232751   3.253   4.028   1.281
10618SOL     OW32752   1.484   4.217   6.078
10618SOL    HW132753   1.518   4.279   6.149
10618SOL    HW232754   1.555   4.202   6.009
10619SOL     OW32755   0.148   3.389   3.777
10619SOL    HW132756   0.197   3.318   3.725
10619SOL    HW232757   0.138   3.471   3.720
10620SOL     OW32758   1.286   6.908   4.882
10620SOL    HW132759   1.189   6.898   4.863
10620SOL    HW232760   1.336   6.915   4.796
10621SOL     OW32761   0.987   4.838   1.631
10621SOL    HW132762   1.075   4.873   1.598
10621SOL    HW232763   0.988   4.738   1.627
10622SOL     OW32764   5.176   1.576   2.554
10622SOL    HW132765   5.190   1.585   2.456
10622SOL    HW232766   5.199   1.662   2.600
10623SOL     OW32767   6.836   5.318   6.244
10623SOL    HW132768   6.834   5.347   6.339
10623SOL    HW232769   6.840   5.218   6.239
10624SOL     OW32770   0.595   2.262   5.138
10624SOL    HW132771   0.634   2.349   5.168
10624SOL    HW232772   0.535   2.227   5.209
10625SOL     OW32773   0.441   4.651   1.255
10625SOL    HW132774   0.344   4.627   1.248
10625SOL    HW232775   0.496   4.583   1.208
10626SOL     OW32776   3.364   3.187   0.888
10626SOL    HW132777   3.279   3.134   0.889
10626SOL    HW232778   3.440   3.127   0.863
10627SOL     OW32779   5.887   1.610   6.591
10627SOL    HW132780   5.927   1.528   6.548
10627SOL    HW232781   5.793   1.590   6.619
10628SOL     OW32782   5.014   6.425   1.240
10628SOL    HW132783   5.014   6.521   1.212
10628SOL    HW232784   5.092   6.378   1.200
10629SOL     OW32785   2.292   4.976   5.011
10629SOL    HW132786   2.297   4.880   4.982
10629SOL    HW232787   2.331   5.034   4.939
10630SOL     OW32788   6.578   1.640   3.075
10630SOL    HW132789   6.600   1.685   2.989
10630SOL    HW232790   6.535   1.705   3.138
10631SOL     OW32791   3.673   5.031   4.967
10631SOL    HW132792   3.707   4.983   5.048
10631SOL    HW232793   3.577   5.054   4.980
10632SOL     OW32794   5.330   6.833   3.652
10632SOL    HW132795   5.265   6.761   3.628
10632SOL    HW232796   5.369   6.872   3.569
10633SOL     OW32797   2.901   2.549   1.484
10633SOL    HW132798   2.850   2.529   1.400
10633SOL    HW232799   2.994   2.512   1.476
10634SOL     OW32800   2.217   4.315   0.474
10634SOL    HW132801   2.295   4.274   0.522
10634SOL    HW232802   2.155   4.356   0.540
10635SOL     OW32803   1.799   3.701   6.644
10635SOL    HW132804   1.820   3.769   6.715
10635SOL    HW232805   1.703   3.673   6.652
10636SOL     OW32806   0.412   2.195   0.886
10636SOL    HW132807   0.423   2.246   0.801
10636SOL    HW232808   0.321   2.153   0.889
10637SOL     OW32809   1.168   4.458   6.244
10637SOL    HW132810   1.241   4.448   6.312
10637SOL    HW232811   1.202   4.433   6.154
10638SOL     OW32812   5.735   6.014   2.847
10638SOL    HW132813   5.780   6.026   2.935
10638SOL    HW232814   5.763   5.927   2.806
10639SOL     OW32815   0.823   3.990   3.417
10639SOL    HW132816   0.829   4.088   3.399
10639SOL    HW232817   0.913   3.955   3.444
10640SOL     OW32818   5.173   6.766   4.334
10640SOL    HW132819   5.217   6.854   4.314
10640SOL    HW232820   5.093   6.780   4.392
10641SOL     OW32821   2.389   1.735   2.510
10641SOL    HW132822   2.372   1.791   2.429
10641SOL    HW232823   2.321   1.756   2.580
10642SOL     OW32824   6.025   2.113   0.654
10642SOL    HW132825   6.015   2.205   0.616
10642SOL    HW232826   6.122   2.088   0.656
10643SOL     OW32827   1.874   5.992   4.749
10643SOL    HW132828   1.864   6.090   4.732
10643SOL    HW232829   1.784   5.949   4.758
10644SOL     OW32830   5.957   2.679   1.783
10644SOL    HW132831   5.984   2.708   1.691
10644SOL    HW232832   6.020   2.718   1.850
10645SOL     OW32833   2.060   2.269   4.893
10645SOL    HW132834   2.043   2.338   4.963
10645SOL    HW232835   1.992   2.196   4.901
10646SOL     OW32836   0.503   6.671   5.623
10646SOL    HW132837   0.488   6.599   5.691
10646SOL    HW232838   0.541   6.752   5.667
10647SOL     OW32839   3.067   5.583   4.883
10647SOL    HW132840   3.133   5.518   4.846
10647SOL    HW232841   3.078   5.590   4.982
10648SOL     OW32842   5.743   4.279   6.434
10648SOL    HW132843   5.774   4.318   6.347
10648SOL    HW232844   5.820   4.271   6.497
10649SOL     OW32845   0.958   4.617   3.208
10649SOL    HW132846   1.044   4.649   3.247
10649SOL    HW232847   0.973   4.531   3.160
10650SOL     OW32848   0.664   0.297   3.459
10650SOL    HW132849   0.726   0.250   3.396
10650SOL    HW232850   0.610   0.364   3.407
10651SOL     OW32851   5.684   6.372   0.031
10651SOL    HW132852   5.600   6.343   0.077
10651SOL    HW232853   5.699   6.314   6.973
10652SOL     OW32854   3.600   6.701   5.754
10652SOL    HW132855   3.618   6.619   5.700
10652SOL    HW232856   3.504   6.700   5.785
10653SOL     OW32857   4.808   5.469   4.451
10653SOL    HW132858   4.847   5.385   4.413
10653SOL    HW232859   4.841   5.547   4.398
10654SOL     OW32860   5.240   0.622   0.180
10654SOL    HW132861   5.183   0.638   0.260
10654SOL    HW232862   5.328   0.667   0.192
10655SOL     OW32863   2.175   5.161   0.684
10655SOL    HW132864   2.148   5.211   0.602
10655SOL    HW232865   2.105   5.172   0.755
10656SOL     OW32866   0.394   1.931   2.937
10656SOL    HW132867   0.469   1.886   2.889
10656SOL    HW232868   0.393   2.028   2.915
10657SOL     OW32869   5.383   0.269   5.599
10657SOL    HW132870   5.331   0.187   5.574
10657SOL    HW232871   5.320   0.342   5.624
10658SOL     OW32872   6.552   4.939   4.789
10658SOL    HW132873   6.520   4.891   4.871
10658SOL    HW232874   6.639   4.984   4.809
10659SOL     OW32875   0.458   5.526   1.468
10659SOL    HW132876   0.405   5.600   1.510
10659SOL    HW232877   0.537   5.505   1.526
10660SOL     OW32878   5.222   3.731   6.137
10660SOL    HW132879   5.264   3.642   6.122
10660SOL    HW232880   5.293   3.800   6.152
10661SOL     OW32881   1.465   6.983   1.818
10661SOL    HW132882   1.395   6.978   1.746
10661SOL    HW232883   1.503   6.893   1.834
10662SOL     OW32884   5.243   0.585   2.151
10662SOL    HW132885   5.217   0.623   2.062
10662SOL    HW232886   5.243   0.658   2.219
10663SOL     OW32887   0.750   2.200   2.795
10663SOL    HW132888   0.799   2.279   2.759
10663SOL    HW232889   0.748   2.205   2.895
10664SOL     OW32890   6.332   4.152   4.961
10664SOL    HW132891   6.248   4.128   4.913
10664SOL    HW232892   6.408   4.098   4.924
10665SOL     OW32893   0.645   1.814   0.062
10665SOL    HW132894   0.600   1.866   0.135
10665SOL    HW232895   0.691   1.735   0.102
10666SOL     OW32896   4.137   3.637   1.893
10666SOL    HW132897   4.158   3.554   1.843
10666SOL    HW232898   4.136   3.715   1.830
10667SOL     OW32899   4.721   2.561   4.144
10667SOL    HW132900   4.820   2.554   4.137
10667SOL    HW232901   4.688   2.632   4.082
10668SOL     OW32902   2.588   0.462   5.062
10668SOL    HW132903   2.625   0.484   4.972
10668SOL    HW232904   2.491   0.440   5.054
10669SOL     OW32905   5.587   0.488   1.650
10669SOL    HW132906   5.523   0.481   1.727
10669SOL    HW232907   5.636   0.401   1.641
10670SOL     OW32908   5.520   4.880   5.376
10670SOL    HW132909   5.435   4.879   5.324
10670SOL    HW232910   5.517   4.808   5.445
10671SOL     OW32911   2.212   2.178   3.418
10671SOL    HW132912   2.220   2.113   3.493
10671SOL    HW232913   2.116   2.191   3.394
10672SOL     OW32914   6.374   3.203   1.138
10672SOL    HW132915   6.318   3.215   1.056
10672SOL    HW232916   6.335   3.129   1.194
10673SOL     OW32917   0.761   0.865   6.637
10673SOL    HW132918   0.801   0.886   6.548
10673SOL    HW232919   0.771   0.768   6.657
10674SOL     OW32920   3.459   3.978   2.312
10674SOL    HW132921   3.479   4.034   2.231
10674SOL    HW232922   3.544   3.964   2.363
10675SOL     OW32923   1.933   6.734   6.587
10675SOL    HW132924   1.855   6.762   6.530
10675SOL    HW232925   1.912   6.647   6.632
10676SOL     OW32926   6.316   5.745   5.515
10676SOL    HW132927   6.323   5.840   5.485
10676SOL    HW232928   6.326   5.684   5.437
10677SOL     OW32929   1.296   0.997   1.752
10677SOL    HW132930   1.253   0.907   1.741
10677SOL    HW232931   1.320   1.034   1.662
10678SOL     OW32932   4.452   5.198   3.850
10678SOL    HW132933   4.452   5.143   3.766
10678SOL    HW232934   4.460   5.137   3.929
10679SOL     OW32935   4.890   5.619   6.572
10679SOL    HW132936   4.921   5.549   6.508
10679SOL    HW232937   4.814   5.583   6.627
10680SOL     OW32938   3.602   1.604   4.264
10680SOL    HW132939   3.678   1.638   4.208
10680SOL    HW232940   3.638   1.564   4.348
10681SOL     OW32941   1.015   3.660   0.849
10681SOL    HW132942   1.074   3.583   0.873
10681SOL    HW232943   1.071   3.740   0.831
10682SOL     OW32944   0.741   1.487   5.663
10682SOL    HW132945   0.693   1.574   5.661
10682SOL    HW232946   0.838   1.501   5.644
10683SOL     OW32947   3.523   2.140   3.773
10683SOL    HW132948   3.608   2.107   3.732
10683SOL    HW232949   3.502   2.086   3.855
10684SOL     OW32950   5.258   4.505   2.688
10684SOL    HW132951   5.313   4.547   2.616
10684SOL    HW232952   5.193   4.571   2.724
10685SOL     OW32953   0.722   6.097   2.145
10685SOL    HW132954   0.677   6.018   2.188
10685SOL    HW232955   0.803   6.065   2.094
10686SOL     OW32956   0.326   4.692   6.514
10686SOL    HW132957   0.254   4.633   6.552
10686SOL    HW232958   0.410   4.638   6.502
10687SOL     OW32959   5.723   5.949   3.118
10687SOL    HW132960   5.792   6.000   3.169
10687SOL    HW232961   5.633   5.962   3.161
10688SOL     OW32962   6.688   3.738   2.207
10688SOL    HW132963   6.679   3.837   2.202
10688SOL    HW232964   6.701   3.709   2.302
10689SOL     OW32965   0.176   5.717   3.529
10689SOL    HW132966   0.113   5.760   3.595
10689SOL    HW232967   0.123   5.669   3.459
10690SOL     OW32968   6.886   6.158   3.779
10690SOL    HW132969   6.951   6.206   3.838
10690SOL    HW232970   6.808   6.128   3.833
10691SOL     OW32971   0.371   2.522   2.322
10691SOL    HW132972   0.334   2.614   2.335
10691SOL    HW232973   0.470   2.527   2.306
10692SOL     OW32974   3.128   5.978   3.488
10692SOL    HW132975   3.141   5.883   3.517
10692SOL    HW232976   3.215   6.028   3.494
10693SOL     OW32977   2.369   5.942   0.133
10693SOL    HW132978   2.449   5.888   0.161
10693SOL    HW232979   2.321   5.975   0.213
10694SOL     OW32980   5.464   6.717   1.863
10694SOL    HW132981   5.516   6.643   1.822
10694SOL    HW232982   5.366   6.701   1.851
10695SOL     OW32983   6.991   2.449   2.633
10695SOL    HW132984   0.051   2.505   2.632
10695SOL    HW232985   6.991   2.388   2.554
10696SOL     OW32986   0.434   3.849   3.922
10696SOL    HW132987   0.441   3.924   3.857
10696SOL    HW232988   0.356   3.791   3.897
10697SOL     OW32989   6.763   5.691   5.372
10697SOL    HW132990   6.743   5.762   5.304
10697SOL    HW232991   6.822   5.622   5.331
10698SOL     OW32992   4.598   4.966   5.818
10698SOL    HW132993   4.546   4.984   5.902
10698SOL    HW232994   4.610   4.867   5.807
10699SOL     OW32995   4.121   3.364   1.859
10699SOL    HW132996   4.125   3.377   1.958
10699SOL    HW232997   4.202   3.313   1.828
10700SOL     OW32998   0.054   6.793   1.046
10700SOL    HW132999   0.034   6.890   1.032
10700SOL    HW233000   0.047   6.745   0.958
10701SOL     OW33001   3.821   5.934   6.863
10701SOL    HW133002   3.815   5.954   6.961
10701SOL    HW233003   3.731   5.905   6.830
10702SOL     OW33004   6.204   2.547   1.471
10702SOL    HW133005   6.159   2.635   1.483
10702SOL    HW233006   6.164   2.480   1.533
10703SOL     OW33007   3.219   3.127   4.788
10703SOL    HW133008   3.302   3.170   4.824
10703SOL    HW233009   3.143   3.191   4.796
10704SOL     OW33010   6.205   5.823   1.695
10704SOL    HW133011   6.172   5.899   1.752
10704SOL    HW233012   6.217   5.855   1.601
10705SOL     OW33013   6.127   4.461   2.026
10705SOL    HW133014   6.058   4.528   2.053
10705SOL    HW233015   6.142   4.465   1.927
10706SOL     OW33016   5.114   6.729   1.486
10706SOL    HW133017   5.065   6.777   1.414
10706SOL    HW233018   5.053   6.714   1.564
10707SOL     OW33019   0.171   6.478   4.288
10707SOL    HW133020   0.233   6.403   4.264
10707SOL    HW233021   0.223   6.551   4.332
10708SOL     OW33022   3.876   0.119   2.422
10708SOL    HW133023   3.842   0.037   2.468
10708SOL    HW233024   3.869   0.108   2.323
10709SOL     OW33025   5.941   5.987   5.039
10709SOL    HW133026   6.027   6.011   4.995
10709SOL    HW233027   5.900   6.068   5.080
10710SOL     OW33028   0.225   6.567   4.638
10710SOL    HW133029   0.281   6.485   4.655
10710SOL    HW233030   0.128   6.543   4.641
10711SOL     OW33031   1.525   5.807   4.023
10711SOL    HW133032   1.545   5.904   4.036
10711SOL    HW233033   1.426   5.795   4.011
10712SOL     OW33034   2.988   1.178   1.263
10712SOL    HW133035   3.071   1.203   1.313
10712SOL    HW233036   2.912   1.236   1.294
10713SOL     OW33037   0.767   3.331   1.604
10713SOL    HW133038   0.852   3.315   1.554
10713SOL    HW233039   0.723   3.413   1.569
10714SOL     OW33040   6.289   4.183   4.631
10714SOL    HW133041   6.367   4.239   4.659
10714SOL    HW233042   6.264   4.121   4.706
10715SOL     OW33043   5.522   0.413   2.703
10715SOL    HW133044   5.586   0.336   2.711
10715SOL    HW233045   5.537   0.460   2.616
10716SOL     OW33046   5.610   2.455   4.458
10716SOL    HW133047   5.587   2.498   4.545
10716SOL    HW233048   5.633   2.359   4.472
10717SOL     OW33049   1.152   2.733   0.741
10717SOL    HW133050   1.167   2.642   0.704
10717SOL    HW233051   1.159   2.730   0.841
10718SOL     OW33052   0.897   2.504   6.460
10718SOL    HW133053   0.950   2.588   6.477
10718SOL    HW233054   0.815   2.527   6.409
10719SOL     OW33055   5.966   5.842   1.351
10719SOL    HW133056   6.031   5.892   1.408
10719SOL    HW233057   5.903   5.791   1.409
10720SOL     OW33058   0.104   4.022   5.072
10720SOL    HW133059   0.171   3.987   5.138
10720SOL    HW233060   0.124   4.118   5.053
10721SOL     OW33061   5.720   4.028   4.930
10721SOL    HW133062   5.655   3.983   4.869
10721SOL    HW233063   5.784   4.083   4.877
10722SOL     OW33064   0.934   4.273   0.720
10722SOL    HW133065   0.895   4.364   0.704
10722SOL    HW233066   0.868   4.203   0.694
10723SOL     OW33067   0.713   3.745   6.090
10723SOL    HW133068   0.789   3.799   6.126
10723SOL    HW233069   0.698   3.666   6.148
10724SOL     OW33070   5.283   1.030   6.977
10724SOL    HW133071   5.313   1.110   6.925
10724SOL    HW233072   5.353   0.959   6.973
10725SOL     OW33073   0.919   4.591   4.817
10725SOL    HW133074   0.884   4.589   4.911
10725SOL    HW233075   0.880   4.514   4.765
10726SOL     OW33076   5.135   0.165   5.335
10726SOL    HW133077   5.173   0.073   5.322
10726SOL    HW233078   5.078   0.167   5.417
10727SOL     OW33079   0.224   4.938   4.344
10727SOL    HW133080   0.223   4.931   4.244
10727SOL    HW233081   0.131   4.924   4.380
10728SOL     OW33082   6.717   6.271   0.404
10728SOL    HW133083   6.720   6.371   0.403
10728SOL    HW233084   6.768   6.238   0.483
10729SOL     OW33085   5.937   1.148   2.368
10729SOL    HW133086   5.895   1.188   2.449
10729SOL    HW233087   5.903   1.195   2.286
10730SOL     OW33088   2.302   6.967   2.288
10730SOL    HW133089   2.207   6.968   2.319
10730SOL    HW233090   2.313   6.897   2.217
10731SOL     OW33091   3.043   6.132   0.556
10731SOL    HW133092   2.998   6.188   0.486
10731SOL    HW233093   3.094   6.191   0.618
10732SOL     OW33094   5.161   4.791   3.242
10732SOL    HW133095   5.222   4.825   3.314
10732SOL    HW233096   5.109   4.713   3.277
10733SOL     OW33097   5.202   2.189   6.884
10733SOL    HW133098   5.105   2.173   6.863
10733SOL    HW233099   5.211   2.276   6.932
10734SOL     OW33100   1.462   6.883   6.806
10734SOL    HW133101   1.476   6.785   6.816
10734SOL    HW233102   1.434   6.923   6.893
10735SOL     OW33103   1.379   4.262   2.752
10735SOL    HW133104   1.317   4.192   2.717
10735SOL    HW233105   1.339   4.304   2.834
10736SOL     OW33106   0.366   0.023   3.363
10736SOL    HW133107   0.292   6.984   3.337
10736SOL    HW233108   0.419   0.048   3.283
10737SOL     OW33109   1.588   1.856   6.854
10737SOL    HW133110   1.628   1.830   6.766
10737SOL    HW233111   1.585   1.776   6.914
10738SOL     OW33112   2.361   0.359   3.771
10738SOL    HW133113   2.300   0.439   3.768
10738SOL    HW233114   2.373   0.330   3.866
10739SOL     OW33115   0.481   1.190   0.921
10739SOL    HW133116   0.524   1.116   0.869
10739SOL    HW233117   0.487   1.275   0.869
10740SOL     OW33118   0.669   4.689   5.571
10740SOL    HW133119   0.602   4.678   5.497
10740SOL    HW233120   0.625   4.734   5.649
10741SOL     OW33121   0.371   0.506   2.482
10741SOL    HW133122   0.274   0.487   2.500
10741SOL    HW233123   0.406   0.566   2.554
10742SOL     OW33124   6.068   0.439   1.691
10742SOL    HW133125   6.115   0.359   1.726
10742SOL    HW233126   5.982   0.411   1.648
10743SOL     OW33127   2.906   2.373   5.566
10743SOL    HW133128   2.915   2.456   5.511
10743SOL    HW233129   2.869   2.300   5.510
10744SOL     OW33130   2.808   1.325   2.194
10744SOL    HW133131   2.885   1.285   2.144
10744SOL    HW233132   2.823   1.423   2.204
10745SOL     OW33133   0.878   5.131   0.818
10745SOL    HW133134   0.827   5.165   0.897
10745SOL    HW233135   0.972   5.168   0.820
10746SOL     OW33136   1.854   3.645   1.383
10746SOL    HW133137   1.897   3.577   1.442
10746SOL    HW233138   1.870   3.736   1.419
10747SOL     OW33139   4.298   0.908   3.305
10747SOL    HW133140   4.239   0.958   3.367
10747SOL    HW233141   4.329   0.969   3.232
10748SOL     OW33142   3.454   1.097   1.714
10748SOL    HW133143   3.397   1.019   1.688
10748SOL    HW233144   3.543   1.089   1.669
10749SOL     OW33145   6.785   5.062   3.433
10749SOL    HW133146   6.692   5.026   3.429
10749SOL    HW233147   6.785   5.155   3.395
10750SOL     OW33148   4.686   5.888   4.358
10750SOL    HW133149   4.591   5.914   4.342
10750SOL    HW233150   4.696   5.858   4.453
10751SOL     OW33151   1.344   4.351   4.571
10751SOL    HW133152   1.350   4.387   4.664
10751SOL    HW233153   1.393   4.411   4.508
10752SOL     OW33154   5.989   3.842   6.188
10752SOL    HW133155   5.989   3.910   6.261
10752SOL    HW233156   5.949   3.881   6.105
10753SOL     OW33157   3.543   6.405   4.415
10753SOL    HW133158   3.528   6.325   4.474
10753SOL    HW233159   3.532   6.378   4.319
10754SOL     OW33160   1.131   1.881   3.618
10754SOL    HW133161   1.201   1.851   3.683
10754SOL    HW233162   1.041   1.853   3.652
10755SOL     OW33163   0.812   1.634   6.412
10755SOL    HW133164   0.742   1.651   6.481
10755SOL    HW233165   0.893   1.595   6.456
10756SOL     OW33166   6.524   4.270   0.163
10756SOL    HW133167   6.576   4.187   0.185
10756SOL    HW233168   6.580   4.351   0.181
10757SOL     OW33169   1.274   2.839   0.046
10757SOL    HW133170   1.233   2.750   0.065
10757SOL    HW233171   1.293   2.886   0.133
10758SOL     OW33172   0.910   6.540   5.264
10758SOL    HW133173   0.822   6.583   5.286
10758SOL    HW233174   0.899   6.480   5.185
10759SOL     OW33175   1.602   2.862   6.931
10759SOL    HW133176   1.591   2.898   0.002
10759SOL    HW233177   1.545   2.781   6.920
10760SOL     OW33178   5.983   1.270   0.978
10760SOL    HW133179   6.063   1.264   0.918
10760SOL    HW233180   6.008   1.322   1.060
10761SOL     OW33181   1.439   1.707   6.059
10761SOL    HW133182   1.518   1.718   6.119
10761SOL    HW233183   1.469   1.700   5.964
10762SOL     OW33184   3.699   1.994   5.045
10762SOL    HW133185   3.773   1.940   5.085
10762SOL    HW233186   3.737   2.070   4.993
10763SOL     OW33187   4.355   6.584   1.287
10763SOL    HW133188   4.289   6.567   1.361
10763SOL    HW233189   4.427   6.515   1.289
10764SOL     OW33190   5.461   2.028   6.243
10764SOL    HW133191   5.546   1.974   6.245
10764SOL    HW233192   5.401   1.993   6.171
10765SOL     OW33193   5.373   2.823   0.961
10765SOL    HW133194   5.328   2.866   1.039
10765SOL    HW233195   5.354   2.725   0.961
10766SOL     OW33196   3.846   2.880   1.169
10766SOL    HW133197   3.900   2.925   1.098
10766SOL    HW233198   3.752   2.913   1.166
10767SOL     OW33199   0.886   0.443   0.335
10767SOL    HW133200   0.975   0.470   0.369
10767SOL    HW233201   0.834   0.398   0.409
10768SOL     OW33202   4.440   4.791   0.944
10768SOL    HW133203   4.345   4.783   0.974
10768SOL    HW233204   4.443   4.792   0.844
10769SOL     OW33205   2.278   4.898   4.673
10769SOL    HW133206   2.348   4.850   4.726
10769SOL    HW233207   2.188   4.881   4.713
10770SOL     OW33208   5.377   0.237   5.173
10770SOL    HW133209   5.302   0.215   5.235
10770SOL    HW233210   5.345   0.229   5.078
10771SOL     OW33211   5.011   1.154   3.785
10771SOL    HW133212   4.940   1.199   3.730
10771SOL    HW233213   5.065   1.093   3.727
10772SOL     OW33214   0.271   6.841   4.757
10772SOL    HW133215   0.348   6.858   4.696
10772SOL    HW233216   0.248   6.744   4.756
10773SOL     OW33217   0.247   5.501   0.068
10773SOL    HW133218   0.314   5.446   0.018
10773SOL    HW233219   0.218   5.578   0.012
10774SOL     OW33220   1.885   1.260   6.285
10774SOL    HW133221   1.849   1.352   6.300
10774SOL    HW233222   1.920   1.253   6.191
10775SOL     OW33223   0.255   3.127   0.824
10775SOL    HW133224   0.306   3.066   0.763
10775SOL    HW233225   0.312   3.206   0.846
10776SOL     OW33226   1.336   6.335   6.889
10776SOL    HW133227   1.420   6.284   6.876
10776SOL    HW233228   1.269   6.279   6.937
10777SOL     OW33229   3.498   5.914   3.599
10777SOL    HW133230   3.592   5.938   3.574
10777SOL    HW233231   3.438   5.992   3.581
10778SOL     OW33232   5.277   6.594   4.783
10778SOL    HW133233   5.285   6.544   4.870
10778SOL    HW233234   5.186   6.578   4.744
10779SOL     OW33235   6.381   4.713   3.066
10779SOL    HW133236   6.309   4.734   3.001
10779SOL    HW233237   6.374   4.773   3.145
10780SOL     OW33238   1.627   0.375   3.788
10780SOL    HW133239   1.712   0.364   3.839
10780SOL    HW233240   1.638   0.336   3.696
10781SOL     OW33241   4.115   0.964   3.536
10781SOL    HW133242   4.032   0.935   3.489
10781SOL    HW233243   4.127   1.063   3.526
10782SOL     OW33244   6.507   2.372   3.443
10782SOL    HW133245   6.548   2.346   3.530
10782SOL    HW233246   6.579   2.387   3.375
10783SOL     OW33247   0.404   3.444   3.433
10783SOL    HW133248   0.485   3.386   3.425
10783SOL    HW233249   0.428   3.538   3.410
10784SOL     OW33250   3.256   1.017   3.853
10784SOL    HW133251   3.193   0.983   3.783
10784SOL    HW233252   3.291   0.939   3.906
10785SOL     OW33253   0.039   5.369   1.317
10785SOL    HW133254   6.996   5.297   1.294
10785SOL    HW233255   0.124   5.328   1.350
10786SOL     OW33256   5.022   5.132   2.708
10786SOL    HW133257   4.963   5.113   2.629
10786SOL    HW233258   4.999   5.069   2.782
10787SOL     OW33259   2.751   1.685   4.600
10787SOL    HW133260   2.658   1.696   4.635
10787SOL    HW233261   2.817   1.708   4.671
10788SOL     OW33262   2.193   5.105   6.225
10788SOL    HW133263   2.220   5.063   6.312
10788SOL    HW233264   2.256   5.075   6.153
10789SOL     OW33265   6.308   2.685   6.770
10789SOL    HW133266   6.293   2.782   6.785
10789SOL    HW233267   6.402   2.670   6.739
10790SOL     OW33268   1.203   1.332   2.655
10790SOL    HW133269   1.140   1.316   2.579
10790SOL    HW233270   1.294   1.299   2.631
10791SOL     OW33271   0.607   6.978   0.468
10791SOL    HW133272   0.609   6.906   0.537
10791SOL    HW233273   0.526   6.966   0.410
10792SOL     OW33274   3.268   3.735   3.191
10792SOL    HW133275   3.254   3.786   3.106
10792SOL    HW233276   3.256   3.797   3.269
10793SOL     OW33277   5.635   2.518   4.024
10793SOL    HW133278   5.723   2.555   4.053
10793SOL    HW233279   5.583   2.588   3.975
10794SOL     OW33280   2.948   3.775   3.693
10794SOL    HW133281   2.904   3.779   3.783
10794SOL    HW233282   2.991   3.685   3.681
10795SOL     OW33283   0.045   4.269   3.025
10795SOL    HW133284   0.065   4.367   3.037
10795SOL    HW233285   0.076   4.219   3.106
10796SOL     OW33286   5.613   6.645   0.612
10796SOL    HW133287   5.664   6.630   0.527
10796SOL    HW233288   5.652   6.722   0.661
10797SOL     OW33289   3.983   2.008   2.027
10797SOL    HW133290   3.956   2.054   1.943
10797SOL    HW233291   4.078   1.977   2.019
10798SOL     OW33292   2.635   6.520   0.440
10798SOL    HW133293   2.558   6.494   0.382
10798SOL    HW233294   2.702   6.446   0.442
10799SOL     OW33295   3.416   0.671   2.764
10799SOL    HW133296   3.504   0.652   2.720
10799SOL    HW233297   3.369   0.586   2.784
10800SOL     OW33298   0.563   6.692   6.970
10800SOL    HW133299   0.544   6.662   6.876
10800SOL    HW233300   0.657   6.669   6.994
10801SOL     OW33301   0.550   6.165   6.478
10801SOL    HW133302   0.635   6.213   6.457
10801SOL    HW233303   0.524   6.107   6.401
10802SOL     OW33304   0.694   2.520   3.339
10802SOL    HW133305   0.783   2.563   3.354
10802SOL    HW233306   0.677   2.454   3.412
10803SOL     OW33307   3.186   3.465   5.706
10803SOL    HW133308   3.089   3.467   5.728
10803SOL    HW233309   3.230   3.390   5.756
10804SOL     OW33310   5.922   3.940   1.687
10804SOL    HW133311   5.830   3.901   1.693
10804SOL    HW233312   5.974   3.915   1.769
10805SOL     OW33313   3.515   0.114   0.189
10805SOL    HW133314   3.516   0.177   0.112
10805SOL    HW233315   3.607   0.077   0.204
10806SOL     OW33316   4.838   3.531   6.200
10806SOL    HW133317   4.805   3.501   6.110
10806SOL    HW233318   4.923   3.482   6.222
10807SOL     OW33319   1.305   6.874   2.310
10807SOL    HW133320   1.397   6.890   2.345
10807SOL    HW233321   1.269   6.958   2.270
10808SOL     OW33322   6.239   3.023   6.154
10808SOL    HW133323   6.256   3.111   6.199
10808SOL    HW233324   6.246   2.949   6.221
10809SOL     OW33325   3.013   6.234   3.522
10809SOL    HW133326   3.039   6.140   3.501
10809SOL    HW233327   2.922   6.235   3.564
10810SOL     OW33328   2.084   0.602   5.008
10810SOL    HW133329   2.039   0.585   4.921
10810SOL    HW233330   2.015   0.614   5.079
10811SOL     OW33331   3.940   4.777   5.819
10811SOL    HW133332   3.894   4.736   5.741
10811SOL    HW233333   3.906   4.870   5.832
10812SOL     OW33334   0.959   3.245   1.442
10812SOL    HW133335   0.946   3.235   1.344
10812SOL    HW233336   1.057   3.240   1.463
10813SOL     OW33337   2.280   4.959   6.445
10813SOL    HW133338   2.286   4.859   6.448
10813SOL    HW233339   2.274   4.995   6.538
10814SOL     OW33340   1.770   6.835   6.362
10814SOL    HW133341   1.789   6.881   6.275
10814SOL    HW233342   1.682   6.867   6.398
10815SOL     OW33343   4.529   4.558   4.197
10815SOL    HW133344   4.587   4.639   4.198
10815SOL    HW233345   4.582   4.478   4.172
10816SOL     OW33346   2.354   2.443   1.409
10816SOL    HW133347   2.371   2.436   1.310
10816SOL    HW233348   2.348   2.540   1.434
10817SOL     OW33349   4.801   6.766   2.919
10817SOL    HW133350   4.837   6.693   2.860
10817SOL    HW233351   4.772   6.843   2.863
10818SOL     OW33352   4.367   4.743   5.390
10818SOL    HW133353   4.320   4.795   5.461
10818SOL    HW233354   4.425   4.673   5.432
10819SOL     OW33355   6.802   4.685   6.955
10819SOL    HW133356   6.881   4.704   7.013
10819SOL    HW233357   6.815   4.598   6.907
10820SOL     OW33358   5.792   5.795   4.355
10820SOL    HW133359   5.743   5.802   4.268
10820SOL    HW233360   5.769   5.874   4.413
10821SOL     OW33361   5.840   6.981   1.989
10821SOL    HW133362   5.774   6.964   1.915
10821SOL    HW233363   5.794   6.973   2.077
10822SOL     OW33364   6.796   3.075   3.189
10822SOL    HW133365   6.753   2.985   3.184
10822SOL    HW233366   6.825   3.092   3.284
10823SOL     OW33367   1.834   5.898   1.742
10823SOL    HW133368   1.897   5.824   1.765
10823SOL    HW233369   1.780   5.923   1.822
10824SOL     OW33370   6.379   0.511   3.384
10824SOL    HW133371   6.476   0.529   3.400
10824SOL    HW233372   6.329   0.597   3.376
10825SOL     OW33373   3.039   0.796   6.387
10825SOL    HW133374   2.948   0.781   6.349
10825SOL    HW233375   3.068   0.890   6.369
10826SOL     OW33376   1.209   3.083   3.453
10826SOL    HW133377   1.127   3.076   3.397
10826SOL    HW233378   1.286   3.115   3.396
10827SOL     OW33379   5.905   3.986   4.694
10827SOL    HW133380   5.927   4.052   4.622
10827SOL    HW233381   5.844   3.916   4.657
10828SOL     OW33382   0.983   5.825   1.856
10828SOL    HW133383   0.928   5.745   1.832
10828SOL    HW233384   1.034   5.856   1.775
10829SOL     OW33385   3.733   2.531   0.992
10829SOL    HW133386   3.662   2.512   0.924
10829SOL    HW233387   3.794   2.452   1.000
10830SOL     OW33388   5.494   1.943   3.392
10830SOL    HW133389   5.563   1.976   3.456
10830SOL    HW233390   5.512   1.847   3.369
10831SOL     OW33391   3.809   5.578   2.813
10831SOL    HW133392   3.763   5.607   2.729
10831SOL    HW233393   3.818   5.478   2.814
10832SOL     OW33394   1.574   2.500   0.129
10832SOL    HW133395   1.599   2.413   0.173
10832SOL    HW233396   1.561   2.486   0.031
10833SOL     OW33397   1.856   0.902   2.043
10833SOL    HW133398   1.890   0.927   1.952
10833SOL    HW233399   1.913   0.830   2.081
10834SOL     OW33400   0.934   2.206   6.460
10834SOL    HW133401   0.933   2.153   6.375
10834SOL    HW233402   0.926   2.303   6.438
10835SOL     OW33403   6.096   2.011   6.861
10835SOL    HW133404   6.149   2.035   6.780
10835SOL    HW233405   6.158   1.987   6.936
10836SOL     OW33406   6.725   1.784   4.843
10836SOL    HW133407   6.657   1.753   4.777
10836SOL    HW233408   6.789   1.711   4.863
10837SOL     OW33409   6.861   4.965   0.643
10837SOL    HW133410   6.762   4.980   0.637
10837SOL    HW233411   6.903   4.987   0.555
10838SOL     OW33412   5.614   6.414   4.512
10838SOL    HW133413   5.524   6.457   4.504
10838SOL    HW233414   5.604   6.319   4.540
10839SOL     OW33415   4.304   2.992   1.505
10839SOL    HW133416   4.295   2.927   1.430
10839SOL    HW233417   4.382   2.966   1.562
10840SOL     OW33418   3.099   5.422   2.224
10840SOL    HW133419   3.195   5.416   2.254
10840SOL    HW233420   3.041   5.436   2.304
10841SOL     OW33421   5.554   5.328   6.927
10841SOL    HW133422   5.565   5.355   6.832
10841SOL    HW233423   5.516   5.403   6.980
10842SOL     OW33424   4.624   2.622   1.594
10842SOL    HW133425   4.690   2.651   1.525
10842SOL    HW233426   4.556   2.562   1.552
10843SOL     OW33427   1.459   2.917   1.382
10843SOL    HW133428   1.417   2.959   1.463
10843SOL    HW233429   1.389   2.868   1.330
10844SOL     OW33430   0.046   0.104   3.750
10844SOL    HW133431   0.105   0.027   3.724
10844SOL    HW233432   0.100   0.173   3.799
10845SOL     OW33433   3.293   0.338   4.848
10845SOL    HW133434   3.253   0.428   4.833
10845SOL    HW233435   3.251   0.296   4.929
10846SOL     OW33436   4.807   1.633   0.555
10846SOL    HW133437   4.733   1.568   0.542
10846SOL    HW233438   4.768   1.724   0.575
10847SOL     OW33439   3.573   3.418   6.400
10847SOL    HW133440   3.585   3.342   6.464
10847SOL    HW233441   3.517   3.387   6.323
10848SOL     OW33442   3.092   3.495   6.694
10848SOL    HW133443   3.138   3.406   6.693
10848SOL    HW233444   3.099   3.536   6.603
10849SOL     OW33445   2.738   6.304   2.743
10849SOL    HW133446   2.782   6.339   2.661
10849SOL    HW233447   2.724   6.205   2.734
10850SOL     OW33448   3.395   4.589   6.670
10850SOL    HW133449   3.469   4.603   6.604
10850SOL    HW233450   3.391   4.667   6.732
10851SOL     OW33451   2.102   3.029   6.464
10851SOL    HW133452   2.193   3.063   6.442
10851SOL    HW233453   2.056   3.094   6.524
10852SOL     OW33454   1.162   0.396   7.011
10852SOL    HW133455   1.078   0.358   0.027
10852SOL    HW233456   1.219   0.322   6.976
10853SOL     OW33457   2.746   1.737   5.729
10853SOL    HW133458   2.671   1.737   5.796
10853SOL    HW233459   2.710   1.758   5.638
10854SOL     OW33460   4.255   5.709   5.417
10854SOL    HW133461   4.206   5.632   5.459
10854SOL    HW233462   4.296   5.765   5.489
10855SOL     OW33463   2.962   6.632   1.205
10855SOL    HW133464   2.876   6.656   1.161
10855SOL    HW233465   2.949   6.627   1.304
10856SOL     OW33466   6.154   1.538   1.282
10856SOL    HW133467   6.083   1.472   1.308
10856SOL    HW233468   6.137   1.625   1.327
10857SOL     OW33469   6.686   2.582   2.832
10857SOL    HW133470   6.636   2.512   2.782
10857SOL    HW233471   6.748   2.538   2.897
10858SOL     OW33472   0.644   1.969   6.337
10858SOL    HW133473   0.594   1.886   6.315
10858SOL    HW233474   0.742   1.955   6.319
10859SOL     OW33475   2.077   3.333   3.944
10859SOL    HW133476   2.042   3.328   3.851
10859SOL    HW233477   2.143   3.259   3.959
10860SOL     OW33478   6.378   1.530   5.716
10860SOL    HW133479   6.401   1.627   5.724
10860SOL    HW233480   6.313   1.506   5.788
10861SOL     OW33481   3.724   2.931   2.885
10861SOL    HW133482   3.667   2.880   2.821
10861SOL    HW233483   3.781   2.996   2.835
10862SOL     OW33484   2.503   1.948   5.971
10862SOL    HW133485   2.469   1.967   6.063
10862SOL    HW233486   2.468   1.859   5.941
10863SOL     OW33487   4.138   0.562   3.362
10863SOL    HW133488   4.094   0.606   3.440
10863SOL    HW233489   4.209   0.500   3.395
10864SOL     OW33490   3.148   5.256   0.411
10864SOL    HW133491   3.199   5.209   0.340
10864SOL    HW233492   3.074   5.197   0.444
10865SOL     OW33493   6.692   1.699   2.837
10865SOL    HW133494   6.722   1.609   2.868
10865SOL    HW233495   6.772   1.754   2.812
10866SOL     OW33496   5.058   5.080   0.174
10866SOL    HW133497   4.996   5.085   0.096
10866SOL    HW233498   5.069   4.985   0.203
10867SOL     OW33499   3.261   4.030   0.121
10867SOL    HW133500   3.237   4.106   0.180
10867SOL    HW233501   3.358   4.036   0.095
10868SOL     OW33502   3.126   2.158   3.672
10868SOL    HW133503   3.027   2.173   3.668
10868SOL    HW233504   3.161   2.184   3.762
10869NA      NA33505   0.487   2.230   5.905
10870NA      NA33506   4.415   4.702   5.144
10871NA      NA33507   1.736   3.988   2.381
10872NA      NA33508   4.895   4.086   3.671
10873NA      NA33509   4.226   2.289   5.249
10874NA      NA33510   3.166   4.851   1.845
10875NA      NA33511   7.007   4.732   0.628
10876NA      NA33512   3.467   3.545   3.190
10877NA      NA33513   4.871   5.174   1.336
10878NA      NA33514   3.717   6.495   5.408
10879NA      NA33515   6.026   5.408   1.582
10880NA      NA33516   2.116   1.176   4.667
10881NA      NA33517   3.931   5.081   1.785
10882NA      NA33518   3.952   3.327   1.707
   7.02255   7.02255   7.02255
