Generated by trjconv : CNT in water t= 406.00000
33518
    1C        C    1   2.844   2.768   4.749
    1C        C    2   2.900   2.719   4.869
    1C        C    3   2.842   2.773   4.985
    1C        C    4   2.854   2.774   4.260
    1C        C    5   2.904   2.726   4.383
    1C        C    6   2.847   2.771   4.505
    1C        C    7   3.015   2.642   4.626
    1C        C    8   2.897   2.720   4.627
    1C        C    9   3.076   2.603   4.747
    1C        C   10   3.013   2.635   4.869
    1C        C   11   3.184   2.494   4.978
    1C        C   12   3.061   2.561   4.978
    1C        C   13   2.855   2.772   3.773
    1C        C   14   2.906   2.725   3.896
    1C        C   15   2.853   2.775   4.017
    1C        C   16   3.018   2.640   4.137
    1C        C   17   2.905   2.724   4.138
    1C        C   18   3.082   2.613   4.260
    1C        C   19   3.021   2.648   4.382
    1C        C   20   3.210   2.554   4.507
    1C        C   21   3.080   2.609   4.505
    1C        C   22   3.280   2.531   4.627
    1C        C   23   3.209   2.551   4.748
    1C        C   24   3.413   2.476   4.864
    1C        C   25   3.272   2.500   4.865
    1C        C   26   3.490   2.480   4.981
    1C        C   27   2.851   2.770   3.283
    1C        C   28   2.906   2.727   3.406
    1C        C   29   2.857   2.776   3.529
    1C        C   30   3.021   2.640   3.651
    1C        C   31   2.910   2.727   3.650
    1C        C   32   3.079   2.600   3.774
    1C        C   33   3.017   2.638   3.895
    1C        C   34   3.210   2.548   4.017
    1C        C   35   3.079   2.599   4.016
    1C        C   36   3.279   2.532   4.139
    1C        C   37   3.212   2.558   4.261
    1C        C   38   3.415   2.505   4.381
    1C        C   39   3.276   2.532   4.384
    1C        C   40   3.487   2.497   4.502
    1C        C   41   3.417   2.498   4.625
    1C        C   42   3.631   2.480   4.743
    1C        C   43   3.489   2.471   4.744
    1C        C   44   3.704   2.487   4.864
    1C        C   45   3.629   2.480   4.983
    1C        C   46   2.838   2.755   2.796
    1C        C   47   2.895   2.708   2.917
    1C        C   48   2.845   2.760   3.039
    1C        C   49   3.019   2.640   3.163
    1C        C   50   2.901   2.718   3.161
    1C        C   51   3.079   2.603   3.285
    1C        C   52   3.019   2.642   3.407
    1C        C   53   3.210   2.547   3.528
    1C        C   54   3.079   2.601   3.528
    1C        C   55   3.276   2.529   3.651
    1C        C   56   3.208   2.543   3.775
    1C        C   57   3.418   2.501   3.895
    1C        C   58   3.279   2.523   3.895
    1C        C   59   3.488   2.497   4.017
    1C        C   60   3.417   2.503   4.140
    1C        C   61   3.630   2.489   4.261
    1C        C   62   3.488   2.490   4.261
    1C        C   63   3.702   2.502   4.382
    1C        C   64   3.628   2.496   4.503
    1C        C   65   3.835   2.548   4.622
    1C        C   66   3.701   2.506   4.623
    1C        C   67   3.906   2.560   4.744
    1C        C   68   3.838   2.529   4.864
    1C        C   69   4.050   2.591   4.981
    1C        C   70   3.919   2.539   4.978
    1C        C   71   2.822   2.732   2.309
    1C        C   72   2.880   2.688   2.430
    1C        C   73   2.839   2.748   2.551
    1C        C   74   3.011   2.632   2.673
    1C        C   75   2.890   2.703   2.675
    1C        C   76   3.073   2.593   2.794
    1C        C   77   3.010   2.627   2.915
    1C        C   78   3.204   2.546   3.037
    1C        C   79   3.074   2.601   3.039
    1C        C   80   3.273   2.522   3.158
    1C        C   81   3.209   2.548   3.282
    1C        C   82   3.414   2.497   3.404
    1C        C   83   3.275   2.523   3.405
    1C        C   84   3.485   2.495   3.526
    1C        C   85   3.415   2.507   3.648
    1C        C   86   3.627   2.497   3.771
    1C        C   87   3.486   2.498   3.771
    1C        C   88   3.698   2.506   3.893
    1C        C   89   3.629   2.503   4.016
    1C        C   90   3.834   2.547   4.137
    1C        C   91   3.698   2.509   4.139
    1C        C   92   3.900   2.578   4.258
    1C        C   93   3.834   2.551   4.380
    1C        C   94   4.028   2.638   4.501
    1C        C   95   3.904   2.570   4.501
    1C        C   96   4.091   2.673   4.623
    1C        C   97   4.034   2.622   4.742
    1C        C   98   4.192   2.766   4.863
    1C        C   99   4.097   2.659   4.864
    1C        C  100   4.215   2.843   4.977
    1C        C  101   2.820   2.729   2.072
    1C        C  102   2.990   2.591   2.194
    1C        C  103   2.877   2.678   2.189
    1C        C  104   3.064   2.568   2.314
    1C        C  105   3.001   2.614   2.431
    1C        C  106   3.200   2.535   2.551
    1C        C  107   3.072   2.594   2.551
    1C        C  108   3.273   2.518   2.671
    1C        C  109   3.205   2.542   2.793
    1C        C  110   3.412   2.500   2.915
    1C        C  111   3.274   2.527   2.916
    1C        C  112   3.483   2.496   3.038
    1C        C  113   3.412   2.496   3.159
    1C        C  114   3.624   2.499   3.282
    1C        C  115   3.483   2.489   3.281
    1C        C  116   3.695   2.510   3.403
    1C        C  117   3.626   2.501   3.526
    1C        C  118   3.832   2.549   3.646
    1C        C  119   3.696   2.510   3.648
    1C        C  120   3.898   2.571   3.769
    1C        C  121   3.833   2.547   3.892
    1C        C  122   4.022   2.644   4.014
    1C        C  123   3.898   2.576   4.014
    1C        C  124   4.087   2.679   4.134
    1C        C  125   4.026   2.644   4.257
    1C        C  126   4.192   2.773   4.381
    1C        C  127   4.085   2.681   4.379
    1C        C  128   4.240   2.827   4.503
    1C        C  129   4.194   2.770   4.624
    1C        C  130   4.329   2.938   4.742
    1C        C  131   4.245   2.823   4.744
    1C        C  132   4.353   3.007   4.862
    1C        C  133   4.285   2.963   4.976
    1C        C  134   3.172   2.468   2.080
    1C        C  135   3.039   2.512   2.085
    1C        C  136   3.259   2.475   2.190
    1C        C  137   3.195   2.514   2.309
    1C        C  138   3.405   2.475   2.428
    1C        C  139   3.267   2.504   2.431
    1C        C  140   3.481   2.475   2.547
    1C        C  141   3.412   2.493   2.669
    1C        C  142   3.622   2.499   2.792
    1C        C  143   3.481   2.490   2.792
    1C        C  144   3.694   2.511   2.913
    1C        C  145   3.624   2.500   3.036
    1C        C  146   3.831   2.540   3.157
    1C        C  147   3.694   2.505   3.159
    1C        C  148   3.899   2.568   3.277
    1C        C  149   3.832   2.547   3.400
    1C        C  150   4.025   2.633   3.523
    1C        C  151   3.897   2.571   3.522
    1C        C  152   4.083   2.671   3.645
    1C        C  153   4.020   2.641   3.768
    1C        C  154   4.189   2.771   3.890
    1C        C  155   4.079   2.683   3.890
    1C        C  156   4.244   2.816   4.013
    1C        C  157   4.196   2.768   4.137
    1C        C  158   4.339   2.925   4.257
    1C        C  159   4.248   2.817   4.259
    1C        C  160   4.376   2.989   4.377
    1C        C  161   4.333   2.933   4.499
    1C        C  162   4.441   3.118   4.616
    1C        C  163   4.373   2.994   4.620
    1C        C  164   4.461   3.189   4.736
    1C        C  165   4.430   3.126   4.858
    1C        C  166   4.519   3.320   4.972
    1C        C  167   4.477   3.187   4.975
    1C        C  168   3.475   2.434   2.073
    1C        C  169   3.399   2.460   2.188
    1C        C  170   3.619   2.472   2.306
    1C        C  171   3.477   2.468   2.306
    1C        C  172   3.690   2.497   2.425
    1C        C  173   3.621   2.492   2.548
    1C        C  174   3.828   2.541   2.666
    1C        C  175   3.692   2.504   2.669
    1C        C  176   3.896   2.566   2.787
    1C        C  177   3.831   2.545   2.911
    1C        C  178   4.024   2.628   3.032
    1C        C  179   3.896   2.567   3.034
    1C        C  180   4.087   2.664   3.153
    1C        C  181   4.025   2.631   3.276
    1C        C  182   4.194   2.757   3.399
    1C        C  183   4.084   2.668   3.399
    1C        C  184   4.244   2.807   3.521
    1C        C  185   4.195   2.758   3.644
    1C        C  186   4.340   2.912   3.765
    1C        C  187   4.249   2.804   3.766
    1C        C  188   4.380   2.972   3.887
    1C        C  189   4.337   2.923   4.011
    1C        C  190   4.448   3.104   4.129
    1C        C  191   4.379   2.981   4.133
    1C        C  192   4.473   3.173   4.250
    1C        C  193   4.443   3.114   4.374
    1C        C  194   4.513   3.317   4.494
    1C        C  195   4.473   3.182   4.495
    1C        C  196   4.533   3.389   4.614
    1C        C  197   4.518   3.320   4.736
    1C        C  198   4.556   3.536   4.851
    1C        C  199   4.540   3.394   4.855
    1C        C  200   4.579   3.620   4.965
    1C        C  201   3.613   2.411   2.076
    1C        C  202   3.825   2.514   2.185
    1C        C  203   3.693   2.459   2.185
    1C        C  204   3.899   2.545   2.302
    1C        C  205   3.829   2.523   2.423
    1C        C  206   4.022   2.621   2.543
    1C        C  207   3.894   2.560   2.543
    1C        C  208   4.082   2.661   2.664
    1C        C  209   4.021   2.632   2.789
    1C        C  210   4.195   2.753   2.909
    1C        C  211   4.083   2.667   2.910
    1C        C  212   4.246   2.803   3.031
    1C        C  213   4.199   2.751   3.153
    1C        C  214   4.338   2.910   3.275
    1C        C  215   4.246   2.802   3.276
    1C        C  216   4.375   2.970   3.397
    1C        C  217   4.339   2.911   3.521
    1C        C  218   4.439   3.098   3.641
    1C        C  219   4.381   2.969   3.643
    1C        C  220   4.465   3.165   3.763
    1C        C  221   4.443   3.099   3.885
    1C        C  222   4.509   3.304   4.005
    1C        C  223   4.474   3.167   4.005
    1C        C  224   4.522   3.378   4.125
    1C        C  225   4.514   3.308   4.248
    1C        C  226   4.519   3.523   4.367
    1C        C  227   4.522   3.382   4.369
    1C        C  228   4.524   3.599   4.486
    1C        C  229   4.533   3.531   4.609
    1C        C  230   4.500   3.743   4.727
    1C        C  231   4.539   3.606   4.728
    1C        C  232   4.498   3.823   4.843
    1C        C  233   4.550   3.757   4.956
    1C        C  234   4.019   2.611   2.063
    1C        C  235   3.895   2.548   2.068
    1C        C  236   4.085   2.652   2.180
    1C        C  237   4.024   2.613   2.301
    1C        C  238   4.205   2.732   2.422
    1C        C  239   4.088   2.652   2.421
    1C        C  240   4.258   2.781   2.543
    1C        C  241   4.200   2.738   2.665
    1C        C  242   4.338   2.903   2.785
    1C        C  243   4.252   2.791   2.785
    1C        C  244   4.382   2.960   2.906
    1C        C  245   4.339   2.909   3.031
    1C        C  246   4.447   3.092   3.151
    1C        C  247   4.383   2.966   3.153
    1C        C  248   4.467   3.160   3.274
    1C        C  249   4.434   3.099   3.397
    1C        C  250   4.496   3.301   3.516
    1C        C  251   4.463   3.164   3.519
    1C        C  252   4.510   3.370   3.639
    1C        C  253   4.500   3.302   3.762
    1C        C  254   4.525   3.514   3.882
    1C        C  255   4.520   3.373   3.883
    1C        C  256   4.517   3.588   4.003
    1C        C  257   4.524   3.519   4.126
    1C        C  258   4.494   3.733   4.242
    1C        C  259   4.517   3.594   4.245
    1C        C  260   4.474   3.805   4.362
    1C        C  261   4.489   3.736   4.484
    1C        C  262   4.419   3.938   4.605
    1C        C  263   4.470   3.806   4.605
    1C        C  264   4.394   4.011   4.724
    1C        C  265   4.437   3.950   4.844
    1C        C  266   4.314   4.128   4.963
    1C        C  267   4.394   4.014   4.961
    1C        C  268   4.269   2.768   2.063
    1C        C  269   4.204   2.728   2.180
    1C        C  270   4.349   2.887   2.300
    1C        C  271   4.262   2.774   2.300
    1C        C  272   4.388   2.951   2.419
    1C        C  273   4.346   2.892   2.541
    1C        C  274   4.446   3.082   2.661
    1C        C  275   4.380   2.957   2.661
    1C        C  276   4.475   3.150   2.781
    1C        C  277   4.449   3.085   2.904
    1C        C  278   4.509   3.289   3.028
    1C        C  279   4.471   3.152   3.026
    1C        C  280   4.513   3.364   3.148
    1C        C  281   4.497   3.297   3.271
    1C        C  282   4.522   3.510   3.393
    1C        C  283   4.508   3.369   3.393
    1C        C  284   4.515   3.582   3.514
    1C        C  285   4.517   3.511   3.637
    1C        C  286   4.484   3.720   3.754
    1C        C  287   4.515   3.582   3.759
    1C        C  288   4.468   3.791   3.875
    1C        C  289   4.486   3.725   3.999
    1C        C  290   4.422   3.931   4.115
    1C        C  291   4.473   3.800   4.119
    1C        C  292   4.390   3.996   4.236
    1C        C  293   4.422   3.936   4.360
    1C        C  294   4.328   4.127   4.477
    1C        C  295   4.394   4.003   4.482
    1C        C  296   4.281   4.187   4.597
    1C        C  297   4.321   4.133   4.721
    1C        C  298   4.201   4.312   4.836
    1C        C  299   4.280   4.192   4.843
    1C        C  300   4.172   4.400   4.944
    1C        C  301   4.356   2.877   2.065
    1C        C  302   4.476   3.065   2.176
    1C        C  303   4.399   2.944   2.180
    1C        C  304   4.484   3.141   2.296
    1C        C  305   4.451   3.077   2.418
    1C        C  306   4.507   3.284   2.539
    1C        C  307   4.476   3.146   2.539
    1C        C  308   4.517   3.356   2.660
    1C        C  309   4.509   3.287   2.783
    1C        C  310   4.521   3.499   2.900
    1C        C  311   4.518   3.358   2.905
    1C        C  312   4.518   3.571   3.022
    1C        C  313   4.517   3.505   3.147
    1C        C  314   4.488   3.715   3.265
    1C        C  315   4.520   3.577   3.268
    1C        C  316   4.468   3.785   3.386
    1C        C  317   4.485   3.720   3.510
    1C        C  318   4.414   3.920   3.629
    1C        C  319   4.463   3.788   3.632
    1C        C  320   4.382   3.984   3.751
    1C        C  321   4.417   3.923   3.874
    1C        C  322   4.318   4.116   3.990
    1C        C  323   4.389   3.994   3.992
    1C        C  324   4.276   4.174   4.112
    1C        C  325   4.317   4.117   4.235
    1C        C  326   4.187   4.286   4.353
    1C        C  327   4.283   4.182   4.355
    1C        C  328   4.136   4.340   4.473
    1C        C  329   4.191   4.296   4.596
    1C        C  330   4.024   4.435   4.715
    1C        C  331   4.140   4.354   4.714
    1C        C  332   3.970   4.491   4.833
    1C        C  333   4.055   4.477   4.944
    1C        C  334   4.560   3.265   2.065
    1C        C  335   4.541   3.126   2.064
    1C        C  336   4.544   3.348   2.177
    1C        C  337   4.517   3.279   2.298
    1C        C  338   4.519   3.495   2.411
    1C        C  339   4.515   3.354   2.417
    1C        C  340   4.525   3.566   2.533
    1C        C  341   4.523   3.497   2.656
    1C        C  342   4.488   3.707   2.776
    1C        C  343   4.518   3.569   2.778
    1C        C  344   4.472   3.777   2.897
    1C        C  345   4.494   3.710   3.019
    1C        C  346   4.420   3.911   3.140
    1C        C  347   4.469   3.779   3.140
    1C        C  348   4.387   3.979   3.260
    1C        C  349   4.422   3.919   3.383
    1C        C  350   4.317   4.103   3.501
    1C        C  351   4.395   3.985   3.505
    1C        C  352   4.273   4.162   3.622
    1C        C  353   4.313   4.107   3.746
    1C        C  354   4.179   4.273   3.864
    1C        C  355   4.272   4.167   3.867
    1C        C  356   4.127   4.324   3.985
    1C        C  357   4.177   4.275   4.108
    1C        C  358   4.014   4.406   4.230
    1C        C  359   4.131   4.327   4.231
    1C        C  360   3.957   4.452   4.351
    1C        C  361   4.019   4.419   4.473
    1C        C  362   3.828   4.519   4.592
    1C        C  363   3.956   4.460   4.593
    1C        C  364   3.762   4.552   4.713
    1C        C  365   3.838   4.541   4.831
    1C        C  366   3.631   4.591   4.953
    1C        C  367   3.768   4.568   4.950
    1C        C  368   4.511   3.562   2.054
    1C        C  369   4.530   3.488   2.172
    1C        C  370   4.497   3.706   2.289
    1C        C  371   4.515   3.566   2.289
    1C        C  372   4.477   3.773   2.412
    1C        C  373   4.499   3.705   2.534
    1C        C  374   4.421   3.907   2.652
    1C        C  375   4.477   3.777   2.654
    1C        C  376   4.391   3.973   2.773
    1C        C  377   4.419   3.909   2.896
    1C        C  378   4.316   4.095   3.014
    1C        C  379   4.389   3.974   3.018
    1C        C  380   4.273   4.157   3.134
    1C        C  381   4.312   4.099   3.256
    1C        C  382   4.178   4.262   3.376
    1C        C  383   4.272   4.157   3.379
    1C        C  384   4.119   4.305   3.497
    1C        C  385   4.174   4.262   3.620
    1C        C  386   4.011   4.401   3.743
    1C        C  387   4.122   4.314   3.741
    1C        C  388   3.948   4.441   3.863
    1C        C  389   4.012   4.406   3.984
    1C        C  390   3.821   4.496   4.109
    1C        C  391   3.950   4.438   4.107
    1C        C  392   3.753   4.520   4.231
    1C        C  393   3.826   4.506   4.351
    1C        C  394   3.617   4.553   4.476
    1C        C  395   3.757   4.531   4.471
    1C        C  396   3.547   4.568   4.597
    1C        C  397   3.622   4.566   4.717
    1C        C  398   3.412   4.548   4.841
    1C        C  399   3.551   4.572   4.839
    1C        C  400   3.343   4.512   4.958
    1C        C  401   4.505   3.701   2.055
    1C        C  402   4.454   3.917   2.170
    1C        C  403   4.491   3.781   2.170
    1C        C  404   4.412   3.978   2.290
    1C        C  405   4.430   3.906   2.411
    1C        C  406   4.318   4.091   2.526
    1C        C  407   4.395   3.973   2.530
    1C        C  408   4.270   4.145   2.647
    1C        C  409   4.313   4.091   2.770
    1C        C  410   4.173   4.251   2.889
    1C        C  411   4.270   4.148   2.892
    1C        C  412   4.118   4.299   3.010
    1C        C  413   4.169   4.252   3.133
    1C        C  414   4.007   4.390   3.253
    1C        C  415   4.120   4.304   3.255
    1C        C  416   3.945   4.427   3.374
    1C        C  417   4.004   4.388   3.497
    1C        C  418   3.816   4.480   3.618
    1C        C  419   3.947   4.427   3.620
    1C        C  420   3.749   4.505   3.740
    1C        C  421   3.815   4.488   3.863
    1C        C  422   3.613   4.538   3.987
    1C        C  423   3.752   4.514   3.987
    1C        C  424   3.543   4.539   4.110
    1C        C  425   3.613   4.539   4.232
    1C        C  426   3.404   4.545   4.358
    1C        C  427   3.545   4.556   4.355
    1C        C  428   3.335   4.541   4.481
    1C        C  429   3.406   4.556   4.602
    1C        C  430   3.194   4.522   4.725
    1C        C  431   3.334   4.547   4.724
    1C        C  432   3.125   4.498   4.847
    1C        C  433   3.205   4.497   4.962
    1C        C  434   4.388   4.124   2.058
    1C        C  435   4.448   3.997   2.055
    1C        C  436   4.302   4.162   2.165
    1C        C  437   4.335   4.097   2.286
    1C        C  438   4.183   4.254   2.402
    1C        C  439   4.283   4.155   2.404
    1C        C  440   4.127   4.301   2.523
    1C        C  441   4.172   4.246   2.645
    1C        C  442   4.004   4.377   2.765
    1C        C  443   4.119   4.296   2.767
    1C        C  444   3.944   4.417   2.887
    1C        C  445   4.005   4.384   3.009
    1C        C  446   3.812   4.473   3.133
    1C        C  447   3.944   4.423   3.131
    1C        C  448   3.746   4.499   3.255
    1C        C  449   3.816   4.482   3.377
    1C        C  450   3.609   4.535   3.498
    1C        C  451   3.748   4.508   3.498
    1C        C  452   3.539   4.544   3.621
    1C        C  453   3.612   4.539   3.742
    1C        C  454   3.402   4.542   3.867
    1C        C  455   3.543   4.547   3.865
    1C        C  456   3.333   4.534   3.990
    1C        C  457   3.402   4.541   4.113
    1C        C  458   3.195   4.503   4.238
    1C        C  459   3.333   4.534   4.237
    1C        C  460   3.127   4.489   4.361
    1C        C  461   3.196   4.515   4.482
    1C        C  462   3.001   4.432   4.606
    1C        C  463   3.128   4.494   4.603
    1C        C  464   2.932   4.404   4.726
    1C        C  465   2.993   4.442   4.848
    1C        C  466   2.805   4.336   4.962
    1C        C  467   2.911   4.428   4.964
    1C        C  468   4.124   4.289   2.041
    1C        C  469   4.187   4.248   2.160
    1C        C  470   4.009   4.375   2.279
    1C        C  471   4.128   4.298   2.279
    1C        C  472   3.944   4.410   2.400
    1C        C  473   4.008   4.377   2.522
    1C        C  474   3.814   4.469   2.646
    1C        C  475   3.944   4.412   2.642
    1C        C  476   3.747   4.498   2.766
    1C        C  477   3.814   4.473   2.888
    1C        C  478   3.606   4.517   3.008
    1C        C  479   3.745   4.493   3.010
    1C        C  480   3.534   4.525   3.130
    1C        C  481   3.607   4.523   3.252
    1C        C  482   3.398   4.531   3.377
    1C        C  483   3.539   4.534   3.375
    1C        C  484   3.329   4.527   3.500
    1C        C  485   3.398   4.545   3.622
    1C        C  486   3.194   4.502   3.749
    1C        C  487   3.330   4.542   3.746
    1C        C  488   3.130   4.477   3.872
    1C        C  489   3.194   4.506   3.994
    1C        C  490   3.001   4.420   4.116
    1C        C  491   3.126   4.484   4.116
    1C        C  492   2.942   4.384   4.240
    1C        C  493   3.001   4.425   4.361
    1C        C  494   2.829   4.306   4.486
    1C        C  495   2.940   4.393   4.484
    1C        C  496   2.777   4.256   4.607
    1C        C  497   2.819   4.317   4.727
    1C        C  498   2.666   4.166   4.843
    1C        C  499   2.755   4.276   4.846
    1C        C  500   2.600   4.119   4.957
    1C        C  501   4.008   4.364   2.040
    1C        C  502   3.816   4.466   2.157
    1C        C  503   3.943   4.405   2.158
    1C        C  504   3.747   4.488   2.278
    1C        C  505   3.813   4.463   2.401
    1C        C  506   3.608   4.510   2.522
    1C        C  507   3.748   4.489   2.523
    1C        C  508   3.535   4.520   2.643
    1C        C  509   3.607   4.520   2.765
    1C        C  510   3.394   4.533   2.888
    1C        C  511   3.535   4.525   2.886
    1C        C  512   3.321   4.528   3.009
    1C        C  513   3.393   4.529   3.131
    1C        C  514   3.189   4.494   3.260
    1C        C  515   3.326   4.526   3.255
    1C        C  516   3.124   4.469   3.382
    1C        C  517   3.193   4.489   3.504
    1C        C  518   3.002   4.408   3.629
    1C        C  519   3.126   4.474   3.628
    1C        C  520   2.941   4.374   3.752
    1C        C  521   3.004   4.412   3.873
    1C        C  522   2.833   4.288   3.997
    1C        C  523   2.944   4.374   3.995
    1C        C  524   2.780   4.245   4.121
    1C        C  525   2.832   4.295   4.243
    1C        C  526   2.695   4.137   4.363
    1C        C  527   2.781   4.249   4.366
    1C        C  528   2.655   4.079   4.486
    1C        C  529   2.692   4.143   4.606
    1C        C  530   2.585   3.960   4.733
    1C        C  531   2.639   4.091   4.726
    1C        C  532   2.541   3.901   4.855
    1C        C  533   2.534   3.995   4.963
    1C        C  534   3.619   4.558   2.043
    1C        C  535   3.753   4.518   2.043
    1C        C  536   3.537   4.542   2.159
    1C        C  537   3.608   4.517   2.280
    1C        C  538   3.396   4.522   2.400
    1C        C  539   3.537   4.526   2.402
    1C        C  540   3.325   4.512   2.522
    1C        C  541   3.394   4.516   2.645
    1C        C  542   3.186   4.486   2.767
    1C        C  543   3.323   4.520   2.767
    1C        C  544   3.120   4.464   2.890
    1C        C  545   3.185   4.490   3.012
    1C        C  546   3.000   4.398   3.137
    1C        C  547   3.124   4.465   3.137
    1C        C  548   2.942   4.361   3.260
    1C        C  549   2.998   4.403   3.383
    1C        C  550   2.830   4.282   3.508
    1C        C  551   2.939   4.371   3.507
    1C        C  552   2.780   4.233   3.631
    1C        C  553   2.831   4.287   3.751
    1C        C  554   2.700   4.123   3.877
    1C        C  555   2.785   4.235   3.874
    1C        C  556   2.659   4.067   4.000
    1C        C  557   2.698   4.130   4.120
    1C        C  558   2.599   3.944   4.246
    1C        C  559   2.662   4.070   4.243
    1C        C  560   2.569   3.882   4.370
    1C        C  561   2.589   3.954   4.490
    1C        C  562   2.539   3.750   4.617
    1C        C  563   2.570   3.888   4.613
    1C        C  564   2.516   3.682   4.738
    1C        C  565   2.518   3.760   4.857
    1C        C  566   2.522   3.546   4.977
    1C        C  567   2.521   3.685   4.976
    1C        C  568   3.329   4.478   2.044
    1C        C  569   3.396   4.521   2.159
    1C        C  570   3.184   4.480   2.282
    1C        C  571   3.321   4.514   2.280
    1C        C  572   3.118   4.456   2.405
    1C        C  573   3.187   4.485   2.525
    1C        C  574   2.990   4.401   2.646
    1C        C  575   3.117   4.463   2.646
    1C        C  576   2.931   4.365   2.770
    1C        C  577   2.996   4.397   2.891
    1C        C  578   2.829   4.271   3.016
    1C        C  579   2.939   4.360   3.015
    1C        C  580   2.783   4.220   3.139
    1C        C  581   2.836   4.268   3.261
    1C        C  582   2.699   4.114   3.386
    1C        C  583   2.784   4.227   3.386
    1C        C  584   2.658   4.059   3.510
    1C        C  585   2.693   4.121   3.632
    1C        C  586   2.596   3.936   3.755
    1C        C  587   2.662   4.061   3.756
    1C        C  588   2.566   3.876   3.879
    1C        C  589   2.597   3.940   4.001
    1C        C  590   2.540   3.739   4.127
    1C        C  591   2.578   3.875   4.125
    1C        C  592   2.529   3.673   4.251
    1C        C  593   2.536   3.745   4.373
    1C        C  594   2.517   3.536   4.498
    1C        C  595   2.525   3.677   4.497
    1C        C  596   2.521   3.464   4.619
    1C        C  597   2.511   3.540   4.738
    1C        C  598   2.530   3.329   4.863
    1C        C  599   2.515   3.469   4.860
    1C        C  600   2.523   3.243   4.974
    1C        C  601   3.198   4.436   2.044
    1C        C  602   2.986   4.393   2.159
    1C        C  603   3.121   4.441   2.161
    1C        C  604   2.926   4.359   2.284
    1C        C  605   2.991   4.394   2.404
    1C        C  606   2.816   4.274   2.527
    1C        C  607   2.929   4.359   2.526
    1C        C  608   2.770   4.224   2.651
    1C        C  609   2.823   4.274   2.772
    1C        C  610   2.684   4.115   2.895
    1C        C  611   2.773   4.225   2.895
    1C        C  612   2.647   4.057   3.018
    1C        C  613   2.687   4.116   3.140
    1C        C  614   2.587   3.934   3.265
    1C        C  615   2.654   4.059   3.264
    1C        C  616   2.560   3.871   3.389
    1C        C  617   2.591   3.934   3.511
    1C        C  618   2.529   3.733   3.640
    1C        C  619   2.569   3.868   3.634
    1C        C  620   2.514   3.665   3.763
    1C        C  621   2.530   3.739   3.882
    1C        C  622   2.518   3.528   4.010
    1C        C  623   2.523   3.669   4.005
    1C        C  624   2.523   3.460   4.134
    1C        C  625   2.517   3.533   4.255
    1C        C  626   2.537   3.323   4.381
    1C        C  627   2.515   3.463   4.378
    1C        C  628   2.560   3.254   4.502
    1C        C  629   2.543   3.324   4.624
    1C        C  630   2.601   3.120   4.745
    1C        C  631   2.551   3.254   4.746
    1C        C  632   2.619   3.049   4.866
    1C        C  633   2.561   3.108   4.983
    1C        C  634   2.785   4.303   2.054
    1C        C  635   2.892   4.393   2.051
    1C        C  636   2.744   4.233   2.168
    1C        C  637   2.811   4.276   2.284
    1C        C  638   2.677   4.112   2.411
    1C        C  639   2.761   4.226   2.406
    1C        C  640   2.642   4.050   2.532
    1C        C  641   2.685   4.111   2.652
    1C        C  642   2.591   3.922   2.778
    1C        C  643   2.647   4.051   2.775
    1C        C  644   2.562   3.858   2.901
    1C        C  645   2.592   3.927   3.021
    1C        C  646   2.525   3.729   3.151
    1C        C  647   2.564   3.864   3.145
    1C        C  648   2.513   3.659   3.273
    1C        C  649   2.527   3.733   3.392
    1C        C  650   2.511   3.524   3.521
    1C        C  651   2.519   3.665   3.516
    1C        C  652   2.517   3.455   3.644
    1C        C  653   2.511   3.524   3.767
    1C        C  654   2.541   3.315   3.892
    1C        C  655   2.516   3.454   3.890
    1C        C  656   2.555   3.248   4.015
    1C        C  657   2.540   3.320   4.136
    1C        C  658   2.614   3.124   4.261
    1C        C  659   2.556   3.253   4.260
    1C        C  660   2.641   3.058   4.383
    1C        C  661   2.610   3.122   4.505
    1C        C  662   2.713   2.935   4.626
    1C        C  663   2.637   3.054   4.625
    1C        C  664   2.751   2.876   4.748
    1C        C  665   2.698   2.930   4.869
    1C        C  666   2.739   2.866   4.987
    1C        C  667   2.684   4.025   2.055
    1C        C  668   2.682   4.106   2.170
    1C        C  669   2.589   3.913   2.295
    1C        C  670   2.647   4.043   2.291
    1C        C  671   2.555   3.850   2.417
    1C        C  672   2.583   3.922   2.535
    1C        C  673   2.517   3.720   2.660
    1C        C  674   2.562   3.854   2.657
    1C        C  675   2.505   3.652   2.783
    1C        C  676   2.520   3.723   2.904
    1C        C  677   2.512   3.516   3.030
    1C        C  678   2.513   3.658   3.029
    1C        C  679   2.512   3.446   3.152
    1C        C  680   2.511   3.518   3.274
    1C        C  681   2.541   3.314   3.404
    1C        C  682   2.514   3.452   3.399
    1C        C  683   2.565   3.246   3.526
    1C        C  684   2.544   3.317   3.647
    1C        C  685   2.609   3.116   3.770
    1C        C  686   2.558   3.248   3.769
    1C        C  687   2.640   3.054   3.893
    1C        C  688   2.611   3.118   4.015
    1C        C  689   2.721   2.940   4.140
    1C        C  690   2.646   3.060   4.139
    1C        C  691   2.764   2.883   4.262
    1C        C  692   2.715   2.938   4.383
    1C        C  693   2.755   2.877   4.504
    1C        C  694   2.636   3.894   2.062
    1C        C  695   2.529   3.705   2.179
    1C        C  696   2.582   3.836   2.177
    1C        C  697   2.507   3.637   2.301
    1C        C  698   2.512   3.715   2.419
    1C        C  699   2.481   3.507   2.544
    1C        C  700   2.493   3.648   2.541
    1C        C  701   2.498   3.437   2.666
    1C        C  702   2.504   3.511   2.786
    1C        C  703   2.530   3.303   2.912
    1C        C  704   2.511   3.443   2.910
    1C        C  705   2.548   3.237   3.036
    1C        C  706   2.533   3.306   3.158
    1C        C  707   2.602   3.110   3.280
    1C        C  708   2.552   3.242   3.282
    1C        C  709   2.634   3.047   3.403
    1C        C  710   2.608   3.112   3.525
    1C        C  711   2.713   2.930   3.651
    1C        C  712   2.637   3.049   3.648
    1C        C  713   2.764   2.880   3.773
    1C        C  714   2.718   2.936   3.894
    1C        C  715   2.760   2.882   4.018
    1C        C  716   2.450   3.501   2.063
    1C        C  717   2.491   3.635   2.064
    1C        C  718   2.465   3.423   2.182
    1C        C  719   2.481   3.498   2.302
    1C        C  720   2.514   3.293   2.424
    1C        C  721   2.480   3.430   2.426
    1C        C  722   2.536   3.227   2.547
    1C        C  723   2.523   3.298   2.668
    1C        C  724   2.597   3.102   2.791
    1C        C  725   2.540   3.231   2.791
    1C        C  726   2.628   3.039   2.914
    1C        C  727   2.598   3.105   3.036
    1C        C  728   2.712   2.927   3.159
    1C        C  729   2.636   3.046   3.159
    1C        C  730   2.753   2.872   3.283
    1C        C  731   2.711   2.928   3.405
    1C        C  732   2.758   2.877   3.528
    1C        C  733   2.484   3.195   2.076
    1C        C  734   2.488   3.282   2.187
    1C        C  735   2.584   3.085   2.308
    1C        C  736   2.527   3.215   2.306
    1C        C  737   2.618   3.023   2.430
    1C        C  738   2.596   3.099   2.548
    1C        C  739   2.703   2.917   2.672
    1C        C  740   2.627   3.036   2.670
    1C        C  741   2.744   2.860   2.795
    1C        C  742   2.706   2.921   2.917
    1C        C  743   2.749   2.864   3.038
    1C        C  744   2.546   3.070   2.073
    1C        C  745   2.690   2.903   2.190
    1C        C  746   2.615   3.022   2.185
    1C        C  747   2.733   2.842   2.310
    1C        C  748   2.697   2.906   2.431
    1C        C  749   2.747   2.855   2.553
    1C        C  750   2.733   2.838   2.074
    1C        C  751   3.659   2.328   1.963
    1C        O  752   3.730   2.224   1.975
    1C        O  753   3.686   2.380   1.836
    1C        C  754   4.613   3.053   1.958
    1C        O  755   4.559   3.069   1.845
    1C        O  756   4.753   3.043   1.962
    1C        C  757   4.460   4.227   1.980
    1C        O  758   4.545   4.305   2.031
    1C        O  759   4.435   4.245   1.843
    1C        C  760   3.604   4.685   1.968
    1C        O  761   3.675   4.785   1.996
    1C        O  762   3.584   4.667   1.831
    1C        C  763   2.877   4.508   1.960
    1C        O  764   2.893   4.489   1.836
    1C        O  765   2.791   4.614   1.991
    1C        C  766   2.336   3.472   1.973
    1C        O  767   2.368   3.450   1.854
    1C        O  768   2.200   3.499   1.990
    1C        C  769   4.692   3.602   5.059
    1C        O  770   4.671   3.580   5.182
    1C        O  771   4.822   3.650   5.044
    1C        C  772   4.283   4.469   5.014
    1C        O  773   4.284   4.497   5.137
    1C        O  774   4.407   4.504   4.959
    1C        C  775   4.134   2.518   5.078
    1C        O  776   4.259   2.506   5.067
    1C        O  777   4.099   2.527   5.213
    1C        C  778   2.905   4.533   5.068
    1C        O  779   2.883   4.653   5.038
    1C        O  780   2.900   4.500   5.205
    1C        C  781   2.464   3.028   5.061
    1C        O  782   2.378   2.959   4.999
    1C        O  783   2.449   3.028   5.199
    1C        C  784   2.418   3.992   5.054
    1C        O  785   2.299   3.999   5.013
    1C        O  786   2.428   4.037   5.186
    1C        C  787   2.951   2.438   1.992
    1C        O  788   2.954   2.474   1.871
    1C        O  789   2.842   2.368   2.040
    1C        C  790   3.205   2.408   5.097
    1C        O  791   3.176   2.287   5.080
    1C        O  792   3.191   2.462   5.225
    1C        H  793   4.265   3.036   5.052
    1C        H  794   4.144   2.833   5.057
    1C        H  795   4.503   3.133   5.063
    1C        H  796   4.560   3.356   5.065
    1C        H  797   4.567   3.818   5.042
    1C        H  798   4.407   3.970   5.057
    1C        H  799   4.309   4.183   5.054
    1C        H  800   4.032   4.537   5.029
    1C        H  801   3.820   4.574   5.043
    1C        H  802   3.597   4.653   5.033
    1C        H  803   3.387   4.541   5.052
    1C        H  804   3.164   4.529   5.055
    1C        H  805   3.890   2.471   5.056
    1C        H  806   3.673   2.443   5.073
    1C        H  807   2.984   2.510   5.032
    1C        H  808   3.442   2.466   5.075
    1C        H  809   2.884   2.757   5.083
    1C        H  810   2.707   2.896   5.084
    1C        H  811   2.460   3.282   5.051
    1C        H  812   2.480   3.499   5.064
    1C        H  813   2.488   3.734   5.066
    1C        H  814   2.593   4.184   5.041
    1C        H  815   2.796   4.285   5.056
    1C        H  816   2.692   2.863   1.978
    1C        H  817   2.791   2.654   2.001
    1C        H  818   3.213   2.471   1.981
    1C        H  819   3.441   2.483   1.984
    1C        H  820   3.871   2.498   1.977
    1C        H  821   4.088   2.575   1.989
    1C        H  822   4.275   2.698   1.983
    1C        H  823   4.359   2.940   1.979
    1C        H  824   4.562   3.321   1.974
    1C        H  825   4.455   3.518   1.974
    1C        H  826   4.465   3.741   1.964
    1C        H  827   3.804   4.513   1.949
    1C        H  828   3.947   4.348   1.954
    1C        H  829   4.173   4.275   1.947
    1C        H  830   4.524   3.983   1.981
    1C        H  831   2.672   3.829   1.985
    1C        H  832   2.694   4.074   1.960
    1C        H  833   2.702   4.326   1.989
    1C        H  834   3.381   4.491   1.951
    1C        H  835   3.154   4.436   1.946
    1C        H  836   2.501   3.003   2.003
    1C        H  837   2.452   3.238   1.984
    1C        H  838   2.486   3.684   1.969
    2V3OU   H29  839   2.807   3.544   4.714
    2V3OU   C27  840   2.798   3.503   4.818
    2V3OU   H27  841   2.737   3.571   4.883
    2V3OU   H28  842   2.751   3.402   4.801
    2V3OU   O11  843   2.917   3.473   4.892
    2V3OU   C15  844   2.921   3.405   5.011
    2V3OU   C13  845   3.050   3.379   5.060
    2V3OU   C14  846   3.078   3.273   5.148
    2V3OU   C16  847   2.974   3.194   5.194
    2V3OU    H6  848   2.997   3.102   5.251
    2V3OU   C12  849   3.215   3.225   5.180
    2V3OU    O2  850   3.244   3.127   5.251
    2V3OU   C10  851   3.323   3.306   5.122
    2V3OU    C8  852   3.455   3.274   5.154
    2V3OU   O10  853   3.486   3.152   5.205
    2V3OU   H26  854   3.401   3.111   5.225
    2V3OU    C6  855   3.565   3.354   5.111
    2V3OU    C5  856   3.537   3.467   5.035
    2V3OU    C4  857   3.701   3.294   5.105
    2V3OU    H4  858   3.723   3.224   5.191
    2V3OU    H5  859   3.708   3.232   5.011
    2V3OU    C2  860   3.816   3.395   5.094
    2V3OU    O6  861   3.805   3.477   5.210
    2V3OU   H21  862   3.758   3.557   5.184
    2V3OU    C3  863   3.782   3.495   4.983
    2V3OU    H2  864   3.857   3.579   4.981
    2V3OU    H3  865   3.787   3.438   4.886
    2V3OU   C25  866   3.953   3.327   5.082
    2V3OU    O7  867   4.003   3.301   4.973
    2V3OU   C26  868   4.030   3.288   5.207
    2V3OU   H22  869   4.068   3.382   5.255
    2V3OU   H23  870   4.124   3.233   5.180
    2V3OU    O8  871   3.962   3.211   5.304
    2V3OU   H24  872   3.922   3.269   5.371
    2V3OU    C1  873   3.646   3.561   4.994
    2V3OU    H1  874   3.626   3.619   4.899
    2V3OU    O3  875   3.659   3.659   5.098
    2V3OU   C19  876   3.618   3.794   5.075
    2V3OU    H9  877   3.521   3.808   5.019
    2V3OU    O4  878   3.713   3.853   4.989
    2V3OU   C20  879   3.846   3.876   5.037
    2V3OU   H10  880   3.887   3.774   5.063
    2V3OU   C24  881   3.608   3.859   5.213
    2V3OU   H16  882   3.540   3.796   5.275
    2V3OU   H17  883   3.565   3.962   5.204
    2V3OU   C23  884   3.749   3.873   5.272
    2V3OU   H15  885   3.789   3.768   5.291
    2V3OU    N1  886   3.736   3.951   5.393
    2V3OU   H19  887   3.808   3.928   5.459
    2V3OU   H20  888   3.651   3.929   5.442
    2V3OU   C21  889   3.845   3.947   5.173
    2V3OU   H11  890   3.951   3.924   5.203
    2V3OU    O5  891   3.835   4.089   5.172
    2V3OU   H18  892   3.780   4.106   5.250
    2V3OU   C22  893   3.914   3.951   4.925
    2V3OU   H12  894   3.860   4.046   4.900
    2V3OU   H13  895   3.911   3.892   4.830
    2V3OU   H14  896   4.024   3.957   4.946
    2V3OU   C11  897   3.159   3.467   5.016
    2V3OU    O1  898   3.136   3.584   4.977
    2V3OU    C9  899   3.297   3.423   5.045
    2V3OU    C7  900   3.402   3.502   5.002
    2V3OU    O9  901   3.387   3.618   4.928
    2V3OU   H25  902   3.291   3.629   4.927
    2V3OU   C17  903   2.823   3.319   5.066
    2V3OU    H7  904   2.720   3.352   5.061
    2V3OU   C18  905   2.843   3.211   5.151
    2V3OU    H8  906   2.754   3.151   5.176
    3SOL     OW  907   3.368   4.171   5.036
    3SOL    HW1  908   3.325   4.213   4.956
    3SOL    HW2  909   3.467   4.172   5.025
    4SOL     OW  910   6.638   0.114   0.471
    4SOL    HW1  911   6.575   0.037   0.481
    4SOL    HW2  912   6.721   0.083   0.423
    5SOL     OW  913   4.331   1.038   1.535
    5SOL    HW1  914   4.377   1.008   1.619
    5SOL    HW2  915   4.233   1.049   1.553
    6SOL     OW  916   5.656   0.655   3.225
    6SOL    HW1  917   5.606   0.572   3.251
    6SOL    HW2  918   5.697   0.695   3.307
    7SOL     OW  919   1.300   4.208   4.616
    7SOL    HW1  920   1.393   4.188   4.648
    7SOL    HW2  921   1.275   4.300   4.644
    8SOL     OW  922   1.960   3.055   6.048
    8SOL    HW1  923   1.898   3.034   6.124
    8SOL    HW2  924   1.998   3.147   6.060
    9SOL     OW  925   6.205   1.390   6.431
    9SOL    HW1  926   6.169   1.348   6.347
    9SOL    HW2  927   6.198   1.325   6.507
   10SOL     OW  928   5.154   4.714   3.170
   10SOL    HW1  929   5.076   4.752   3.120
   10SOL    HW2  930   5.199   4.644   3.115
   11SOL     OW  931   2.247   1.303   0.555
   11SOL    HW1  932   2.281   1.312   0.649
   11SOL    HW2  933   2.320   1.325   0.491
   12SOL     OW  934   2.910   4.766   3.644
   12SOL    HW1  935   2.972   4.688   3.648
   12SOL    HW2  936   2.912   4.814   3.732
   13SOL     OW  937   4.421   6.099   2.371
   13SOL    HW1  938   4.383   6.046   2.295
   13SOL    HW2  939   4.346   6.137   2.425
   14SOL     OW  940   4.908   5.085   5.007
   14SOL    HW1  941   4.939   5.028   4.931
   14SOL    HW2  942   4.860   5.029   5.074
   15SOL     OW  943   0.782   5.658   5.887
   15SOL    HW1  944   0.830   5.682   5.803
   15SOL    HW2  945   0.760   5.741   5.938
   16SOL     OW  946   6.769   2.898   6.058
   16SOL    HW1  947   6.745   2.922   5.964
   16SOL    HW2  948   6.758   2.800   6.071
   17SOL     OW  949   6.080   0.562   5.423
   17SOL    HW1  950   6.070   0.514   5.510
   17SOL    HW2  951   5.991   0.571   5.379
   18SOL     OW  952   3.362   6.787   5.047
   18SOL    HW1  953   3.359   6.811   4.950
   18SOL    HW2  954   3.270   6.766   5.079
   19SOL     OW  955   0.979   1.256   3.129
   19SOL    HW1  956   0.947   1.328   3.190
   19SOL    HW2  957   1.036   1.296   3.057
   20SOL     OW  958   5.664   2.595   5.274
   20SOL    HW1  959   5.674   2.679   5.328
   20SOL    HW2  960   5.713   2.520   5.319
   21SOL     OW  961   4.048   6.827   2.709
   21SOL    HW1  962   3.997   6.788   2.632
   21SOL    HW2  963   4.138   6.783   2.716
   22SOL     OW  964   2.526   6.565   4.899
   22SOL    HW1  965   2.538   6.469   4.925
   22SOL    HW2  966   2.454   6.606   4.955
   23SOL     OW  967   5.365   4.420   2.351
   23SOL    HW1  968   5.388   4.461   2.262
   23SOL    HW2  969   5.296   4.348   2.337
   24SOL     OW  970   4.336   0.698   1.171
   24SOL    HW1  971   4.270   0.772   1.159
   24SOL    HW2  972   4.337   0.640   1.089
   25SOL     OW  973   2.813   6.877   3.338
   25SOL    HW1  974   2.862   6.911   3.419
   25SOL    HW2  975   2.719   6.910   3.340
   26SOL     OW  976   0.661   2.643   6.495
   26SOL    HW1  977   0.713   2.681   6.572
   26SOL    HW2  978   0.628   2.552   6.519
   27SOL     OW  979   6.054   1.041   1.810
   27SOL    HW1  980   6.091   1.087   1.891
   27SOL    HW2  981   5.955   1.030   1.821
   28SOL     OW  982   1.947   0.483   4.075
   28SOL    HW1  983   2.018   0.522   4.133
   28SOL    HW2  984   1.954   0.383   4.078
   29SOL     OW  985   6.997   0.676   0.412
   29SOL    HW1  986   0.005   0.612   0.482
   29SOL    HW2  987   6.898   0.671   0.407
   30SOL     OW  988   4.268   0.720   4.988
   30SOL    HW1  989   4.187   0.664   5.009
   30SOL    HW2  990   4.283   0.786   5.062
   31SOL     OW  991   0.826   2.996   5.622
   31SOL    HW1  992   0.817   2.897   5.608
   31SOL    HW2  993   0.840   3.041   5.534
   32SOL     OW  994   1.651   0.398   1.184
   32SOL    HW1  995   1.722   0.456   1.224
   32SOL    HW2  996   1.694   0.320   1.138
   33SOL     OW  997   0.645   4.256   6.445
   33SOL    HW1  998   0.733   4.304   6.448
   33SOL    HW2  999   0.625   4.228   6.352
   34SOL     OW 1000   1.465   5.279   4.857
   34SOL    HW1 1001   1.561   5.254   4.865
   34SOL    HW2 1002   1.429   5.302   4.947
   35SOL     OW 1003   4.175   3.169   0.071
   35SOL    HW1 1004   4.128   3.209   7.019
   35SOL    HW2 1005   4.149   3.218   0.155
   36SOL     OW 1006   4.637   0.676   3.713
   36SOL    HW1 1007   4.672   0.762   3.751
   36SOL    HW2 1008   4.602   0.619   3.787
   37SOL     OW 1009   1.921   1.417   3.592
   37SOL    HW1 1010   1.979   1.482   3.641
   37SOL    HW2 1011   1.978   1.354   3.539
   38SOL     OW 1012   1.245   4.952   2.341
   38SOL    HW1 1013   1.291   5.027   2.294
   38SOL    HW2 1014   1.311   4.879   2.360
   39SOL     OW 1015   6.009   4.960   6.788
   39SOL    HW1 1016   6.041   4.891   6.723
   39SOL    HW2 1017   6.003   4.920   6.879
   40SOL     OW 1018   3.164   0.655   6.120
   40SOL    HW1 1019   3.217   0.687   6.042
   40SOL    HW2 1020   3.179   0.557   6.133
   41SOL     OW 1021   6.148   4.053   1.905
   41SOL    HW1 1022   6.062   4.060   1.955
   41SOL    HW2 1023   6.209   3.989   1.952
   42SOL     OW 1024   2.478   5.892   5.179
   42SOL    HW1 1025   2.550   5.939   5.231
   42SOL    HW2 1026   2.398   5.879   5.238
   43SOL     OW 1027   4.893   6.784   4.810
   43SOL    HW1 1028   4.967   6.734   4.766
   43SOL    HW2 1029   4.893   6.879   4.778
   44SOL     OW 1030   5.811   2.265   5.365
   44SOL    HW1 1031   5.901   2.228   5.387
   44SOL    HW2 1032   5.741   2.215   5.417
   45SOL     OW 1033   4.024   4.951   0.337
   45SOL    HW1 1034   3.976   5.033   0.368
   45SOL    HW2 1035   3.994   4.927   0.245
   46SOL     OW 1036   0.579   3.124   4.871
   46SOL    HW1 1037   0.575   3.132   4.771
   46SOL    HW2 1038   0.598   3.029   4.896
   47SOL     OW 1039   5.947   2.993   1.713
   47SOL    HW1 1040   5.870   2.950   1.666
   47SOL    HW2 1041   5.975   3.075   1.663
   48SOL     OW 1042   6.401   3.953   6.829
   48SOL    HW1 1043   6.464   4.023   6.865
   48SOL    HW2 1044   6.409   3.870   6.884
   49SOL     OW 1045   4.761   2.980   0.405
   49SOL    HW1 1046   4.731   2.918   0.332
   49SOL    HW2 1047   4.858   2.966   0.422
   50SOL     OW 1048   6.423   2.466   6.458
   50SOL    HW1 1049   6.428   2.469   6.557
   50SOL    HW2 1050   6.446   2.555   6.420
   51SOL     OW 1051   1.798   4.850   3.243
   51SOL    HW1 1052   1.758   4.774   3.294
   51SOL    HW2 1053   1.822   4.819   3.151
   52SOL     OW 1054   5.787   2.742   1.586
   52SOL    HW1 1055   5.826   2.661   1.631
   52SOL    HW2 1056   5.741   2.799   1.653
   53SOL     OW 1057   4.540   0.832   2.823
   53SOL    HW1 1058   4.514   0.794   2.911
   53SOL    HW2 1059   4.459   0.840   2.765
   54SOL     OW 1060   5.183   6.338   0.031
   54SOL    HW1 1061   5.195   6.389   0.116
   54SOL    HW2 1062   5.216   6.393   6.980
   55SOL     OW 1063   1.770   2.992   6.532
   55SOL    HW1 1064   1.677   3.030   6.539
   55SOL    HW2 1065   1.768   2.896   6.558
   56SOL     OW 1066   1.517   2.438   6.741
   56SOL    HW1 1067   1.556   2.371   6.804
   56SOL    HW2 1068   1.453   2.498   6.790
   57SOL     OW 1069   4.125   0.817   0.622
   57SOL    HW1 1070   4.046   0.829   0.682
   57SOL    HW2 1071   4.110   0.867   0.537
   58SOL     OW 1072   0.863   0.999   6.307
   58SOL    HW1 1073   0.930   1.006   6.232
   58SOL    HW2 1074   0.894   1.056   6.384
   59SOL     OW 1075   5.742   3.309   6.379
   59SOL    HW1 1076   5.709   3.386   6.325
   59SOL    HW2 1077   5.692   3.226   6.354
   60SOL     OW 1078   5.472   0.723   3.005
   60SOL    HW1 1079   5.505   0.739   2.912
   60SOL    HW2 1080   5.548   0.726   3.069
   61SOL     OW 1081   0.197   0.371   5.078
   61SOL    HW1 1082   0.274   0.428   5.110
   61SOL    HW2 1083   0.224   0.275   5.078
   62SOL     OW 1084   0.003   1.970   2.388
   62SOL    HW1 1085   6.970   2.050   2.373
   62SOL    HW2 1086   6.995   1.894   2.333
   63SOL     OW 1087   3.995   6.601   4.820
   63SOL    HW1 1088   3.955   6.521   4.774
   63SOL    HW2 1089   4.054   6.650   4.756
   64SOL     OW 1090   1.228   4.078   6.551
   64SOL    HW1 1091   1.273   4.125   6.475
   64SOL    HW2 1092   1.289   4.075   6.630
   65SOL     OW 1093   0.737   0.208   5.383
   65SOL    HW1 1094   0.802   0.205   5.307
   65SOL    HW2 1095   0.773   0.266   5.456
   66SOL     OW 1096   3.970   0.133   2.149
   66SOL    HW1 1097   3.905   0.170   2.083
   66SOL    HW2 1098   4.026   0.063   2.104
   67SOL     OW 1099   0.579   2.694   1.266
   67SOL    HW1 1100   0.599   2.703   1.364
   67SOL    HW2 1101   0.647   2.634   1.224
   68SOL     OW 1102   6.691   2.283   5.536
   68SOL    HW1 1103   6.668   2.289   5.439
   68SOL    HW2 1104   6.640   2.352   5.587
   69SOL     OW 1105   0.860   5.144   5.867
   69SOL    HW1 1106   0.861   5.106   5.960
   69SOL    HW2 1107   0.928   5.216   5.859
   70SOL     OW 1108   5.597   3.716   5.160
   70SOL    HW1 1109   5.596   3.782   5.235
   70SOL    HW2 1110   5.692   3.694   5.136
   71SOL     OW 1111   4.568   2.102   4.281
   71SOL    HW1 1112   4.542   2.175   4.218
   71SOL    HW2 1113   4.636   2.137   4.346
   72SOL     OW 1114   6.573   0.515   3.619
   72SOL    HW1 1115   6.602   0.608   3.596
   72SOL    HW2 1116   6.653   0.454   3.619
   73SOL     OW 1117   2.951   0.830   0.878
   73SOL    HW1 1118   2.958   0.899   0.951
   73SOL    HW2 1119   2.858   0.795   0.874
   74SOL     OW 1120   1.998   1.731   7.017
   74SOL    HW1 1121   1.907   1.690   7.007
   74SOL    HW2 1122   2.008   1.806   6.952
   75SOL     OW 1123   4.200   1.516   0.909
   75SOL    HW1 1124   4.260   1.582   0.954
   75SOL    HW2 1125   4.218   1.516   0.811
   76SOL     OW 1126   3.025   4.291   5.313
   76SOL    HW1 1127   3.122   4.308   5.296
   76SOL    HW2 1128   2.973   4.374   5.294
   77SOL     OW 1129   1.445   5.200   4.328
   77SOL    HW1 1130   1.495   5.214   4.242
   77SOL    HW2 1131   1.469   5.273   4.392
   78SOL     OW 1132   4.360   1.365   1.545
   78SOL    HW1 1133   4.302   1.334   1.620
   78SOL    HW2 1134   4.439   1.305   1.538
   79SOL     OW 1135   2.064   5.376   2.130
   79SOL    HW1 1136   2.003   5.398   2.054
   79SOL    HW2 1137   2.111   5.460   2.160
   80SOL     OW 1138   4.612   1.816   5.350
   80SOL    HW1 1139   4.633   1.723   5.379
   80SOL    HW2 1140   4.674   1.880   5.395
   81SOL     OW 1141   3.068   6.046   1.807
   81SOL    HW1 1142   2.981   5.997   1.801
   81SOL    HW2 1143   3.142   5.985   1.777
   82SOL     OW 1144   1.002   5.964   1.480
   82SOL    HW1 1145   0.927   5.917   1.433
   82SOL    HW2 1146   0.965   6.038   1.536
   83SOL     OW 1147   5.541   2.045   5.332
   83SOL    HW1 1148   5.519   2.032   5.236
   83SOL    HW2 1149   5.465   2.012   5.388
   84SOL     OW 1150   5.949   2.709   3.371
   84SOL    HW1 1151   5.877   2.735   3.307
   84SOL    HW2 1152   6.003   2.635   3.332
   85SOL     OW 1153   2.168   0.115   4.047
   85SOL    HW1 1154   2.068   0.119   4.047
   85SOL    HW2 1155   2.198   0.067   3.965
   86SOL     OW 1156   5.642   1.576   6.167
   86SOL    HW1 1157   5.568   1.559   6.232
   86SOL    HW2 1158   5.606   1.571   6.074
   87SOL     OW 1159   3.630   4.237   6.494
   87SOL    HW1 1160   3.571   4.273   6.566
   87SOL    HW2 1161   3.673   4.313   6.445
   88SOL     OW 1162   3.416   3.457   6.845
   88SOL    HW1 1163   3.408   3.499   6.935
   88SOL    HW2 1164   3.433   3.528   6.776
   89SOL     OW 1165   2.906   3.543   3.014
   89SOL    HW1 1166   2.996   3.502   2.997
   89SOL    HW2 1167   2.857   3.552   2.928
   90SOL     OW 1168   4.876   3.902   2.755
   90SOL    HW1 1169   4.890   3.972   2.686
   90SOL    HW2 1170   4.822   3.939   2.831
   91SOL     OW 1171   5.613   4.852   5.799
   91SOL    HW1 1172   5.663   4.917   5.856
   91SOL    HW2 1173   5.571   4.900   5.722
   92SOL     OW 1174   5.450   4.280   6.823
   92SOL    HW1 1175   5.540   4.259   6.783
   92SOL    HW2 1176   5.439   4.379   6.828
   93SOL     OW 1177   2.334   3.386   1.479
   93SOL    HW1 1178   2.325   3.316   1.550
   93SOL    HW2 1179   2.307   3.347   1.391
   94SOL     OW 1180   3.334   0.721   5.878
   94SOL    HW1 1181   3.394   0.641   5.872
   94SOL    HW2 1182   3.300   0.745   5.788
   95SOL     OW 1183   0.043   0.471   4.167
   95SOL    HW1 1184   0.087   0.482   4.077
   95SOL    HW2 1185   6.989   0.531   4.172
   96SOL     OW 1186   4.797   4.715   0.136
   96SOL    HW1 1187   4.766   4.727   0.231
   96SOL    HW2 1188   4.896   4.705   0.134
   97SOL     OW 1189   1.960   5.285   5.393
   97SOL    HW1 1190   1.896   5.210   5.412
   97SOL    HW2 1191   2.050   5.246   5.369
   98SOL     OW 1192   1.375   2.945   2.621
   98SOL    HW1 1193   1.325   2.875   2.671
   98SOL    HW2 1194   1.332   2.959   2.532
   99SOL     OW 1195   3.812   2.933   3.961
   99SOL    HW1 1196   3.848   2.846   3.928
   99SOL    HW2 1197   3.792   2.926   4.059
  100SOL     OW 1198   0.018   6.991   3.794
  100SOL    HW1 1199   6.975   7.023   3.728
  100SOL    HW2 1200   7.000   6.929   3.859
  101SOL     OW 1201   0.401   3.808   2.817
  101SOL    HW1 1202   0.327   3.769   2.762
  101SOL    HW2 1203   0.483   3.752   2.808
  102SOL     OW 1204   2.571   6.520   1.270
  102SOL    HW1 1205   2.485   6.529   1.220
  102SOL    HW2 1206   2.555   6.471   1.355
  103SOL     OW 1207   1.938   0.596   2.351
  103SOL    HW1 1208   1.973   0.603   2.257
  103SOL    HW2 1209   1.838   0.608   2.350
  104SOL     OW 1210   1.184   4.544   2.049
  104SOL    HW1 1211   1.226   4.609   2.112
  104SOL    HW2 1212   1.224   4.453   2.063
  105SOL     OW 1213   4.664   1.880   6.236
  105SOL    HW1 1214   4.621   1.897   6.325
  105SOL    HW2 1215   4.620   1.803   6.192
  106SOL     OW 1216   5.434   5.207   2.533
  106SOL    HW1 1217   5.480   5.119   2.519
  106SOL    HW2 1218   5.388   5.234   2.448
  107SOL     OW 1219   5.960   1.197   0.666
  107SOL    HW1 1220   5.894   1.238   0.603
  107SOL    HW2 1221   5.944   1.099   0.672
  108SOL     OW 1222   1.499   0.735   5.441
  108SOL    HW1 1223   1.537   0.791   5.514
  108SOL    HW2 1224   1.570   0.672   5.408
  109SOL     OW 1225   2.733   1.091   3.480
  109SOL    HW1 1226   2.734   1.002   3.436
  109SOL    HW2 1227   2.744   1.080   3.579
  110SOL     OW 1228   2.845   4.646   5.588
  110SOL    HW1 1229   2.788   4.564   5.583
  110SOL    HW2 1230   2.898   4.655   5.503
  111SOL     OW 1231   6.277   1.532   2.497
  111SOL    HW1 1232   6.320   1.452   2.457
  111SOL    HW2 1233   6.185   1.543   2.459
  112SOL     OW 1234   4.165   0.031   6.521
  112SOL    HW1 1235   4.099   0.058   6.592
  112SOL    HW2 1236   4.116   7.014   6.445
  113SOL     OW 1237   6.443   6.459   2.754
  113SOL    HW1 1238   6.383   6.499   2.684
  113SOL    HW2 1239   6.388   6.424   2.829
  114SOL     OW 1240   1.511   4.049   4.014
  114SOL    HW1 1241   1.455   4.067   3.934
  114SOL    HW2 1242   1.608   4.051   3.988
  115SOL     OW 1243   5.772   1.269   3.332
  115SOL    HW1 1244   5.802   1.201   3.399
  115SOL    HW2 1245   5.672   1.270   3.328
  116SOL     OW 1246   1.230   5.215   0.575
  116SOL    HW1 1247   1.307   5.215   0.511
  116SOL    HW2 1248   1.241   5.291   0.639
  117SOL     OW 1249   2.280   1.420   6.961
  117SOL    HW1 1250   2.247   1.326   6.971
  117SOL    HW2 1251   2.216   1.483   7.007
  118SOL     OW 1252   1.052   1.856   4.649
  118SOL    HW1 1253   1.061   1.899   4.560
  118SOL    HW2 1254   1.127   1.886   4.709
  119SOL     OW 1255   6.965   6.710   6.148
  119SOL    HW1 1256   6.955   6.788   6.210
  119SOL    HW2 1257   6.877   6.688   6.107
  120SOL     OW 1258   4.628   1.552   4.542
  120SOL    HW1 1259   4.560   1.500   4.593
  120SOL    HW2 1260   4.674   1.616   4.603
  121SOL     OW 1261   1.155   3.764   6.476
  121SOL    HW1 1262   1.102   3.759   6.560
  121SOL    HW2 1263   1.192   3.857   6.465
  122SOL     OW 1264   0.889   4.440   0.091
  122SOL    HW1 1265   0.909   4.507   0.163
  122SOL    HW2 1266   0.831   4.368   0.129
  123SOL     OW 1267   1.076   1.348   1.694
  123SOL    HW1 1268   1.035   1.272   1.643
  123SOL    HW2 1269   1.121   1.313   1.776
  124SOL     OW 1270   2.810   2.556   0.801
  124SOL    HW1 1271   2.735   2.506   0.758
  124SOL    HW2 1272   2.816   2.532   0.898
  125SOL     OW 1273   3.484   2.545   0.163
  125SOL    HW1 1274   3.391   2.572   0.140
  125SOL    HW2 1275   3.541   2.547   0.081
  126SOL     OW 1276   4.047   3.175   3.899
  126SOL    HW1 1277   4.049   3.272   3.926
  126SOL    HW2 1278   4.015   3.120   3.976
  127SOL     OW 1279   0.343   6.240   6.142
  127SOL    HW1 1280   0.375   6.221   6.235
  127SOL    HW2 1281   0.243   6.248   6.143
  128SOL     OW 1282   4.818   3.516   1.044
  128SOL    HW1 1283   4.741   3.562   1.001
  128SOL    HW2 1284   4.789   3.475   1.131
  129SOL     OW 1285   2.337   6.097   0.857
  129SOL    HW1 1286   2.241   6.069   0.867
  129SOL    HW2 1287   2.370   6.134   0.944
  130SOL     OW 1288   5.644   2.445   4.641
  130SOL    HW1 1289   5.645   2.482   4.548
  130SOL    HW2 1290   5.604   2.353   4.639
  131SOL     OW 1291   0.002   2.507   3.593
  131SOL    HW1 1292   0.044   2.545   3.675
  131SOL    HW2 1293   0.072   2.466   3.535
  132SOL     OW 1294   3.553   4.173   1.935
  132SOL    HW1 1295   3.533   4.259   1.888
  132SOL    HW2 1296   3.581   4.104   1.868
  133SOL     OW 1297   5.327   6.855   5.122
  133SOL    HW1 1298   5.375   6.790   5.181
  133SOL    HW2 1299   5.370   6.856   5.032
  134SOL     OW 1300   5.425   1.009   1.982
  134SOL    HW1 1301   5.453   1.026   2.077
  134SOL    HW2 1302   5.351   1.071   1.958
  135SOL     OW 1303   4.996   3.533   4.363
  135SOL    HW1 1304   4.950   3.604   4.416
  135SOL    HW2 1305   4.940   3.508   4.284
  136SOL     OW 1306   3.318   6.623   5.542
  136SOL    HW1 1307   3.409   6.659   5.560
  136SOL    HW2 1308   3.263   6.693   5.496
  137SOL     OW 1309   3.267   1.848   4.950
  137SOL    HW1 1310   3.345   1.842   5.012
  137SOL    HW2 1311   3.261   1.940   4.912
  138SOL     OW 1312   0.984   5.664   5.107
  138SOL    HW1 1313   1.055   5.721   5.067
  138SOL    HW2 1314   0.959   5.590   5.044
  139SOL     OW 1315   2.458   6.217   6.364
  139SOL    HW1 1316   2.382   6.153   6.366
  139SOL    HW2 1317   2.544   6.166   6.372
  140SOL     OW 1318   2.151   1.020   3.079
  140SOL    HW1 1319   2.096   1.039   2.998
  140SOL    HW2 1320   2.211   1.098   3.099
  141SOL     OW 1321   6.783   4.537   0.204
  141SOL    HW1 1322   6.823   4.627   0.217
  141SOL    HW2 1323   6.701   4.544   0.148
  142SOL     OW 1324   1.350   3.904   1.879
  142SOL    HW1 1325   1.257   3.937   1.862
  142SOL    HW2 1326   1.372   3.831   1.814
  143SOL     OW 1327   5.099   6.582   1.977
  143SOL    HW1 1328   5.152   6.567   1.894
  143SOL    HW2 1329   5.125   6.670   2.018
  144SOL     OW 1330   2.838   4.920   2.858
  144SOL    HW1 1331   2.872   4.922   2.953
  144SOL    HW2 1332   2.758   4.978   2.850
  145SOL     OW 1333   6.670   4.522   3.079
  145SOL    HW1 1334   6.603   4.476   3.021
  145SOL    HW2 1335   6.736   4.456   3.113
  146SOL     OW 1336   6.248   1.588   6.008
  146SOL    HW1 1337   6.168   1.588   5.949
  146SOL    HW2 1338   6.245   1.669   6.068
  147SOL     OW 1339   4.695   1.103   5.934
  147SOL    HW1 1340   4.692   1.005   5.913
  147SOL    HW2 1341   4.769   1.146   5.882
  148SOL     OW 1342   1.314   4.969   1.349
  148SOL    HW1 1343   1.352   4.880   1.324
  148SOL    HW2 1344   1.383   5.040   1.335
  149SOL     OW 1345   2.274   2.304   5.713
  149SOL    HW1 1346   2.244   2.289   5.619
  149SOL    HW2 1347   2.346   2.373   5.714
  150SOL     OW 1348   4.653   1.258   4.663
  150SOL    HW1 1349   4.730   1.251   4.600
  150SOL    HW2 1350   4.584   1.320   4.626
  151SOL     OW 1351   3.938   1.981   0.801
  151SOL    HW1 1352   3.876   1.922   0.854
  151SOL    HW2 1353   4.004   2.024   0.862
  152SOL     OW 1354   0.995   1.026   0.044
  152SOL    HW1 1355   1.084   1.062   0.072
  152SOL    HW2 1356   0.981   0.936   0.085
  153SOL     OW 1357   2.500   1.182   4.150
  153SOL    HW1 1358   2.457   1.134   4.073
  153SOL    HW2 1359   2.563   1.251   4.115
  154SOL     OW 1360   6.089   2.056   1.268
  154SOL    HW1 1361   6.115   1.981   1.328
  154SOL    HW2 1362   6.168   2.088   1.216
  155SOL     OW 1363   0.808   6.786   1.331
  155SOL    HW1 1364   0.754   6.705   1.354
  155SOL    HW2 1365   0.849   6.823   1.413
  156SOL     OW 1366   4.533   1.788   0.422
  156SOL    HW1 1367   4.609   1.847   0.396
  156SOL    HW2 1368   4.520   1.717   0.352
  157SOL     OW 1369   5.185   4.604   0.853
  157SOL    HW1 1370   5.094   4.560   0.850
  157SOL    HW2 1371   5.205   4.631   0.947
  158SOL     OW 1372   0.621   2.632   3.372
  158SOL    HW1 1373   0.682   2.710   3.359
  158SOL    HW2 1374   0.671   2.557   3.416
  159SOL     OW 1375   5.699   5.546   0.312
  159SOL    HW1 1376   5.734   5.608   0.242
  159SOL    HW2 1377   5.637   5.595   0.373
  160SOL     OW 1378   6.145   6.695   0.827
  160SOL    HW1 1379   6.157   6.794   0.823
  160SOL    HW2 1380   6.188   6.653   0.747
  161SOL     OW 1381   0.601   0.309   0.490
  161SOL    HW1 1382   0.508   0.284   0.516
  161SOL    HW2 1383   0.657   0.227   0.482
  162SOL     OW 1384   3.303   6.565   0.524
  162SOL    HW1 1385   3.223   6.510   0.549
  162SOL    HW2 1386   3.386   6.512   0.541
  163SOL     OW 1387   7.006   3.696   3.889
  163SOL    HW1 1388   6.993   3.788   3.853
  163SOL    HW2 1389   0.053   3.697   3.958
  164SOL     OW 1390   1.688   1.718   3.077
  164SOL    HW1 1391   1.676   1.782   3.153
  164SOL    HW2 1392   1.767   1.660   3.094
  165SOL     OW 1393   0.661   5.508   2.604
  165SOL    HW1 1394   0.725   5.437   2.636
  165SOL    HW2 1395   0.696   5.598   2.629
  166SOL     OW 1396   6.690   4.119   2.786
  166SOL    HW1 1397   6.613   4.057   2.773
  166SOL    HW2 1398   6.689   4.188   2.713
  167SOL     OW 1399   4.888   2.378   0.074
  167SOL    HW1 1400   4.961   2.404   0.138
  167SOL    HW2 1401   4.926   2.317   0.004
  168SOL     OW 1402   4.929   3.965   2.190
  168SOL    HW1 1403   4.976   4.044   2.149
  168SOL    HW2 1404   4.893   3.907   2.117
  169SOL     OW 1405   6.006   2.518   1.300
  169SOL    HW1 1406   5.927   2.457   1.315
  169SOL    HW2 1407   5.991   2.571   1.216
  170SOL     OW 1408   0.798   5.109   1.902
  170SOL    HW1 1409   0.737   5.063   1.836
  170SOL    HW2 1410   0.745   5.134   1.983
  171SOL     OW 1411   2.569   4.044   0.760
  171SOL    HW1 1412   2.666   4.020   0.755
  171SOL    HW2 1413   2.539   4.041   0.855
  172SOL     OW 1414   6.430   2.314   1.677
  172SOL    HW1 1415   6.513   2.260   1.686
  172SOL    HW2 1416   6.357   2.257   1.639
  173SOL     OW 1417   6.702   1.477   5.834
  173SOL    HW1 1418   6.731   1.426   5.914
  173SOL    HW2 1419   6.606   1.503   5.843
  174SOL     OW 1420   5.838   5.273   5.105
  174SOL    HW1 1421   5.844   5.283   5.204
  174SOL    HW2 1422   5.748   5.238   5.080
  175SOL     OW 1423   1.053   0.527   0.612
  175SOL    HW1 1424   0.985   0.508   0.541
  175SOL    HW2 1425   1.020   0.490   0.699
  176SOL     OW 1426   5.099   5.012   2.562
  176SOL    HW1 1427   5.122   5.075   2.488
  176SOL    HW2 1428   5.180   4.995   2.618
  177SOL     OW 1429   5.562   2.215   4.320
  177SOL    HW1 1430   5.569   2.210   4.420
  177SOL    HW2 1431   5.654   2.208   4.281
  178SOL     OW 1432   1.929   6.419   5.388
  178SOL    HW1 1433   1.847   6.368   5.414
  178SOL    HW2 1434   1.909   6.517   5.389
  179SOL     OW 1435   4.324   5.371   0.815
  179SOL    HW1 1436   4.293   5.279   0.839
  179SOL    HW2 1437   4.267   5.407   0.742
  180SOL     OW 1438   4.497   1.010   1.083
  180SOL    HW1 1439   4.527   0.999   1.178
  180SOL    HW2 1440   4.471   1.105   1.067
  181SOL     OW 1441   3.530   2.736   5.331
  181SOL    HW1 1442   3.440   2.764   5.298
  181SOL    HW2 1443   3.522   2.698   5.423
  182SOL     OW 1444   5.000   2.502   6.532
  182SOL    HW1 1445   5.043   2.540   6.615
  182SOL    HW2 1446   5.020   2.562   6.455
  183SOL     OW 1447   3.231   1.661   3.826
  183SOL    HW1 1448   3.269   1.693   3.740
  183SOL    HW2 1449   3.304   1.627   3.885
  184SOL     OW 1450   6.962   0.082   2.662
  184SOL    HW1 1451   6.963   0.019   2.739
  184SOL    HW2 1452   6.920   0.169   2.691
  185SOL     OW 1453   0.279   1.499   4.012
  185SOL    HW1 1454   0.289   1.401   3.993
  185SOL    HW2 1455   0.296   1.516   4.109
  186SOL     OW 1456   4.258   5.422   4.122
  186SOL    HW1 1457   4.199   5.480   4.178
  186SOL    HW2 1458   4.321   5.371   4.181
  187SOL     OW 1459   4.272   5.931   2.207
  187SOL    HW1 1460   4.200   5.954   2.272
  187SOL    HW2 1461   4.328   5.857   2.245
  188SOL     OW 1462   2.470   2.546   2.658
  188SOL    HW1 1463   2.524   2.467   2.687
  188SOL    HW2 1464   2.477   2.619   2.726
  189SOL     OW 1465   6.258   5.680   6.358
  189SOL    HW1 1466   6.305   5.762   6.324
  189SOL    HW2 1467   6.316   5.600   6.342
  190SOL     OW 1468   5.425   6.370   0.292
  190SOL    HW1 1469   5.447   6.457   0.335
  190SOL    HW2 1470   5.465   6.365   0.201
  191SOL     OW 1471   5.845   0.774   5.707
  191SOL    HW1 1472   5.933   0.806   5.674
  191SOL    HW2 1473   5.774   0.840   5.684
  192SOL     OW 1474   0.491   5.349   0.981
  192SOL    HW1 1475   0.584   5.345   1.015
  192SOL    HW2 1476   0.454   5.441   0.996
  193SOL     OW 1477   3.321   5.067   6.342
  193SOL    HW1 1478   3.386   5.054   6.417
  193SOL    HW2 1479   3.309   4.981   6.293
  194SOL     OW 1480   4.264   6.752   2.082
  194SOL    HW1 1481   4.216   6.730   2.167
  194SOL    HW2 1482   4.242   6.685   2.012
  195SOL     OW 1483   3.139   1.015   1.322
  195SOL    HW1 1484   3.100   1.052   1.238
  195SOL    HW2 1485   3.065   0.979   1.379
  196SOL     OW 1486   1.932   0.839   6.671
  196SOL    HW1 1487   1.941   0.740   6.661
  196SOL    HW2 1488   2.017   0.876   6.710
  197SOL     OW 1489   2.459   5.364   0.269
  197SOL    HW1 1490   2.558   5.358   0.279
  197SOL    HW2 1491   2.415   5.328   0.350
  198SOL     OW 1492   4.291   6.496   0.233
  198SOL    HW1 1493   4.254   6.439   0.306
  198SOL    HW2 1494   4.249   6.471   0.146
  199SOL     OW 1495   5.837   6.919   2.895
  199SOL    HW1 1496   5.907   6.991   2.895
  199SOL    HW2 1497   5.763   6.944   2.832
  200SOL     OW 1498   0.969   3.843   3.118
  200SOL    HW1 1499   1.026   3.900   3.059
  200SOL    HW2 1500   0.970   3.748   3.085
  201SOL     OW 1501   2.648   0.958   0.132
  201SOL    HW1 1502   2.727   0.995   0.181
  201SOL    HW2 1503   2.680   0.901   0.056
  202SOL     OW 1504   3.962   6.766   3.830
  202SOL    HW1 1505   3.993   6.675   3.801
  202SOL    HW2 1506   4.037   6.813   3.876
  203SOL     OW 1507   5.460   3.597   6.433
  203SOL    HW1 1508   5.477   3.514   6.487
  203SOL    HW2 1509   5.365   3.599   6.404
  204SOL     OW 1510   1.842   6.954   0.400
  204SOL    HW1 1511   1.776   6.926   0.330
  204SOL    HW2 1512   1.880   0.018   0.376
  205SOL     OW 1513   5.587   1.916   1.134
  205SOL    HW1 1514   5.610   1.995   1.077
  205SOL    HW2 1515   5.524   1.944   1.206
  206SOL     OW 1516   0.362   4.836   1.544
  206SOL    HW1 1517   0.458   4.850   1.521
  206SOL    HW2 1518   0.345   4.869   1.637
  207SOL     OW 1519   4.364   0.507   5.763
  207SOL    HW1 1520   4.345   0.434   5.697
  207SOL    HW2 1521   4.441   0.480   5.821
  208SOL     OW 1522   4.943   5.036   6.007
  208SOL    HW1 1523   5.030   4.988   5.990
  208SOL    HW2 1524   4.961   5.133   6.023
  209SOL     OW 1525   6.811   6.072   5.795
  209SOL    HW1 1526   6.850   6.005   5.731
  209SOL    HW2 1527   6.857   6.063   5.884
  210SOL     OW 1528   4.146   1.895   1.887
  210SOL    HW1 1529   4.161   1.796   1.887
  210SOL    HW2 1530   4.078   1.919   1.818
  211SOL     OW 1531   0.787   1.524   1.297
  211SOL    HW1 1532   0.835   1.514   1.384
  211SOL    HW2 1533   0.852   1.552   1.226
  212SOL     OW 1534   0.785   4.924   3.020
  212SOL    HW1 1535   0.817   4.942   3.113
  212SOL    HW2 1536   0.754   4.829   3.014
  213SOL     OW 1537   4.899   1.528   0.201
  213SOL    HW1 1538   4.868   1.433   0.206
  213SOL    HW2 1539   4.850   1.575   0.128
  214SOL     OW 1540   0.828   6.534   2.370
  214SOL    HW1 1541   0.852   6.500   2.280
  214SOL    HW2 1542   0.801   6.630   2.364
  215SOL     OW 1543   3.843   2.905   2.166
  215SOL    HW1 1544   3.843   2.818   2.214
  215SOL    HW2 1545   3.822   2.891   2.070
  216SOL     OW 1546   1.236   0.299   5.148
  216SOL    HW1 1547   1.192   0.303   5.058
  216SOL    HW2 1548   1.275   0.388   5.170
  217SOL     OW 1549   1.445   2.489   3.835
  217SOL    HW1 1550   1.468   2.539   3.751
  217SOL    HW2 1551   1.521   2.430   3.861
  218SOL     OW 1552   1.136   2.774   4.977
  218SOL    HW1 1553   1.080   2.838   5.031
  218SOL    HW2 1554   1.229   2.810   4.968
  219SOL     OW 1555   4.101   4.162   0.358
  219SOL    HW1 1556   4.196   4.171   0.329
  219SOL    HW2 1557   4.075   4.066   0.356
  220SOL     OW 1558   2.956   5.288   0.098
  220SOL    HW1 1559   2.999   5.361   0.152
  220SOL    HW2 1560   3.027   5.228   0.062
  221SOL     OW 1561   5.269   3.307   3.740
  221SOL    HW1 1562   5.251   3.372   3.666
  221SOL    HW2 1563   5.310   3.354   3.818
  222SOL     OW 1564   0.957   6.075   5.689
  222SOL    HW1 1565   1.038   6.074   5.748
  222SOL    HW2 1566   0.875   6.058   5.745
  223SOL     OW 1567   0.276   3.296   2.050
  223SOL    HW1 1568   0.371   3.264   2.053
  223SOL    HW2 1569   0.215   3.217   2.055
  224SOL     OW 1570   2.860   2.027   2.031
  224SOL    HW1 1571   2.848   2.122   2.059
  224SOL    HW2 1572   2.887   1.972   2.110
  225SOL     OW 1573   5.727   0.981   0.099
  225SOL    HW1 1574   5.636   1.006   0.066
  225SOL    HW2 1575   5.757   1.048   0.168
  226SOL     OW 1576   0.566   6.139   0.257
  226SOL    HW1 1577   0.655   6.184   0.254
  226SOL    HW2 1578   0.573   6.047   0.219
  227SOL     OW 1579   2.037   3.484   3.795
  227SOL    HW1 1580   2.095   3.442   3.725
  227SOL    HW2 1581   1.958   3.526   3.752
  228SOL     OW 1582   4.168   6.622   4.098
  228SOL    HW1 1583   4.179   6.715   4.065
  228SOL    HW2 1584   4.071   6.604   4.114
  229SOL     OW 1585   6.106   5.802   1.921
  229SOL    HW1 1586   6.181   5.860   1.954
  229SOL    HW2 1587   6.142   5.737   1.854
  230SOL     OW 1588   2.245   4.241   4.933
  230SOL    HW1 1589   2.151   4.233   4.968
  230SOL    HW2 1590   2.296   4.158   4.957
  231SOL     OW 1591   0.055   3.382   6.560
  231SOL    HW1 1592   0.056   3.453   6.630
  231SOL    HW2 1593   7.001   3.323   6.574
  232SOL     OW 1594   1.115   3.425   6.894
  232SOL    HW1 1595   1.185   3.451   6.828
  232SOL    HW2 1596   1.104   3.499   6.961
  233SOL     OW 1597   2.474   1.424   5.610
  233SOL    HW1 1598   2.564   1.388   5.583
  233SOL    HW2 1599   2.433   1.472   5.533
  234SOL     OW 1600   2.743   4.966   0.102
  234SOL    HW1 1601   2.690   4.891   0.063
  234SOL    HW2 1602   2.726   5.049   0.049
  235SOL     OW 1603   3.000   3.387   3.932
  235SOL    HW1 1604   2.969   3.438   3.851
  235SOL    HW2 1605   2.999   3.289   3.911
  236SOL     OW 1606   6.900   2.711   5.536
  236SOL    HW1 1607   6.945   2.628   5.570
  236SOL    HW2 1608   6.803   2.692   5.521
  237SOL     OW 1609   0.313   7.013   1.261
  237SOL    HW1 1610   0.362   7.023   1.174
  237SOL    HW2 1611   0.282   6.918   1.271
  238SOL     OW 1612   5.809   3.468   2.031
  238SOL    HW1 1613   5.860   3.425   2.106
  238SOL    HW2 1614   5.870   3.483   1.954
  239SOL     OW 1615   6.562   5.677   6.568
  239SOL    HW1 1616   6.626   5.722   6.506
  239SOL    HW2 1617   6.518   5.601   6.520
  240SOL     OW 1618   0.297   4.119   6.291
  240SOL    HW1 1619   0.288   4.167   6.378
  240SOL    HW2 1620   0.356   4.039   6.304
  241SOL     OW 1621   0.492   1.014   3.663
  241SOL    HW1 1622   0.555   1.029   3.587
  241SOL    HW2 1623   0.540   1.028   3.750
  242SOL     OW 1624   1.431   3.750   4.836
  242SOL    HW1 1625   1.423   3.814   4.913
  242SOL    HW2 1626   1.342   3.708   4.819
  243SOL     OW 1627   5.718   0.044   5.402
  243SOL    HW1 1628   5.764   0.113   5.347
  243SOL    HW2 1629   5.635   0.083   5.442
  244SOL     OW 1630   5.878   2.076   5.107
  244SOL    HW1 1631   5.973   2.098   5.131
  244SOL    HW2 1632   5.841   2.147   5.047
  245SOL     OW 1633   6.503   2.886   4.517
  245SOL    HW1 1634   6.599   2.867   4.496
  245SOL    HW2 1635   6.452   2.800   4.523
  246SOL     OW 1636   4.808   3.940   3.455
  246SOL    HW1 1637   4.754   4.024   3.458
  246SOL    HW2 1638   4.798   3.897   3.366
  247SOL     OW 1639   1.571   1.281   4.307
  247SOL    HW1 1640   1.606   1.276   4.401
  247SOL    HW2 1641   1.599   1.367   4.265
  248SOL     OW 1642   5.012   2.105   3.923
  248SOL    HW1 1643   4.976   2.198   3.932
  248SOL    HW2 1644   5.104   2.109   3.883
  249SOL     OW 1645   3.117   6.566   4.558
  249SOL    HW1 1646   3.210   6.582   4.525
  249SOL    HW2 1647   3.110   6.473   4.596
  250SOL     OW 1648   5.357   3.769   5.453
  250SOL    HW1 1649   5.327   3.840   5.517
  250SOL    HW2 1650   5.306   3.685   5.470
  251SOL     OW 1651   4.522   3.019   6.656
  251SOL    HW1 1652   4.529   3.009   6.755
  251SOL    HW2 1653   4.432   2.986   6.625
  252SOL     OW 1654   6.484   1.101   5.904
  252SOL    HW1 1655   6.400   1.110   5.957
  252SOL    HW2 1656   6.558   1.149   5.950
  253SOL     OW 1657   2.755   3.022   0.390
  253SOL    HW1 1658   2.725   2.947   0.332
  253SOL    HW2 1659   2.685   3.093   0.391
  254SOL     OW 1660   6.674   3.550   4.517
  254SOL    HW1 1661   6.672   3.563   4.418
  254SOL    HW2 1662   6.751   3.600   4.556
  255SOL     OW 1663   2.789   2.343   3.301
  255SOL    HW1 1664   2.786   2.395   3.216
  255SOL    HW2 1665   2.760   2.402   3.377
  256SOL     OW 1666   6.248   5.231   0.118
  256SOL    HW1 1667   6.187   5.285   0.176
  256SOL    HW2 1668   6.253   5.274   0.027
  257SOL     OW 1669   3.097   5.483   6.204
  257SOL    HW1 1670   3.080   5.527   6.292
  257SOL    HW2 1671   3.010   5.461   6.161
  258SOL     OW 1672   5.947   4.162   4.161
  258SOL    HW1 1673   5.861   4.176   4.113
  258SOL    HW2 1674   5.969   4.244   4.214
  259SOL     OW 1675   1.494   2.675   2.896
  259SOL    HW1 1676   1.546   2.743   2.948
  259SOL    HW2 1677   1.428   2.721   2.837
  260SOL     OW 1678   5.566   0.330   6.039
  260SOL    HW1 1679   5.582   0.411   5.983
  260SOL    HW2 1680   5.591   0.351   6.134
  261SOL     OW 1681   1.078   4.040   1.996
  261SOL    HW1 1682   0.992   4.064   2.039
  261SOL    HW2 1683   1.146   4.016   2.066
  262SOL     OW 1684   0.951   3.403   1.913
  262SOL    HW1 1685   0.856   3.435   1.913
  262SOL    HW2 1686   0.999   3.442   1.834
  263SOL     OW 1687   0.644   2.039   5.050
  263SOL    HW1 1688   0.732   2.076   5.021
  263SOL    HW2 1689   0.578   2.049   4.975
  264SOL     OW 1690   1.846   4.669   6.144
  264SOL    HW1 1691   1.774   4.708   6.085
  264SOL    HW2 1692   1.804   4.613   6.215
  265SOL     OW 1693   5.213   4.569   4.087
  265SOL    HW1 1694   5.146   4.499   4.059
  265SOL    HW2 1695   5.188   4.657   4.046
  266SOL     OW 1696   4.291   1.234   0.708
  266SOL    HW1 1697   4.192   1.221   0.716
  266SOL    HW2 1698   4.309   1.327   0.675
  267SOL     OW 1699   1.522   2.178   6.230
  267SOL    HW1 1700   1.482   2.255   6.282
  267SOL    HW2 1701   1.507   2.093   6.281
  268SOL     OW 1702   4.289   4.678   4.358
  268SOL    HW1 1703   4.295   4.698   4.456
  268SOL    HW2 1704   4.221   4.607   4.342
  269SOL     OW 1705   0.766   2.174   6.311
  269SOL    HW1 1706   0.722   2.259   6.283
  269SOL    HW2 1707   0.735   2.148   6.402
  270SOL     OW 1708   4.878   0.836   2.076
  270SOL    HW1 1709   4.906   0.771   2.146
  270SOL    HW2 1710   4.802   0.891   2.111
  271SOL     OW 1711   1.352   0.255   0.081
  271SOL    HW1 1712   1.270   0.252   0.138
  271SOL    HW2 1713   1.433   0.249   0.139
  272SOL     OW 1714   3.442   5.272   3.257
  272SOL    HW1 1715   3.374   5.198   3.257
  272SOL    HW2 1716   3.513   5.252   3.326
  273SOL     OW 1717   2.039   6.065   4.963
  273SOL    HW1 1718   1.944   6.048   4.934
  273SOL    HW2 1719   2.093   5.981   4.950
  274SOL     OW 1720   6.312   2.831   2.803
  274SOL    HW1 1721   6.221   2.827   2.845
  274SOL    HW2 1722   6.347   2.738   2.792
  275SOL     OW 1723   6.470   6.276   5.449
  275SOL    HW1 1724   6.549   6.295   5.507
  275SOL    HW2 1725   6.452   6.355   5.390
  276SOL     OW 1726   6.557   6.268   3.905
  276SOL    HW1 1727   6.611   6.352   3.906
  276SOL    HW2 1728   6.570   6.221   3.817
  277SOL     OW 1729   3.930   1.601   5.357
  277SOL    HW1 1730   3.943   1.665   5.432
  277SOL    HW2 1731   4.009   1.540   5.352
  278SOL     OW 1732   5.687   3.705   2.404
  278SOL    HW1 1733   5.689   3.799   2.438
  278SOL    HW2 1734   5.706   3.705   2.306
  279SOL     OW 1735   0.338   2.683   3.372
  279SOL    HW1 1736   0.330   2.639   3.461
  279SOL    HW2 1737   0.435   2.693   3.348
  280SOL     OW 1738   4.674   0.304   4.472
  280SOL    HW1 1739   4.656   0.303   4.571
  280SOL    HW2 1740   4.588   0.305   4.422
  281SOL     OW 1741   5.155   6.308   4.126
  281SOL    HW1 1742   5.136   6.396   4.081
  281SOL    HW2 1743   5.070   6.255   4.134
  282SOL     OW 1744   4.523   1.937   6.483
  282SOL    HW1 1745   4.531   2.033   6.509
  282SOL    HW2 1746   4.427   1.911   6.480
  283SOL     OW 1747   6.459   0.941   4.796
  283SOL    HW1 1748   6.557   0.946   4.781
  283SOL    HW2 1749   6.413   1.014   4.745
  284SOL     OW 1750   6.315   5.403   4.409
  284SOL    HW1 1751   6.296   5.331   4.342
  284SOL    HW2 1752   6.401   5.382   4.456
  285SOL     OW 1753   3.959   0.522   6.917
  285SOL    HW1 1754   3.938   0.446   6.855
  285SOL    HW2 1755   3.993   0.599   6.863
  286SOL     OW 1756   3.919   4.977   4.650
  286SOL    HW1 1757   3.946   4.925   4.569
  286SOL    HW2 1758   4.001   5.007   4.699
  287SOL     OW 1759   3.010   6.261   5.917
  287SOL    HW1 1760   3.091   6.319   5.922
  287SOL    HW2 1761   2.935   6.312   5.877
  288SOL     OW 1762   3.782   1.155   0.463
  288SOL    HW1 1763   3.704   1.208   0.495
  288SOL    HW2 1764   3.771   1.135   0.366
  289SOL     OW 1765   0.447   6.374   4.078
  289SOL    HW1 1766   0.544   6.391   4.064
  289SOL    HW2 1767   0.428   6.276   4.070
  290SOL     OW 1768   3.728   0.891   3.794
  290SOL    HW1 1769   3.654   0.937   3.745
  290SOL    HW2 1770   3.716   0.792   3.789
  291SOL     OW 1771   4.772   0.569   4.425
  291SOL    HW1 1772   4.729   0.484   4.457
  291SOL    HW2 1773   4.857   0.546   4.378
  292SOL     OW 1774   3.667   0.145   3.486
  292SOL    HW1 1775   3.687   0.078   3.558
  292SOL    HW2 1776   3.576   0.183   3.501
  293SOL     OW 1777   5.793   6.641   2.897
  293SOL    HW1 1778   5.818   6.733   2.927
  293SOL    HW2 1779   5.737   6.646   2.814
  294SOL     OW 1780   5.784   1.190   5.661
  294SOL    HW1 1781   5.739   1.103   5.641
  294SOL    HW2 1782   5.851   1.210   5.589
  295SOL     OW 1783   1.070   1.857   5.300
  295SOL    HW1 1784   1.167   1.879   5.316
  295SOL    HW2 1785   1.053   1.852   5.201
  296SOL     OW 1786   6.580   1.448   1.589
  296SOL    HW1 1787   6.667   1.494   1.608
  296SOL    HW2 1788   6.546   1.478   1.500
  297SOL     OW 1789   5.766   4.084   3.780
  297SOL    HW1 1790   5.846   4.103   3.837
  297SOL    HW2 1791   5.786   4.008   3.719
  298SOL     OW 1792   4.202   0.396   0.486
  298SOL    HW1 1793   4.262   0.402   0.407
  298SOL    HW2 1794   4.145   0.478   0.490
  299SOL     OW 1795   2.842   1.260   6.518
  299SOL    HW1 1796   2.791   1.220   6.441
  299SOL    HW2 1797   2.823   1.358   6.524
  300SOL     OW 1798   3.592   0.969   2.827
  300SOL    HW1 1799   3.654   0.987   2.751
  300SOL    HW2 1800   3.571   1.054   2.875
  301SOL     OW 1801   6.137   6.180   1.711
  301SOL    HW1 1802   6.124   6.088   1.674
  301SOL    HW2 1803   6.057   6.206   1.765
  302SOL     OW 1804   6.826   6.473   1.726
  302SOL    HW1 1805   6.743   6.423   1.752
  302SOL    HW2 1806   6.876   6.499   1.809
  303SOL     OW 1807   6.402   6.319   2.412
  303SOL    HW1 1808   6.369   6.410   2.437
  303SOL    HW2 1809   6.497   6.309   2.442
  304SOL     OW 1810   1.438   0.099   5.197
  304SOL    HW1 1811   1.385   0.025   5.236
  304SOL    HW2 1812   1.376   0.168   5.159
  305SOL     OW 1813   1.913   2.563   1.690
  305SOL    HW1 1814   1.826   2.594   1.730
  305SOL    HW2 1815   1.967   2.642   1.664
  306SOL     OW 1816   6.176   0.967   3.330
  306SOL    HW1 1817   6.149   1.034   3.262
  306SOL    HW2 1818   6.200   1.013   3.416
  307SOL     OW 1819   3.101   3.469   2.084
  307SOL    HW1 1820   3.160   3.415   2.023
  307SOL    HW2 1821   3.085   3.419   2.168
  308SOL     OW 1822   5.640   1.011   4.000
  308SOL    HW1 1823   5.656   1.071   4.078
  308SOL    HW2 1824   5.561   0.952   4.020
  309SOL     OW 1825   0.863   6.593   6.474
  309SOL    HW1 1826   0.781   6.588   6.531
  309SOL    HW2 1827   0.850   6.536   6.393
  310SOL     OW 1828   5.039   5.244   4.433
  310SOL    HW1 1829   5.039   5.343   4.447
  310SOL    HW2 1830   5.088   5.222   4.349
  311SOL     OW 1831   1.408   5.713   2.792
  311SOL    HW1 1832   1.342   5.711   2.867
  311SOL    HW2 1833   1.483   5.776   2.815
  312SOL     OW 1834   4.250   2.154   3.194
  312SOL    HW1 1835   4.267   2.076   3.255
  312SOL    HW2 1836   4.298   2.234   3.230
  313SOL     OW 1837   3.631   3.709   2.848
  313SOL    HW1 1838   3.688   3.641   2.894
  313SOL    HW2 1839   3.592   3.771   2.915
  314SOL     OW 1840   1.726   6.702   5.043
  314SOL    HW1 1841   1.699   6.794   5.013
  314SOL    HW2 1842   1.793   6.710   5.117
  315SOL     OW 1843   6.262   1.073   3.603
  315SOL    HW1 1844   6.359   1.096   3.604
  315SOL    HW2 1845   6.208   1.155   3.586
  316SOL     OW 1846   4.115   1.365   4.967
  316SOL    HW1 1847   4.173   1.294   4.926
  316SOL    HW2 1848   4.166   1.411   5.040
  317SOL     OW 1849   1.525   1.309   1.605
  317SOL    HW1 1850   1.510   1.399   1.565
  317SOL    HW2 1851   1.468   1.242   1.557
  318SOL     OW 1852   6.748   0.481   5.856
  318SOL    HW1 1853   6.732   0.445   5.764
  318SOL    HW2 1854   6.677   0.447   5.918
  319SOL     OW 1855   1.374   2.016   2.689
  319SOL    HW1 1856   1.445   2.076   2.654
  319SOL    HW2 1857   1.400   1.920   2.674
  320SOL     OW 1858   5.455   2.351   6.799
  320SOL    HW1 1859   5.478   2.298   6.717
  320SOL    HW2 1860   5.512   2.433   6.802
  321SOL     OW 1861   4.199   3.085   0.990
  321SOL    HW1 1862   4.215   3.007   1.050
  321SOL    HW2 1863   4.120   3.067   0.931
  322SOL     OW 1864   4.452   3.555   0.029
  322SOL    HW1 1865   4.495   3.641   7.025
  322SOL    HW2 1866   4.518   3.481   0.023
  323SOL     OW 1867   0.253   3.034   3.596
  323SOL    HW1 1868   0.196   3.099   3.645
  323SOL    HW2 1869   0.338   3.079   3.568
  324SOL     OW 1870   1.647   0.446   2.938
  324SOL    HW1 1871   1.723   0.506   2.965
  324SOL    HW2 1872   1.576   0.449   3.008
  325SOL     OW 1873   1.046   3.486   2.288
  325SOL    HW1 1874   1.122   3.535   2.329
  325SOL    HW2 1875   0.967   3.548   2.280
  326SOL     OW 1876   1.966   5.761   6.341
  326SOL    HW1 1877   2.042   5.700   6.364
  326SOL    HW2 1878   1.939   5.747   6.246
  327SOL     OW 1879   3.742   5.338   3.120
  327SOL    HW1 1880   3.699   5.319   3.208
  327SOL    HW2 1881   3.816   5.404   3.133
  328SOL     OW 1882   2.349   4.642   2.007
  328SOL    HW1 1883   2.328   4.609   2.099
  328SOL    HW2 1884   2.374   4.739   2.011
  329SOL     OW 1885   3.165   4.145   1.853
  329SOL    HW1 1886   3.077   4.146   1.805
  329SOL    HW2 1887   3.234   4.188   1.795
  330SOL     OW 1888   4.063   4.632   0.049
  330SOL    HW1 1889   4.122   4.639   6.994
  330SOL    HW2 1890   4.120   4.635   0.131
  331SOL     OW 1891   4.808   5.178   0.696
  331SOL    HW1 1892   4.886   5.228   0.734
  331SOL    HW2 1893   4.723   5.217   0.730
  332SOL     OW 1894   5.638   2.171   3.400
  332SOL    HW1 1895   5.674   2.264   3.387
  332SOL    HW2 1896   5.614   2.158   3.496
  333SOL     OW 1897   3.677   0.920   5.608
  333SOL    HW1 1898   3.715   1.006   5.643
  333SOL    HW2 1899   3.620   0.939   5.528
  334SOL     OW 1900   4.046   3.363   2.816
  334SOL    HW1 1901   4.118   3.412   2.766
  334SOL    HW2 1902   4.047   3.391   2.912
  335SOL     OW 1903   3.816   6.898   7.001
  335SOL    HW1 1904   3.859   6.838   0.043
  335SOL    HW2 1905   3.837   6.865   6.909
  336SOL     OW 1906   2.281   1.713   3.532
  336SOL    HW1 1907   2.352   1.741   3.597
  336SOL    HW2 1908   2.305   1.746   3.440
  337SOL     OW 1909   1.606   1.796   6.150
  337SOL    HW1 1910   1.697   1.830   6.178
  337SOL    HW2 1911   1.597   1.805   6.051
  338SOL     OW 1912   4.582   2.625   1.414
  338SOL    HW1 1913   4.596   2.700   1.478
  338SOL    HW2 1914   4.524   2.655   1.338
  339SOL     OW 1915   4.172   5.023   4.802
  339SOL    HW1 1916   4.214   5.054   4.717
  339SOL    HW2 1917   4.224   4.946   4.839
  340SOL     OW 1918   4.630   2.317   4.886
  340SOL    HW1 1919   4.565   2.386   4.853
  340SOL    HW2 1920   4.630   2.239   4.824
  341SOL     OW 1921   5.793   6.487   3.832
  341SOL    HW1 1922   5.744   6.429   3.898
  341SOL    HW2 1923   5.890   6.491   3.857
  342SOL     OW 1924   4.918   3.335   0.857
  342SOL    HW1 1925   4.845   3.268   0.862
  342SOL    HW2 1926   4.895   3.414   0.913
  343SOL     OW 1927   1.058   5.507   2.850
  343SOL    HW1 1928   1.098   5.478   2.763
  343SOL    HW2 1929   0.994   5.437   2.882
  344SOL     OW 1930   1.468   1.541   1.430
  344SOL    HW1 1931   1.546   1.548   1.367
  344SOL    HW2 1932   1.436   1.633   1.453
  345SOL     OW 1933   6.818   2.393   4.498
  345SOL    HW1 1934   6.835   2.307   4.451
  345SOL    HW2 1935   6.728   2.428   4.473
  346SOL     OW 1936   2.011   0.199   2.647
  346SOL    HW1 1937   2.109   0.205   2.666
  346SOL    HW2 1938   1.971   0.126   2.702
  347SOL     OW 1939   3.151   5.407   0.742
  347SOL    HW1 1940   3.186   5.478   0.803
  347SOL    HW2 1941   3.225   5.344   0.718
  348SOL     OW 1942   4.933   5.132   2.063
  348SOL    HW1 1943   5.010   5.186   2.098
  348SOL    HW2 1944   4.874   5.190   2.007
  349SOL     OW 1945   6.998   3.900   1.362
  349SOL    HW1 1946   0.031   3.822   1.383
  349SOL    HW2 1947   7.026   3.940   1.275
  350SOL     OW 1948   4.074   3.341   0.283
  350SOL    HW1 1949   4.076   3.436   0.253
  350SOL    HW2 1950   4.104   3.335   0.378
  351SOL     OW 1951   3.102   3.667   0.682
  351SOL    HW1 1952   3.108   3.618   0.768
  351SOL    HW2 1953   3.012   3.654   0.642
  352SOL     OW 1954   4.409   5.877   3.850
  352SOL    HW1 1955   4.430   5.907   3.757
  352SOL    HW2 1956   4.491   5.886   3.907
  353SOL     OW 1957   2.369   6.901   5.848
  353SOL    HW1 1958   2.414   6.892   5.937
  353SOL    HW2 1959   2.286   6.956   5.858
  354SOL     OW 1960   5.459   2.691   1.322
  354SOL    HW1 1961   5.541   2.634   1.327
  354SOL    HW2 1962   5.446   2.723   1.228
  355SOL     OW 1963   1.730   2.988   2.423
  355SOL    HW1 1964   1.656   2.997   2.356
  355SOL    HW2 1965   1.732   3.069   2.481
  356SOL     OW 1966   1.737   0.403   5.251
  356SOL    HW1 1967   1.688   0.347   5.318
  356SOL    HW2 1968   1.686   0.403   5.165
  357SOL     OW 1969   6.127   0.055   4.562
  357SOL    HW1 1970   6.152   0.110   4.641
  357SOL    HW2 1971   6.152   0.104   4.478
  358SOL     OW 1972   5.292   5.536   0.727
  358SOL    HW1 1973   5.269   5.462   0.664
  358SOL    HW2 1974   5.246   5.620   0.699
  359SOL     OW 1975   3.088   1.567   2.300
  359SOL    HW1 1976   3.000   1.568   2.348
  359SOL    HW2 1977   3.141   1.647   2.327
  360SOL     OW 1978   0.944   5.085   4.385
  360SOL    HW1 1979   0.942   5.006   4.324
  360SOL    HW2 1980   1.037   5.122   4.389
  361SOL     OW 1981   6.382   6.012   3.238
  361SOL    HW1 1982   6.466   6.001   3.291
  361SOL    HW2 1983   6.336   6.096   3.265
  362SOL     OW 1984   3.850   4.069   0.536
  362SOL    HW1 1985   3.882   3.992   0.481
  362SOL    HW2 1986   3.773   4.114   0.490
  363SOL     OW 1987   6.451   4.849   2.797
  363SOL    HW1 1988   6.547   4.831   2.817
  363SOL    HW2 1989   6.394   4.786   2.850
  364SOL     OW 1990   0.310   4.737   6.714
  364SOL    HW1 1991   0.380   4.738   6.642
  364SOL    HW2 1992   0.255   4.820   6.707
  365SOL     OW 1993   3.736   0.881   2.089
  365SOL    HW1 1994   3.744   0.823   2.008
  365SOL    HW2 1995   3.654   0.855   2.141
  366SOL     OW 1996   6.080   3.371   6.950
  366SOL    HW1 1997   6.138   3.354   0.005
  366SOL    HW2 1998   6.062   3.285   6.903
  367SOL     OW 1999   5.034   2.421   5.653
  367SOL    HW1 2000   5.068   2.476   5.577
  367SOL    HW2 2001   4.941   2.390   5.633
  368SOL     OW 2002   6.550   1.873   6.022
  368SOL    HW1 2003   6.498   1.890   6.106
  368SOL    HW2 2004   6.642   1.843   6.045
  369SOL     OW 2005   5.794   4.177   3.141
  369SOL    HW1 2006   5.789   4.270   3.105
  369SOL    HW2 2007   5.702   4.142   3.157
  370SOL     OW 2008   1.888   2.454   4.229
  370SOL    HW1 2009   1.803   2.504   4.243
  370SOL    HW2 2010   1.956   2.483   4.297
  371SOL     OW 2011   1.806   4.137   6.793
  371SOL    HW1 2012   1.870   4.133   6.716
  371SOL    HW2 2013   1.762   4.048   6.804
  372SOL     OW 2014   2.109   6.736   4.977
  372SOL    HW1 2015   2.071   6.682   4.902
  372SOL    HW2 2016   2.035   6.764   5.038
  373SOL     OW 2017   6.163   6.469   4.980
  373SOL    HW1 2018   6.085   6.464   4.917
  373SOL    HW2 2019   6.218   6.386   4.972
  374SOL     OW 2020   2.109   1.636   2.818
  374SOL    HW1 2021   2.030   1.640   2.757
  374SOL    HW2 2022   2.161   1.553   2.799
  375SOL     OW 2023   0.292   5.476   5.159
  375SOL    HW1 2024   0.234   5.552   5.129
  375SOL    HW2 2025   0.308   5.414   5.081
  376SOL     OW 2026   2.793   0.916   4.283
  376SOL    HW1 2027   2.847   0.845   4.328
  376SOL    HW2 2028   2.776   0.990   4.348
  377SOL     OW 2029   1.336   2.328   0.226
  377SOL    HW1 2030   1.384   2.253   0.271
  377SOL    HW2 2031   1.395   2.369   0.157
  378SOL     OW 2032   3.208   1.570   6.964
  378SOL    HW1 2033   3.282   1.504   6.950
  378SOL    HW2 2034   3.164   1.589   6.877
  379SOL     OW 2035   5.740   2.282   6.495
  379SOL    HW1 2036   5.783   2.331   6.419
  379SOL    HW2 2037   5.700   2.348   6.558
  380SOL     OW 2038   3.268   1.263   1.307
  380SOL    HW1 2039   3.259   1.164   1.302
  380SOL    HW2 2040   3.332   1.287   1.380
  381SOL     OW 2041   1.752   4.444   4.248
  381SOL    HW1 2042   1.673   4.385   4.233
  381SOL    HW2 2043   1.784   4.434   4.342
  382SOL     OW 2044   6.256   0.074   0.398
  382SOL    HW1 2045   6.218   0.088   0.489
  382SOL    HW2 2046   6.230   0.150   0.339
  383SOL     OW 2047   4.135   2.787   1.040
  383SOL    HW1 2048   4.166   2.775   0.946
  383SOL    HW2 2049   4.179   2.717   1.098
  384SOL     OW 2050   0.225   3.695   4.076
  384SOL    HW1 2051   0.291   3.621   4.067
  384SOL    HW2 2052   0.231   3.756   3.996
  385SOL     OW 2053   4.060   5.388   6.379
  385SOL    HW1 2054   4.115   5.431   6.451
  385SOL    HW2 2055   4.087   5.292   6.370
  386SOL     OW 2056   4.323   0.635   4.066
  386SOL    HW1 2057   4.406   0.603   4.020
  386SOL    HW2 2058   4.248   0.572   4.047
  387SOL     OW 2059   1.630   5.176   2.920
  387SOL    HW1 2060   1.715   5.175   2.972
  387SOL    HW2 2061   1.584   5.087   2.930
  388SOL     OW 2062   2.287   2.232   6.710
  388SOL    HW1 2063   2.293   2.134   6.687
  388SOL    HW2 2064   2.259   2.242   6.805
  389SOL     OW 2065   3.739   3.751   3.213
  389SOL    HW1 2066   3.721   3.661   3.253
  389SOL    HW2 2067   3.835   3.774   3.226
  390SOL     OW 2068   2.418   1.080   3.897
  390SOL    HW1 2069   2.424   0.986   3.864
  390SOL    HW2 2070   2.378   1.138   3.826
  391SOL     OW 2071   1.607   3.347   6.707
  391SOL    HW1 2072   1.671   3.277   6.737
  391SOL    HW2 2073   1.618   3.364   6.610
  392SOL     OW 2074   1.927   5.088   1.594
  392SOL    HW1 2075   1.913   5.121   1.687
  392SOL    HW2 2076   1.839   5.056   1.557
  393SOL     OW 2077   6.295   4.575   5.317
  393SOL    HW1 2078   6.232   4.573   5.395
  393SOL    HW2 2079   6.357   4.653   5.326
  394SOL     OW 2080   0.879   6.868   0.406
  394SOL    HW1 2081   0.810   6.805   0.442
  394SOL    HW2 2082   0.861   6.885   0.309
  395SOL     OW 2083   5.041   4.187   2.550
  395SOL    HW1 2084   4.967   4.132   2.512
  395SOL    HW2 2085   5.031   4.281   2.519
  396SOL     OW 2086   3.829   4.029   3.053
  396SOL    HW1 2087   3.868   3.960   2.992
  396SOL    HW2 2088   3.740   4.059   3.016
  397SOL     OW 2089   3.953   2.948   5.870
  397SOL    HW1 2090   3.964   2.909   5.778
  397SOL    HW2 2091   3.913   3.039   5.862
  398SOL     OW 2092   0.935   5.433   2.222
  398SOL    HW1 2093   0.918   5.420   2.125
  398SOL    HW2 2094   1.002   5.366   2.254
  399SOL     OW 2095   5.519   6.062   2.864
  399SOL    HW1 2096   5.606   6.028   2.899
  399SOL    HW2 2097   5.491   6.143   2.915
  400SOL     OW 2098   0.037   0.214   5.847
  400SOL    HW1 2099   6.976   0.189   5.890
  400SOL    HW2 2100   0.110   0.154   5.881
  401SOL     OW 2101   5.036   0.529   6.126
  401SOL    HW1 2102   5.124   0.570   6.101
  401SOL    HW2 2103   5.011   0.560   6.218
  402SOL     OW 2104   6.198   6.743   3.197
  402SOL    HW1 2105   6.156   6.666   3.150
  402SOL    HW2 2106   6.271   6.782   3.140
  403SOL     OW 2107   4.546   2.461   5.922
  403SOL    HW1 2108   4.490   2.440   6.002
  403SOL    HW2 2109   4.507   2.416   5.841
  404SOL     OW 2110   1.531   6.874   3.542
  404SOL    HW1 2111   1.483   6.959   3.517
  404SOL    HW2 2112   1.514   6.805   3.472
  405SOL     OW 2113   2.039   2.105   1.363
  405SOL    HW1 2114   2.107   2.032   1.357
  405SOL    HW2 2115   2.041   2.159   1.278
  406SOL     OW 2116   1.190   2.665   3.881
  406SOL    HW1 2117   1.180   2.706   3.971
  406SOL    HW2 2118   1.263   2.596   3.883
  407SOL     OW 2119   2.488   6.999   4.092
  407SOL    HW1 2120   2.501   0.058   4.143
  407SOL    HW2 2121   2.461   6.926   4.155
  408SOL     OW 2122   1.470   0.865   3.025
  408SOL    HW1 2123   1.503   0.912   2.944
  408SOL    HW2 2124   1.467   0.929   3.102
  409SOL     OW 2125   5.787   2.864   2.386
  409SOL    HW1 2126   5.688   2.874   2.398
  409SOL    HW2 2127   5.811   2.884   2.291
  410SOL     OW 2128   2.365   0.239   0.185
  410SOL    HW1 2129   2.382   0.146   0.149
  410SOL    HW2 2130   2.415   0.251   0.270
  411SOL     OW 2131   5.829   6.240   6.640
  411SOL    HW1 2132   5.863   6.181   6.567
  411SOL    HW2 2133   5.904   6.265   6.701
  412SOL     OW 2134   4.302   6.921   3.113
  412SOL    HW1 2135   4.379   6.984   3.125
  412SOL    HW2 2136   4.224   6.970   3.074
  413SOL     OW 2137   3.876   4.376   0.937
  413SOL    HW1 2138   3.956   4.316   0.930
  413SOL    HW2 2139   3.801   4.336   0.884
  414SOL     OW 2140   4.259   5.192   2.578
  414SOL    HW1 2141   4.179   5.188   2.638
  414SOL    HW2 2142   4.316   5.270   2.603
  415SOL     OW 2143   1.219   5.879   0.289
  415SOL    HW1 2144   1.283   5.853   0.217
  415SOL    HW2 2145   1.255   5.957   0.340
  416SOL     OW 2146   4.422   5.758   4.998
  416SOL    HW1 2147   4.432   5.722   5.091
  416SOL    HW2 2148   4.325   5.763   4.974
  417SOL     OW 2149   3.003   6.677   1.010
  417SOL    HW1 2150   3.089   6.627   1.017
  417SOL    HW2 2151   2.931   6.626   1.057
  418SOL     OW 2152   4.862   6.072   0.499
  418SOL    HW1 2153   4.956   6.097   0.475
  418SOL    HW2 2154   4.807   6.154   0.510
  419SOL     OW 2155   0.867   0.159   1.173
  419SOL    HW1 2156   0.827   0.068   1.164
  419SOL    HW2 2157   0.966   0.152   1.183
  420SOL     OW 2158   6.319   3.800   1.207
  420SOL    HW1 2159   6.251   3.727   1.201
  420SOL    HW2 2160   6.410   3.760   1.223
  421SOL     OW 2161   0.881   4.788   6.165
  421SOL    HW1 2162   0.869   4.737   6.080
  421SOL    HW2 2163   0.956   4.747   6.217
  422SOL     OW 2164   6.408   5.726   0.502
  422SOL    HW1 2165   6.333   5.790   0.487
  422SOL    HW2 2166   6.424   5.714   0.600
  423SOL     OW 2167   6.365   3.454   6.911
  423SOL    HW1 2168   6.276   3.498   6.906
  423SOL    HW2 2169   6.363   3.367   6.861
  424SOL     OW 2170   2.840   3.350   1.076
  424SOL    HW1 2171   2.913   3.403   1.118
  424SOL    HW2 2172   2.856   3.342   0.978
  425SOL     OW 2173   5.181   1.121   1.924
  425SOL    HW1 2174   5.143   1.128   1.831
  425SOL    HW2 2175   5.107   1.117   1.990
  426SOL     OW 2176   5.921   2.386   5.024
  426SOL    HW1 2177   6.003   2.341   4.986
  426SOL    HW2 2178   5.900   2.467   4.970
  427SOL     OW 2179   5.591   5.243   2.790
  427SOL    HW1 2180   5.553   5.217   2.879
  427SOL    HW2 2181   5.517   5.251   2.723
  428SOL     OW 2182   4.588   0.219   5.135
  428SOL    HW1 2183   4.574   0.317   5.146
  428SOL    HW2 2184   4.666   0.202   5.075
  429SOL     OW 2185   2.986   5.124   1.254
  429SOL    HW1 2186   2.896   5.087   1.277
  429SOL    HW2 2187   2.988   5.222   1.273
  430SOL     OW 2188   0.651   6.776   3.880
  430SOL    HW1 2189   0.554   6.751   3.888
  430SOL    HW2 2190   0.695   6.770   3.969
  431SOL     OW 2191   3.569   0.797   0.313
  431SOL    HW1 2192   3.567   0.714   0.257
  431SOL    HW2 2193   3.487   0.801   0.369
  432SOL     OW 2194   6.633   2.360   1.120
  432SOL    HW1 2195   6.575   2.331   1.043
  432SOL    HW2 2196   6.577   2.372   1.202
  433SOL     OW 2197   2.954   6.715   3.593
  433SOL    HW1 2198   2.879   6.757   3.646
  433SOL    HW2 2199   2.916   6.650   3.527
  434SOL     OW 2200   5.004   5.182   1.352
  434SOL    HW1 2201   4.963   5.091   1.344
  434SOL    HW2 2202   5.096   5.174   1.390
  435SOL     OW 2203   3.665   2.580   5.560
  435SOL    HW1 2204   3.681   2.646   5.633
  435SOL    HW2 2205   3.735   2.589   5.490
  436SOL     OW 2206   2.042   6.733   1.391
  436SOL    HW1 2207   2.115   6.666   1.401
  436SOL    HW2 2208   2.067   6.800   1.321
  437SOL     OW 2209   0.703   0.102   6.701
  437SOL    HW1 2210   0.738   0.196   6.704
  437SOL    HW2 2211   0.604   0.104   6.694
  438SOL     OW 2212   1.482   3.069   2.254
  438SOL    HW1 2213   1.461   3.166   2.270
  438SOL    HW2 2214   1.533   3.060   2.169
  439SOL     OW 2215   6.257   4.175   3.496
  439SOL    HW1 2216   6.324   4.110   3.460
  439SOL    HW2 2217   6.306   4.254   3.533
  440SOL     OW 2218   1.035   2.227   4.562
  440SOL    HW1 2219   1.006   2.147   4.615
  440SOL    HW2 2220   1.132   2.220   4.541
  441SOL     OW 2221   0.717   2.089   2.987
  441SOL    HW1 2222   0.775   2.010   2.969
  441SOL    HW2 2223   0.630   2.058   3.026
  442SOL     OW 2224   2.087   5.033   0.016
  442SOL    HW1 2225   2.066   5.130   0.023
  442SOL    HW2 2226   2.180   5.016   0.048
  443SOL     OW 2227   1.053   4.029   4.848
  443SOL    HW1 2228   1.034   4.127   4.849
  443SOL    HW2 2229   1.039   3.994   4.755
  444SOL     OW 2230   5.258   2.178   6.035
  444SOL    HW1 2231   5.228   2.271   6.055
  444SOL    HW2 2232   5.340   2.158   6.088
  445SOL     OW 2233   1.531   5.717   3.111
  445SOL    HW1 2234   1.606   5.704   3.176
  445SOL    HW2 2235   1.562   5.775   3.036
  446SOL     OW 2236   3.873   4.864   3.237
  446SOL    HW1 2237   3.782   4.851   3.200
  446SOL    HW2 2238   3.941   4.839   3.168
  447SOL     OW 2239   0.388   3.559   0.086
  447SOL    HW1 2240   0.382   3.519   7.020
  447SOL    HW2 2241   0.365   3.490   0.155
  448SOL     OW 2242   3.437   0.536   4.881
  448SOL    HW1 2243   3.474   0.490   4.800
  448SOL    HW2 2244   3.367   0.601   4.852
  449SOL     OW 2245   4.479   1.004   5.185
  449SOL    HW1 2246   4.486   1.035   5.280
  449SOL    HW2 2247   4.561   0.953   5.160
  450SOL     OW 2248   1.142   6.307   3.359
  450SOL    HW1 2249   1.093   6.220   3.359
  450SOL    HW2 2250   1.100   6.369   3.425
  451SOL     OW 2251   1.754   2.104   3.187
  451SOL    HW1 2252   1.682   2.100   3.117
  451SOL    HW2 2253   1.746   2.190   3.238
  452SOL     OW 2254   6.115   5.765   0.777
  452SOL    HW1 2255   6.055   5.826   0.829
  452SOL    HW2 2256   6.159   5.816   0.703
  453SOL     OW 2257   3.084   0.245   4.973
  453SOL    HW1 2258   3.074   0.273   4.878
  453SOL    HW2 2259   3.093   0.145   4.978
  454SOL     OW 2260   0.212   5.290   6.058
  454SOL    HW1 2261   0.187   5.292   5.961
  454SOL    HW2 2262   0.270   5.369   6.079
  455SOL     OW 2263   0.080   0.790   4.290
  455SOL    HW1 2264   0.011   0.735   4.243
  455SOL    HW2 2265   0.094   0.876   4.241
  456SOL     OW 2266   4.428   5.850   4.502
  456SOL    HW1 2267   4.520   5.846   4.462
  456SOL    HW2 2268   4.411   5.767   4.555
  457SOL     OW 2269   2.108   3.574   3.308
  457SOL    HW1 2270   2.073   3.663   3.337
  457SOL    HW2 2271   2.134   3.579   3.212
  458SOL     OW 2272   4.993   6.269   4.657
  458SOL    HW1 2273   4.954   6.200   4.596
  458SOL    HW2 2274   5.093   6.260   4.658
  459SOL     OW 2275   1.473   0.317   4.054
  459SOL    HW1 2276   1.474   0.373   3.971
  459SOL    HW2 2277   1.538   0.354   4.120
  460SOL     OW 2278   1.088   0.840   2.418
  460SOL    HW1 2279   1.037   0.922   2.444
  460SOL    HW2 2280   1.064   0.814   2.325
  461SOL     OW 2281   5.897   6.340   4.794
  461SOL    HW1 2282   5.849   6.405   4.735
  461SOL    HW2 2283   5.958   6.284   4.739
  462SOL     OW 2284   4.070   2.216   5.872
  462SOL    HW1 2285   4.118   2.252   5.792
  462SOL    HW2 2286   3.987   2.169   5.843
  463SOL     OW 2287   6.197   6.241   3.234
  463SOL    HW1 2288   6.133   6.208   3.166
  463SOL    HW2 2289   6.165   6.215   3.326
  464SOL     OW 2290   2.751   2.074   6.276
  464SOL    HW1 2291   2.732   2.018   6.357
  464SOL    HW2 2292   2.813   2.024   6.216
  465SOL     OW 2293   1.526   2.348   4.623
  465SOL    HW1 2294   1.521   2.286   4.701
  465SOL    HW2 2295   1.590   2.310   4.555
  466SOL     OW 2296   0.821   5.873   3.275
  466SOL    HW1 2297   0.721   5.873   3.267
  466SOL    HW2 2298   0.848   5.817   3.354
  467SOL     OW 2299   1.187   0.741   6.272
  467SOL    HW1 2300   1.222   0.708   6.360
  467SOL    HW2 2301   1.111   0.683   6.242
  468SOL     OW 2302   2.975   6.427   0.154
  468SOL    HW1 2303   2.879   6.414   0.129
  468SOL    HW2 2304   3.000   6.362   0.226
  469SOL     OW 2305   2.408   4.784   0.680
  469SOL    HW1 2306   2.504   4.814   0.681
  469SOL    HW2 2307   2.359   4.826   0.757
  470SOL     OW 2308   3.681   0.390   2.420
  470SOL    HW1 2309   3.673   0.462   2.489
  470SOL    HW2 2310   3.777   0.374   2.398
  471SOL     OW 2311   1.817   2.328   4.568
  471SOL    HW1 2312   1.874   2.302   4.645
  471SOL    HW2 2313   1.871   2.382   4.503
  472SOL     OW 2314   4.920   3.892   6.818
  472SOL    HW1 2315   4.903   3.841   6.902
  472SOL    HW2 2316   5.007   3.864   6.779
  473SOL     OW 2317   0.630   3.286   1.468
  473SOL    HW1 2318   0.556   3.271   1.403
  473SOL    HW2 2319   0.669   3.377   1.453
  474SOL     OW 2320   4.517   5.058   3.680
  474SOL    HW1 2321   4.449   4.985   3.686
  474SOL    HW2 2322   4.545   5.070   3.585
  475SOL     OW 2323   6.048   1.263   6.249
  475SOL    HW1 2324   6.018   1.178   6.292
  475SOL    HW2 2325   5.969   1.308   6.206
  476SOL     OW 2326   0.542   4.182   2.305
  476SOL    HW1 2327   0.479   4.171   2.382
  476SOL    HW2 2328   0.635   4.159   2.333
  477SOL     OW 2329   2.337   4.763   5.166
  477SOL    HW1 2330   2.253   4.816   5.174
  477SOL    HW2 2331   2.356   4.717   5.253
  478SOL     OW 2332   3.126   6.799   2.654
  478SOL    HW1 2333   3.219   6.809   2.618
  478SOL    HW2 2334   3.086   6.714   2.620
  479SOL     OW 2335   4.478   2.148   0.164
  479SOL    HW1 2336   4.426   2.141   0.079
  479SOL    HW2 2337   4.418   2.126   0.241
  480SOL     OW 2338   2.195   0.834   0.261
  480SOL    HW1 2339   2.198   0.901   0.335
  480SOL    HW2 2340   2.269   0.853   0.196
  481SOL     OW 2341   1.899   0.206   6.957
  481SOL    HW1 2342   1.926   0.237   0.022
  481SOL    HW2 2343   1.943   0.263   6.887
  482SOL     OW 2344   4.490   5.014   2.810
  482SOL    HW1 2345   4.581   5.038   2.777
  482SOL    HW2 2346   4.443   4.960   2.741
  483SOL     OW 2347   6.586   1.469   2.146
  483SOL    HW1 2348   6.647   1.390   2.149
  483SOL    HW2 2349   6.592   1.518   2.232
  484SOL     OW 2350   0.738   2.852   5.210
  484SOL    HW1 2351   0.809   2.853   5.139
  484SOL    HW2 2352   0.719   2.757   5.236
  485SOL     OW 2353   4.337   5.628   2.112
  485SOL    HW1 2354   4.274   5.556   2.142
  485SOL    HW2 2355   4.426   5.613   2.154
  486SOL     OW 2356   0.065   1.257   1.323
  486SOL    HW1 2357   0.102   1.201   1.397
  486SOL    HW2 2358   7.015   1.312   1.357
  487SOL     OW 2359   1.002   2.074   0.648
  487SOL    HW1 2360   1.083   2.114   0.606
  487SOL    HW2 2361   0.991   2.110   0.741
  488SOL     OW 2362   0.432   1.695   1.509
  488SOL    HW1 2363   0.391   1.744   1.586
  488SOL    HW2 2364   0.361   1.642   1.462
  489SOL     OW 2365   3.364   6.474   6.350
  489SOL    HW1 2366   3.453   6.520   6.340
  489SOL    HW2 2367   3.309   6.523   6.418
  490SOL     OW 2368   6.793   6.146   3.447
  490SOL    HW1 2369   6.885   6.109   3.429
  490SOL    HW2 2370   6.782   6.233   3.398
  491SOL     OW 2371   0.265   3.081   2.524
  491SOL    HW1 2372   0.253   3.047   2.618
  491SOL    HW2 2373   0.175   3.089   2.481
  492SOL     OW 2374   3.386   0.402   4.611
  492SOL    HW1 2375   3.307   0.463   4.608
  492SOL    HW2 2376   3.359   0.314   4.651
  493SOL     OW 2377   5.535   6.471   5.024
  493SOL    HW1 2378   5.626   6.441   5.052
  493SOL    HW2 2379   5.466   6.428   5.082
  494SOL     OW 2380   0.373   0.095   7.008
  494SOL    HW1 2381   0.314   0.019   0.009
  494SOL    HW2 2382   0.456   0.095   0.037
  495SOL     OW 2383   5.161   6.094   3.127
  495SOL    HW1 2384   5.153   5.995   3.141
  495SOL    HW2 2385   5.072   6.137   3.137
  496SOL     OW 2386   5.311   3.651   2.682
  496SOL    HW1 2387   5.360   3.588   2.623
  496SOL    HW2 2388   5.335   3.745   2.658
  497SOL     OW 2389   3.468   1.287   5.009
  497SOL    HW1 2390   3.509   1.250   4.926
  497SOL    HW2 2391   3.370   1.267   5.010
  498SOL     OW 2392   1.673   3.811   1.513
  498SOL    HW1 2393   1.720   3.827   1.599
  498SOL    HW2 2394   1.730   3.755   1.453
  499SOL     OW 2395   3.262   0.290   4.305
  499SOL    HW1 2396   3.293   0.379   4.270
  499SOL    HW2 2397   3.162   0.290   4.310
  500SOL     OW 2398   1.054   3.219   2.625
  500SOL    HW1 2399   1.067   3.164   2.543
  500SOL    HW2 2400   1.141   3.262   2.650
  501SOL     OW 2401   3.010   6.947   0.324
  501SOL    HW1 2402   3.063   6.886   0.265
  501SOL    HW2 2403   2.976   6.895   0.403
  502SOL     OW 2404   6.762   4.426   6.588
  502SOL    HW1 2405   6.814   4.344   6.613
  502SOL    HW2 2406   6.821   4.506   6.595
  503SOL     OW 2407   5.596   5.675   5.841
  503SOL    HW1 2408   5.543   5.672   5.756
  503SOL    HW2 2409   5.646   5.762   5.845
  504SOL     OW 2410   2.111   5.451   3.204
  504SOL    HW1 2411   2.065   5.478   3.120
  504SOL    HW2 2412   2.101   5.524   3.273
  505SOL     OW 2413   3.549   6.256   5.397
  505SOL    HW1 2414   3.606   6.180   5.364
  505SOL    HW2 2415   3.501   6.297   5.320
  506SOL     OW 2416   1.296   5.387   4.614
  506SOL    HW1 2417   1.215   5.434   4.646
  506SOL    HW2 2418   1.329   5.324   4.685
  507SOL     OW 2419   3.055   0.882   3.611
  507SOL    HW1 2420   3.071   0.950   3.682
  507SOL    HW2 2421   3.094   0.794   3.640
  508SOL     OW 2422   6.220   3.474   2.818
  508SOL    HW1 2423   6.163   3.485   2.737
  508SOL    HW2 2424   6.262   3.383   2.816
  509SOL     OW 2425   2.656   0.951   0.881
  509SOL    HW1 2426   2.646   0.907   0.970
  509SOL    HW2 2427   2.568   0.952   0.834
  510SOL     OW 2428   6.797   4.795   5.818
  510SOL    HW1 2429   6.773   4.716   5.876
  510SOL    HW2 2430   6.878   4.840   5.856
  511SOL     OW 2431   0.092   6.659   6.476
  511SOL    HW1 2432   0.173   6.628   6.524
  511SOL    HW2 2433   0.098   6.758   6.459
  512SOL     OW 2434   0.306   2.763   0.440
  512SOL    HW1 2435   0.388   2.766   0.496
  512SOL    HW2 2436   0.230   2.725   0.493
  513SOL     OW 2437   5.626   6.439   2.984
  513SOL    HW1 2438   5.717   6.481   2.985
  513SOL    HW2 2439   5.636   6.339   2.986
  514SOL     OW 2440   6.962   2.818   3.669
  514SOL    HW1 2441   6.945   2.721   3.684
  514SOL    HW2 2442   7.021   2.830   3.588
  515SOL     OW 2443   1.796   0.992   6.403
  515SOL    HW1 2444   1.876   0.965   6.348
  515SOL    HW2 2445   1.734   0.915   6.411
  516SOL     OW 2446   2.957   4.732   1.692
  516SOL    HW1 2447   2.933   4.647   1.739
  516SOL    HW2 2448   3.018   4.711   1.615
  517SOL     OW 2449   4.787   5.904   1.781
  517SOL    HW1 2450   4.853   5.926   1.853
  517SOL    HW2 2451   4.708   5.964   1.789
  518SOL     OW 2452   3.099   2.145   2.559
  518SOL    HW1 2453   3.010   2.189   2.570
  518SOL    HW2 2454   3.119   2.134   2.461
  519SOL     OW 2455   0.308   0.748   4.745
  519SOL    HW1 2456   0.282   0.736   4.649
  519SOL    HW2 2457   0.291   0.842   4.773
  520SOL     OW 2458   6.231   4.977   0.044
  520SOL    HW1 2459   6.233   5.074   0.067
  520SOL    HW2 2460   6.194   4.925   0.122
  521SOL     OW 2461   6.587   3.189   6.835
  521SOL    HW1 2462   6.659   3.253   6.862
  521SOL    HW2 2463   6.511   3.240   6.794
  522SOL     OW 2464   3.579   3.390   5.465
  522SOL    HW1 2465   3.522   3.308   5.471
  522SOL    HW2 2466   3.524   3.468   5.437
  523SOL     OW 2467   0.622   4.567   2.438
  523SOL    HW1 2468   0.598   4.503   2.510
  523SOL    HW2 2469   0.623   4.660   2.475
  524SOL     OW 2470   1.654   1.062   0.026
  524SOL    HW1 2471   1.681   1.158   0.038
  524SOL    HW2 2472   1.689   1.028   6.964
  525SOL     OW 2473   2.548   3.928   0.022
  525SOL    HW1 2474   2.509   3.918   0.113
  525SOL    HW2 2475   2.494   3.876   6.982
  526SOL     OW 2476   3.003   0.240   4.307
  526SOL    HW1 2477   2.955   0.328   4.302
  526SOL    HW2 2478   2.954   0.172   4.253
  527SOL     OW 2479   5.920   3.231   5.931
  527SOL    HW1 2480   5.936   3.286   6.014
  527SOL    HW2 2481   5.832   3.185   5.939
  528SOL     OW 2482   0.803   2.186   4.413
  528SOL    HW1 2483   0.786   2.254   4.342
  528SOL    HW2 2484   0.885   2.211   4.465
  529SOL     OW 2485   1.025   6.059   4.354
  529SOL    HW1 2486   1.120   6.028   4.349
  529SOL    HW2 2487   0.970   6.009   4.287
  530SOL     OW 2488   2.623   3.028   5.435
  530SOL    HW1 2489   2.557   3.027   5.360
  530SOL    HW2 2490   2.634   2.935   5.470
  531SOL     OW 2491   7.017   0.481   1.769
  531SOL    HW1 2492   6.985   0.535   1.691
  531SOL    HW2 2493   6.953   0.406   1.786
  532SOL     OW 2494   0.876   2.347   6.845
  532SOL    HW1 2495   0.875   2.388   6.754
  532SOL    HW2 2496   0.783   2.344   6.881
  533SOL     OW 2497   3.599   6.231   3.900
  533SOL    HW1 2498   3.506   6.263   3.921
  533SOL    HW2 2499   3.604   6.133   3.915
  534SOL     OW 2500   5.063   5.110   3.362
  534SOL    HW1 2501   5.104   5.113   3.271
  534SOL    HW2 2502   5.122   5.159   3.426
  535SOL     OW 2503   1.001   3.712   4.633
  535SOL    HW1 2504   0.977   3.626   4.589
  535SOL    HW2 2505   0.985   3.788   4.570
  536SOL     OW 2506   0.287   4.638   2.134
  536SOL    HW1 2507   0.226   4.677   2.065
  536SOL    HW2 2508   0.369   4.696   2.142
  537SOL     OW 2509   1.698   6.546   3.479
  537SOL    HW1 2510   1.772   6.482   3.460
  537SOL    HW2 2511   1.611   6.496   3.484
  538SOL     OW 2512   2.160   5.296   3.753
  538SOL    HW1 2513   2.099   5.362   3.795
  538SOL    HW2 2514   2.155   5.209   3.803
  539SOL     OW 2515   0.548   5.857   0.201
  539SOL    HW1 2516   0.510   5.811   0.281
  539SOL    HW2 2517   0.548   5.794   0.123
  540SOL     OW 2518   6.822   0.948   2.010
  540SOL    HW1 2519   6.873   0.868   2.040
  540SOL    HW2 2520   6.880   1.004   1.950
  541SOL     OW 2521   2.894   6.948   4.640
  541SOL    HW1 2522   2.895   6.891   4.722
  541SOL    HW2 2523   2.902   6.890   4.559
  542SOL     OW 2524   6.793   0.395   0.360
  542SOL    HW1 2525   6.830   0.307   0.389
  542SOL    HW2 2526   6.770   0.449   0.441
  543SOL     OW 2527   0.939   5.368   5.514
  543SOL    HW1 2528   0.875   5.291   5.515
  543SOL    HW2 2529   0.898   5.445   5.562
  544SOL     OW 2530   2.047   4.156   1.111
  544SOL    HW1 2531   2.024   4.244   1.152
  544SOL    HW2 2532   2.049   4.085   1.181
  545SOL     OW 2533   3.128   1.297   3.444
  545SOL    HW1 2534   3.096   1.258   3.530
  545SOL    HW2 2535   3.100   1.393   3.439
  546SOL     OW 2536   1.506   3.389   0.362
  546SOL    HW1 2537   1.603   3.396   0.383
  546SOL    HW2 2538   1.452   3.438   0.431
  547SOL     OW 2539   3.135   1.065   6.388
  547SOL    HW1 2540   3.192   1.109   6.457
  547SOL    HW2 2541   3.067   1.007   6.433
  548SOL     OW 2542   3.731   2.892   2.927
  548SOL    HW1 2543   3.705   2.964   2.863
  548SOL    HW2 2544   3.785   2.823   2.880
  549SOL     OW 2545   4.538   3.434   1.512
  549SOL    HW1 2546   4.613   3.498   1.493
  549SOL    HW2 2547   4.452   3.474   1.480
  550SOL     OW 2548   6.576   4.159   3.482
  550SOL    HW1 2549   6.668   4.165   3.443
  550SOL    HW2 2550   6.518   4.104   3.421
  551SOL     OW 2551   6.856   1.108   1.252
  551SOL    HW1 2552   6.822   1.198   1.278
  551SOL    HW2 2553   6.956   1.111   1.243
  552SOL     OW 2554   4.413   5.007   0.684
  552SOL    HW1 2555   4.429   4.923   0.736
  552SOL    HW2 2556   4.365   4.985   0.599
  553SOL     OW 2557   2.028   0.152   1.880
  553SOL    HW1 2558   1.958   0.144   1.951
  553SOL    HW2 2559   2.065   0.062   1.859
  554SOL     OW 2560   4.838   6.455   6.227
  554SOL    HW1 2561   4.760   6.422   6.280
  554SOL    HW2 2562   4.923   6.423   6.270
  555SOL     OW 2563   2.325   5.233   4.319
  555SOL    HW1 2564   2.229   5.236   4.349
  555SOL    HW2 2565   2.329   5.192   4.228
  556SOL     OW 2566   6.205   2.326   4.361
  556SOL    HW1 2567   6.228   2.231   4.381
  556SOL    HW2 2568   6.272   2.365   4.298
  557SOL     OW 2569   0.499   5.444   6.306
  557SOL    HW1 2570   0.476   5.475   6.399
  557SOL    HW2 2571   0.423   5.464   6.245
  558SOL     OW 2572   3.587   3.851   4.314
  558SOL    HW1 2573   3.613   3.925   4.375
  558SOL    HW2 2574   3.604   3.877   4.219
  559SOL     OW 2575   6.040   6.338   7.011
  559SOL    HW1 2576   6.063   6.274   6.938
  559SOL    HW2 2577   6.076   6.304   0.072
  560SOL     OW 2578   3.946   6.473   0.485
  560SOL    HW1 2579   4.038   6.438   0.498
  560SOL    HW2 2580   3.919   6.529   0.563
  561SOL     OW 2581   6.679   0.042   6.755
  561SOL    HW1 2582   6.614   0.067   6.827
  561SOL    HW2 2583   6.768   0.020   6.795
  562SOL     OW 2584   4.678   0.120   6.739
  562SOL    HW1 2585   4.588   0.081   6.760
  562SOL    HW2 2586   4.748   0.052   6.758
  563SOL     OW 2587   2.694   0.262   3.248
  563SOL    HW1 2588   2.755   0.336   3.221
  563SOL    HW2 2589   2.748   0.180   3.266
  564SOL     OW 2590   2.772   2.581   6.164
  564SOL    HW1 2591   2.699   2.537   6.216
  564SOL    HW2 2592   2.814   2.515   6.102
  565SOL     OW 2593   4.337   3.223   5.440
  565SOL    HW1 2594   4.296   3.236   5.530
  565SOL    HW2 2595   4.385   3.307   5.412
  566SOL     OW 2596   5.080   3.988   3.513
  566SOL    HW1 2597   4.985   3.993   3.483
  566SOL    HW2 2598   5.136   4.046   3.454
  567SOL     OW 2599   2.940   3.756   3.404
  567SOL    HW1 2600   3.015   3.822   3.413
  567SOL    HW2 2601   2.978   3.664   3.405
  568SOL     OW 2602   3.570   2.425   1.160
  568SOL    HW1 2603   3.655   2.392   1.118
  568SOL    HW2 2604   3.539   2.507   1.113
  569SOL     OW 2605   1.691   2.985   0.537
  569SOL    HW1 2606   1.756   2.929   0.588
  569SOL    HW2 2607   1.714   3.082   0.547
  570SOL     OW 2608   2.030   6.653   6.132
  570SOL    HW1 2609   1.957   6.599   6.175
  570SOL    HW2 2610   2.014   6.750   6.149
  571SOL     OW 2611   3.780   6.719   2.830
  571SOL    HW1 2612   3.764   6.804   2.881
  571SOL    HW2 2613   3.845   6.737   2.755
  572SOL     OW 2614   2.968   5.045   5.726
  572SOL    HW1 2615   2.940   5.139   5.744
  572SOL    HW2 2616   3.067   5.040   5.719
  573SOL     OW 2617   4.006   2.165   4.996
  573SOL    HW1 2618   4.081   2.203   4.942
  573SOL    HW2 2619   4.035   2.078   5.036
  574SOL     OW 2620   2.062   2.211   3.843
  574SOL    HW1 2621   2.014   2.293   3.874
  574SOL    HW2 2622   2.092   2.224   3.748
  575SOL     OW 2623   5.984   3.878   6.250
  575SOL    HW1 2624   6.043   3.798   6.239
  575SOL    HW2 2625   5.941   3.900   6.163
  576SOL     OW 2626   1.596   1.990   1.913
  576SOL    HW1 2627   1.645   2.044   1.981
  576SOL    HW2 2628   1.581   2.045   1.830
  577SOL     OW 2629   2.042   1.646   3.699
  577SOL    HW1 2630   2.060   1.691   3.786
  577SOL    HW2 2631   2.104   1.682   3.629
  578SOL     OW 2632   6.686   3.133   3.832
  578SOL    HW1 2633   6.633   3.073   3.771
  578SOL    HW2 2634   6.783   3.108   3.827
  579SOL     OW 2635   3.351   2.461   1.344
  579SOL    HW1 2636   3.276   2.445   1.279
  579SOL    HW2 2637   3.438   2.455   1.296
  580SOL     OW 2638   0.651   4.577   6.201
  580SOL    HW1 2639   0.567   4.522   6.200
  580SOL    HW2 2640   0.630   4.669   6.234
  581SOL     OW 2641   3.072   3.365   2.733
  581SOL    HW1 2642   3.154   3.375   2.677
  581SOL    HW2 2643   3.005   3.434   2.706
  582SOL     OW 2644   5.790   5.153   2.250
  582SOL    HW1 2645   5.723   5.097   2.298
  582SOL    HW2 2646   5.764   5.161   2.154
  583SOL     OW 2647   2.819   4.829   6.679
  583SOL    HW1 2648   2.827   4.790   6.587
  583SOL    HW2 2649   2.742   4.786   6.726
  584SOL     OW 2650   0.707   5.211   5.630
  584SOL    HW1 2651   0.753   5.196   5.717
  584SOL    HW2 2652   0.679   5.123   5.592
  585SOL     OW 2653   6.447   2.730   6.399
  585SOL    HW1 2654   6.464   2.745   6.497
  585SOL    HW2 2655   6.515   2.780   6.345
  586SOL     OW 2656   3.509   0.062   0.246
  586SOL    HW1 2657   3.577   0.131   0.270
  586SOL    HW2 2658   3.538   0.013   0.164
  587SOL     OW 2659   1.842   2.208   5.433
  587SOL    HW1 2660   1.802   2.300   5.432
  587SOL    HW2 2661   1.935   2.212   5.397
  588SOL     OW 2662   3.227   6.581   1.185
  588SOL    HW1 2663   3.293   6.651   1.213
  588SOL    HW2 2664   3.174   6.551   1.264
  589SOL     OW 2665   4.017   5.093   1.936
  589SOL    HW1 2666   4.000   5.132   2.027
  589SOL    HW2 2667   3.974   5.003   1.930
  590SOL     OW 2668   6.586   3.004   2.004
  590SOL    HW1 2669   6.501   2.996   2.057
  590SOL    HW2 2670   6.570   3.060   1.923
  591SOL     OW 2671   3.803   6.989   3.924
  591SOL    HW1 2672   3.869   6.943   3.865
  591SOL    HW2 2673   3.848   0.040   3.971
  592SOL     OW 2674   4.322   0.783   0.791
  592SOL    HW1 2675   4.324   0.688   0.821
  592SOL    HW2 2676   4.243   0.797   0.732
  593SOL     OW 2677   4.325   1.788   3.753
  593SOL    HW1 2678   4.331   1.790   3.852
  593SOL    HW2 2679   4.416   1.777   3.713
  594SOL     OW 2680   4.243   2.938   6.540
  594SOL    HW1 2681   4.164   2.957   6.480
  594SOL    HW2 2682   4.210   2.924   6.633
  595SOL     OW 2683   4.718   6.630   4.028
  595SOL    HW1 2684   4.732   6.700   3.958
  595SOL    HW2 2685   4.746   6.541   3.992
  596SOL     OW 2686   1.149   4.036   1.506
  596SOL    HW1 2687   1.119   4.117   1.556
  596SOL    HW2 2688   1.249   4.036   1.500
  597SOL     OW 2689   4.071   6.554   5.915
  597SOL    HW1 2690   4.117   6.642   5.906
  597SOL    HW2 2691   3.979   6.561   5.878
  598SOL     OW 2692   3.264   4.187   0.659
  598SOL    HW1 2693   3.185   4.241   0.689
  598SOL    HW2 2694   3.245   4.090   0.675
  599SOL     OW 2695   0.562   0.988   2.895
  599SOL    HW1 2696   0.500   0.915   2.867
  599SOL    HW2 2697   0.517   1.076   2.880
  600SOL     OW 2698   0.554   6.918   0.676
  600SOL    HW1 2699   0.494   6.997   0.677
  600SOL    HW2 2700   0.649   6.948   0.688
  601SOL     OW 2701   3.146   5.918   3.112
  601SOL    HW1 2702   3.133   5.901   3.209
  601SOL    HW2 2703   3.072   5.873   3.060
  602SOL     OW 2704   0.852   1.098   0.638
  602SOL    HW1 2705   0.916   1.164   0.679
  602SOL    HW2 2706   0.904   1.030   0.587
  603SOL     OW 2707   3.921   1.501   3.819
  603SOL    HW1 2708   3.967   1.441   3.753
  603SOL    HW2 2709   3.956   1.594   3.809
  604SOL     OW 2710   0.903   3.061   0.446
  604SOL    HW1 2711   0.995   3.034   0.415
  604SOL    HW2 2712   0.909   3.100   0.538
  605SOL     OW 2713   6.732   5.809   3.190
  605SOL    HW1 2714   6.815   5.756   3.174
  605SOL    HW2 2715   6.669   5.797   3.113
  606SOL     OW 2716   4.602   0.350   5.907
  606SOL    HW1 2717   4.597   0.404   5.991
  606SOL    HW2 2718   4.697   0.329   5.887
  607SOL     OW 2719   5.722   1.122   4.487
  607SOL    HW1 2720   5.713   1.076   4.575
  607SOL    HW2 2721   5.793   1.076   4.433
  608SOL     OW 2722   3.318   6.921   0.378
  608SOL    HW1 2723   3.386   6.980   0.335
  608SOL    HW2 2724   3.321   6.830   0.335
  609SOL     OW 2725   3.441   3.157   4.798
  609SOL    HW1 2726   3.392   3.163   4.885
  609SOL    HW2 2727   3.473   3.063   4.784
  610SOL     OW 2728   5.674   2.115   2.993
  610SOL    HW1 2729   5.756   2.114   3.051
  610SOL    HW2 2730   5.650   2.210   2.971
  611SOL     OW 2731   0.699   0.604   0.155
  611SOL    HW1 2732   0.653   0.638   0.073
  611SOL    HW2 2733   0.667   0.511   0.174
  612SOL     OW 2734   3.552   5.824   5.814
  612SOL    HW1 2735   3.509   5.811   5.725
  612SOL    HW2 2736   3.495   5.782   5.885
  613SOL     OW 2737   4.282   1.245   5.379
  613SOL    HW1 2738   4.308   1.333   5.338
  613SOL    HW2 2739   4.364   1.190   5.396
  614SOL     OW 2740   5.919   5.174   1.229
  614SOL    HW1 2741   5.982   5.242   1.191
  614SOL    HW2 2742   5.953   5.083   1.208
  615SOL     OW 2743   1.034   0.579   6.683
  615SOL    HW1 2744   1.075   0.669   6.669
  615SOL    HW2 2745   1.042   0.553   6.779
  616SOL     OW 2746   6.061   1.964   3.754
  616SOL    HW1 2747   6.060   1.866   3.773
  616SOL    HW2 2748   5.972   1.992   3.718
  617SOL     OW 2749   0.413   4.480   6.819
  617SOL    HW1 2750   0.485   4.429   6.771
  617SOL    HW2 2751   0.375   4.549   6.757
  618SOL     OW 2752   5.907   3.659   1.405
  618SOL    HW1 2753   5.999   3.692   1.426
  618SOL    HW2 2754   5.912   3.588   1.334
  619SOL     OW 2755   3.468   6.830   6.653
  619SOL    HW1 2756   3.397   6.878   6.704
  619SOL    HW2 2757   3.545   6.891   6.636
  620SOL     OW 2758   5.771   3.386   1.542
  620SOL    HW1 2759   5.765   3.472   1.592
  620SOL    HW2 2760   5.704   3.321   1.578
  621SOL     OW 2761   2.674   0.175   5.016
  621SOL    HW1 2762   2.695   0.078   5.002
  621SOL    HW2 2763   2.647   0.190   5.110
  622SOL     OW 2764   0.573   2.549   5.502
  622SOL    HW1 2765   0.478   2.529   5.525
  622SOL    HW2 2766   0.627   2.464   5.504
  623SOL     OW 2767   6.407   6.620   5.041
  623SOL    HW1 2768   6.347   6.693   5.072
  623SOL    HW2 2769   6.361   6.566   4.970
  624SOL     OW 2770   6.490   1.314   0.211
  624SOL    HW1 2771   6.543   1.229   0.209
  624SOL    HW2 2772   6.464   1.334   0.305
  625SOL     OW 2773   1.939   0.812   0.244
  625SOL    HW1 2774   2.039   0.819   0.249
  625SOL    HW2 2775   1.910   0.825   0.149
  626SOL     OW 2776   1.220   5.543   3.053
  626SOL    HW1 2777   1.276   5.625   3.053
  626SOL    HW2 2778   1.154   5.547   2.977
  627SOL     OW 2779   6.601   6.047   0.169
  627SOL    HW1 2780   6.641   5.994   0.243
  627SOL    HW2 2781   6.598   6.143   0.194
  628SOL     OW 2782   5.382   3.758   4.958
  628SOL    HW1 2783   5.455   3.739   5.023
  628SOL    HW2 2784   5.407   3.720   4.868
  629SOL     OW 2785   0.417   1.322   0.169
  629SOL    HW1 2786   0.424   1.250   0.100
  629SOL    HW2 2787   0.483   1.395   0.148
  630SOL     OW 2788   6.382   0.947   0.762
  630SOL    HW1 2789   6.288   0.929   0.792
  630SOL    HW2 2790   6.381   0.974   0.666
  631SOL     OW 2791   2.633   2.180   4.540
  631SOL    HW1 2792   2.682   2.229   4.611
  631SOL    HW2 2793   2.676   2.090   4.525
  632SOL     OW 2794   4.798   2.791   0.659
  632SOL    HW1 2795   4.879   2.791   0.599
  632SOL    HW2 2796   4.739   2.714   0.633
  633SOL     OW 2797   2.308   5.088   1.235
  633SOL    HW1 2798   2.232   5.066   1.297
  633SOL    HW2 2799   2.385   5.027   1.255
  634SOL     OW 2800   3.633   3.511   3.315
  634SOL    HW1 2801   3.549   3.503   3.261
  634SOL    HW2 2802   3.675   3.421   3.325
  635SOL     OW 2803   4.715   0.459   0.144
  635SOL    HW1 2804   4.672   0.545   0.115
  635SOL    HW2 2805   4.662   0.382   0.108
  636SOL     OW 2806   3.363   0.330   5.039
  636SOL    HW1 2807   3.264   0.328   5.047
  636SOL    HW2 2808   3.393   0.417   5.001
  637SOL     OW 2809   6.038   1.673   2.837
  637SOL    HW1 2810   5.951   1.655   2.792
  637SOL    HW2 2811   6.105   1.705   2.770
  638SOL     OW 2812   5.893   3.546   3.907
  638SOL    HW1 2813   5.867   3.606   3.982
  638SOL    HW2 2814   5.845   3.459   3.916
  639SOL     OW 2815   5.345   4.888   3.297
  639SOL    HW1 2816   5.285   4.914   3.221
  639SOL    HW2 2817   5.434   4.861   3.261
  640SOL     OW 2818   0.313   3.525   3.331
  640SOL    HW1 2819   0.399   3.555   3.371
  640SOL    HW2 2820   0.331   3.473   3.248
  641SOL     OW 2821   1.469   4.550   5.247
  641SOL    HW1 2822   1.399   4.500   5.299
  641SOL    HW2 2823   1.488   4.502   5.162
  642SOL     OW 2824   1.154   3.119   4.596
  642SOL    HW1 2825   1.203   3.101   4.511
  642SOL    HW2 2826   1.076   3.179   4.579
  643SOL     OW 2827   6.924   6.497   6.914
  643SOL    HW1 2828   6.944   6.581   6.864
  643SOL    HW2 2829   6.835   6.461   6.885
  644SOL     OW 2830   0.581   0.655   4.711
  644SOL    HW1 2831   0.617   0.653   4.618
  644SOL    HW2 2832   0.484   0.631   4.711
  645SOL     OW 2833   3.049   4.912   3.055
  645SOL    HW1 2834   3.142   4.948   3.050
  645SOL    HW2 2835   3.015   4.919   3.148
  646SOL     OW 2836   4.128   1.063   4.650
  646SOL    HW1 2837   4.175   1.031   4.568
  646SOL    HW2 2838   4.081   1.149   4.630
  647SOL     OW 2839   4.660   1.908   4.636
  647SOL    HW1 2840   4.619   1.997   4.619
  647SOL    HW2 2841   4.759   1.917   4.639
  648SOL     OW 2842   6.472   2.811   3.422
  648SOL    HW1 2843   6.515   2.753   3.353
  648SOL    HW2 2844   6.402   2.867   3.379
  649SOL     OW 2845   2.219   4.369   0.370
  649SOL    HW1 2846   2.201   4.441   0.302
  649SOL    HW2 2847   2.299   4.394   0.424
  650SOL     OW 2848   6.619   5.546   0.475
  650SOL    HW1 2849   6.655   5.560   0.567
  650SOL    HW2 2850   6.552   5.617   0.454
  651SOL     OW 2851   1.777   0.689   5.933
  651SOL    HW1 2852   1.877   0.694   5.934
  651SOL    HW2 2853   1.748   0.608   5.882
  652SOL     OW 2854   4.101   6.902   1.615
  652SOL    HW1 2855   4.159   6.821   1.622
  652SOL    HW2 2856   4.151   6.982   1.648
  653SOL     OW 2857   0.540   6.483   0.530
  653SOL    HW1 2858   0.527   6.491   0.431
  653SOL    HW2 2859   0.595   6.402   0.550
  654SOL     OW 2860   0.111   6.263   5.752
  654SOL    HW1 2861   0.046   6.274   5.677
  654SOL    HW2 2862   0.197   6.309   5.728
  655SOL     OW 2863   0.109   5.481   1.950
  655SOL    HW1 2864   0.091   5.572   1.988
  655SOL    HW2 2865   0.101   5.485   1.850
  656SOL     OW 2866   2.888   6.251   0.914
  656SOL    HW1 2867   2.931   6.291   0.995
  656SOL    HW2 2868   2.789   6.244   0.930
  657SOL     OW 2869   2.981   3.257   1.512
  657SOL    HW1 2870   2.900   3.269   1.570
  657SOL    HW2 2871   3.008   3.345   1.474
  658SOL     OW 2872   1.605   4.407   4.680
  658SOL    HW1 2873   1.586   4.310   4.693
  658SOL    HW2 2874   1.649   4.443   4.762
  659SOL     OW 2875   2.853   5.745   5.043
  659SOL    HW1 2876   2.819   5.689   5.119
  659SOL    HW2 2877   2.856   5.690   4.960
  660SOL     OW 2878   4.805   5.447   2.314
  660SOL    HW1 2879   4.805   5.472   2.411
  660SOL    HW2 2880   4.899   5.431   2.284
  661SOL     OW 2881   4.913   4.250   4.573
  661SOL    HW1 2882   5.000   4.201   4.571
  661SOL    HW2 2883   4.891   4.284   4.482
  662SOL     OW 2884   4.473   2.213   6.557
  662SOL    HW1 2885   4.428   2.227   6.645
  662SOL    HW2 2886   4.422   2.261   6.485
  663SOL     OW 2887   0.470   5.126   6.564
  663SOL    HW1 2888   0.554   5.180   6.550
  663SOL    HW2 2889   0.470   5.089   6.657
  664SOL     OW 2890   1.891   5.544   0.090
  664SOL    HW1 2891   1.801   5.523   0.052
  664SOL    HW2 2892   1.910   5.641   0.080
  665SOL     OW 2893   4.291   5.276   1.551
  665SOL    HW1 2894   4.198   5.245   1.572
  665SOL    HW2 2895   4.295   5.376   1.559
  666SOL     OW 2896   3.299   1.480   0.363
  666SOL    HW1 2897   3.218   1.510   0.413
  666SOL    HW2 2898   3.344   1.560   0.322
  667SOL     OW 2899   0.323   2.838   4.281
  667SOL    HW1 2900   0.335   2.772   4.207
  667SOL    HW2 2901   0.227   2.866   4.285
  668SOL     OW 2902   4.349   5.863   6.936
  668SOL    HW1 2903   4.355   5.788   7.003
  668SOL    HW2 2904   4.282   5.839   6.866
  669SOL     OW 2905   1.830   6.953   3.147
  669SOL    HW1 2906   1.793   0.020   3.136
  669SOL    HW2 2907   1.768   6.887   3.106
  670SOL     OW 2908   2.938   3.809   3.104
  670SOL    HW1 2909   2.937   3.718   3.061
  670SOL    HW2 2910   2.907   3.801   3.199
  671SOL     OW 2911   2.515   5.830   6.125
  671SOL    HW1 2912   2.415   5.830   6.126
  671SOL    HW2 2913   2.547   5.739   6.097
  672SOL     OW 2914   1.112   3.468   3.885
  672SOL    HW1 2915   1.175   3.534   3.844
  672SOL    HW2 2916   1.133   3.377   3.851
  673SOL     OW 2917   4.509   6.796   6.530
  673SOL    HW1 2918   4.539   6.748   6.447
  673SOL    HW2 2919   4.569   6.773   6.606
  674SOL     OW 2920   0.598   2.945   4.358
  674SOL    HW1 2921   0.640   2.957   4.268
  674SOL    HW2 2922   0.499   2.942   4.349
  675SOL     OW 2923   1.206   2.026   4.840
  675SOL    HW1 2924   1.277   1.978   4.891
  675SOL    HW2 2925   1.184   2.112   4.886
  676SOL     OW 2926   2.971   4.973   4.347
  676SOL    HW1 2927   3.040   4.973   4.419
  676SOL    HW2 2928   2.923   4.885   4.347
  677SOL     OW 2929   5.788   0.724   6.962
  677SOL    HW1 2930   5.801   0.720   6.863
  677SOL    HW2 2931   5.785   0.820   6.991
  678SOL     OW 2932   2.716   1.825   5.390
  678SOL    HW1 2933   2.702   1.873   5.303
  678SOL    HW2 2934   2.740   1.892   5.460
  679SOL     OW 2935   4.168   1.551   4.144
  679SOL    HW1 2936   4.106   1.611   4.094
  679SOL    HW2 2937   4.222   1.497   4.079
  680SOL     OW 2938   5.905   4.614   5.955
  680SOL    HW1 2939   5.964   4.570   5.888
  680SOL    HW2 2940   5.810   4.603   5.929
  681SOL     OW 2941   6.669   6.644   0.779
  681SOL    HW1 2942   6.764   6.615   0.782
  681SOL    HW2 2943   6.651   6.689   0.692
  682SOL     OW 2944   2.374   6.936   6.348
  682SOL    HW1 2945   2.316   6.857   6.367
  682SOL    HW2 2946   2.466   6.919   6.383
  683SOL     OW 2947   3.777   0.381   5.861
  683SOL    HW1 2948   3.723   0.297   5.864
  683SOL    HW2 2949   3.761   0.428   5.774
  684SOL     OW 2950   6.896   1.122   6.174
  684SOL    HW1 2951   6.908   1.216   6.206
  684SOL    HW2 2952   6.963   1.063   6.219
  685SOL     OW 2953   4.959   0.566   5.789
  685SOL    HW1 2954   4.911   0.480   5.806
  685SOL    HW2 2955   4.962   0.619   5.874
  686SOL     OW 2956   5.907   3.199   3.252
  686SOL    HW1 2957   5.942   3.109   3.277
  686SOL    HW2 2958   5.973   3.244   3.192
  687SOL     OW 2959   0.140   3.157   6.324
  687SOL    HW1 2960   0.128   3.068   6.280
  687SOL    HW2 2961   0.066   3.171   6.390
  688SOL     OW 2962   1.935   3.587   0.249
  688SOL    HW1 2963   1.960   3.491   0.242
  688SOL    HW2 2964   1.966   3.636   0.168
  689SOL     OW 2965   1.269   4.491   5.464
  689SOL    HW1 2966   1.256   4.450   5.555
  689SOL    HW2 2967   1.182   4.496   5.416
  690SOL     OW 2968   0.810   2.876   3.300
  690SOL    HW1 2969   0.809   2.972   3.329
  690SOL    HW2 2970   0.898   2.835   3.326
  691SOL     OW 2971   1.913   2.463   6.343
  691SOL    HW1 2972   1.840   2.412   6.388
  691SOL    HW2 2973   2.001   2.434   6.380
  692SOL     OW 2974   3.063   6.949   3.514
  692SOL    HW1 2975   3.019   6.881   3.572
  692SOL    HW2 2976   3.155   6.918   3.489
  693SOL     OW 2977   6.640   1.643   3.485
  693SOL    HW1 2978   6.606   1.549   3.484
  693SOL    HW2 2979   6.564   1.706   3.499
  694SOL     OW 2980   3.782   5.702   1.705
  694SOL    HW1 2981   3.861   5.647   1.676
  694SOL    HW2 2982   3.775   5.783   1.647
  695SOL     OW 2983   4.577   5.169   4.947
  695SOL    HW1 2984   4.675   5.155   4.957
  695SOL    HW2 2985   4.538   5.195   5.035
  696SOL     OW 2986   2.996   5.239   2.140
  696SOL    HW1 2987   3.050   5.292   2.074
  696SOL    HW2 2988   2.990   5.144   2.110
  697SOL     OW 2989   0.964   3.321   5.527
  697SOL    HW1 2990   1.040   3.378   5.495
  697SOL    HW2 2991   0.885   3.333   5.466
  698SOL     OW 2992   5.396   0.292   4.378
  698SOL    HW1 2993   5.439   0.202   4.387
  698SOL    HW2 2994   5.416   0.330   4.288
  699SOL     OW 2995   1.753   4.546   0.718
  699SOL    HW1 2996   1.665   4.502   0.703
  699SOL    HW2 2997   1.816   4.483   0.764
  700SOL     OW 2998   2.662   2.046   3.324
  700SOL    HW1 2999   2.629   2.008   3.238
  700SOL    HW2 3000   2.702   2.136   3.307
  701SOL     OW 3001   1.301   4.566   6.914
  701SOL    HW1 3002   1.295   4.649   6.859
  701SOL    HW2 3003   1.212   4.520   6.914
  702SOL     OW 3004   5.436   6.031   5.660
  702SOL    HW1 3005   5.443   5.955   5.594
  702SOL    HW2 3006   5.342   6.038   5.692
  703SOL     OW 3007   4.188   3.594   0.143
  703SOL    HW1 3008   4.195   3.630   0.236
  703SOL    HW2 3009   4.278   3.594   0.100
  704SOL     OW 3010   1.186   1.108   5.853
  704SOL    HW1 3011   1.255   1.179   5.867
  704SOL    HW2 3012   1.191   1.074   5.759
  705SOL     OW 3013   4.669   0.217   3.738
  705SOL    HW1 3014   4.697   0.148   3.673
  705SOL    HW2 3015   4.591   0.268   3.702
  706SOL     OW 3016   4.036   1.485   3.556
  706SOL    HW1 3017   4.059   1.430   3.475
  706SOL    HW2 3018   3.940   1.513   3.551
  707SOL     OW 3019   4.485   0.007   2.160
  707SOL    HW1 3020   4.483   6.956   2.096
  707SOL    HW2 3021   4.561   7.021   2.224
  708SOL     OW 3022   4.739   0.249   0.841
  708SOL    HW1 3023   4.685   0.310   0.898
  708SOL    HW2 3024   4.688   0.225   0.758
  709SOL     OW 3025   1.312   5.330   1.209
  709SOL    HW1 3026   1.236   5.277   1.173
  709SOL    HW2 3027   1.286   5.427   1.214
  710SOL     OW 3028   3.575   4.063   2.946
  710SOL    HW1 3029   3.525   4.145   2.917
  710SOL    HW2 3030   3.517   4.007   3.004
  711SOL     OW 3031   0.093   2.565   5.705
  711SOL    HW1 3032   0.122   2.485   5.757
  711SOL    HW2 3033   0.063   2.636   5.769
  712SOL     OW 3034   1.633   4.039   1.293
  712SOL    HW1 3035   1.616   3.954   1.342
  712SOL    HW2 3036   1.673   4.018   1.203
  713SOL     OW 3037   3.062   3.893   1.308
  713SOL    HW1 3038   3.049   3.973   1.365
  713SOL    HW2 3039   3.138   3.838   1.343
  714SOL     OW 3040   5.821   4.354   5.318
  714SOL    HW1 3041   5.775   4.361   5.230
  714SOL    HW2 3042   5.864   4.442   5.340
  715SOL     OW 3043   4.964   5.765   6.992
  715SOL    HW1 3044   4.996   5.726   6.906
  715SOL    HW2 3045   4.966   5.865   6.986
  716SOL     OW 3046   0.784   5.434   1.152
  716SOL    HW1 3047   0.768   5.499   1.078
  716SOL    HW2 3048   0.804   5.344   1.113
  717SOL     OW 3049   6.384   4.791   6.389
  717SOL    HW1 3050   6.382   4.698   6.425
  717SOL    HW2 3051   6.441   4.794   6.307
  718SOL     OW 3052   4.058   2.336   6.297
  718SOL    HW1 3053   4.148   2.320   6.338
  718SOL    HW2 3054   4.069   2.392   6.215
  719SOL     OW 3055   6.466   2.349   1.365
  719SOL    HW1 3056   6.449   2.341   1.463
  719SOL    HW2 3057   6.381   2.375   1.319
  720SOL     OW 3058   2.490   1.771   5.864
  720SOL    HW1 3059   2.536   1.758   5.952
  720SOL    HW2 3060   2.522   1.701   5.799
  721SOL     OW 3061   1.485   0.854   4.921
  721SOL    HW1 3062   1.567   0.810   4.959
  721SOL    HW2 3063   1.435   0.788   4.865
  722SOL     OW 3064   4.251   6.759   4.898
  722SOL    HW1 3065   4.349   6.775   4.895
  722SOL    HW2 3066   4.202   6.839   4.864
  723SOL     OW 3067   1.902   2.842   1.945
  723SOL    HW1 3068   1.986   2.846   1.999
  723SOL    HW2 3069   1.858   2.932   1.945
  724SOL     OW 3070   1.646   1.414   5.479
  724SOL    HW1 3071   1.602   1.383   5.563
  724SOL    HW2 3072   1.719   1.478   5.501
  725SOL     OW 3073   2.667   4.977   2.205
  725SOL    HW1 3074   2.728   5.009   2.278
  725SOL    HW2 3075   2.604   5.050   2.180
  726SOL     OW 3076   3.727   4.627   0.309
  726SOL    HW1 3077   3.737   4.542   0.258
  726SOL    HW2 3078   3.817   4.663   0.332
  727SOL     OW 3079   4.102   5.875   4.493
  727SOL    HW1 3080   4.155   5.897   4.576
  727SOL    HW2 3081   4.152   5.906   4.413
  728SOL     OW 3082   6.910   3.918   5.162
  728SOL    HW1 3083   6.982   3.889   5.098
  728SOL    HW2 3084   6.937   3.893   5.255
  729SOL     OW 3085   2.127   0.604   0.560
  729SOL    HW1 3086   2.066   0.603   0.481
  729SOL    HW2 3087   2.079   0.566   0.640
  730SOL     OW 3088   5.559   0.904   3.521
  730SOL    HW1 3089   5.614   0.880   3.441
  730SOL    HW2 3090   5.505   0.985   3.501
  731SOL     OW 3091   5.479   3.197   5.790
  731SOL    HW1 3092   5.420   3.262   5.742
  731SOL    HW2 3093   5.468   3.106   5.750
  732SOL     OW 3094   0.721   3.301   1.164
  732SOL    HW1 3095   0.686   3.210   1.187
  732SOL    HW2 3096   0.718   3.314   1.065
  733SOL     OW 3097   5.910   4.110   4.443
  733SOL    HW1 3098   5.977   4.103   4.516
  733SOL    HW2 3099   5.951   4.079   4.357
  734SOL     OW 3100   0.002   5.394   2.388
  734SOL    HW1 3101   0.094   5.373   2.354
  734SOL    HW2 3102   6.960   5.358   2.324
  735SOL     OW 3103   2.842   2.852   0.877
  735SOL    HW1 3104   2.848   2.904   0.792
  735SOL    HW2 3105   2.843   2.754   0.856
  736SOL     OW 3106   6.605   7.001   2.879
  736SOL    HW1 3107   6.569   6.923   2.828
  736SOL    HW2 3108   6.532   0.042   2.893
  737SOL     OW 3109   5.045   3.429   1.324
  737SOL    HW1 3110   5.108   3.436   1.402
  737SOL    HW2 3111   5.070   3.497   1.255
  738SOL     OW 3112   1.356   4.886   4.234
  738SOL    HW1 3113   1.359   4.976   4.276
  738SOL    HW2 3114   1.435   4.832   4.264
  739SOL     OW 3115   4.659   6.571   5.558
  739SOL    HW1 3116   4.698   6.644   5.613
  739SOL    HW2 3117   4.559   6.575   5.565
  740SOL     OW 3118   5.304   0.437   0.841
  740SOL    HW1 3119   5.211   0.408   0.820
  740SOL    HW2 3120   5.303   0.533   0.870
  741SOL     OW 3121   1.856   6.528   3.156
  741SOL    HW1 3122   1.851   6.444   3.101
  741SOL    HW2 3123   1.783   6.590   3.128
  742SOL     OW 3124   2.581   0.099   2.119
  742SOL    HW1 3125   2.534   0.152   2.048
  742SOL    HW2 3126   2.643   0.033   2.076
  743SOL     OW 3127   2.128   4.226   4.271
  743SOL    HW1 3128   2.166   4.175   4.348
  743SOL    HW2 3129   2.052   4.175   4.232
  744SOL     OW 3130   6.844   6.568   6.481
  744SOL    HW1 3131   6.783   6.603   6.410
  744SOL    HW2 3132   6.935   6.608   6.469
  745SOL     OW 3133   1.366   6.388   3.752
  745SOL    HW1 3134   1.398   6.411   3.660
  745SOL    HW2 3135   1.440   6.344   3.804
  746SOL     OW 3136   0.103   6.628   5.410
  746SOL    HW1 3137   0.141   6.719   5.425
  746SOL    HW2 3138   0.172   6.559   5.431
  747SOL     OW 3139   4.501   5.072   4.159
  747SOL    HW1 3140   4.548   5.135   4.221
  747SOL    HW2 3141   4.407   5.104   4.146
  748SOL     OW 3142   4.381   5.058   2.164
  748SOL    HW1 3143   4.404   5.079   2.259
  748SOL    HW2 3144   4.328   5.133   2.125
  749SOL     OW 3145   6.898   3.244   5.145
  749SOL    HW1 3146   6.988   3.269   5.181
  749SOL    HW2 3147   6.888   3.279   5.052
  750SOL     OW 3148   2.261   3.057   0.601
  750SOL    HW1 3149   2.208   3.111   0.536
  750SOL    HW2 3150   2.306   3.119   0.666
  751SOL     OW 3151   4.200   1.660   6.197
  751SOL    HW1 3152   4.139   1.620   6.265
  751SOL    HW2 3153   4.185   1.616   6.108
  752SOL     OW 3154   4.639   2.567   1.788
  752SOL    HW1 3155   4.576   2.495   1.816
  752SOL    HW2 3156   4.596   2.657   1.802
  753SOL     OW 3157   2.199   2.953   4.135
  753SOL    HW1 3158   2.232   2.989   4.222
  753SOL    HW2 3159   2.257   2.876   4.107
  754SOL     OW 3160   5.630   3.610   6.871
  754SOL    HW1 3161   5.574   3.562   6.939
  754SOL    HW2 3162   5.666   3.543   6.806
  755SOL     OW 3163   1.225   5.796   7.020
  755SOL    HW1 3164   1.161   5.720   7.009
  755SOL    HW2 3165   1.309   5.763   0.036
  756SOL     OW 3166   5.124   6.960   1.516
  756SOL    HW1 3167   5.080   6.936   1.603
  756SOL    HW2 3168   5.145   0.032   1.515
  757SOL     OW 3169   0.581   6.313   3.089
  757SOL    HW1 3170   0.494   6.274   3.119
  757SOL    HW2 3171   0.564   6.400   3.042
  758SOL     OW 3172   3.546   1.077   1.620
  758SOL    HW1 3173   3.623   1.141   1.613
  758SOL    HW2 3174   3.541   1.041   1.713
  759SOL     OW 3175   6.844   1.031   0.605
  759SOL    HW1 3176   6.836   0.986   0.516
  759SOL    HW2 3177   6.874   1.125   0.593
  760SOL     OW 3178   4.286   1.383   6.331
  760SOL    HW1 3179   4.355   1.378   6.403
  760SOL    HW2 3180   4.214   1.448   6.358
  761SOL     OW 3181   5.061   3.364   6.916
  761SOL    HW1 3182   5.116   3.443   6.889
  761SOL    HW2 3183   5.017   3.324   6.835
  762SOL     OW 3184   1.882   6.029   3.456
  762SOL    HW1 3185   1.839   6.112   3.419
  762SOL    HW2 3186   1.817   5.953   3.451
  763SOL     OW 3187   4.157   5.426   6.730
  763SOL    HW1 3188   4.187   5.472   6.646
  763SOL    HW2 3189   4.192   5.476   6.809
  764SOL     OW 3190   4.195   0.058   4.150
  764SOL    HW1 3191   4.276   0.109   4.118
  764SOL    HW2 3192   4.206   0.037   4.247
  765SOL     OW 3193   1.464   6.278   1.267
  765SOL    HW1 3194   1.368   6.251   1.264
  765SOL    HW2 3195   1.481   6.350   1.200
  766SOL     OW 3196   6.962   1.729   6.906
  766SOL    HW1 3197   6.922   1.679   6.829
  766SOL    HW2 3198   6.899   1.725   6.984
  767SOL     OW 3199   1.159   6.297   2.244
  767SOL    HW1 3200   1.179   6.304   2.341
  767SOL    HW2 3201   1.239   6.263   2.195
  768SOL     OW 3202   2.091   0.755   2.502
  768SOL    HW1 3203   2.039   0.824   2.553
  768SOL    HW2 3204   2.030   0.703   2.443
  769SOL     OW 3205   3.063   6.567   4.256
  769SOL    HW1 3206   3.106   6.650   4.291
  769SOL    HW2 3207   2.964   6.580   4.253
  770SOL     OW 3208   2.165   4.739   3.217
  770SOL    HW1 3209   2.244   4.697   3.172
  770SOL    HW2 3210   2.181   4.744   3.315
  771SOL     OW 3211   2.158   5.760   2.621
  771SOL    HW1 3212   2.120   5.774   2.713
  771SOL    HW2 3213   2.255   5.783   2.621
  772SOL     OW 3214   6.615   5.305   0.771
  772SOL    HW1 3215   6.700   5.315   0.718
  772SOL    HW2 3216   6.597   5.207   0.786
  773SOL     OW 3217   0.679   2.861   3.603
  773SOL    HW1 3218   0.641   2.872   3.511
  773SOL    HW2 3219   0.641   2.930   3.664
  774SOL     OW 3220   1.229   1.587   1.715
  774SOL    HW1 3221   1.179   1.503   1.696
  774SOL    HW2 3222   1.225   1.648   1.636
  775SOL     OW 3223   1.269   2.292   3.935
  775SOL    HW1 3224   1.344   2.350   3.903
  775SOL    HW2 3225   1.249   2.315   4.031
  776SOL     OW 3226   0.100   0.450   6.357
  776SOL    HW1 3227   0.172   0.380   6.354
  776SOL    HW2 3228   0.063   0.463   6.265
  777SOL     OW 3229   3.835   0.429   1.052
  777SOL    HW1 3230   3.839   0.360   0.979
  777SOL    HW2 3231   3.816   0.383   1.139
  778SOL     OW 3232   3.460   1.405   3.577
  778SOL    HW1 3233   3.468   1.367   3.485
  778SOL    HW2 3234   3.396   1.482   3.576
  779SOL     OW 3235   0.369   1.723   2.381
  779SOL    HW1 3236   0.350   1.821   2.391
  779SOL    HW2 3237   0.464   1.705   2.403
  780SOL     OW 3238   5.708   3.329   4.939
  780SOL    HW1 3239   5.792   3.371   4.905
  780SOL    HW2 3240   5.663   3.392   5.003
  781SOL     OW 3241   5.754   1.330   5.887
  781SOL    HW1 3242   5.837   1.379   5.913
  781SOL    HW2 3243   5.769   1.279   5.803
  782SOL     OW 3244   1.338   4.293   0.374
  782SOL    HW1 3245   1.326   4.194   0.370
  782SOL    HW2 3246   1.404   4.321   0.304
  783SOL     OW 3247   3.689   4.345   0.438
  783SOL    HW1 3248   3.631   4.390   0.370
  783SOL    HW2 3249   3.745   4.414   0.486
  784SOL     OW 3250   4.906   0.119   5.380
  784SOL    HW1 3251   5.005   0.129   5.393
  784SOL    HW2 3252   4.865   0.088   5.465
  785SOL     OW 3253   6.654   1.853   3.106
  785SOL    HW1 3254   6.694   1.783   3.047
  785SOL    HW2 3255   6.555   1.855   3.092
  786SOL     OW 3256   0.572   0.755   0.671
  786SOL    HW1 3257   0.617   0.822   0.611
  786SOL    HW2 3258   0.583   0.784   0.766
  787SOL     OW 3259   2.927   0.900   6.093
  787SOL    HW1 3260   2.987   0.831   6.133
  787SOL    HW2 3261   2.960   0.991   6.115
  788SOL     OW 3262   2.466   2.560   4.796
  788SOL    HW1 3263   2.514   2.540   4.711
  788SOL    HW2 3264   2.504   2.505   4.870
  789SOL     OW 3265   5.987   4.400   1.767
  789SOL    HW1 3266   6.051   4.439   1.701
  789SOL    HW2 3267   6.036   4.381   1.853
  790SOL     OW 3268   2.286   1.629   4.430
  790SOL    HW1 3269   2.199   1.655   4.470
  790SOL    HW2 3270   2.327   1.707   4.383
  791SOL     OW 3271   3.537   0.050   3.805
  791SOL    HW1 3272   3.539   0.131   3.747
  791SOL    HW2 3273   3.629   0.031   3.840
  792SOL     OW 3274   6.621   0.176   1.553
  792SOL    HW1 3275   6.679   0.245   1.509
  792SOL    HW2 3276   6.526   0.208   1.554
  793SOL     OW 3277   4.679   6.493   2.073
  793SOL    HW1 3278   4.628   6.408   2.087
  793SOL    HW2 3279   4.626   6.570   2.108
  794SOL     OW 3280   2.306   3.919   5.430
  794SOL    HW1 3281   2.302   3.986   5.504
  794SOL    HW2 3282   2.381   3.942   5.368
  795SOL     OW 3283   3.033   5.209   4.766
  795SOL    HW1 3284   3.119   5.166   4.736
  795SOL    HW2 3285   2.958   5.143   4.757
  796SOL     OW 3286   0.524   2.341   6.312
  796SOL    HW1 3287   0.525   2.411   6.240
  796SOL    HW2 3288   0.535   2.384   6.401
  797SOL     OW 3289   5.312   2.453   2.435
  797SOL    HW1 3290   5.399   2.493   2.465
  797SOL    HW2 3291   5.237   2.497   2.484
  798SOL     OW 3292   4.836   0.135   1.097
  798SOL    HW1 3293   4.758   0.112   1.038
  798SOL    HW2 3294   4.819   0.099   1.189
  799SOL     OW 3295   6.764   1.148   3.806
  799SOL    HW1 3296   6.769   1.099   3.892
  799SOL    HW2 3297   6.808   1.237   3.815
  800SOL     OW 3298   5.592   0.741   2.187
  800SOL    HW1 3299   5.677   0.752   2.238
  800SOL    HW2 3300   5.527   0.813   2.213
  801SOL     OW 3301   1.351   3.879   2.805
  801SOL    HW1 3302   1.358   3.889   2.904
  801SOL    HW2 3303   1.381   3.963   2.760
  802SOL     OW 3304   4.446   0.992   0.670
  802SOL    HW1 3305   4.416   0.913   0.724
  802SOL    HW2 3306   4.388   1.071   0.690
  803SOL     OW 3307   6.870   5.796   5.155
  803SOL    HW1 3308   6.882   5.819   5.058
  803SOL    HW2 3309   6.861   5.697   5.165
  804SOL     OW 3310   6.511   5.832   6.777
  804SOL    HW1 3311   6.480   5.775   6.853
  804SOL    HW2 3312   6.497   5.783   6.691
  805SOL     OW 3313   4.242   2.274   5.651
  805SOL    HW1 3314   4.203   2.217   5.578
  805SOL    HW2 3315   4.196   2.362   5.652
  806SOL     OW 3316   3.682   2.080   4.967
  806SOL    HW1 3317   3.738   2.149   5.013
  806SOL    HW2 3318   3.726   2.053   4.881
  807SOL     OW 3319   0.790   2.216   3.362
  807SOL    HW1 3320   0.784   2.260   3.273
  807SOL    HW2 3321   0.884   2.220   3.396
  808SOL     OW 3322   5.268   3.105   6.258
  808SOL    HW1 3323   5.253   3.191   6.306
  808SOL    HW2 3324   5.270   3.122   6.159
  809SOL     OW 3325   1.326   4.801   1.922
  809SOL    HW1 3326   1.232   4.819   1.953
  809SOL    HW2 3327   1.342   4.850   1.837
  810SOL     OW 3328   4.088   2.648   0.731
  810SOL    HW1 3329   4.049   2.581   0.668
  810SOL    HW2 3330   4.187   2.655   0.713
  811SOL     OW 3331   4.615   5.121   3.426
  811SOL    HW1 3332   4.662   5.187   3.484
  811SOL    HW2 3333   4.672   5.099   3.347
  812SOL     OW 3334   0.139   0.639   1.946
  812SOL    HW1 3335   0.086   0.562   1.909
  812SOL    HW2 3336   0.152   0.708   1.875
  813SOL     OW 3337   3.922   5.459   3.666
  813SOL    HW1 3338   3.975   5.380   3.698
  813SOL    HW2 3339   3.825   5.439   3.672
  814SOL     OW 3340   4.984   6.657   3.579
  814SOL    HW1 3341   5.048   6.734   3.590
  814SOL    HW2 3342   5.035   6.572   3.569
  815SOL     OW 3343   6.439   3.042   2.242
  815SOL    HW1 3344   6.477   3.049   2.335
  815SOL    HW2 3345   6.360   3.103   2.235
  816SOL     OW 3346   0.266   6.657   0.123
  816SOL    HW1 3347   0.295   6.567   0.091
  816SOL    HW2 3348   0.190   6.646   0.187
  817SOL     OW 3349   1.915   3.902   2.442
  817SOL    HW1 3350   1.926   3.953   2.527
  817SOL    HW2 3351   1.992   3.922   2.381
  818SOL     OW 3352   6.476   2.606   0.703
  818SOL    HW1 3353   6.509   2.518   0.669
  818SOL    HW2 3354   6.554   2.665   0.723
  819SOL     OW 3355   5.839   3.168   4.090
  819SOL    HW1 3356   5.925   3.204   4.055
  819SOL    HW2 3357   5.762   3.220   4.052
  820SOL     OW 3358   1.294   2.614   5.795
  820SOL    HW1 3359   1.375   2.658   5.833
  820SOL    HW2 3360   1.214   2.636   5.851
  821SOL     OW 3361   2.736   4.600   0.270
  821SOL    HW1 3362   2.696   4.686   0.300
  821SOL    HW2 3363   2.684   4.524   0.309
  822SOL     OW 3364   0.913   5.510   4.273
  822SOL    HW1 3365   0.829   5.479   4.229
  822SOL    HW2 3366   0.987   5.515   4.206
  823SOL     OW 3367   4.341   4.290   6.670
  823SOL    HW1 3368   4.252   4.246   6.659
  823SOL    HW2 3369   4.384   4.259   6.754
  824SOL     OW 3370   5.307   1.151   5.235
  824SOL    HW1 3371   5.357   1.153   5.322
  824SOL    HW2 3372   5.271   1.059   5.219
  825SOL     OW 3373   2.111   3.077   1.955
  825SOL    HW1 3374   2.057   3.145   2.003
  825SOL    HW2 3375   2.124   2.997   2.013
  826SOL     OW 3376   6.170   4.114   0.762
  826SOL    HW1 3377   6.185   4.064   0.847
  826SOL    HW2 3378   6.085   4.166   0.768
  827SOL     OW 3379   3.223   5.248   5.491
  827SOL    HW1 3380   3.282   5.277   5.415
  827SOL    HW2 3381   3.152   5.187   5.456
  828SOL     OW 3382   6.140   0.551   5.129
  828SOL    HW1 3383   6.180   0.641   5.114
  828SOL    HW2 3384   6.197   0.481   5.087
  829SOL     OW 3385   2.900   3.516   4.166
  829SOL    HW1 3386   2.978   3.566   4.202
  829SOL    HW2 3387   2.919   3.487   4.072
  830SOL     OW 3388   5.248   4.308   6.042
  830SOL    HW1 3389   5.247   4.231   5.978
  830SOL    HW2 3390   5.230   4.393   5.992
  831SOL     OW 3391   0.148   0.008   4.505
  831SOL    HW1 3392   0.234   0.047   4.537
  831SOL    HW2 3393   0.165   6.977   4.424
  832SOL     OW 3394   1.949   1.177   0.233
  832SOL    HW1 3395   1.865   1.139   0.272
  832SOL    HW2 3396   2.010   1.103   0.205
  833SOL     OW 3397   0.515   5.587   5.862
  833SOL    HW1 3398   0.541   5.524   5.789
  833SOL    HW2 3399   0.595   5.639   5.892
  834SOL     OW 3400   3.764   3.686   2.105
  834SOL    HW1 3401   3.759   3.677   2.006
  834SOL    HW2 3402   3.855   3.717   2.131
  835SOL     OW 3403   3.753   6.552   4.378
  835SOL    HW1 3404   3.846   6.519   4.388
  835SOL    HW2 3405   3.751   6.626   4.309
  836SOL     OW 3406   2.984   6.267   6.697
  836SOL    HW1 3407   3.078   6.297   6.715
  836SOL    HW2 3408   2.980   6.167   6.699
  837SOL     OW 3409   4.752   0.108   7.008
  837SOL    HW1 3410   4.761   0.010   0.001
  837SOL    HW2 3411   4.733   0.121   6.910
  838SOL     OW 3412   0.873   0.228   5.135
  838SOL    HW1 3413   0.895   0.325   5.131
  838SOL    HW2 3414   0.884   0.187   5.044
  839SOL     OW 3415   2.816   1.224   2.420
  839SOL    HW1 3416   2.748   1.216   2.347
  839SOL    HW2 3417   2.840   1.320   2.433
  840SOL     OW 3418   6.196   1.281   5.473
  840SOL    HW1 3419   6.234   1.213   5.410
  840SOL    HW2 3420   6.267   1.346   5.498
  841SOL     OW 3421   6.102   4.295   0.234
  841SOL    HW1 3422   6.043   4.359   0.186
  841SOL    HW2 3423   6.136   4.338   0.318
  842SOL     OW 3424   4.193   5.329   3.348
  842SOL    HW1 3425   4.097   5.332   3.322
  842SOL    HW2 3426   4.215   5.408   3.406
  843SOL     OW 3427   5.413   2.078   0.174
  843SOL    HW1 3428   5.476   2.002   0.192
  843SOL    HW2 3429   5.403   2.090   0.076
  844SOL     OW 3430   4.661   6.299   0.492
  844SOL    HW1 3431   4.630   6.336   0.580
  844SOL    HW2 3432   4.603   6.334   0.419
  845SOL     OW 3433   6.059   2.924   4.660
  845SOL    HW1 3434   6.155   2.942   4.681
  845SOL    HW2 3435   6.053   2.843   4.601
  846SOL     OW 3436   5.237   1.475   6.351
  846SOL    HW1 3437   5.206   1.382   6.372
  846SOL    HW2 3438   5.157   1.535   6.344
  847SOL     OW 3439   6.295   3.252   0.837
  847SOL    HW1 3440   6.214   3.282   0.787
  847SOL    HW2 3441   6.268   3.195   0.914
  848SOL     OW 3442   5.776   1.305   6.469
  848SOL    HW1 3443   5.793   1.333   6.374
  848SOL    HW2 3444   5.852   1.248   6.501
  849SOL     OW 3445   0.162   5.676   4.977
  849SOL    HW1 3446   0.244   5.671   4.921
  849SOL    HW2 3447   0.107   5.593   4.962
  850SOL     OW 3448   4.557   0.709   3.447
  850SOL    HW1 3449   4.602   0.703   3.536
  850SOL    HW2 3450   4.521   0.619   3.422
  851SOL     OW 3451   0.570   1.491   0.410
  851SOL    HW1 3452   0.472   1.497   0.429
  851SOL    HW2 3453   0.585   1.487   0.311
  852SOL     OW 3454   2.543   2.505   0.125
  852SOL    HW1 3455   2.501   2.567   0.059
  852SOL    HW2 3456   2.595   2.435   0.076
  853SOL     OW 3457   0.765   4.032   3.399
  853SOL    HW1 3458   0.783   3.937   3.374
  853SOL    HW2 3459   0.847   4.071   3.440
  854SOL     OW 3460   5.172   6.227   2.266
  854SOL    HW1 3461   5.199   6.135   2.296
  854SOL    HW2 3462   5.199   6.240   2.171
  855SOL     OW 3463   6.045   6.959   1.224
  855SOL    HW1 3464   6.007   6.867   1.209
  855SOL    HW2 3465   5.997   7.003   1.299
  856SOL     OW 3466   1.758   0.871   5.024
  856SOL    HW1 3467   1.809   0.857   5.109
  856SOL    HW2 3468   1.794   0.950   4.976
  857SOL     OW 3469   5.658   5.390   1.751
  857SOL    HW1 3470   5.675   5.366   1.655
  857SOL    HW2 3471   5.744   5.412   1.796
  858SOL     OW 3472   2.632   4.817   1.914
  858SOL    HW1 3473   2.590   4.832   2.004
  858SOL    HW2 3474   2.702   4.746   1.921
  859SOL     OW 3475   5.871   5.187   6.747
  859SOL    HW1 3476   5.902   5.244   6.671
  859SOL    HW2 3477   5.937   5.113   6.763
  860SOL     OW 3478   4.876   3.960   0.506
  860SOL    HW1 3479   4.943   3.916   0.446
  860SOL    HW2 3480   4.900   3.943   0.601
  861SOL     OW 3481   2.375   0.164   4.541
  861SOL    HW1 3482   2.426   0.118   4.613
  861SOL    HW2 3483   2.311   0.229   4.581
  862SOL     OW 3484   6.195   4.146   4.964
  862SOL    HW1 3485   6.170   4.088   4.886
  862SOL    HW2 3486   6.287   4.122   4.995
  863SOL     OW 3487   1.112   0.118   0.688
  863SOL    HW1 3488   1.117   0.075   0.598
  863SOL    HW2 3489   1.022   0.103   0.727
  864SOL     OW 3490   5.086   4.425   3.736
  864SOL    HW1 3491   5.154   4.388   3.672
  864SOL    HW2 3492   5.075   4.523   3.719
  865SOL     OW 3493   0.550   6.845   4.397
  865SOL    HW1 3494   0.639   6.799   4.391
  865SOL    HW2 3495   0.478   6.778   4.411
  866SOL     OW 3496   2.864   1.331   1.974
  866SOL    HW1 3497   2.775   1.354   1.934
  866SOL    HW2 3498   2.910   1.415   2.004
  867SOL     OW 3499   3.092   2.643   0.783
  867SOL    HW1 3500   3.078   2.645   0.684
  867SOL    HW2 3501   3.004   2.629   0.829
  868SOL     OW 3502   5.959   6.890   1.674
  868SOL    HW1 3503   6.013   6.868   1.592
  868SOL    HW2 3504   5.948   6.989   1.681
  869SOL     OW 3505   6.560   5.725   3.009
  869SOL    HW1 3506   6.517   5.810   2.978
  869SOL    HW2 3507   6.492   5.652   3.012
  870SOL     OW 3508   6.165   3.674   1.555
  870SOL    HW1 3509   6.160   3.773   1.570
  870SOL    HW2 3510   6.260   3.646   1.547
  871SOL     OW 3511   0.227   3.191   1.624
  871SOL    HW1 3512   0.264   3.208   1.533
  871SOL    HW2 3513   0.266   3.105   1.660
  872SOL     OW 3514   6.021   3.313   4.426
  872SOL    HW1 3515   6.034   3.273   4.517
  872SOL    HW2 3516   5.943   3.375   4.428
  873SOL     OW 3517   4.248   0.771   2.702
  873SOL    HW1 3518   4.222   0.794   2.608
  873SOL    HW2 3519   4.207   0.837   2.765
  874SOL     OW 3520   1.936   4.146   5.244
  874SOL    HW1 3521   1.963   4.230   5.198
  874SOL    HW2 3522   1.988   4.069   5.205
  875SOL     OW 3523   4.919   4.527   0.908
  875SOL    HW1 3524   4.880   4.604   0.859
  875SOL    HW2 3525   4.848   4.457   0.920
  876SOL     OW 3526   6.550   4.124   3.149
  876SOL    HW1 3527   6.470   4.106   3.091
  876SOL    HW2 3528   6.535   4.208   3.200
  877SOL     OW 3529   4.683   4.867   6.944
  877SOL    HW1 3530   4.707   4.793   7.006
  877SOL    HW2 3531   4.699   4.839   6.850
  878SOL     OW 3532   3.635   5.378   0.181
  878SOL    HW1 3533   3.651   5.381   0.083
  878SOL    HW2 3534   3.545   5.338   0.199
  879SOL     OW 3535   4.249   1.880   2.468
  879SOL    HW1 3536   4.236   1.881   2.369
  879SOL    HW2 3537   4.205   1.961   2.508
  880SOL     OW 3538   3.148   4.432   0.089
  880SOL    HW1 3539   3.161   4.501   0.017
  880SOL    HW2 3540   3.227   4.433   0.151
  881SOL     OW 3541   4.333   4.750   4.875
  881SOL    HW1 3542   4.365   4.799   4.957
  881SOL    HW2 3543   4.366   4.656   4.878
  882SOL     OW 3544   2.050   1.431   4.835
  882SOL    HW1 3545   1.979   1.439   4.764
  882SOL    HW2 3546   2.131   1.387   4.797
  883SOL     OW 3547   4.118   5.060   5.486
  883SOL    HW1 3548   4.029   5.092   5.454
  883SOL    HW2 3549   4.126   5.077   5.584
  884SOL     OW 3550   6.616   3.130   1.770
  884SOL    HW1 3551   6.539   3.132   1.707
  884SOL    HW2 3552   6.691   3.185   1.733
  885SOL     OW 3553   6.033   6.626   0.034
  885SOL    HW1 3554   6.071   6.662   0.120
  885SOL    HW2 3555   6.022   6.527   0.041
  886SOL     OW 3556   4.085   1.216   0.058
  886SOL    HW1 3557   4.172   1.167   0.049
  886SOL    HW2 3558   4.030   1.173   0.129
  887SOL     OW 3559   3.801   6.369   6.224
  887SOL    HW1 3560   3.812   6.319   6.139
  887SOL    HW2 3561   3.766   6.308   6.295
  888SOL     OW 3562   6.770   6.380   3.313
  888SOL    HW1 3563   6.867   6.400   3.300
  888SOL    HW2 3564   6.720   6.407   3.230
  889SOL     OW 3565   0.154   6.589   5.730
  889SOL    HW1 3566   0.186   6.620   5.640
  889SOL    HW2 3567   0.065   6.546   5.720
  890SOL     OW 3568   2.730   4.699   2.235
  890SOL    HW1 3569   2.714   4.797   2.218
  890SOL    HW2 3570   2.750   4.653   2.149
  891SOL     OW 3571   5.444   3.756   1.354
  891SOL    HW1 3572   5.434   3.660   1.325
  891SOL    HW2 3573   5.463   3.759   1.452
  892SOL     OW 3574   3.294   3.802   0.512
  892SOL    HW1 3575   3.249   3.719   0.544
  892SOL    HW2 3576   3.324   3.789   0.417
  893SOL     OW 3577   1.399   0.659   0.374
  893SOL    HW1 3578   1.429   0.674   0.468
  893SOL    HW2 3579   1.327   0.590   0.372
  894SOL     OW 3580   1.573   4.680   4.234
  894SOL    HW1 3581   1.639   4.609   4.209
  894SOL    HW2 3582   1.594   4.714   4.325
  895SOL     OW 3583   2.269   6.977   4.405
  895SOL    HW1 3584   2.315   0.025   4.454
  895SOL    HW2 3585   2.170   6.994   4.405
  896SOL     OW 3586   5.673   6.343   4.018
  896SOL    HW1 3587   5.626   6.279   4.078
  896SOL    HW2 3588   5.755   6.379   4.065
  897SOL     OW 3589   4.974   1.716   0.386
  897SOL    HW1 3590   4.973   1.617   0.370
  897SOL    HW2 3591   4.997   1.763   0.301
  898SOL     OW 3592   5.266   6.090   3.600
  898SOL    HW1 3593   5.267   6.160   3.529
  898SOL    HW2 3594   5.213   6.123   3.678
  899SOL     OW 3595   0.646   5.016   0.395
  899SOL    HW1 3596   0.727   4.967   0.363
  899SOL    HW2 3597   0.646   5.109   0.358
  900SOL     OW 3598   6.362   5.927   1.953
  900SOL    HW1 3599   6.388   6.019   1.925
  900SOL    HW2 3600   6.431   5.862   1.920
  901SOL     OW 3601   0.291   1.442   4.290
  901SOL    HW1 3602   0.290   1.356   4.341
  901SOL    HW2 3603   0.379   1.487   4.303
  902SOL     OW 3604   6.778   0.450   6.679
  902SOL    HW1 3605   6.690   0.468   6.635
  902SOL    HW2 3606   6.809   0.358   6.655
  903SOL     OW 3607   6.573   5.051   0.810
  903SOL    HW1 3608   6.636   5.001   0.750
  903SOL    HW2 3609   6.520   4.985   0.864
  904SOL     OW 3610   1.382   1.674   3.598
  904SOL    HW1 3611   1.421   1.714   3.515
  904SOL    HW2 3612   1.308   1.732   3.631
  905SOL     OW 3613   5.052   2.227   6.507
  905SOL    HW1 3614   5.002   2.312   6.524
  905SOL    HW2 3615   5.001   2.172   6.441
  906SOL     OW 3616   0.228   4.701   0.413
  906SOL    HW1 3617   0.145   4.755   0.430
  906SOL    HW2 3618   0.208   4.632   0.343
  907SOL     OW 3619   6.026   2.075   2.878
  907SOL    HW1 3620   5.943   2.030   2.844
  907SOL    HW2 3621   6.093   2.083   2.804
  908SOL     OW 3622   1.033   6.875   4.200
  908SOL    HW1 3623   1.017   6.946   4.132
  908SOL    HW2 3624   1.118   6.827   4.178
  909SOL     OW 3625   2.414   1.063   0.195
  909SOL    HW1 3626   2.497   1.021   0.158
  909SOL    HW2 3627   2.412   1.050   0.294
  910SOL     OW 3628   1.317   0.506   0.666
  910SOL    HW1 3629   1.346   0.418   0.703
  910SOL    HW2 3630   1.222   0.500   0.634
  911SOL     OW 3631   0.030   4.939   1.429
  911SOL    HW1 3632   0.088   4.858   1.423
  911SOL    HW2 3633   0.080   5.012   1.475
  912SOL     OW 3634   0.021   1.551   5.548
  912SOL    HW1 3635   6.956   1.566   5.589
  912SOL    HW2 3636   0.089   1.543   5.621
  913SOL     OW 3637   2.174   0.510   3.703
  913SOL    HW1 3638   2.253   0.449   3.701
  913SOL    HW2 3639   2.123   0.501   3.618
  914SOL     OW 3640   2.439   5.765   4.176
  914SOL    HW1 3641   2.476   5.742   4.086
  914SOL    HW2 3642   2.442   5.685   4.235
  915SOL     OW 3643   0.430   3.397   0.316
  915SOL    HW1 3644   0.528   3.403   0.336
  915SOL    HW2 3645   0.410   3.310   0.273
  916SOL     OW 3646   2.533   1.793   2.537
  916SOL    HW1 3647   2.531   1.698   2.506
  916SOL    HW2 3648   2.627   1.818   2.563
  917SOL     OW 3649   3.734   0.696   1.553
  917SOL    HW1 3650   3.662   0.765   1.551
  917SOL    HW2 3651   3.795   0.715   1.630
  918SOL     OW 3652   2.949   6.252   6.368
  918SOL    HW1 3653   2.883   6.301   6.425
  918SOL    HW2 3654   2.903   6.211   6.290
  919SOL     OW 3655   1.637   5.468   1.853
  919SOL    HW1 3656   1.632   5.453   1.951
  919SOL    HW2 3657   1.555   5.431   1.808
  920SOL     OW 3658   2.726   0.598   2.796
  920SOL    HW1 3659   2.815   0.555   2.783
  920SOL    HW2 3660   2.654   0.530   2.781
  921SOL     OW 3661   5.998   4.812   4.241
  921SOL    HW1 3662   6.069   4.770   4.185
  921SOL    HW2 3663   6.002   4.775   4.334
  922SOL     OW 3664   3.360   3.806   0.255
  922SOL    HW1 3665   3.428   3.808   0.181
  922SOL    HW2 3666   3.293   3.879   0.240
  923SOL     OW 3667   2.920   5.530   0.654
  923SOL    HW1 3668   2.944   5.557   0.561
  923SOL    HW2 3669   2.992   5.472   0.692
  924SOL     OW 3670   5.466   3.224   2.411
  924SOL    HW1 3671   5.439   3.317   2.385
  924SOL    HW2 3672   5.553   3.202   2.366
  925SOL     OW 3673   0.189   1.642   5.753
  925SOL    HW1 3674   0.265   1.595   5.799
  925SOL    HW2 3675   0.224   1.694   5.675
  926SOL     OW 3676   5.940   6.527   0.964
  926SOL    HW1 3677   5.887   6.463   0.909
  926SOL    HW2 3678   6.037   6.519   0.940
  927SOL     OW 3679   4.838   4.042   3.967
  927SOL    HW1 3680   4.846   4.038   3.867
  927SOL    HW2 3681   4.798   3.957   4.000
  928SOL     OW 3682   1.666   0.040   0.586
  928SOL    HW1 3683   1.742   0.002   0.533
  928SOL    HW2 3684   1.582   0.036   0.532
  929SOL     OW 3685   0.373   2.832   2.056
  929SOL    HW1 3686   0.424   2.758   2.100
  929SOL    HW2 3687   0.382   2.915   2.110
  930SOL     OW 3688   5.389   4.988   3.959
  930SOL    HW1 3689   5.434   5.027   4.039
  930SOL    HW2 3690   5.457   4.972   3.887
  931SOL     OW 3691   0.633   2.707   2.855
  931SOL    HW1 3692   0.617   2.762   2.937
  931SOL    HW2 3693   0.628   2.765   2.774
  932SOL     OW 3694   3.942   6.168   1.728
  932SOL    HW1 3695   3.874   6.223   1.776
  932SOL    HW2 3696   3.954   6.202   1.635
  933SOL     OW 3697   1.174   4.168   3.130
  933SOL    HW1 3698   1.136   4.253   3.093
  933SOL    HW2 3699   1.138   4.153   3.222
  934SOL     OW 3700   3.318   0.754   4.549
  934SOL    HW1 3701   3.288   0.770   4.643
  934SOL    HW2 3702   3.417   0.743   4.547
  935SOL     OW 3703   4.822   3.785   6.430
  935SOL    HW1 3704   4.841   3.883   6.425
  935SOL    HW2 3705   4.876   3.745   6.504
  936SOL     OW 3706   0.715   6.945   1.135
  936SOL    HW1 3707   0.745   6.907   1.223
  936SOL    HW2 3708   0.768   6.903   1.061
  937SOL     OW 3709   5.264   1.686   4.430
  937SOL    HW1 3710   5.289   1.692   4.333
  937SOL    HW2 3711   5.166   1.700   4.441
  938SOL     OW 3712   6.935   4.268   6.063
  938SOL    HW1 3713   6.963   4.284   6.158
  938SOL    HW2 3714   6.967   4.178   6.033
  939SOL     OW 3715   4.561   1.168   6.164
  939SOL    HW1 3716   4.595   1.137   6.075
  939SOL    HW2 3717   4.581   1.265   6.174
  940SOL     OW 3718   0.162   0.838   2.616
  940SOL    HW1 3719   0.140   0.773   2.544
  940SOL    HW2 3720   0.219   0.911   2.578
  941SOL     OW 3721   5.380   1.415   3.726
  941SOL    HW1 3722   5.398   1.317   3.724
  941SOL    HW2 3723   5.404   1.455   3.637
  942SOL     OW 3724   5.183   0.070   5.032
  942SOL    HW1 3725   5.198   7.003   5.066
  942SOL    HW2 3726   5.260   0.097   4.974
  943SOL     OW 3727   6.629   3.411   2.625
  943SOL    HW1 3728   6.570   3.385   2.702
  943SOL    HW2 3729   6.593   3.494   2.583
  944SOL     OW 3730   6.140   3.580   4.529
  944SOL    HW1 3731   6.044   3.575   4.501
  944SOL    HW2 3732   6.194   3.515   4.474
  945SOL     OW 3733   4.507   4.502   4.006
  945SOL    HW1 3734   4.529   4.566   4.080
  945SOL    HW2 3735   4.575   4.428   4.005
  946SOL     OW 3736   5.855   2.396   6.288
  946SOL    HW1 3737   5.912   2.345   6.224
  946SOL    HW2 3738   5.913   2.456   6.343
  947SOL     OW 3739   3.321   3.409   6.405
  947SOL    HW1 3740   3.326   3.432   6.308
  947SOL    HW2 3741   3.231   3.371   6.425
  948SOL     OW 3742   3.165   1.063   0.432
  948SOL    HW1 3743   3.110   1.029   0.356
  948SOL    HW2 3744   3.262   1.054   0.410
  949SOL     OW 3745   5.977   5.244   6.271
  949SOL    HW1 3746   5.987   5.342   6.255
  949SOL    HW2 3747   6.062   5.208   6.309
  950SOL     OW 3748   4.292   5.102   1.875
  950SOL    HW1 3749   4.197   5.087   1.900
  950SOL    HW2 3750   4.334   5.014   1.852
  951SOL     OW 3751   0.671   0.593   1.484
  951SOL    HW1 3752   0.758   0.628   1.450
  951SOL    HW2 3753   0.669   0.493   1.476
  952SOL     OW 3754   5.246   1.238   2.407
  952SOL    HW1 3755   5.176   1.280   2.350
  952SOL    HW2 3756   5.231   1.263   2.502
  953SOL     OW 3757   4.276   6.033   5.327
  953SOL    HW1 3758   4.354   6.016   5.266
  953SOL    HW2 3759   4.231   6.119   5.299
  954SOL     OW 3760   6.228   0.047   1.446
  954SOL    HW1 3761   6.270   0.070   1.358
  954SOL    HW2 3762   6.214   6.974   1.452
  955SOL     OW 3763   0.920   5.267   3.647
  955SOL    HW1 3764   0.966   5.193   3.598
  955SOL    HW2 3765   0.989   5.327   3.687
  956SOL     OW 3766   0.913   1.528   1.561
  956SOL    HW1 3767   0.955   1.616   1.583
  956SOL    HW2 3768   0.961   1.455   1.609
  957SOL     OW 3769   1.535   5.170   5.754
  957SOL    HW1 3770   1.635   5.167   5.758
  957SOL    HW2 3771   1.500   5.080   5.730
  958SOL     OW 3772   5.011   2.184   1.082
  958SOL    HW1 3773   5.006   2.255   1.153
  958SOL    HW2 3774   4.932   2.192   1.022
  959SOL     OW 3775   2.721   4.673   2.788
  959SOL    HW1 3776   2.780   4.729   2.846
  959SOL    HW2 3777   2.713   4.715   2.697
  960SOL     OW 3778   1.571   5.862   4.167
  960SOL    HW1 3779   1.476   5.851   4.137
  960SOL    HW2 3780   1.616   5.930   4.109
  961SOL     OW 3781   4.390   6.786   2.402
  961SOL    HW1 3782   4.453   6.774   2.325
  961SOL    HW2 3783   4.304   6.740   2.382
  962SOL     OW 3784   1.639   1.081   3.295
  962SOL    HW1 3785   1.636   1.156   3.360
  962SOL    HW2 3786   1.554   1.028   3.302
  963SOL     OW 3787   6.201   6.977   0.821
  963SOL    HW1 3788   6.188   0.046   0.791
  963SOL    HW2 3789   6.298   6.956   0.826
  964SOL     OW 3790   5.503   3.032   0.779
  964SOL    HW1 3791   5.600   3.022   0.800
  964SOL    HW2 3792   5.453   3.058   0.862
  965SOL     OW 3793   6.289   1.290   1.074
  965SOL    HW1 3794   6.213   1.232   1.048
  965SOL    HW2 3795   6.278   1.319   1.170
  966SOL     OW 3796   6.285   1.744   3.278
  966SOL    HW1 3797   6.195   1.709   3.253
  966SOL    HW2 3798   6.338   1.761   3.195
  967SOL     OW 3799   1.471   5.301   0.416
  967SOL    HW1 3800   1.524   5.274   0.496
  967SOL    HW2 3801   1.527   5.289   0.334
  968SOL     OW 3802   5.115   2.948   2.646
  968SOL    HW1 3803   5.058   2.901   2.713
  968SOL    HW2 3804   5.059   2.973   2.566
  969SOL     OW 3805   3.813   6.233   5.985
  969SOL    HW1 3806   3.718   6.220   5.957
  969SOL    HW2 3807   3.868   6.156   5.954
  970SOL     OW 3808   4.167   2.122   5.425
  970SOL    HW1 3809   4.159   2.025   5.400
  970SOL    HW2 3810   4.090   2.173   5.386
  971SOL     OW 3811   6.816   1.315   2.678
  971SOL    HW1 3812   6.809   1.223   2.640
  971SOL    HW2 3813   6.794   1.313   2.775
  972SOL     OW 3814   6.283   4.889   0.779
  972SOL    HW1 3815   6.232   4.817   0.825
  972SOL    HW2 3816   6.370   4.852   0.744
  973SOL     OW 3817   0.834   4.666   6.548
  973SOL    HW1 3818   0.785   4.637   6.630
  973SOL    HW2 3819   0.781   4.737   6.501
  974SOL     OW 3820   3.291   0.677   2.414
  974SOL    HW1 3821   3.356   0.737   2.461
  974SOL    HW2 3822   3.244   0.619   2.481
  975SOL     OW 3823   3.110   6.400   6.208
  975SOL    HW1 3824   3.206   6.391   6.234
  975SOL    HW2 3825   3.058   6.324   6.247
  976SOL     OW 3826   6.802   2.866   2.333
  976SOL    HW1 3827   6.779   2.877   2.236
  976SOL    HW2 3828   6.802   2.769   2.357
  977SOL     OW 3829   1.737   1.052   3.995
  977SOL    HW1 3830   1.687   1.075   4.078
  977SOL    HW2 3831   1.825   1.010   4.019
  978SOL     OW 3832   5.511   4.413   4.526
  978SOL    HW1 3833   5.490   4.465   4.444
  978SOL    HW2 3834   5.579   4.343   4.505
  979SOL     OW 3835   6.310   1.497   3.495
  979SOL    HW1 3836   6.391   1.443   3.475
  979SOL    HW2 3837   6.318   1.586   3.449
  980SOL     OW 3838   5.525   2.483   3.573
  980SOL    HW1 3839   5.594   2.509   3.640
  980SOL    HW2 3840   5.445   2.542   3.584
  981SOL     OW 3841   1.354   1.875   5.043
  981SOL    HW1 3842   1.430   1.885   5.108
  981SOL    HW2 3843   1.376   1.804   4.976
  982SOL     OW 3844   1.699   2.696   2.160
  982SOL    HW1 3845   1.721   2.651   2.246
  982SOL    HW2 3846   1.784   2.717   2.111
  983SOL     OW 3847   5.937   2.329   3.496
  983SOL    HW1 3848   5.967   2.343   3.402
  983SOL    HW2 3849   5.866   2.396   3.519
  984SOL     OW 3850   3.875   0.719   5.528
  984SOL    HW1 3851   3.913   0.733   5.436
  984SOL    HW2 3852   3.831   0.803   5.560
  985SOL     OW 3853   4.446   4.978   6.991
  985SOL    HW1 3854   4.533   4.941   6.961
  985SOL    HW2 3855   4.423   4.940   0.056
  986SOL     OW 3856   5.401   5.823   6.279
  986SOL    HW1 3857   5.464   5.847   6.354
  986SOL    HW2 3858   5.397   5.724   6.269
  987SOL     OW 3859   3.656   6.849   1.687
  987SOL    HW1 3860   3.613   6.935   1.659
  987SOL    HW2 3861   3.739   6.835   1.633
  988SOL     OW 3862   3.806   2.351   0.843
  988SOL    HW1 3863   3.813   2.312   0.935
  988SOL    HW2 3864   3.710   2.367   0.820
  989SOL     OW 3865   0.467   0.481   6.277
  989SOL    HW1 3866   0.452   0.559   6.337
  989SOL    HW2 3867   0.475   0.398   6.331
  990SOL     OW 3868   4.650   6.971   3.950
  990SOL    HW1 3869   4.563   6.946   3.907
  990SOL    HW2 3870   4.709   7.014   3.882
  991SOL     OW 3871   1.597   2.153   4.829
  991SOL    HW1 3872   1.697   2.149   4.829
  991SOL    HW2 3873   1.560   2.066   4.861
  992SOL     OW 3874   0.500   2.817   6.655
  992SOL    HW1 3875   0.485   2.739   6.595
  992SOL    HW2 3876   0.413   2.845   6.695
  993SOL     OW 3877   2.310   5.520   2.379
  993SOL    HW1 3878   2.285   5.425   2.357
  993SOL    HW2 3879   2.258   5.582   2.321
  994SOL     OW 3880   3.619   4.046   2.690
  994SOL    HW1 3881   3.714   4.061   2.665
  994SOL    HW2 3882   3.614   4.011   2.784
  995SOL     OW 3883   1.892   2.659   6.159
  995SOL    HW1 3884   1.799   2.693   6.172
  995SOL    HW2 3885   1.909   2.585   6.224
  996SOL     OW 3886   1.491   3.324   3.983
  996SOL    HW1 3887   1.460   3.338   3.889
  996SOL    HW2 3888   1.562   3.254   3.985
  997SOL     OW 3889   0.438   0.095   1.488
  997SOL    HW1 3890   0.395   0.059   1.405
  997SOL    HW2 3891   0.473   0.019   1.543
  998SOL     OW 3892   4.437   6.800   2.895
  998SOL    HW1 3893   4.517   6.849   2.863
  998SOL    HW2 3894   4.382   6.859   2.955
  999SOL     OW 3895   5.267   6.003   1.189
  999SOL    HW1 3896   5.295   5.946   1.112
  999SOL    HW2 3897   5.219   5.947   1.256
 1000SOL     OW 3898   1.990   1.705   2.581
 1000SOL    HW1 3899   1.948   1.692   2.491
 1000SOL    HW2 3900   2.081   1.664   2.581
 1001SOL     OW 3901   4.122   6.177   6.335
 1001SOL    HW1 3902   4.154   6.203   6.244
 1001SOL    HW2 3903   4.102   6.260   6.388
 1002SOL     OW 3904   5.474   1.585   6.393
 1002SOL    HW1 3905   5.378   1.560   6.385
 1002SOL    HW2 3906   5.488   1.634   6.479
 1003SOL     OW 3907   2.404   6.813   1.894
 1003SOL    HW1 3908   2.497   6.825   1.860
 1003SOL    HW2 3909   2.402   6.742   1.963
 1004SOL     OW 3910   6.538   0.810   0.218
 1004SOL    HW1 3911   6.471   0.767   0.158
 1004SOL    HW2 3912   6.622   0.826   0.168
 1005SOL     OW 3913   6.990   1.016   2.720
 1005SOL    HW1 3914   6.901   1.007   2.675
 1005SOL    HW2 3915   0.027   0.945   2.686
 1006SOL     OW 3916   2.511   5.720   1.539
 1006SOL    HW1 3917   2.466   5.631   1.545
 1006SOL    HW2 3918   2.485   5.766   1.454
 1007SOL     OW 3919   6.281   0.654   3.537
 1007SOL    HW1 3920   6.358   0.717   3.547
 1007SOL    HW2 3921   6.253   0.651   3.441
 1008SOL     OW 3922   1.023   2.765   4.288
 1008SOL    HW1 3923   1.031   2.736   4.383
 1008SOL    HW2 3924   0.943   2.721   4.246
 1009SOL     OW 3925   6.678   5.346   3.761
 1009SOL    HW1 3926   6.596   5.398   3.736
 1009SOL    HW2 3927   6.759   5.395   3.731
 1010SOL     OW 3928   4.146   2.162   0.165
 1010SOL    HW1 3929   4.204   2.178   0.245
 1010SOL    HW2 3930   4.203   2.158   0.083
 1011SOL     OW 3931   2.951   5.578   3.371
 1011SOL    HW1 3932   2.900   5.511   3.424
 1011SOL    HW2 3933   3.041   5.593   3.414
 1012SOL     OW 3934   6.057   5.361   0.242
 1012SOL    HW1 3935   6.066   5.460   0.252
 1012SOL    HW2 3936   5.978   5.329   0.295
 1013SOL     OW 3937   0.448   1.092   0.017
 1013SOL    HW1 3938   0.442   1.001   0.057
 1013SOL    HW2 3939   0.465   1.084   6.944
 1014SOL     OW 3940   5.416   5.556   6.284
 1014SOL    HW1 3941   5.372   5.494   6.348
 1014SOL    HW2 3942   5.514   5.538   6.282
 1015SOL     OW 3943   3.781   6.742   4.966
 1015SOL    HW1 3944   3.733   6.678   5.026
 1015SOL    HW2 3945   3.864   6.698   4.930
 1016SOL     OW 3946   2.512   2.723   0.900
 1016SOL    HW1 3947   2.597   2.721   0.953
 1016SOL    HW2 3948   2.434   2.708   0.962
 1017SOL     OW 3949   5.139   2.837   0.937
 1017SOL    HW1 3950   5.217   2.783   0.972
 1017SOL    HW2 3951   5.073   2.852   1.011
 1018SOL     OW 3952   1.693   3.174   4.218
 1018SOL    HW1 3953   1.673   3.084   4.256
 1018SOL    HW2 3954   1.736   3.231   4.288
 1019SOL     OW 3955   0.432   1.155   0.646
 1019SOL    HW1 3956   0.425   1.079   0.581
 1019SOL    HW2 3957   0.364   1.225   0.623
 1020SOL     OW 3958   1.082   6.356   0.562
 1020SOL    HW1 3959   1.022   6.413   0.507
 1020SOL    HW2 3960   1.178   6.378   0.541
 1021SOL     OW 3961   5.666   1.308   1.915
 1021SOL    HW1 3962   5.637   1.362   1.994
 1021SOL    HW2 3963   5.665   1.211   1.939
 1022SOL     OW 3964   4.089   4.841   6.276
 1022SOL    HW1 3965   4.051   4.756   6.315
 1022SOL    HW2 3966   4.147   4.819   6.198
 1023SOL     OW 3967   6.578   0.303   2.325
 1023SOL    HW1 3968   6.671   0.273   2.347
 1023SOL    HW2 3969   6.527   0.316   2.411
 1024SOL     OW 3970   6.719   2.719   4.443
 1024SOL    HW1 3971   6.722   2.692   4.347
 1024SOL    HW2 3972   6.812   2.726   4.479
 1025SOL     OW 3973   3.671   4.410   0.160
 1025SOL    HW1 3974   3.601   4.372   0.100
 1025SOL    HW2 3975   3.723   4.479   0.109
 1026SOL     OW 3976   1.181   0.875   0.891
 1026SOL    HW1 3977   1.198   0.965   0.850
 1026SOL    HW2 3978   1.092   0.841   0.861
 1027SOL     OW 3979   2.983   5.669   1.503
 1027SOL    HW1 3980   2.993   5.573   1.531
 1027SOL    HW2 3981   2.892   5.701   1.528
 1028SOL     OW 3982   3.000   5.796   0.403
 1028SOL    HW1 3983   3.004   5.805   0.503
 1028SOL    HW2 3984   3.027   5.703   0.377
 1029SOL     OW 3985   1.735   0.479   0.332
 1029SOL    HW1 3986   1.683   0.479   0.418
 1029SOL    HW2 3987   1.693   0.543   0.268
 1030SOL     OW 3988   3.706   2.913   3.503
 1030SOL    HW1 3989   3.692   2.982   3.574
 1030SOL    HW2 3990   3.781   2.941   3.443
 1031SOL     OW 3991   4.284   5.536   1.522
 1031SOL    HW1 3992   4.351   5.606   1.549
 1031SOL    HW2 3993   4.192   5.566   1.547
 1032SOL     OW 3994   2.211   1.503   5.134
 1032SOL    HW1 3995   2.113   1.486   5.132
 1032SOL    HW2 3996   2.258   1.434   5.079
 1033SOL     OW 3997   1.992   6.188   1.152
 1033SOL    HW1 3998   1.920   6.175   1.221
 1033SOL    HW2 3999   2.080   6.203   1.197
 1034SOL     OW 4000   1.663   6.157   4.451
 1034SOL    HW1 4001   1.724   6.233   4.473
 1034SOL    HW2 4002   1.680   6.082   4.515
 1035SOL     OW 4003   2.506   1.821   3.634
 1035SOL    HW1 4004   2.520   1.868   3.547
 1035SOL    HW2 4005   2.502   1.889   3.708
 1036SOL     OW 4006   3.662   0.757   0.956
 1036SOL    HW1 4007   3.647   0.774   0.859
 1036SOL    HW2 4008   3.661   0.658   0.973
 1037SOL     OW 4009   1.090   1.205   1.398
 1037SOL    HW1 4010   1.057   1.166   1.312
 1037SOL    HW2 4011   1.032   1.175   1.473
 1038SOL     OW 4012   0.484   1.093   5.768
 1038SOL    HW1 4013   0.467   1.138   5.855
 1038SOL    HW2 4014   0.399   1.092   5.714
 1039SOL     OW 4015   4.417   1.844   5.170
 1039SOL    HW1 4016   4.505   1.833   5.217
 1039SOL    HW2 4017   4.414   1.783   5.091
 1040SOL     OW 4018   5.542   3.496   3.092
 1040SOL    HW1 4019   5.565   3.580   3.142
 1040SOL    HW2 4020   5.624   3.440   3.082
 1041SOL     OW 4021   6.493   0.101   4.109
 1041SOL    HW1 4022   6.447   0.187   4.087
 1041SOL    HW2 4023   6.467   0.032   4.041
 1042SOL     OW 4024   3.796   4.924   2.503
 1042SOL    HW1 4025   3.894   4.926   2.518
 1042SOL    HW2 4026   3.776   4.928   2.405
 1043SOL     OW 4027   3.974   1.262   6.368
 1043SOL    HW1 4028   4.040   1.232   6.436
 1043SOL    HW2 4029   3.884   1.222   6.389
 1044SOL     OW 4030   3.572   2.474   1.552
 1044SOL    HW1 4031   3.484   2.470   1.504
 1044SOL    HW2 4032   3.582   2.394   1.611
 1045SOL     OW 4033   3.503   0.676   1.869
 1045SOL    HW1 4034   3.481   0.729   1.950
 1045SOL    HW2 4035   3.490   0.578   1.888
 1046SOL     OW 4036   2.600   6.848   6.464
 1046SOL    HW1 4037   2.676   6.913   6.460
 1046SOL    HW2 4038   2.605   6.797   6.550
 1047SOL     OW 4039   1.290   5.475   2.395
 1047SOL    HW1 4040   1.359   5.547   2.402
 1047SOL    HW2 4041   1.228   5.496   2.320
 1048SOL     OW 4042   5.224   5.924   5.243
 1048SOL    HW1 4043   5.173   5.975   5.174
 1048SOL    HW2 4044   5.314   5.966   5.256
 1049SOL     OW 4045   0.187   3.856   4.749
 1049SOL    HW1 4046   0.223   3.769   4.781
 1049SOL    HW2 4047   0.113   3.839   4.683
 1050SOL     OW 4048   3.863   6.221   0.724
 1050SOL    HW1 4049   3.796   6.295   0.711
 1050SOL    HW2 4050   3.820   6.133   0.703
 1051SOL     OW 4051   4.009   4.377   6.932
 1051SOL    HW1 4052   4.013   4.422   7.021
 1051SOL    HW2 4053   3.981   4.281   6.944
 1052SOL     OW 4054   3.966   0.826   4.462
 1052SOL    HW1 4055   3.978   0.917   4.424
 1052SOL    HW2 4056   3.880   0.787   4.429
 1053SOL     OW 4057   5.937   5.996   3.472
 1053SOL    HW1 4058   5.881   5.939   3.532
 1053SOL    HW2 4059   6.022   5.948   3.450
 1054SOL     OW 4060   2.265   5.131   5.416
 1054SOL    HW1 4061   2.349   5.082   5.439
 1054SOL    HW2 4062   2.280   5.230   5.426
 1055SOL     OW 4063   5.726   6.199   4.481
 1055SOL    HW1 4064   5.823   6.175   4.475
 1055SOL    HW2 4065   5.691   6.173   4.571
 1056SOL     OW 4066   1.452   6.605   5.387
 1056SOL    HW1 4067   1.515   6.600   5.464
 1056SOL    HW2 4068   1.490   6.555   5.310
 1057SOL     OW 4069   3.429   3.915   3.467
 1057SOL    HW1 4070   3.369   3.911   3.547
 1057SOL    HW2 4071   3.420   3.830   3.415
 1058SOL     OW 4072   4.749   1.268   2.169
 1058SOL    HW1 4073   4.650   1.276   2.161
 1058SOL    HW2 4074   4.773   1.256   2.266
 1059SOL     OW 4075   3.671   0.433   1.491
 1059SOL    HW1 4076   3.573   0.443   1.475
 1059SOL    HW2 4077   3.706   0.517   1.533
 1060SOL     OW 4078   6.618   3.490   5.958
 1060SOL    HW1 4079   6.663   3.435   6.029
 1060SOL    HW2 4080   6.554   3.554   6.001
 1061SOL     OW 4081   3.759   4.127   0.798
 1061SOL    HW1 4082   3.674   4.171   0.768
 1061SOL    HW2 4083   3.828   4.136   0.726
 1062SOL     OW 4084   6.688   5.838   5.482
 1062SOL    HW1 4085   6.663   5.851   5.387
 1062SOL    HW2 4086   6.622   5.884   5.541
 1063SOL     OW 4087   1.381   3.968   0.769
 1063SOL    HW1 4088   1.398   3.962   0.670
 1063SOL    HW2 4089   1.413   4.056   0.803
 1064SOL     OW 4090   1.252   3.619   2.425
 1064SOL    HW1 4091   1.350   3.638   2.423
 1064SOL    HW2 4092   1.213   3.653   2.510
 1065SOL     OW 4093   4.918   0.485   4.004
 1065SOL    HW1 4094   4.919   0.579   4.037
 1065SOL    HW2 4095   4.899   0.423   4.080
 1066SOL     OW 4096   5.195   0.524   4.171
 1066SOL    HW1 4097   5.294   0.509   4.179
 1066SOL    HW2 4098   5.164   0.492   4.081
 1067SOL     OW 4099   1.299   2.956   0.761
 1067SOL    HW1 4100   1.334   2.946   0.668
 1067SOL    HW2 4101   1.306   3.052   0.789
 1068SOL     OW 4102   0.148   3.774   1.960
 1068SOL    HW1 4103   0.241   3.809   1.964
 1068SOL    HW2 4104   0.125   3.728   2.046
 1069SOL     OW 4105   4.334   4.295   0.952
 1069SOL    HW1 4106   4.243   4.253   0.951
 1069SOL    HW2 4107   4.399   4.232   0.994
 1070SOL     OW 4108   1.715   0.938   6.829
 1070SOL    HW1 4109   1.632   0.940   6.773
 1070SOL    HW2 4110   1.792   0.906   6.774
 1071SOL     OW 4111   3.836   0.334   3.321
 1071SOL    HW1 4112   3.841   0.303   3.226
 1071SOL    HW2 4113   3.795   0.263   3.378
 1072SOL     OW 4114   2.447   6.039   2.174
 1072SOL    HW1 4115   2.440   6.106   2.248
 1072SOL    HW2 4116   2.362   5.987   2.168
 1073SOL     OW 4117   3.821   5.564   2.091
 1073SOL    HW1 4118   3.728   5.586   2.061
 1073SOL    HW2 4119   3.823   5.471   2.127
 1074SOL     OW 4120   1.742   5.682   1.677
 1074SOL    HW1 4121   1.799   5.690   1.759
 1074SOL    HW2 4122   1.660   5.630   1.697
 1075SOL     OW 4123   4.795   4.987   3.235
 1075SOL    HW1 4124   4.850   4.945   3.163
 1075SOL    HW2 4125   4.746   4.915   3.285
 1076SOL     OW 4126   0.725   4.046   5.049
 1076SOL    HW1 4127   0.688   4.016   4.961
 1076SOL    HW2 4128   0.730   4.146   5.050
 1077SOL     OW 4129   5.996   6.895   6.975
 1077SOL    HW1 4130   6.016   6.797   6.973
 1077SOL    HW2 4131   5.942   6.917   0.030
 1078SOL     OW 4132   2.059   1.506   2.103
 1078SOL    HW1 4133   2.029   1.576   2.168
 1078SOL    HW2 4134   2.000   1.508   2.022
 1079SOL     OW 4135   2.161   5.124   3.426
 1079SOL    HW1 4136   2.096   5.192   3.459
 1079SOL    HW2 4137   2.213   5.161   3.350
 1080SOL     OW 4138   2.486   5.334   3.060
 1080SOL    HW1 4139   2.490   5.428   3.026
 1080SOL    HW2 4140   2.548   5.324   3.138
 1081SOL     OW 4141   0.875   1.269   5.641
 1081SOL    HW1 4142   0.781   1.293   5.620
 1081SOL    HW2 4143   0.911   1.208   5.570
 1082SOL     OW 4144   1.548   6.965   5.608
 1082SOL    HW1 4145   1.523   0.034   5.627
 1082SOL    HW2 4146   1.483   6.904   5.653
 1083SOL     OW 4147   3.992   3.394   2.175
 1083SOL    HW1 4148   4.059   3.345   2.231
 1083SOL    HW2 4149   3.903   3.391   2.221
 1084SOL     OW 4150   6.420   5.738   1.043
 1084SOL    HW1 4151   6.377   5.825   1.021
 1084SOL    HW2 4152   6.396   5.711   1.136
 1085SOL     OW 4153   2.176   4.757   3.845
 1085SOL    HW1 4154   2.170   4.730   3.941
 1085SOL    HW2 4155   2.259   4.717   3.804
 1086SOL     OW 4156   6.065   5.493   3.510
 1086SOL    HW1 4157   5.995   5.538   3.455
 1086SOL    HW2 4158   6.102   5.414   3.460
 1087SOL     OW 4159   4.989   3.066   5.284
 1087SOL    HW1 4160   4.938   3.032   5.362
 1087SOL    HW2 4161   4.933   3.056   5.201
 1088SOL     OW 4162   5.285   4.316   3.574
 1088SOL    HW1 4163   5.300   4.275   3.484
 1088SOL    HW2 4164   5.367   4.305   3.630
 1089SOL     OW 4165   0.341   0.411   4.520
 1089SOL    HW1 4166   0.364   0.352   4.598
 1089SOL    HW2 4167   0.411   0.402   4.450
 1090SOL     OW 4168   3.311   1.074   4.770
 1090SOL    HW1 4169   3.249   1.153   4.767
 1090SOL    HW2 4170   3.396   1.097   4.723
 1091SOL     OW 4171   1.470   2.015   3.991
 1091SOL    HW1 4172   1.565   1.997   4.018
 1091SOL    HW2 4173   1.468   2.038   3.894
 1092SOL     OW 4174   2.404   3.839   1.369
 1092SOL    HW1 4175   2.313   3.837   1.326
 1092SOL    HW2 4176   2.403   3.782   1.451
 1093SOL     OW 4177   1.604   1.604   2.259
 1093SOL    HW1 4178   1.568   1.538   2.325
 1093SOL    HW2 4179   1.619   1.558   2.171
 1094SOL     OW 4180   0.082   6.819   1.564
 1094SOL    HW1 4181   0.006   6.756   1.553
 1094SOL    HW2 4182   0.080   6.857   1.657
 1095SOL     OW 4183   6.454   2.208   6.415
 1095SOL    HW1 4184   6.366   2.166   6.395
 1095SOL    HW2 4185   6.445   2.307   6.414
 1096SOL     OW 4186   4.047   5.106   1.606
 1096SOL    HW1 4187   4.029   5.008   1.612
 1096SOL    HW2 4188   4.052   5.145   1.698
 1097SOL     OW 4189   1.372   5.086   4.631
 1097SOL    HW1 4190   1.403   5.159   4.692
 1097SOL    HW2 4191   1.324   5.126   4.553
 1098SOL     OW 4192   5.401   2.293   0.860
 1098SOL    HW1 4193   5.326   2.227   0.863
 1098SOL    HW2 4194   5.365   2.384   0.837
 1099SOL     OW 4195   4.010   1.931   4.352
 1099SOL    HW1 4196   3.998   1.882   4.438
 1099SOL    HW2 4197   4.108   1.945   4.334
 1100SOL     OW 4198   0.496   1.322   6.566
 1100SOL    HW1 4199   0.464   1.393   6.629
 1100SOL    HW2 4200   0.471   1.347   6.473
 1101SOL     OW 4201   5.691   3.823   1.258
 1101SOL    HW1 4202   5.748   3.790   1.334
 1101SOL    HW2 4203   5.595   3.825   1.287
 1102SOL     OW 4204   1.090   4.812   4.380
 1102SOL    HW1 4205   1.190   4.812   4.366
 1102SOL    HW2 4206   1.045   4.781   4.296
 1103SOL     OW 4207   2.225   1.548   1.864
 1103SOL    HW1 4208   2.273   1.636   1.855
 1103SOL    HW2 4209   2.142   1.561   1.919
 1104SOL     OW 4210   2.115   4.013   5.952
 1104SOL    HW1 4211   2.060   3.932   5.932
 1104SOL    HW2 4212   2.112   4.075   5.874
 1105SOL     OW 4213   4.942   4.162   6.860
 1105SOL    HW1 4214   4.914   4.075   6.821
 1105SOL    HW2 4215   5.041   4.163   6.870
 1106SOL     OW 4216   0.588   1.879   6.314
 1106SOL    HW1 4217   0.570   1.785   6.342
 1106SOL    HW2 4218   0.650   1.879   6.235
 1107SOL     OW 4219   0.964   0.253   6.999
 1107SOL    HW1 4220   0.938   0.349   7.012
 1107SOL    HW2 4221   1.038   0.248   6.931
 1108SOL     OW 4222   2.605   0.732   4.585
 1108SOL    HW1 4223   2.557   0.774   4.662
 1108SOL    HW2 4224   2.581   0.634   4.580
 1109SOL     OW 4225   3.731   5.668   4.445
 1109SOL    HW1 4226   3.661   5.701   4.508
 1109SOL    HW2 4227   3.690   5.653   4.355
 1110SOL     OW 4228   2.852   2.589   1.453
 1110SOL    HW1 4229   2.856   2.600   1.552
 1110SOL    HW2 4230   2.900   2.665   1.409
 1111SOL     OW 4231   4.818   6.813   6.352
 1111SOL    HW1 4232   4.875   6.886   6.315
 1111SOL    HW2 4233   4.740   6.797   6.292
 1112SOL     OW 4234   5.860   1.061   2.649
 1112SOL    HW1 4235   5.910   1.109   2.721
 1112SOL    HW2 4236   5.809   0.985   2.689
 1113SOL     OW 4237   6.081   2.955   2.372
 1113SOL    HW1 4238   5.983   2.972   2.365
 1113SOL    HW2 4239   6.117   3.000   2.453
 1114SOL     OW 4240   5.152   0.283   6.020
 1114SOL    HW1 4241   5.237   0.260   6.067
 1114SOL    HW2 4242   5.118   0.370   6.054
 1115SOL     OW 4243   3.933   1.960   0.257
 1115SOL    HW1 4244   3.872   2.032   0.291
 1115SOL    HW2 4245   3.994   1.999   0.188
 1116SOL     OW 4246   5.172   5.524   3.927
 1116SOL    HW1 4247   5.075   5.515   3.907
 1116SOL    HW2 4248   5.223   5.534   3.841
 1117SOL     OW 4249   2.479   2.864   1.359
 1117SOL    HW1 4250   2.418   2.855   1.280
 1117SOL    HW2 4251   2.543   2.787   1.360
 1118SOL     OW 4252   1.451   4.475   3.297
 1118SOL    HW1 4253   1.403   4.516   3.220
 1118SOL    HW2 4254   1.538   4.522   3.311
 1119SOL     OW 4255   4.290   4.032   1.723
 1119SOL    HW1 4256   4.323   4.115   1.768
 1119SOL    HW2 4257   4.195   4.045   1.694
 1120SOL     OW 4258   5.170   6.510   5.646
 1120SOL    HW1 4259   5.269   6.514   5.657
 1120SOL    HW2 4260   5.143   6.565   5.567
 1121SOL     OW 4261   5.069   2.821   2.088
 1121SOL    HW1 4262   4.998   2.811   2.157
 1121SOL    HW2 4263   5.133   2.892   2.116
 1122SOL     OW 4264   5.468   2.743   6.642
 1122SOL    HW1 4265   5.511   2.818   6.693
 1122SOL    HW2 4266   5.436   2.777   6.554
 1123SOL     OW 4267   5.024   1.394   1.523
 1123SOL    HW1 4268   5.029   1.302   1.485
 1123SOL    HW2 4269   4.939   1.438   1.492
 1124SOL     OW 4270   6.842   3.682   4.751
 1124SOL    HW1 4271   6.831   3.655   4.847
 1124SOL    HW2 4272   6.912   3.625   4.708
 1125SOL     OW 4273   2.941   2.279   5.230
 1125SOL    HW1 4274   3.027   2.277   5.180
 1125SOL    HW2 4275   2.925   2.371   5.266
 1126SOL     OW 4276   4.698   6.742   6.752
 1126SOL    HW1 4277   4.699   6.722   6.850
 1126SOL    HW2 4278   4.792   6.756   6.720
 1127SOL     OW 4279   2.724   4.067   6.127
 1127SOL    HW1 4280   2.814   4.102   6.100
 1127SOL    HW2 4281   2.727   3.968   6.132
 1128SOL     OW 4282   4.288   2.204   4.043
 1128SOL    HW1 4283   4.193   2.215   4.014
 1128SOL    HW2 4284   4.330   2.128   3.994
 1129SOL     OW 4285   4.124   7.015   0.373
 1129SOL    HW1 4286   4.117   0.062   0.304
 1129SOL    HW2 4287   4.138   0.031   0.463
 1130SOL     OW 4288   1.756   4.391   1.669
 1130SOL    HW1 4289   1.725   4.327   1.738
 1130SOL    HW2 4290   1.720   4.483   1.688
 1131SOL     OW 4291   0.477   6.027   6.002
 1131SOL    HW1 4292   0.413   6.018   5.926
 1131SOL    HW2 4293   0.450   6.103   6.061
 1132SOL     OW 4294   5.032   6.829   5.787
 1132SOL    HW1 4295   5.072   6.918   5.811
 1132SOL    HW2 4296   5.078   6.757   5.838
 1133SOL     OW 4297   0.480   2.518   1.895
 1133SOL    HW1 4298   0.567   2.514   1.846
 1133SOL    HW2 4299   0.418   2.448   1.858
 1134SOL     OW 4300   5.979   2.176   6.635
 1134SOL    HW1 4301   5.901   2.220   6.592
 1134SOL    HW2 4302   5.977   2.078   6.617
 1135SOL     OW 4303   2.982   2.169   3.318
 1135SOL    HW1 4304   2.903   2.228   3.339
 1135SOL    HW2 4305   2.998   2.169   3.219
 1136SOL     OW 4306   2.157   5.045   3.847
 1136SOL    HW1 4307   2.137   5.036   3.945
 1136SOL    HW2 4308   2.223   4.976   3.820
 1137SOL     OW 4309   0.974   2.087   6.736
 1137SOL    HW1 4310   0.978   2.187   6.736
 1137SOL    HW2 4311   0.962   2.055   6.830
 1138SOL     OW 4312   2.076   3.300   6.141
 1138SOL    HW1 4313   2.132   3.308   6.223
 1138SOL    HW2 4314   2.078   3.386   6.090
 1139SOL     OW 4315   1.690   6.248   3.250
 1139SOL    HW1 4316   1.593   6.224   3.248
 1139SOL    HW2 4317   1.726   6.245   3.157
 1140SOL     OW 4318   3.978   2.026   3.101
 1140SOL    HW1 4319   4.040   2.012   3.179
 1140SOL    HW2 4320   4.020   1.990   3.018
 1141SOL     OW 4321   5.273   5.771   5.832
 1141SOL    HW1 4322   5.325   5.739   5.753
 1141SOL    HW2 4323   5.293   5.712   5.911
 1142SOL     OW 4324   5.117   0.213   4.405
 1142SOL    HW1 4325   5.098   0.156   4.325
 1142SOL    HW2 4326   5.212   0.245   4.401
 1143SOL     OW 4327   4.207   2.259   2.360
 1143SOL    HW1 4328   4.183   2.213   2.445
 1143SOL    HW2 4329   4.127   2.261   2.300
 1144SOL     OW 4330   6.905   4.515   4.069
 1144SOL    HW1 4331   6.973   4.455   4.112
 1144SOL    HW2 4332   6.868   4.471   3.988
 1145SOL     OW 4333   6.902   5.697   3.409
 1145SOL    HW1 4334   6.953   5.611   3.403
 1145SOL    HW2 4335   6.805   5.679   3.397
 1146SOL     OW 4336   5.493   1.732   0.908
 1146SOL    HW1 4337   5.503   1.767   1.001
 1146SOL    HW2 4338   5.437   1.796   0.854
 1147SOL     OW 4339   1.174   3.752   1.502
 1147SOL    HW1 4340   1.155   3.850   1.498
 1147SOL    HW2 4341   1.090   3.703   1.527
 1148SOL     OW 4342   3.440   6.041   6.308
 1148SOL    HW1 4343   3.370   6.085   6.252
 1148SOL    HW2 4344   3.505   5.994   6.248
 1149SOL     OW 4345   6.044   3.385   3.088
 1149SOL    HW1 4346   6.035   3.349   2.995
 1149SOL    HW2 4347   6.135   3.424   3.100
 1150SOL     OW 4348   2.362   4.708   1.262
 1150SOL    HW1 4349   2.449   4.683   1.219
 1150SOL    HW2 4350   2.379   4.780   1.330
 1151SOL     OW 4351   5.710   6.029   6.253
 1151SOL    HW1 4352   5.668   5.995   6.337
 1151SOL    HW2 4353   5.644   6.022   6.178
 1152SOL     OW 4354   1.276   0.293   4.500
 1152SOL    HW1 4355   1.357   0.301   4.558
 1152SOL    HW2 4356   1.273   0.202   4.460
 1153SOL     OW 4357   2.180   6.142   3.102
 1153SOL    HW1 4358   2.276   6.163   3.085
 1153SOL    HW2 4359   2.167   6.120   3.199
 1154SOL     OW 4360   0.182   3.561   1.539
 1154SOL    HW1 4361   0.270   3.525   1.568
 1154SOL    HW2 4362   0.137   3.606   1.616
 1155SOL     OW 4363   3.485   5.987   0.462
 1155SOL    HW1 4364   3.535   5.978   0.549
 1155SOL    HW2 4365   3.512   5.911   0.402
 1156SOL     OW 4366   2.143   0.153   3.745
 1156SOL    HW1 4367   2.228   0.203   3.761
 1156SOL    HW2 4368   2.071   0.192   3.802
 1157SOL     OW 4369   6.878   2.386   4.985
 1157SOL    HW1 4370   6.901   2.409   5.080
 1157SOL    HW2 4371   6.949   2.420   4.924
 1158SOL     OW 4372   5.889   4.825   5.655
 1158SOL    HW1 4373   5.866   4.728   5.651
 1158SOL    HW2 4374   5.844   4.867   5.734
 1159SOL     OW 4375   4.056   7.012   2.925
 1159SOL    HW1 4376   4.057   6.942   2.853
 1159SOL    HW2 4377   3.964   7.021   2.962
 1160SOL     OW 4378   3.760   4.094   2.164
 1160SOL    HW1 4379   3.810   4.062   2.245
 1160SOL    HW2 4380   3.821   4.094   2.085
 1161SOL     OW 4381   5.183   0.363   5.120
 1161SOL    HW1 4382   5.139   0.290   5.068
 1161SOL    HW2 4383   5.116   0.434   5.141
 1162SOL     OW 4384   3.288   3.168   1.054
 1162SOL    HW1 4385   3.305   3.118   1.139
 1162SOL    HW2 4386   3.217   3.120   1.001
 1163SOL     OW 4387   4.955   2.458   1.784
 1163SOL    HW1 4388   4.895   2.476   1.861
 1163SOL    HW2 4389   4.935   2.368   1.745
 1164SOL     OW 4390   5.273   2.795   3.019
 1164SOL    HW1 4391   5.262   2.879   2.967
 1164SOL    HW2 4392   5.221   2.722   2.976
 1165SOL     OW 4393   1.169   3.457   4.162
 1165SOL    HW1 4394   1.162   3.471   4.063
 1165SOL    HW2 4395   1.252   3.404   4.182
 1166SOL     OW 4396   4.009   1.907   6.339
 1166SOL    HW1 4397   3.929   1.848   6.337
 1166SOL    HW2 4398   4.013   1.961   6.255
 1167SOL     OW 4399   3.744   0.262   5.385
 1167SOL    HW1 4400   3.685   0.183   5.403
 1167SOL    HW2 4401   3.839   0.238   5.406
 1168SOL     OW 4402   6.261   6.978   2.900
 1168SOL    HW1 4403   6.184   0.013   2.922
 1168SOL    HW2 4404   6.228   6.899   2.849
 1169SOL     OW 4405   0.222   3.148   0.755
 1169SOL    HW1 4406   0.207   3.231   0.702
 1169SOL    HW2 4407   0.134   3.113   0.787
 1170SOL     OW 4408   3.717   1.120   2.238
 1170SOL    HW1 4409   3.785   1.143   2.307
 1170SOL    HW2 4410   3.749   1.041   2.185
 1171SOL     OW 4411   2.943   5.931   1.012
 1171SOL    HW1 4412   2.921   5.935   0.914
 1171SOL    HW2 4413   2.929   5.838   1.045
 1172SOL     OW 4414   3.895   4.029   4.014
 1172SOL    HW1 4415   3.840   4.083   3.951
 1172SOL    HW2 4416   3.961   3.974   3.962
 1173SOL     OW 4417   3.602   0.201   5.694
 1173SOL    HW1 4418   3.523   0.235   5.642
 1173SOL    HW2 4419   3.656   0.141   5.636
 1174SOL     OW 4420   2.660   5.545   0.726
 1174SOL    HW1 4421   2.619   5.634   0.707
 1174SOL    HW2 4422   2.754   5.544   0.694
 1175SOL     OW 4423   6.151   4.827   0.260
 1175SOL    HW1 4424   6.180   4.785   0.346
 1175SOL    HW2 4425   6.074   4.775   0.222
 1176SOL     OW 4426   5.747   5.017   0.805
 1176SOL    HW1 4427   5.774   5.077   0.731
 1176SOL    HW2 4428   5.710   5.071   0.881
 1177SOL     OW 4429   6.944   2.721   5.285
 1177SOL    HW1 4430   6.936   2.743   5.382
 1177SOL    HW2 4431   6.875   2.772   5.233
 1178SOL     OW 4432   4.666   4.246   2.436
 1178SOL    HW1 4433   4.683   4.261   2.339
 1178SOL    HW2 4434   4.721   4.169   2.468
 1179SOL     OW 4435   1.951   4.083   0.642
 1179SOL    HW1 4436   2.028   4.026   0.613
 1179SOL    HW2 4437   1.961   4.175   0.605
 1180SOL     OW 4438   2.145   1.192   3.618
 1180SOL    HW1 4439   2.220   1.254   3.636
 1180SOL    HW2 4440   2.129   1.186   3.520
 1181SOL     OW 4441   1.034   4.785   4.646
 1181SOL    HW1 4442   0.949   4.734   4.665
 1181SOL    HW2 4443   1.047   4.791   4.547
 1182SOL     OW 4444   2.328   4.225   3.733
 1182SOL    HW1 4445   2.234   4.208   3.700
 1182SOL    HW2 4446   2.392   4.208   3.658
 1183SOL     OW 4447   4.580   5.549   1.745
 1183SOL    HW1 4448   4.550   5.454   1.735
 1183SOL    HW2 4449   4.639   5.557   1.825
 1184SOL     OW 4450   3.394   3.200   5.505
 1184SOL    HW1 4451   3.401   3.117   5.561
 1184SOL    HW2 4452   3.314   3.252   5.533
 1185SOL     OW 4453   2.460   0.668   0.411
 1185SOL    HW1 4454   2.520   0.672   0.332
 1185SOL    HW2 4455   2.372   0.628   0.384
 1186SOL     OW 4456   6.291   0.149   5.237
 1186SOL    HW1 4457   6.208   0.102   5.268
 1186SOL    HW2 4458   6.265   0.229   5.183
 1187SOL     OW 4459   5.264   5.932   4.658
 1187SOL    HW1 4460   5.177   5.944   4.611
 1187SOL    HW2 4461   5.274   5.837   4.688
 1188SOL     OW 4462   2.461   6.844   6.078
 1188SOL    HW1 4463   2.449   6.887   6.167
 1188SOL    HW2 4464   2.419   6.753   6.079
 1189SOL     OW 4465   5.421   1.435   2.286
 1189SOL    HW1 4466   5.394   1.530   2.270
 1189SOL    HW2 4467   5.340   1.382   2.312
 1190SOL     OW 4468   3.658   5.224   3.418
 1190SOL    HW1 4469   3.627   5.171   3.496
 1190SOL    HW2 4470   3.748   5.191   3.389
 1191SOL     OW 4471   3.768   5.204   6.076
 1191SOL    HW1 4472   3.861   5.168   6.089
 1191SOL    HW2 4473   3.702   5.131   6.088
 1192SOL     OW 4474   5.633   4.434   3.397
 1192SOL    HW1 4475   5.631   4.335   3.411
 1192SOL    HW2 4476   5.540   4.470   3.399
 1193SOL     OW 4477   5.459   0.014   4.440
 1193SOL    HW1 4478   5.390   0.004   4.511
 1193SOL    HW2 4479   5.421   7.006   4.353
 1194SOL     OW 4480   6.735   0.586   0.568
 1194SOL    HW1 4481   6.700   0.665   0.618
 1194SOL    HW2 4482   6.787   0.528   0.630
 1195SOL     OW 4483   6.304   1.202   6.130
 1195SOL    HW1 4484   6.210   1.194   6.163
 1195SOL    HW2 4485   6.365   1.154   6.192
 1196SOL     OW 4486   0.322   5.028   2.189
 1196SOL    HW1 4487   0.389   5.102   2.182
 1196SOL    HW2 4488   0.356   4.948   2.141
 1197SOL     OW 4489   3.947   5.886   5.308
 1197SOL    HW1 4490   3.976   5.980   5.323
 1197SOL    HW2 4491   4.027   5.827   5.302
 1198SOL     OW 4492   2.935   2.243   2.287
 1198SOL    HW1 4493   2.866   2.176   2.315
 1198SOL    HW2 4494   2.904   2.291   2.205
 1199SOL     OW 4495   3.344   4.046   2.654
 1199SOL    HW1 4496   3.444   4.036   2.661
 1199SOL    HW2 4497   3.313   4.004   2.569
 1200SOL     OW 4498   4.313   3.964   5.336
 1200SOL    HW1 4499   4.403   4.001   5.311
 1200SOL    HW2 4500   4.242   4.030   5.312
 1201SOL     OW 4501   1.833   1.685   5.051
 1201SOL    HW1 4502   1.769   1.609   5.036
 1201SOL    HW2 4503   1.893   1.693   4.972
 1202SOL     OW 4504   5.618   6.846   5.960
 1202SOL    HW1 4505   5.594   6.926   6.014
 1202SOL    HW2 4506   5.577   6.853   5.869
 1203SOL     OW 4507   5.469   0.234   1.175
 1203SOL    HW1 4508   5.381   0.243   1.222
 1203SOL    HW2 4509   5.455   0.238   1.076
 1204SOL     OW 4510   3.511   1.381   0.510
 1204SOL    HW1 4511   3.428   1.418   0.466
 1204SOL    HW2 4512   3.581   1.452   0.513
 1205SOL     OW 4513   5.663   2.506   6.596
 1205SOL    HW1 4514   5.740   2.561   6.562
 1205SOL    HW2 4515   5.584   2.565   6.610
 1206SOL     OW 4516   1.966   1.381   5.120
 1206SOL    HW1 4517   1.883   1.342   5.158
 1206SOL    HW2 4518   1.968   1.366   5.021
 1207SOL     OW 4519   6.731   6.482   0.457
 1207SOL    HW1 4520   6.703   6.576   0.472
 1207SOL    HW2 4521   6.683   6.445   0.377
 1208SOL     OW 4522   3.151   3.730   2.706
 1208SOL    HW1 4523   3.173   3.776   2.792
 1208SOL    HW2 4524   3.155   3.796   2.631
 1209SOL     OW 4525   6.467   5.577   5.334
 1209SOL    HW1 4526   6.412   5.661   5.335
 1209SOL    HW2 4527   6.420   5.506   5.387
 1210SOL     OW 4528   3.940   0.533   2.519
 1210SOL    HW1 4529   3.849   0.561   2.548
 1210SOL    HW2 4530   3.976   0.463   2.581
 1211SOL     OW 4531   1.362   3.358   3.742
 1211SOL    HW1 4532   1.279   3.302   3.737
 1211SOL    HW2 4533   1.370   3.412   3.658
 1212SOL     OW 4534   1.191   2.986   5.625
 1212SOL    HW1 4535   1.165   2.890   5.616
 1212SOL    HW2 4536   1.138   3.029   5.698
 1213SOL     OW 4537   6.493   2.761   4.943
 1213SOL    HW1 4538   6.409   2.712   4.966
 1213SOL    HW2 4539   6.530   2.725   4.858
 1214SOL     OW 4540   1.920   3.280   4.736
 1214SOL    HW1 4541   1.886   3.347   4.803
 1214SOL    HW2 4542   2.009   3.309   4.702
 1215SOL     OW 4543   2.328   4.271   2.827
 1215SOL    HW1 4544   2.319   4.370   2.820
 1215SOL    HW2 4545   2.387   4.249   2.905
 1216SOL     OW 4546   0.774   6.546   1.474
 1216SOL    HW1 4547   0.719   6.465   1.494
 1216SOL    HW2 4548   0.851   6.550   1.537
 1217SOL     OW 4549   0.979   6.283   6.699
 1217SOL    HW1 4550   1.067   6.240   6.721
 1217SOL    HW2 4551   0.911   6.258   6.768
 1218SOL     OW 4552   1.142   3.218   5.251
 1218SOL    HW1 4553   1.169   3.241   5.158
 1218SOL    HW2 4554   1.068   3.278   5.281
 1219SOL     OW 4555   4.653   4.805   0.357
 1219SOL    HW1 4556   4.629   4.766   0.446
 1219SOL    HW2 4557   4.730   4.868   0.368
 1220SOL     OW 4558   5.636   3.300   2.611
 1220SOL    HW1 4559   5.724   3.275   2.570
 1220SOL    HW2 4560   5.563   3.282   2.546
 1221SOL     OW 4561   5.718   3.772   0.096
 1221SOL    HW1 4562   5.622   3.770   0.068
 1221SOL    HW2 4563   5.773   3.721   0.030
 1222SOL     OW 4564   6.950   6.622   0.774
 1222SOL    HW1 4565   6.993   6.690   0.834
 1222SOL    HW2 4566   6.998   6.534   0.784
 1223SOL     OW 4567   5.836   0.299   6.811
 1223SOL    HW1 4568   5.857   0.202   6.812
 1223SOL    HW2 4569   5.919   0.351   6.793
 1224SOL     OW 4570   3.919   5.815   6.878
 1224SOL    HW1 4571   4.000   5.775   6.836
 1224SOL    HW2 4572   3.856   5.742   6.906
 1225SOL     OW 4573   3.831   1.622   1.166
 1225SOL    HW1 4574   3.750   1.641   1.222
 1225SOL    HW2 4575   3.906   1.594   1.225
 1226SOL     OW 4576   5.693   6.448   1.039
 1226SOL    HW1 4577   5.727   6.392   1.114
 1226SOL    HW2 4578   5.749   6.530   1.031
 1227SOL     OW 4579   5.766   4.583   5.532
 1227SOL    HW1 4580   5.669   4.606   5.525
 1227SOL    HW2 4581   5.811   4.601   5.445
 1228SOL     OW 4582   3.561   2.900   2.038
 1228SOL    HW1 4583   3.640   2.861   1.990
 1228SOL    HW2 4584   3.587   2.987   2.080
 1229SOL     OW 4585   1.331   6.704   2.078
 1229SOL    HW1 4586   1.351   6.614   2.040
 1229SOL    HW2 4587   1.289   6.694   2.168
 1230SOL     OW 4588   5.240   5.511   2.956
 1230SOL    HW1 4589   5.189   5.592   2.928
 1230SOL    HW2 4590   5.315   5.538   3.017
 1231SOL     OW 4591   2.119   2.828   6.168
 1231SOL    HW1 4592   2.109   2.893   6.093
 1231SOL    HW2 4593   2.034   2.776   6.180
 1232SOL     OW 4594   3.791   1.626   4.594
 1232SOL    HW1 4595   3.739   1.644   4.677
 1232SOL    HW2 4596   3.884   1.661   4.605
 1233SOL     OW 4597   1.485   4.682   3.928
 1233SOL    HW1 4598   1.556   4.724   3.872
 1233SOL    HW2 4599   1.511   4.587   3.948
 1234SOL     OW 4600   6.699   3.231   0.161
 1234SOL    HW1 4601   6.727   3.293   0.088
 1234SOL    HW2 4602   6.605   3.200   0.144
 1235SOL     OW 4603   6.150   4.878   0.546
 1235SOL    HW1 4604   6.059   4.852   0.579
 1235SOL    HW2 4605   6.208   4.898   0.625
 1236SOL     OW 4606   3.443   1.325   0.195
 1236SOL    HW1 4607   3.540   1.341   0.177
 1236SOL    HW2 4608   3.407   1.401   0.250
 1237SOL     OW 4609   1.436   0.652   4.548
 1237SOL    HW1 4610   1.519   0.638   4.495
 1237SOL    HW2 4611   1.375   0.715   4.499
 1238SOL     OW 4612   0.464   0.395   3.187
 1238SOL    HW1 4613   0.538   0.462   3.183
 1238SOL    HW2 4614   0.381   0.438   3.223
 1239SOL     OW 4615   0.124   5.008   4.301
 1239SOL    HW1 4616   0.218   4.976   4.315
 1239SOL    HW2 4617   0.111   5.033   4.205
 1240SOL     OW 4618   6.118   5.712   2.817
 1240SOL    HW1 4619   6.038   5.671   2.860
 1240SOL    HW2 4620   6.134   5.669   2.729
 1241SOL     OW 4621   6.950   5.437   4.246
 1241SOL    HW1 4622   0.014   5.394   4.246
 1241SOL    HW2 4623   6.892   5.393   4.177
 1242SOL     OW 4624   1.479   3.814   0.193
 1242SOL    HW1 4625   1.476   3.714   0.202
 1242SOL    HW2 4626   1.573   3.845   0.199
 1243SOL     OW 4627   0.804   3.361   5.819
 1243SOL    HW1 4628   0.892   3.354   5.865
 1243SOL    HW2 4629   0.765   3.270   5.805
 1244SOL     OW 4630   5.927   6.571   5.138
 1244SOL    HW1 4631   5.841   6.545   5.095
 1244SOL    HW2 4632   6.000   6.510   5.107
 1245SOL     OW 4633   5.023   5.721   1.117
 1245SOL    HW1 4634   5.112   5.704   1.075
 1245SOL    HW2 4635   4.961   5.759   1.048
 1246SOL     OW 4636   4.874   1.208   0.994
 1246SOL    HW1 4637   4.795   1.268   0.980
 1246SOL    HW2 4638   4.955   1.248   0.951
 1247SOL     OW 4639   6.999   6.658   3.712
 1247SOL    HW1 4640   6.958   6.729   3.769
 1247SOL    HW2 4641   0.044   6.698   3.655
 1248SOL     OW 4642   0.054   6.605   4.515
 1248SOL    HW1 4643   0.076   6.527   4.573
 1248SOL    HW2 4644   6.985   6.632   4.529
 1249SOL     OW 4645   0.463   4.632   1.257
 1249SOL    HW1 4646   0.485   4.672   1.346
 1249SOL    HW2 4647   0.488   4.535   1.257
 1250SOL     OW 4648   6.074   3.823   5.065
 1250SOL    HW1 4649   6.117   3.836   4.975
 1250SOL    HW2 4650   6.137   3.853   5.136
 1251SOL     OW 4651   2.159   1.463   3.187
 1251SOL    HW1 4652   2.214   1.472   3.104
 1251SOL    HW2 4653   2.218   1.471   3.267
 1252SOL     OW 4654   3.099   5.540   0.107
 1252SOL    HW1 4655   3.180   5.598   0.105
 1252SOL    HW2 4656   3.052   5.545   0.018
 1253SOL     OW 4657   3.190   0.497   0.819
 1253SOL    HW1 4658   3.127   0.565   0.784
 1253SOL    HW2 4659   3.276   0.501   0.768
 1254SOL     OW 4660   6.081   1.658   3.108
 1254SOL    HW1 4661   6.106   1.755   3.108
 1254SOL    HW2 4662   6.055   1.631   3.016
 1255SOL     OW 4663   5.794   2.637   5.021
 1255SOL    HW1 4664   5.737   2.664   4.943
 1255SOL    HW2 4665   5.737   2.597   5.092
 1256SOL     OW 4666   6.635   5.758   3.608
 1256SOL    HW1 4667   6.630   5.837   3.548
 1256SOL    HW2 4668   6.661   5.677   3.556
 1257SOL     OW 4669   0.905   4.498   3.736
 1257SOL    HW1 4670   0.969   4.537   3.802
 1257SOL    HW2 4671   0.825   4.557   3.728
 1258SOL     OW 4672   1.695   5.802   3.449
 1258SOL    HW1 4673   1.723   5.777   3.542
 1258SOL    HW2 4674   1.630   5.734   3.415
 1259SOL     OW 4675   4.548   0.489   5.220
 1259SOL    HW1 4676   4.495   0.519   5.299
 1259SOL    HW2 4677   4.576   0.569   5.167
 1260SOL     OW 4678   2.818   0.844   2.135
 1260SOL    HW1 4679   2.719   0.835   2.144
 1260SOL    HW2 4680   2.842   0.940   2.121
 1261SOL     OW 4681   0.230   3.868   6.896
 1261SOL    HW1 4682   0.268   3.859   6.988
 1261SOL    HW2 4683   0.131   3.857   6.899
 1262SOL     OW 4684   4.526   4.979   1.145
 1262SOL    HW1 4685   4.456   5.042   1.177
 1262SOL    HW2 4686   4.601   5.031   1.103
 1263SOL     OW 4687   6.635   2.040   1.142
 1263SOL    HW1 4688   6.645   2.138   1.127
 1263SOL    HW2 4689   6.663   1.990   1.061
 1264SOL     OW 4690   0.450   4.838   3.377
 1264SOL    HW1 4691   0.413   4.866   3.465
 1264SOL    HW2 4692   0.378   4.792   3.324
 1265SOL     OW 4693   0.555   3.846   4.109
 1265SOL    HW1 4694   0.471   3.856   4.162
 1265SOL    HW2 4695   0.632   3.831   4.172
 1266SOL     OW 4696   2.633   1.574   5.308
 1266SOL    HW1 4697   2.675   1.650   5.358
 1266SOL    HW2 4698   2.533   1.582   5.313
 1267SOL     OW 4699   0.136   5.690   2.854
 1267SOL    HW1 4700   0.227   5.650   2.864
 1267SOL    HW2 4701   0.130   5.741   2.768
 1268SOL     OW 4702   5.373   2.108   6.918
 1268SOL    HW1 4703   5.425   2.190   6.893
 1268SOL    HW2 4704   5.293   2.100   6.858
 1269SOL     OW 4705   6.657   6.544   5.386
 1269SOL    HW1 4706   6.747   6.546   5.343
 1269SOL    HW2 4707   6.627   6.637   5.406
 1270SOL     OW 4708   2.164   4.052   4.472
 1270SOL    HW1 4709   2.138   3.960   4.503
 1270SOL    HW2 4710   2.210   4.100   4.546
 1271SOL     OW 4711   3.336   2.140   3.162
 1271SOL    HW1 4712   3.249   2.173   3.123
 1271SOL    HW2 4713   3.322   2.116   3.258
 1272SOL     OW 4714   0.040   5.894   1.078
 1272SOL    HW1 4715   6.983   5.845   1.104
 1272SOL    HW2 4716   0.119   5.849   1.120
 1273SOL     OW 4717   1.911   4.021   0.326
 1273SOL    HW1 4718   1.950   4.113   0.331
 1273SOL    HW2 4719   1.975   3.955   0.366
 1274SOL     OW 4720   0.498   2.780   1.800
 1274SOL    HW1 4721   0.594   2.769   1.826
 1274SOL    HW2 4722   0.445   2.808   1.880
 1275SOL     OW 4723   4.316   0.899   3.797
 1275SOL    HW1 4724   4.349   0.935   3.884
 1275SOL    HW2 4725   4.380   0.925   3.724
 1276SOL     OW 4726   6.760   0.503   3.191
 1276SOL    HW1 4727   6.792   0.450   3.113
 1276SOL    HW2 4728   6.693   0.451   3.242
 1277SOL     OW 4729   0.549   1.062   5.063
 1277SOL    HW1 4730   0.589   0.987   5.012
 1277SOL    HW2 4731   0.587   1.065   5.155
 1278SOL     OW 4732   2.213   2.001   5.642
 1278SOL    HW1 4733   2.186   2.059   5.565
 1278SOL    HW2 4734   2.138   1.995   5.708
 1279SOL     OW 4735   2.538   0.098   0.777
 1279SOL    HW1 4736   2.442   0.072   0.788
 1279SOL    HW2 4737   2.596   0.016   0.776
 1280SOL     OW 4738   2.469   0.435   2.754
 1280SOL    HW1 4739   2.382   0.472   2.723
 1280SOL    HW2 4740   2.525   0.411   2.675
 1281SOL     OW 4741   0.818   6.125   3.076
 1281SOL    HW1 4742   0.750   6.060   3.042
 1281SOL    HW2 4743   0.772   6.205   3.114
 1282SOL     OW 4744   0.598   1.117   1.183
 1282SOL    HW1 4745   0.576   1.097   1.087
 1282SOL    HW2 4746   0.629   1.212   1.190
 1283SOL     OW 4747   5.593   3.895   5.366
 1283SOL    HW1 4748   5.668   3.843   5.405
 1283SOL    HW2 4749   5.506   3.859   5.400
 1284SOL     OW 4750   3.116   2.568   1.677
 1284SOL    HW1 4751   3.049   2.520   1.733
 1284SOL    HW2 4752   3.208   2.543   1.705
 1285SOL     OW 4753   5.986   3.342   6.547
 1285SOL    HW1 4754   5.936   3.393   6.477
 1285SOL    HW2 4755   5.944   3.357   6.636
 1286SOL     OW 4756   4.884   4.661   2.090
 1286SOL    HW1 4757   4.919   4.579   2.136
 1286SOL    HW2 4758   4.868   4.733   2.157
 1287SOL     OW 4759   5.993   4.640   6.764
 1287SOL    HW1 4760   6.064   4.665   6.698
 1287SOL    HW2 4761   5.904   4.641   6.718
 1288SOL     OW 4762   0.562   3.013   0.545
 1288SOL    HW1 4763   0.622   3.040   0.469
 1288SOL    HW2 4764   0.479   3.068   0.543
 1289SOL     OW 4765   0.105   5.933   1.573
 1289SOL    HW1 4766   0.147   5.924   1.483
 1289SOL    HW2 4767   0.007   5.948   1.563
 1290SOL     OW 4768   0.422   0.862   6.853
 1290SOL    HW1 4769   0.455   0.793   6.788
 1290SOL    HW2 4770   0.396   0.817   6.939
 1291SOL     OW 4771   2.196   4.845   6.517
 1291SOL    HW1 4772   2.241   4.837   6.428
 1291SOL    HW2 4773   2.263   4.875   6.586
 1292SOL     OW 4774   6.808   4.565   2.110
 1292SOL    HW1 4775   6.835   4.555   2.206
 1292SOL    HW2 4776   6.854   4.495   2.055
 1293SOL     OW 4777   2.613   1.032   6.154
 1293SOL    HW1 4778   2.611   0.959   6.086
 1293SOL    HW2 4779   2.523   1.076   6.158
 1294SOL     OW 4780   0.264   2.934   1.721
 1294SOL    HW1 4781   0.360   2.911   1.736
 1294SOL    HW2 4782   0.207   2.857   1.746
 1295SOL     OW 4783   6.151   3.910   2.677
 1295SOL    HW1 4784   6.202   3.846   2.735
 1295SOL    HW2 4785   6.215   3.969   2.627
 1296SOL     OW 4786   3.018   1.970   6.181
 1296SOL    HW1 4787   3.044   1.938   6.272
 1296SOL    HW2 4788   3.069   1.919   6.112
 1297SOL     OW 4789   5.867   1.620   5.681
 1297SOL    HW1 4790   5.893   1.584   5.591
 1297SOL    HW2 4791   5.783   1.674   5.671
 1298SOL     OW 4792   5.747   3.345   3.467
 1298SOL    HW1 4793   5.788   3.296   3.391
 1298SOL    HW2 4794   5.811   3.414   3.500
 1299SOL     OW 4795   1.937   4.267   3.330
 1299SOL    HW1 4796   2.019   4.212   3.349
 1299SOL    HW2 4797   1.945   4.355   3.377
 1300SOL     OW 4798   2.967   3.862   2.207
 1300SOL    HW1 4799   3.039   3.905   2.262
 1300SOL    HW2 4800   2.900   3.931   2.180
 1301SOL     OW 4801   1.412   6.453   2.403
 1301SOL    HW1 4802   1.407   6.366   2.451
 1301SOL    HW2 4803   1.496   6.457   2.350
 1302SOL     OW 4804   2.214   6.757   4.543
 1302SOL    HW1 4805   2.259   6.815   4.475
 1302SOL    HW2 4806   2.205   6.807   4.629
 1303SOL     OW 4807   4.019   1.072   1.044
 1303SOL    HW1 4808   4.098   1.057   0.985
 1303SOL    HW2 4809   3.984   1.165   1.031
 1304SOL     OW 4810   1.247   1.000   6.200
 1304SOL    HW1 4811   1.215   0.908   6.223
 1304SOL    HW2 4812   1.269   1.004   6.103
 1305SOL     OW 4813   5.834   5.776   5.170
 1305SOL    HW1 4814   5.747   5.785   5.121
 1305SOL    HW2 4815   5.909   5.802   5.110
 1306SOL     OW 4816   0.910   4.015   5.404
 1306SOL    HW1 4817   0.936   3.968   5.488
 1306SOL    HW2 4818   0.877   3.948   5.338
 1307SOL     OW 4819   1.732   3.169   4.953
 1307SOL    HW1 4820   1.674   3.211   4.883
 1307SOL    HW2 4821   1.802   3.113   4.908
 1308SOL     OW 4822   4.312   5.637   4.631
 1308SOL    HW1 4823   4.269   5.640   4.722
 1308SOL    HW2 4824   4.242   5.617   4.562
 1309SOL     OW 4825   5.606   3.301   5.485
 1309SOL    HW1 4826   5.538   3.241   5.442
 1309SOL    HW2 4827   5.682   3.315   5.421
 1310SOL     OW 4828   5.758   4.144   5.016
 1310SOL    HW1 4829   5.769   4.243   5.018
 1310SOL    HW2 4830   5.800   4.104   5.097
 1311SOL     OW 4831   5.854   6.720   4.096
 1311SOL    HW1 4832   5.789   6.719   4.173
 1311SOL    HW2 4833   5.897   6.630   4.089
 1312SOL     OW 4834   0.715   0.738   6.918
 1312SOL    HW1 4835   0.787   0.798   6.881
 1312SOL    HW2 4836   0.627   0.767   6.881
 1313SOL     OW 4837   2.577   5.708   5.706
 1313SOL    HW1 4838   2.530   5.789   5.741
 1313SOL    HW2 4839   2.515   5.657   5.647
 1314SOL     OW 4840   1.967   1.422   5.836
 1314SOL    HW1 4841   1.957   1.327   5.806
 1314SOL    HW2 4842   1.943   1.484   5.761
 1315SOL     OW 4843   1.172   1.119   0.742
 1315SOL    HW1 4844   1.198   1.131   0.646
 1315SOL    HW2 4845   1.223   1.184   0.798
 1316SOL     OW 4846   2.067   6.930   3.264
 1316SOL    HW1 4847   2.097   6.837   3.244
 1316SOL    HW2 4848   1.977   6.946   3.222
 1317SOL     OW 4849   0.765   4.742   4.729
 1317SOL    HW1 4850   0.676   4.723   4.771
 1317SOL    HW2 4851   0.781   4.840   4.728
 1318SOL     OW 4852   0.616   0.961   0.864
 1318SOL    HW1 4853   0.608   1.025   0.788
 1318SOL    HW2 4854   0.530   0.958   0.915
 1319SOL     OW 4855   6.023   1.186   0.059
 1319SOL    HW1 4856   5.958   1.188   0.134
 1319SOL    HW2 4857   6.090   1.259   0.071
 1320SOL     OW 4858   5.739   4.502   6.938
 1320SOL    HW1 4859   5.668   4.540   6.997
 1320SOL    HW2 4860   5.704   4.422   6.890
 1321SOL     OW 4861   4.413   3.070   0.265
 1321SOL    HW1 4862   4.371   3.124   0.193
 1321SOL    HW2 4863   4.369   2.980   0.271
 1322SOL     OW 4864   5.186   1.421   3.194
 1322SOL    HW1 4865   5.232   1.334   3.179
 1322SOL    HW2 4866   5.241   1.495   3.154
 1323SOL     OW 4867   5.545   1.501   5.209
 1323SOL    HW1 4868   5.582   1.592   5.195
 1323SOL    HW2 4869   5.603   1.451   5.275
 1324SOL     OW 4870   1.751   2.186   2.031
 1324SOL    HW1 4871   1.700   2.159   2.113
 1324SOL    HW2 4872   1.824   2.250   2.057
 1325SOL     OW 4873   2.296   0.131   2.767
 1325SOL    HW1 4874   2.326   0.102   2.676
 1325SOL    HW2 4875   2.371   0.177   2.814
 1326SOL     OW 4876   4.774   2.894   4.520
 1326SOL    HW1 4877   4.751   2.894   4.423
 1326SOL    HW2 4878   4.844   2.963   4.538
 1327SOL     OW 4879   2.669   5.651   2.871
 1327SOL    HW1 4880   2.712   5.673   2.959
 1327SOL    HW2 4881   2.734   5.601   2.814
 1328SOL     OW 4882   1.017   2.124   7.013
 1328SOL    HW1 4883   0.978   2.214   6.994
 1328SOL    HW2 4884   1.108   2.118   6.973
 1329SOL     OW 4885   6.640   1.526   0.930
 1329SOL    HW1 4886   6.668   1.547   0.837
 1329SOL    HW2 4887   6.547   1.489   0.930
 1330SOL     OW 4888   6.519   6.707   0.988
 1330SOL    HW1 4889   6.583   6.668   0.921
 1330SOL    HW2 4890   6.561   6.709   1.078
 1331SOL     OW 4891   5.240   1.756   2.927
 1331SOL    HW1 4892   5.262   1.709   2.842
 1331SOL    HW2 4893   5.148   1.793   2.921
 1332SOL     OW 4894   3.728   0.660   1.262
 1332SOL    HW1 4895   3.728   0.634   1.358
 1332SOL    HW2 4896   3.760   0.583   1.206
 1333SOL     OW 4897   3.638   4.212   4.967
 1333SOL    HW1 4898   3.723   4.175   5.005
 1333SOL    HW2 4899   3.654   4.305   4.933
 1334SOL     OW 4900   0.915   3.153   4.874
 1334SOL    HW1 4901   0.847   3.199   4.931
 1334SOL    HW2 4902   0.923   3.200   4.786
 1335SOL     OW 4903   2.309   6.605   2.559
 1335SOL    HW1 4904   2.335   6.510   2.570
 1335SOL    HW2 4905   2.236   6.612   2.490
 1336SOL     OW 4906   1.477   1.457   6.873
 1336SOL    HW1 4907   1.483   1.549   6.913
 1336SOL    HW2 4908   1.569   1.425   6.852
 1337SOL     OW 4909   1.314   2.685   5.243
 1337SOL    HW1 4910   1.242   2.617   5.239
 1337SOL    HW2 4911   1.274   2.777   5.236
 1338SOL     OW 4912   4.240   3.848   6.299
 1338SOL    HW1 4913   4.234   3.770   6.235
 1338SOL    HW2 4914   4.296   3.920   6.257
 1339SOL     OW 4915   0.042   4.920   6.707
 1339SOL    HW1 4916   6.984   4.866   6.701
 1339SOL    HW2 4917   0.035   4.983   6.785
 1340SOL     OW 4918   0.957   1.874   1.211
 1340SOL    HW1 4919   1.047   1.830   1.202
 1340SOL    HW2 4920   0.915   1.881   1.120
 1341SOL     OW 4921   4.181   1.091   5.149
 1341SOL    HW1 4922   4.200   0.998   5.180
 1341SOL    HW2 4923   4.200   1.155   5.225
 1342SOL     OW 4924   1.643   5.624   5.988
 1342SOL    HW1 4925   1.654   5.547   6.052
 1342SOL    HW2 4926   1.566   5.680   6.016
 1343SOL     OW 4927   3.651   6.805   2.369
 1343SOL    HW1 4928   3.674   6.852   2.454
 1343SOL    HW2 4929   3.608   6.869   2.305
 1344SOL     OW 4930   6.627   2.513   3.322
 1344SOL    HW1 4931   6.720   2.533   3.354
 1344SOL    HW2 4932   6.606   2.417   3.340
 1345SOL     OW 4933   0.799   1.265   3.483
 1345SOL    HW1 4934   0.893   1.273   3.516
 1345SOL    HW2 4935   0.737   1.314   3.546
 1346SOL     OW 4936   1.165   6.870   2.909
 1346SOL    HW1 4937   1.132   6.933   2.979
 1346SOL    HW2 4938   1.117   6.888   2.823
 1347SOL     OW 4939   6.160   6.644   3.593
 1347SOL    HW1 4940   6.101   6.619   3.516
 1347SOL    HW2 4941   6.224   6.715   3.564
 1348SOL     OW 4942   5.954   5.450   3.905
 1348SOL    HW1 4943   5.892   5.528   3.896
 1348SOL    HW2 4944   5.935   5.384   3.832
 1349SOL     OW 4945   4.858   2.908   6.638
 1349SOL    HW1 4946   4.865   2.945   6.731
 1349SOL    HW2 4947   4.762   2.888   6.618
 1350SOL     OW 4948   3.401   5.062   0.010
 1350SOL    HW1 4949   3.421   5.127   6.962
 1350SOL    HW2 4950   3.417   4.969   7.004
 1351SOL     OW 4951   0.979   0.860   2.764
 1351SOL    HW1 4952   1.071   0.820   2.767
 1351SOL    HW2 4953   0.973   0.933   2.831
 1352SOL     OW 4954   0.021   0.025   3.485
 1352SOL    HW1 4955   0.040   0.122   3.473
 1352SOL    HW2 4956   0.084   6.997   3.428
 1353SOL     OW 4957   6.852   4.695   5.581
 1353SOL    HW1 4958   6.851   4.737   5.672
 1353SOL    HW2 4959   6.832   4.764   5.512
 1354SOL     OW 4960   6.801   1.186   0.945
 1354SOL    HW1 4961   6.824   1.189   1.043
 1354SOL    HW2 4962   6.883   1.171   0.891
 1355SOL     OW 4963   5.095   3.932   0.332
 1355SOL    HW1 4964   5.150   3.924   0.249
 1355SOL    HW2 4965   5.138   3.998   0.394
 1356SOL     OW 4966   3.843   4.061   3.318
 1356SOL    HW1 4967   3.844   4.069   3.218
 1356SOL    HW2 4968   3.764   4.110   3.354
 1357SOL     OW 4969   3.059   3.323   6.465
 1357SOL    HW1 4970   3.102   3.347   6.552
 1357SOL    HW2 4971   3.034   3.226   6.465
 1358SOL     OW 4972   2.198   2.645   6.350
 1358SOL    HW1 4973   2.131   2.679   6.416
 1358SOL    HW2 4974   2.208   2.711   6.275
 1359SOL     OW 4975   6.642   3.699   1.558
 1359SOL    HW1 4976   6.593   3.646   1.628
 1359SOL    HW2 4977   6.730   3.655   1.539
 1360SOL     OW 4978   3.890   3.941   2.345
 1360SOL    HW1 4979   3.814   3.876   2.344
 1360SOL    HW2 4980   3.940   3.936   2.259
 1361SOL     OW 4981   0.516   6.992   5.730
 1361SOL    HW1 4982   0.536   6.955   5.640
 1361SOL    HW2 4983   0.450   0.041   5.722
 1362SOL     OW 4984   2.987   3.384   5.519
 1362SOL    HW1 4985   2.958   3.298   5.478
 1362SOL    HW2 4986   3.061   3.367   5.584
 1363SOL     OW 4987   6.647   6.131   3.678
 1363SOL    HW1 4988   6.708   6.143   3.600
 1363SOL    HW2 4989   6.574   6.067   3.653
 1364SOL     OW 4990   0.038   2.761   0.587
 1364SOL    HW1 4991   0.030   2.835   0.654
 1364SOL    HW2 4992   0.076   2.680   0.631
 1365SOL     OW 4993   1.228   3.932   5.455
 1365SOL    HW1 4994   1.275   3.848   5.484
 1365SOL    HW2 4995   1.152   3.951   5.518
 1366SOL     OW 4996   0.353   3.000   1.179
 1366SOL    HW1 4997   0.342   2.971   1.274
 1366SOL    HW2 4998   0.322   2.927   1.118
 1367SOL     OW 4999   1.081   5.049   3.556
 1367SOL    HW1 5000   1.177   5.023   3.554
 1367SOL    HW2 5001   1.024   4.967   3.553
 1368SOL     OW 5002   6.873   6.823   3.917
 1368SOL    HW1 5003   6.896   6.740   3.966
 1368SOL    HW2 5004   6.816   6.882   3.975
 1369SOL     OW 5005   2.644   6.118   1.306
 1369SOL    HW1 5006   2.638   6.207   1.352
 1369SOL    HW2 5007   2.740   6.100   1.282
 1370SOL     OW 5008   0.443   2.067   3.851
 1370SOL    HW1 5009   0.388   1.987   3.827
 1370SOL    HW2 5010   0.506   2.042   3.925
 1371SOL     OW 5011   5.268   0.897   5.163
 1371SOL    HW1 5012   5.289   0.805   5.195
 1371SOL    HW2 5013   5.202   0.893   5.088
 1372SOL     OW 5014   6.260   2.338   0.704
 1372SOL    HW1 5015   6.287   2.388   0.622
 1372SOL    HW2 5016   6.232   2.403   0.775
 1373SOL     OW 5017   4.671   1.980   0.919
 1373SOL    HW1 5018   4.686   1.884   0.945
 1373SOL    HW2 5019   4.648   2.033   1.001
 1374SOL     OW 5020   5.434   4.223   0.438
 1374SOL    HW1 5021   5.468   4.182   0.354
 1374SOL    HW2 5022   5.355   4.171   0.471
 1375SOL     OW 5023   0.110   6.054   6.085
 1375SOL    HW1 5024   0.155   6.022   6.002
 1375SOL    HW2 5025   0.015   6.022   6.085
 1376SOL     OW 5026   3.026   4.696   6.003
 1376SOL    HW1 5027   2.942   4.657   5.966
 1376SOL    HW2 5028   3.064   4.635   6.073
 1377SOL     OW 5029   1.225   2.352   4.204
 1377SOL    HW1 5030   1.295   2.303   4.256
 1377SOL    HW2 5031   1.192   2.430   4.257
 1378SOL     OW 5032   4.471   2.539   4.823
 1378SOL    HW1 5033   4.391   2.598   4.839
 1378SOL    HW2 5034   4.545   2.594   4.783
 1379SOL     OW 5035   5.190   6.009   2.441
 1379SOL    HW1 5036   5.096   6.037   2.422
 1379SOL    HW2 5037   5.217   6.041   2.532
 1380SOL     OW 5038   6.675   6.350   2.477
 1380SOL    HW1 5039   6.657   6.361   2.575
 1380SOL    HW2 5040   6.709   6.258   2.460
 1381SOL     OW 5041   5.504   2.164   6.565
 1381SOL    HW1 5042   5.589   2.200   6.525
 1381SOL    HW2 5043   5.499   2.065   6.548
 1382SOL     OW 5044   4.883   3.434   1.834
 1382SOL    HW1 5045   4.824   3.379   1.776
 1382SOL    HW2 5046   4.935   3.499   1.778
 1383SOL     OW 5047   1.165   6.308   1.598
 1383SOL    HW1 5048   1.236   6.242   1.576
 1383SOL    HW2 5049   1.093   6.263   1.652
 1384SOL     OW 5050   4.352   6.985   1.075
 1384SOL    HW1 5051   4.314   7.012   0.986
 1384SOL    HW2 5052   4.340   0.035   1.140
 1385SOL     OW 5053   2.531   5.021   3.721
 1385SOL    HW1 5054   2.516   5.105   3.774
 1385SOL    HW2 5055   2.505   4.942   3.777
 1386SOL     OW 5056   3.137   6.425   3.207
 1386SOL    HW1 5057   3.101   6.487   3.277
 1386SOL    HW2 5058   3.063   6.364   3.176
 1387SOL     OW 5059   3.155   6.314   1.937
 1387SOL    HW1 5060   3.131   6.229   1.892
 1387SOL    HW2 5061   3.220   6.365   1.881
 1388SOL     OW 5062   6.419   6.322   1.253
 1388SOL    HW1 5063   6.381   6.364   1.171
 1388SOL    HW2 5064   6.517   6.342   1.260
 1389SOL     OW 5065   5.658   1.590   3.241
 1389SOL    HW1 5066   5.758   1.584   3.239
 1389SOL    HW2 5067   5.631   1.677   3.282
 1390SOL     OW 5068   0.055   3.791   0.259
 1390SOL    HW1 5069   0.151   3.799   0.233
 1390SOL    HW2 5070   0.005   3.874   0.235
 1391SOL     OW 5071   6.605   0.412   4.209
 1391SOL    HW1 5072   6.645   0.432   4.119
 1391SOL    HW2 5073   6.507   0.397   4.199
 1392SOL     OW 5074   5.131   5.727   6.329
 1392SOL    HW1 5075   5.068   5.804   6.330
 1392SOL    HW2 5076   5.225   5.760   6.338
 1393SOL     OW 5077   6.271   5.091   4.837
 1393SOL    HW1 5078   6.367   5.076   4.816
 1393SOL    HW2 5079   6.246   5.185   4.812
 1394SOL     OW 5080   3.110   5.833   4.994
 1394SOL    HW1 5081   3.018   5.801   5.016
 1394SOL    HW2 5082   3.135   5.906   5.056
 1395SOL     OW 5083   2.641   4.242   6.316
 1395SOL    HW1 5084   2.664   4.178   6.243
 1395SOL    HW2 5085   2.559   4.294   6.291
 1396SOL     OW 5086   2.206   0.901   4.628
 1396SOL    HW1 5087   2.289   0.956   4.622
 1396SOL    HW2 5088   2.214   0.837   4.704
 1397SOL     OW 5089   0.255   0.236   4.122
 1397SOL    HW1 5090   0.243   0.293   4.041
 1397SOL    HW2 5091   0.166   0.219   4.164
 1398SOL     OW 5092   2.322   0.892   6.147
 1398SOL    HW1 5093   2.336   0.990   6.134
 1398SOL    HW2 5094   2.284   0.853   6.063
 1399SOL     OW 5095   4.040   6.910   0.879
 1399SOL    HW1 5096   4.076   6.833   0.826
 1399SOL    HW2 5097   4.009   6.877   0.968
 1400SOL     OW 5098   6.624   1.528   3.123
 1400SOL    HW1 5099   6.687   1.592   3.081
 1400SOL    HW2 5100   6.668   1.483   3.200
 1401SOL     OW 5101   0.028   1.896   4.672
 1401SOL    HW1 5102   0.122   1.932   4.676
 1401SOL    HW2 5103   6.989   1.971   4.684
 1402SOL     OW 5104   0.595   4.283   0.456
 1402SOL    HW1 5105   0.695   4.281   0.462
 1402SOL    HW2 5106   0.560   4.361   0.508
 1403SOL     OW 5107   3.260   1.876   1.734
 1403SOL    HW1 5108   3.204   1.885   1.817
 1403SOL    HW2 5109   3.202   1.886   1.653
 1404SOL     OW 5110   5.169   6.903   6.581
 1404SOL    HW1 5111   5.258   6.862   6.602
 1404SOL    HW2 5112   5.096   6.846   6.619
 1405SOL     OW 5113   2.175   3.826   1.207
 1405SOL    HW1 5114   2.088   3.872   1.224
 1405SOL    HW2 5115   2.162   3.757   1.135
 1406SOL     OW 5116   1.553   5.593   1.230
 1406SOL    HW1 5117   1.460   5.569   1.260
 1406SOL    HW2 5118   1.578   5.535   1.153
 1407SOL     OW 5119   0.715   2.027   2.203
 1407SOL    HW1 5120   0.734   1.929   2.205
 1407SOL    HW2 5121   0.769   2.073   2.274
 1408SOL     OW 5122   5.084   1.047   5.728
 1408SOL    HW1 5123   5.156   1.116   5.736
 1408SOL    HW2 5124   5.107   0.968   5.784
 1409SOL     OW 5125   0.580   6.991   5.010
 1409SOL    HW1 5126   0.535   0.052   5.033
 1409SOL    HW2 5127   0.516   6.932   4.961
 1410SOL     OW 5128   2.128   3.795   6.610
 1410SOL    HW1 5129   2.120   3.778   6.512
 1410SOL    HW2 5130   2.224   3.812   6.633
 1411SOL     OW 5131   2.657   6.492   2.371
 1411SOL    HW1 5132   2.621   6.499   2.464
 1411SOL    HW2 5133   2.749   6.452   2.375
 1412SOL     OW 5134   0.507   2.085   0.987
 1412SOL    HW1 5135   0.538   2.005   0.936
 1412SOL    HW2 5136   0.551   2.087   1.077
 1413SOL     OW 5137   2.163   1.086   5.007
 1413SOL    HW1 5138   2.178   0.994   5.043
 1413SOL    HW2 5139   2.221   1.151   5.056
 1414SOL     OW 5140   2.601   0.941   1.591
 1414SOL    HW1 5141   2.579   0.912   1.498
 1414SOL    HW2 5142   2.517   0.968   1.638
 1415SOL     OW 5143   2.859   0.769   4.516
 1415SOL    HW1 5144   2.881   0.855   4.564
 1415SOL    HW2 5145   2.762   0.749   4.528
 1416SOL     OW 5146   4.552   4.655   4.226
 1416SOL    HW1 5147   4.628   4.615   4.278
 1416SOL    HW2 5148   4.470   4.653   4.283
 1417SOL     OW 5149   2.853   1.469   6.839
 1417SOL    HW1 5150   2.817   1.399   6.777
 1417SOL    HW2 5151   2.920   1.525   6.790
 1418SOL     OW 5152   2.965   3.554   3.725
 1418SOL    HW1 5153   3.035   3.626   3.725
 1418SOL    HW2 5154   2.948   3.523   3.632
 1419SOL     OW 5155   2.749   6.572   4.690
 1419SOL    HW1 5156   2.663   6.598   4.735
 1419SOL    HW2 5157   2.730   6.546   4.595
 1420SOL     OW 5158   2.229   0.018   1.556
 1420SOL    HW1 5159   2.132   0.028   1.530
 1420SOL    HW2 5160   2.235   7.011   1.650
 1421SOL     OW 5161   1.848   3.360   3.412
 1421SOL    HW1 5162   1.915   3.424   3.449
 1421SOL    HW2 5163   1.807   3.307   3.486
 1422SOL     OW 5164   2.140   3.905   1.915
 1422SOL    HW1 5165   2.135   3.972   1.841
 1422SOL    HW2 5166   2.182   3.948   1.995
 1423SOL     OW 5167   5.339   6.525   3.054
 1423SOL    HW1 5168   5.380   6.564   3.137
 1423SOL    HW2 5169   5.356   6.426   3.051
 1424SOL     OW 5170   0.137   4.236   5.026
 1424SOL    HW1 5171   0.118   4.142   4.996
 1424SOL    HW2 5172   0.052   4.289   5.023
 1425SOL     OW 5173   1.187   6.455   4.486
 1425SOL    HW1 5174   1.150   6.544   4.516
 1425SOL    HW2 5175   1.247   6.469   4.408
 1426SOL     OW 5176   0.994   2.066   6.174
 1426SOL    HW1 5177   1.000   1.967   6.169
 1426SOL    HW2 5178   0.899   2.092   6.196
 1427SOL     OW 5179   0.276   6.996   3.098
 1427SOL    HW1 5180   0.253   0.058   3.056
 1427SOL    HW2 5181   0.337   6.945   3.037
 1428SOL     OW 5182   5.552   2.643   0.549
 1428SOL    HW1 5183   5.591   2.604   0.465
 1428SOL    HW2 5184   5.492   2.719   0.526
 1429SOL     OW 5185   5.639   1.881   0.278
 1429SOL    HW1 5186   5.670   1.789   0.304
 1429SOL    HW2 5187   5.575   1.914   0.348
 1430SOL     OW 5188   1.904   4.921   4.211
 1430SOL    HW1 5189   1.821   4.926   4.156
 1430SOL    HW2 5190   1.879   4.923   4.308
 1431SOL     OW 5191   2.269   1.902   0.758
 1431SOL    HW1 5192   2.322   1.819   0.744
 1431SOL    HW2 5193   2.205   1.888   0.835
 1432SOL     OW 5194   3.592   1.429   2.982
 1432SOL    HW1 5195   3.628   1.504   3.038
 1432SOL    HW2 5196   3.501   1.455   2.948
 1433SOL     OW 5197   4.344   1.717   4.355
 1433SOL    HW1 5198   4.383   1.650   4.419
 1433SOL    HW2 5199   4.322   1.672   4.269
 1434SOL     OW 5200   7.024   0.668   6.083
 1434SOL    HW1 5201   0.016   0.569   6.075
 1434SOL    HW2 5202   0.018   0.711   5.995
 1435SOL     OW 5203   6.068   0.495   2.249
 1435SOL    HW1 5204   6.115   0.407   2.242
 1435SOL    HW2 5205   5.971   0.483   2.225
 1436SOL     OW 5206   5.939   3.782   0.482
 1436SOL    HW1 5207   5.877   3.834   0.424
 1436SOL    HW2 5208   6.005   3.844   0.525
 1437SOL     OW 5209   2.479   2.356   3.327
 1437SOL    HW1 5210   2.553   2.356   3.395
 1437SOL    HW2 5211   2.391   2.369   3.373
 1438SOL     OW 5212   3.375   6.840   1.271
 1438SOL    HW1 5213   3.430   6.861   1.190
 1438SOL    HW2 5214   3.292   6.897   1.271
 1439SOL     OW 5215   6.881   5.733   1.320
 1439SOL    HW1 5216   6.850   5.811   1.375
 1439SOL    HW2 5217   6.833   5.733   1.232
 1440SOL     OW 5218   3.069   3.613   0.358
 1440SOL    HW1 5219   3.044   3.700   0.398
 1440SOL    HW2 5220   3.169   3.608   0.347
 1441SOL     OW 5221   6.065   0.799   2.936
 1441SOL    HW1 5222   6.102   0.729   2.875
 1441SOL    HW2 5223   6.104   0.888   2.912
 1442SOL     OW 5224   6.968   5.657   6.839
 1442SOL    HW1 5225   6.987   5.604   6.922
 1442SOL    HW2 5226   6.897   5.724   6.858
 1443SOL     OW 5227   0.510   2.684   2.431
 1443SOL    HW1 5228   0.542   2.640   2.347
 1443SOL    HW2 5229   0.461   2.618   2.487
 1444SOL     OW 5230   5.153   5.904   0.797
 1444SOL    HW1 5231   5.131   6.002   0.802
 1444SOL    HW2 5232   5.110   5.864   0.716
 1445SOL     OW 5233   0.930   3.027   2.008
 1445SOL    HW1 5234   0.918   2.952   2.074
 1445SOL    HW2 5235   0.979   3.102   2.050
 1446SOL     OW 5236   6.008   1.051   6.446
 1446SOL    HW1 5237   6.105   1.055   6.468
 1446SOL    HW2 5238   5.955   1.036   6.530
 1447SOL     OW 5239   5.760   5.986   4.058
 1447SOL    HW1 5240   5.845   5.978   4.110
 1447SOL    HW2 5241   5.689   6.025   4.117
 1448SOL     OW 5242   6.696   3.085   5.250
 1448SOL    HW1 5243   6.710   3.102   5.347
 1448SOL    HW2 5244   6.758   3.141   5.196
 1449SOL     OW 5245   1.563   4.216   5.590
 1449SOL    HW1 5246   1.591   4.127   5.554
 1449SOL    HW2 5247   1.479   4.246   5.544
 1450SOL     OW 5248   0.939   1.798   0.016
 1450SOL    HW1 5249   0.894   1.793   0.106
 1450SOL    HW2 5250   0.999   1.877   0.013
 1451SOL     OW 5251   1.581   6.678   2.242
 1451SOL    HW1 5252   1.600   6.627   2.159
 1451SOL    HW2 5253   1.491   6.720   2.237
 1452SOL     OW 5254   4.306   2.779   5.363
 1452SOL    HW1 5255   4.350   2.822   5.284
 1452SOL    HW2 5256   4.236   2.840   5.399
 1453SOL     OW 5257   0.370   4.327   5.853
 1453SOL    HW1 5258   0.385   4.387   5.774
 1453SOL    HW2 5259   0.456   4.282   5.877
 1454SOL     OW 5260   1.350   1.835   1.936
 1454SOL    HW1 5261   1.446   1.860   1.946
 1454SOL    HW2 5262   1.315   1.869   1.849
 1455SOL     OW 5263   1.697   6.934   2.112
 1455SOL    HW1 5264   1.721   6.931   2.209
 1455SOL    HW2 5265   1.720   7.024   2.074
 1456SOL     OW 5266   6.340   0.071   6.099
 1456SOL    HW1 5267   6.243   0.068   6.124
 1456SOL    HW2 5268   6.389   7.025   6.148
 1457SOL     OW 5269   1.310   5.740   0.505
 1457SOL    HW1 5270   1.315   5.665   0.439
 1457SOL    HW2 5271   1.277   5.823   0.458
 1458SOL     OW 5272   5.959   4.921   5.296
 1458SOL    HW1 5273   6.035   4.904   5.233
 1458SOL    HW2 5274   5.875   4.930   5.244
 1459SOL     OW 5275   4.022   6.694   5.447
 1459SOL    HW1 5276   4.053   6.627   5.515
 1459SOL    HW2 5277   3.923   6.702   5.451
 1460SOL     OW 5278   1.916   6.769   5.213
 1460SOL    HW1 5279   1.968   6.854   5.223
 1460SOL    HW2 5280   1.842   6.768   5.280
 1461SOL     OW 5281   6.858   4.166   3.019
 1461SOL    HW1 5282   6.942   4.122   2.987
 1461SOL    HW2 5283   6.786   4.153   2.951
 1462SOL     OW 5284   1.261   1.010   6.497
 1462SOL    HW1 5285   1.249   0.986   6.400
 1462SOL    HW2 5286   1.294   1.104   6.503
 1463SOL     OW 5287   1.209   4.701   5.776
 1463SOL    HW1 5288   1.126   4.740   5.736
 1463SOL    HW2 5289   1.229   4.747   5.862
 1464SOL     OW 5290   6.754   5.284   2.312
 1464SOL    HW1 5291   6.830   5.220   2.317
 1464SOL    HW2 5292   6.695   5.272   2.391
 1465SOL     OW 5293   1.306   1.313   4.190
 1465SOL    HW1 5294   1.403   1.310   4.213
 1465SOL    HW2 5295   1.253   1.338   4.271
 1466SOL     OW 5296   3.799   1.802   1.991
 1466SOL    HW1 5297   3.729   1.859   2.035
 1466SOL    HW2 5298   3.809   1.830   1.895
 1467SOL     OW 5299   1.838   1.167   3.716
 1467SOL    HW1 5300   1.899   1.245   3.731
 1467SOL    HW2 5301   1.778   1.156   3.795
 1468SOL     OW 5302   2.194   5.928   1.987
 1468SOL    HW1 5303   2.243   5.872   1.920
 1468SOL    HW2 5304   2.218   6.025   1.973
 1469SOL     OW 5305   6.894   6.845   2.541
 1469SOL    HW1 5306   6.877   6.943   2.550
 1469SOL    HW2 5307   6.806   6.796   2.540
 1470SOL     OW 5308   0.078   1.335   2.083
 1470SOL    HW1 5309   0.102   1.368   1.992
 1470SOL    HW2 5310   0.051   1.412   2.141
 1471SOL     OW 5311   1.085   0.182   0.197
 1471SOL    HW1 5312   1.029   0.212   0.274
 1471SOL    HW2 5313   1.032   0.191   0.112
 1472SOL     OW 5314   3.450   5.794   0.769
 1472SOL    HW1 5315   3.521   5.740   0.812
 1472SOL    HW2 5316   3.364   5.742   0.767
 1473SOL     OW 5317   2.704   6.062   5.307
 1473SOL    HW1 5318   2.757   6.067   5.223
 1473SOL    HW2 5319   2.706   6.152   5.353
 1474SOL     OW 5320   4.652   4.294   1.265
 1474SOL    HW1 5321   4.568   4.242   1.282
 1474SOL    HW2 5322   4.717   4.236   1.215
 1475SOL     OW 5323   5.391   0.907   0.265
 1475SOL    HW1 5324   5.450   0.826   0.265
 1475SOL    HW2 5325   5.376   0.936   0.360
 1476SOL     OW 5326   2.404   1.343   1.192
 1476SOL    HW1 5327   2.433   1.361   1.286
 1476SOL    HW2 5328   2.483   1.348   1.131
 1477SOL     OW 5329   3.252   6.204   6.789
 1477SOL    HW1 5330   3.234   6.236   6.883
 1477SOL    HW2 5331   3.347   6.223   6.765
 1478SOL     OW 5332   6.203   5.261   5.272
 1478SOL    HW1 5333   6.168   5.336   5.215
 1478SOL    HW2 5334   6.241   5.190   5.213
 1479SOL     OW 5335   3.036   3.484   1.227
 1479SOL    HW1 5336   3.003   3.473   1.321
 1479SOL    HW2 5337   3.136   3.475   1.226
 1480SOL     OW 5338   2.927   0.210   4.568
 1480SOL    HW1 5339   2.892   0.117   4.581
 1480SOL    HW2 5340   2.975   0.215   4.481
 1481SOL     OW 5341   5.946   3.342   5.684
 1481SOL    HW1 5342   5.860   3.380   5.650
 1481SOL    HW2 5343   5.930   3.296   5.771
 1482SOL     OW 5344   4.752   0.883   1.393
 1482SOL    HW1 5345   4.795   0.920   1.310
 1482SOL    HW2 5346   4.653   0.879   1.379
 1483SOL     OW 5347   5.679   2.325   5.128
 1483SOL    HW1 5348   5.728   2.276   5.201
 1483SOL    HW2 5349   5.745   2.371   5.069
 1484SOL     OW 5350   4.728   4.626   3.700
 1484SOL    HW1 5351   4.774   4.673   3.775
 1484SOL    HW2 5352   4.629   4.623   3.719
 1485SOL     OW 5353   5.251   0.805   4.387
 1485SOL    HW1 5354   5.207   0.717   4.370
 1485SOL    HW2 5355   5.333   0.813   4.331
 1486SOL     OW 5356   4.833   0.574   3.198
 1486SOL    HW1 5357   4.808   0.650   3.258
 1486SOL    HW2 5358   4.867   0.610   3.111
 1487SOL     OW 5359   0.173   1.983   0.208
 1487SOL    HW1 5360   0.233   1.998   0.287
 1487SOL    HW2 5361   0.086   2.031   0.222
 1488SOL     OW 5362   4.584   0.258   3.376
 1488SOL    HW1 5363   4.541   0.348   3.375
 1488SOL    HW2 5364   4.683   0.268   3.368
 1489SOL     OW 5365   3.894   4.586   5.994
 1489SOL    HW1 5366   3.975   4.640   6.017
 1489SOL    HW2 5367   3.812   4.638   6.015
 1490SOL     OW 5368   0.405   3.414   0.783
 1490SOL    HW1 5369   0.472   3.480   0.748
 1490SOL    HW2 5370   0.332   3.403   0.716
 1491SOL     OW 5371   6.486   3.947   2.747
 1491SOL    HW1 5372   6.486   3.959   2.648
 1491SOL    HW2 5373   6.451   3.856   2.769
 1492SOL     OW 5374   6.065   0.169   2.437
 1492SOL    HW1 5375   5.971   0.144   2.413
 1492SOL    HW2 5376   6.107   0.218   2.360
 1493SOL     OW 5377   3.809   0.443   6.236
 1493SOL    HW1 5378   3.770   0.494   6.159
 1493SOL    HW2 5379   3.736   0.417   6.299
 1494SOL     OW 5380   6.134   2.709   6.671
 1494SOL    HW1 5381   6.211   2.649   6.650
 1494SOL    HW2 5382   6.145   2.746   6.763
 1495SOL     OW 5383   0.172   4.146   5.426
 1495SOL    HW1 5384   0.141   4.241   5.431
 1495SOL    HW2 5385   0.190   4.121   5.331
 1496SOL     OW 5386   1.237   0.409   0.359
 1496SOL    HW1 5387   1.156   0.361   0.392
 1496SOL    HW2 5388   1.314   0.345   0.355
 1497SOL     OW 5389   5.366   3.053   1.852
 1497SOL    HW1 5390   5.319   3.056   1.940
 1497SOL    HW2 5391   5.365   2.959   1.817
 1498SOL     OW 5392   2.603   4.583   1.152
 1498SOL    HW1 5393   2.597   4.521   1.074
 1498SOL    HW2 5394   2.615   4.530   1.236
 1499SOL     OW 5395   0.195   3.445   5.957
 1499SOL    HW1 5396   0.281   3.396   5.971
 1499SOL    HW2 5397   0.201   3.536   5.999
 1500SOL     OW 5398   0.410   6.792   6.914
 1500SOL    HW1 5399   0.510   6.788   6.923
 1500SOL    HW2 5400   0.369   6.715   6.961
 1501SOL     OW 5401   5.781   1.743   6.357
 1501SOL    HW1 5402   5.812   1.660   6.402
 1501SOL    HW2 5403   5.737   1.721   6.270
 1502SOL     OW 5404   4.801   1.203   6.722
 1502SOL    HW1 5405   4.741   1.181   6.644
 1502SOL    HW2 5406   4.789   1.299   6.746
 1503SOL     OW 5407   1.050   3.101   2.359
 1503SOL    HW1 5408   0.987   3.024   2.345
 1503SOL    HW2 5409   1.039   3.167   2.286
 1504SOL     OW 5410   0.766   6.981   3.378
 1504SOL    HW1 5411   0.776   0.051   3.406
 1504SOL    HW2 5412   0.774   6.975   3.279
 1505SOL     OW 5413   5.082   6.808   5.517
 1505SOL    HW1 5414   5.105   6.896   5.474
 1505SOL    HW2 5415   5.048   6.824   5.609
 1506SOL     OW 5416   0.906   6.834   0.135
 1506SOL    HW1 5417   0.996   6.827   0.091
 1506SOL    HW2 5418   0.835   6.840   0.065
 1507SOL     OW 5419   0.130   2.064   5.551
 1507SOL    HW1 5420   0.103   2.075   5.646
 1507SOL    HW2 5421   0.225   2.035   5.545
 1508SOL     OW 5422   6.354   1.416   1.737
 1508SOL    HW1 5423   6.442   1.421   1.689
 1508SOL    HW2 5424   6.284   1.386   1.673
 1509SOL     OW 5425   4.926   1.963   4.682
 1509SOL    HW1 5426   4.987   1.893   4.645
 1509SOL    HW2 5427   4.954   2.053   4.649
 1510SOL     OW 5428   5.865   7.002   4.654
 1510SOL    HW1 5429   5.829   6.912   4.682
 1510SOL    HW2 5430   5.960   6.991   4.623
 1511SOL     OW 5431   4.128   3.347   4.250
 1511SOL    HW1 5432   4.127   3.384   4.157
 1511SOL    HW2 5433   4.084   3.257   4.251
 1512SOL     OW 5434   6.422   5.710   1.555
 1512SOL    HW1 5435   6.373   5.692   1.641
 1512SOL    HW2 5436   6.438   5.809   1.547
 1513SOL     OW 5437   3.583   0.361   4.370
 1513SOL    HW1 5438   3.570   0.308   4.286
 1513SOL    HW2 5439   3.499   0.361   4.424
 1514SOL     OW 5440   4.247   2.877   5.955
 1514SOL    HW1 5441   4.153   2.903   5.932
 1514SOL    HW2 5442   4.270   2.914   6.045
 1515SOL     OW 5443   6.050   1.245   2.543
 1515SOL    HW1 5444   6.040   1.343   2.562
 1515SOL    HW2 5445   5.971   1.196   2.579
 1516SOL     OW 5446   5.468   5.291   5.438
 1516SOL    HW1 5447   5.528   5.300   5.517
 1516SOL    HW2 5448   5.404   5.368   5.436
 1517SOL     OW 5449   4.442   6.129   2.993
 1517SOL    HW1 5450   4.468   6.102   3.085
 1517SOL    HW2 5451   4.397   6.052   2.947
 1518SOL     OW 5452   6.776   2.885   0.586
 1518SOL    HW1 5453   6.851   2.823   0.563
 1518SOL    HW2 5454   6.730   2.851   0.668
 1519SOL     OW 5455   6.465   4.736   1.029
 1519SOL    HW1 5456   6.526   4.661   1.003
 1519SOL    HW2 5457   6.510   4.795   1.096
 1520SOL     OW 5458   0.633   4.792   1.505
 1520SOL    HW1 5459   0.717   4.800   1.450
 1520SOL    HW2 5460   0.641   4.714   1.567
 1521SOL     OW 5461   2.285   4.876   6.791
 1521SOL    HW1 5462   2.347   4.937   6.840
 1521SOL    HW2 5463   2.195   4.918   6.784
 1522SOL     OW 5464   6.489   5.464   4.752
 1522SOL    HW1 5465   6.469   5.555   4.788
 1522SOL    HW2 5466   6.419   5.400   4.782
 1523SOL     OW 5467   3.718   6.223   6.947
 1523SOL    HW1 5468   3.646   6.198   7.011
 1523SOL    HW2 5469   3.793   6.267   6.996
 1524SOL     OW 5470   2.574   1.527   2.470
 1524SOL    HW1 5471   2.575   1.454   2.538
 1524SOL    HW2 5472   2.657   1.522   2.414
 1525SOL     OW 5473   5.926   2.965   0.651
 1525SOL    HW1 5474   5.866   2.907   0.596
 1525SOL    HW2 5475   5.921   3.059   0.617
 1526SOL     OW 5476   0.023   1.066   0.052
 1526SOL    HW1 5477   6.995   1.094   6.997
 1526SOL    HW2 5478   6.987   1.034   0.124
 1527SOL     OW 5479   3.353   0.950   4.122
 1527SOL    HW1 5480   3.274   0.994   4.081
 1527SOL    HW2 5481   3.437   0.993   4.087
 1528SOL     OW 5482   4.250   4.682   1.960
 1528SOL    HW1 5483   4.155   4.656   1.944
 1528SOL    HW2 5484   4.293   4.615   2.020
 1529SOL     OW 5485   4.845   0.907   6.705
 1529SOL    HW1 5486   4.838   1.004   6.728
 1529SOL    HW2 5487   4.936   0.887   6.669
 1530SOL     OW 5488   3.488   1.551   1.638
 1530SOL    HW1 5489   3.436   1.495   1.574
 1530SOL    HW2 5490   3.506   1.499   1.722
 1531SOL     OW 5491   4.945   0.583   5.168
 1531SOL    HW1 5492   4.848   0.558   5.167
 1531SOL    HW2 5493   4.959   0.660   5.230
 1532SOL     OW 5494   3.747   4.156   5.945
 1532SOL    HW1 5495   3.658   4.195   5.968
 1532SOL    HW2 5496   3.733   4.065   5.905
 1533SOL     OW 5497   5.734   5.698   0.068
 1533SOL    HW1 5498   5.766   5.792   0.056
 1533SOL    HW2 5499   5.735   5.651   7.006
 1534SOL     OW 5500   3.195   6.087   6.037
 1534SOL    HW1 5501   3.128   6.156   6.010
 1534SOL    HW2 5502   3.184   6.066   6.134
 1535SOL     OW 5503   5.000   5.530   4.460
 1535SOL    HW1 5504   5.016   5.624   4.428
 1535SOL    HW2 5505   5.004   5.529   4.560
 1536SOL     OW 5506   4.359   5.064   6.600
 1536SOL    HW1 5507   4.347   5.107   6.511
 1536SOL    HW2 5508   4.272   5.065   6.650
 1537SOL     OW 5509   4.490   6.054   4.158
 1537SOL    HW1 5510   4.412   5.994   4.178
 1537SOL    HW2 5511   4.573   6.000   4.149
 1538SOL     OW 5512   3.627   6.636   6.766
 1538SOL    HW1 5513   3.555   6.692   6.723
 1538SOL    HW2 5514   3.615   6.541   6.739
 1539SOL     OW 5515   4.987   3.641   2.185
 1539SOL    HW1 5516   5.016   3.646   2.280
 1539SOL    HW2 5517   5.059   3.599   2.130
 1540SOL     OW 5518   0.340   6.884   5.349
 1540SOL    HW1 5519   0.335   6.876   5.250
 1540SOL    HW2 5520   0.412   6.822   5.383
 1541SOL     OW 5521   3.457   3.094   4.194
 1541SOL    HW1 5522   3.381   3.131   4.246
 1541SOL    HW2 5523   3.487   3.160   4.126
 1542SOL     OW 5524   6.823   0.300   1.781
 1542SOL    HW1 5525   6.767   0.381   1.768
 1542SOL    HW2 5526   6.793   0.228   1.717
 1543SOL     OW 5527   3.800   4.972   4.915
 1543SOL    HW1 5528   3.720   5.015   4.956
 1543SOL    HW2 5529   3.773   4.925   4.830
 1544SOL     OW 5530   3.708   3.796   3.536
 1544SOL    HW1 5531   3.609   3.802   3.551
 1544SOL    HW2 5532   3.728   3.805   3.438
 1545SOL     OW 5533   4.249   0.718   3.033
 1545SOL    HW1 5534   4.180   0.778   3.075
 1545SOL    HW2 5535   4.204   0.660   2.965
 1546SOL     OW 5536   5.404   6.373   5.273
 1546SOL    HW1 5537   5.478   6.310   5.297
 1546SOL    HW2 5538   5.318   6.322   5.267
 1547SOL     OW 5539   1.653   3.977   1.015
 1547SOL    HW1 5540   1.572   3.933   1.053
 1547SOL    HW2 5541   1.708   3.910   0.965
 1548SOL     OW 5542   5.236   3.954   0.077
 1548SOL    HW1 5543   5.164   4.021   0.058
 1548SOL    HW2 5544   5.312   3.968   0.012
 1549SOL     OW 5545   3.908   1.506   1.803
 1549SOL    HW1 5546   3.848   1.507   1.883
 1549SOL    HW2 5547   3.853   1.516   1.720
 1550SOL     OW 5548   3.072   3.616   0.973
 1550SOL    HW1 5549   3.087   3.568   1.059
 1550SOL    HW2 5550   2.983   3.661   0.974
 1551SOL     OW 5551   2.016   4.617   6.470
 1551SOL    HW1 5552   2.039   4.585   6.378
 1551SOL    HW2 5553   2.096   4.662   6.510
 1552SOL     OW 5554   2.055   5.354   1.113
 1552SOL    HW1 5555   1.995   5.418   1.065
 1552SOL    HW2 5556   2.071   5.274   1.055
 1553SOL     OW 5557   6.597   1.575   6.633
 1553SOL    HW1 5558   6.593   1.496   6.572
 1553SOL    HW2 5559   6.564   1.656   6.585
 1554SOL     OW 5560   3.298   2.000   3.644
 1554SOL    HW1 5561   3.397   2.002   3.626
 1554SOL    HW2 5562   3.249   2.019   3.559
 1555SOL     OW 5563   5.623   3.254   7.000
 1555SOL    HW1 5564   5.666   3.194   0.042
 1555SOL    HW2 5565   5.536   3.288   0.010
 1556SOL     OW 5566   1.877   2.089   6.592
 1556SOL    HW1 5567   1.842   2.054   6.679
 1556SOL    HW2 5568   1.950   2.029   6.559
 1557SOL     OW 5569   1.789   2.949   5.466
 1557SOL    HW1 5570   1.805   3.045   5.443
 1557SOL    HW2 5571   1.707   2.917   5.419
 1558SOL     OW 5572   6.252   0.778   5.029
 1558SOL    HW1 5573   6.247   0.728   4.943
 1558SOL    HW2 5574   6.318   0.853   5.021
 1559SOL     OW 5575   1.514   3.057   6.637
 1559SOL    HW1 5576   1.456   3.124   6.590
 1559SOL    HW2 5577   1.526   3.085   6.733
 1560SOL     OW 5578   0.096   0.416   6.078
 1560SOL    HW1 5579   0.195   0.424   6.084
 1560SOL    HW2 5580   0.071   0.383   5.986
 1561SOL     OW 5581   5.059   6.192   3.787
 1561SOL    HW1 5582   4.969   6.232   3.769
 1561SOL    HW2 5583   5.127   6.265   3.786
 1562SOL     OW 5584   4.935   6.102   2.532
 1562SOL    HW1 5585   4.975   6.181   2.579
 1562SOL    HW2 5586   4.842   6.125   2.503
 1563SOL     OW 5587   2.513   0.297   4.811
 1563SOL    HW1 5588   2.539   0.233   4.739
 1563SOL    HW2 5589   2.569   0.280   4.892
 1564SOL     OW 5590   1.411   1.276   3.374
 1564SOL    HW1 5591   1.333   1.220   3.404
 1564SOL    HW2 5592   1.493   1.247   3.423
 1565SOL     OW 5593   4.970   4.328   3.402
 1565SOL    HW1 5594   4.997   4.412   3.449
 1565SOL    HW2 5595   5.049   4.289   3.356
 1566SOL     OW 5596   5.665   4.356   2.955
 1566SOL    HW1 5597   5.656   4.456   2.962
 1566SOL    HW2 5598   5.592   4.313   3.009
 1567SOL     OW 5599   6.793   6.081   0.884
 1567SOL    HW1 5600   6.890   6.106   0.889
 1567SOL    HW2 5601   6.750   6.135   0.812
 1568SOL     OW 5602   1.466   6.586   0.182
 1568SOL    HW1 5603   1.536   6.515   0.169
 1568SOL    HW2 5604   1.434   6.618   0.093
 1569SOL     OW 5605   4.184   5.993   3.397
 1569SOL    HW1 5606   4.088   5.975   3.379
 1569SOL    HW2 5607   4.198   6.091   3.409
 1570SOL     OW 5608   1.532   6.966   0.832
 1570SOL    HW1 5609   1.577   7.015   0.907
 1570SOL    HW2 5610   1.566   7.001   0.745
 1571SOL     OW 5611   5.551   2.667   0.826
 1571SOL    HW1 5612   5.591   2.588   0.873
 1571SOL    HW2 5613   5.557   2.654   0.727
 1572SOL     OW 5614   0.414   0.332   1.607
 1572SOL    HW1 5615   0.346   0.314   1.678
 1572SOL    HW2 5616   0.439   0.245   1.564
 1573SOL     OW 5617   5.319   1.667   2.201
 1573SOL    HW1 5618   5.312   1.766   2.212
 1573SOL    HW2 5619   5.280   1.641   2.113
 1574SOL     OW 5620   6.175   1.148   2.022
 1574SOL    HW1 5621   6.100   1.137   2.087
 1574SOL    HW2 5622   6.194   1.245   2.008
 1575SOL     OW 5623   2.960   1.665   0.584
 1575SOL    HW1 5624   2.966   1.636   0.489
 1575SOL    HW2 5625   2.899   1.602   0.634
 1576SOL     OW 5626   6.780   6.468   3.910
 1576SOL    HW1 5627   6.836   6.516   3.978
 1576SOL    HW2 5628   6.837   6.442   3.832
 1577SOL     OW 5629   3.259   1.741   4.530
 1577SOL    HW1 5630   3.162   1.740   4.555
 1577SOL    HW2 5631   3.269   1.770   4.435
 1578SOL     OW 5632   6.072   3.622   5.779
 1578SOL    HW1 5633   6.137   3.691   5.749
 1578SOL    HW2 5634   6.119   3.536   5.795
 1579SOL     OW 5635   0.052   1.447   3.365
 1579SOL    HW1 5636   7.013   1.453   3.441
 1579SOL    HW2 5637   0.052   1.354   3.328
 1580SOL     OW 5638   2.693   3.666   5.353
 1580SOL    HW1 5639   2.723   3.690   5.261
 1580SOL    HW2 5640   2.730   3.732   5.418
 1581SOL     OW 5641   0.242   4.636   4.843
 1581SOL    HW1 5642   0.220   4.542   4.815
 1581SOL    HW2 5643   0.211   4.650   4.937
 1582SOL     OW 5644   1.528   6.832   4.100
 1582SOL    HW1 5645   1.613   6.806   4.055
 1582SOL    HW2 5646   1.527   6.931   4.114
 1583SOL     OW 5647   0.766   2.985   4.138
 1583SOL    HW1 5648   0.744   3.080   4.113
 1583SOL    HW2 5649   0.843   2.953   4.083
 1584SOL     OW 5650   1.408   6.580   4.697
 1584SOL    HW1 5651   1.395   6.504   4.632
 1584SOL    HW2 5652   1.318   6.609   4.731
 1585SOL     OW 5653   5.833   1.456   3.541
 1585SOL    HW1 5654   5.886   1.540   3.532
 1585SOL    HW2 5655   5.786   1.438   3.455
 1586SOL     OW 5656   3.625   4.155   1.381
 1586SOL    HW1 5657   3.639   4.064   1.342
 1586SOL    HW2 5658   3.703   4.213   1.358
 1587SOL     OW 5659   3.185   4.738   0.223
 1587SOL    HW1 5660   3.233   4.651   0.211
 1587SOL    HW2 5661   3.088   4.726   0.203
 1588SOL     OW 5662   4.491   1.484   3.119
 1588SOL    HW1 5663   4.516   1.390   3.093
 1588SOL    HW2 5664   4.392   1.490   3.129
 1589SOL     OW 5665   5.802   3.928   3.535
 1589SOL    HW1 5666   5.900   3.936   3.553
 1589SOL    HW2 5667   5.770   3.838   3.564
 1590SOL     OW 5668   2.096   6.840   5.675
 1590SOL    HW1 5669   2.084   6.910   5.745
 1590SOL    HW2 5670   2.166   6.774   5.704
 1591SOL     OW 5671   1.182   4.979   3.063
 1591SOL    HW1 5672   1.237   5.062   3.074
 1591SOL    HW2 5673   1.124   4.988   2.982
 1592SOL     OW 5674   2.346   4.372   1.539
 1592SOL    HW1 5675   2.444   4.357   1.554
 1592SOL    HW2 5676   2.303   4.402   1.624
 1593SOL     OW 5677   1.258   6.675   3.432
 1593SOL    HW1 5678   1.177   6.617   3.429
 1593SOL    HW2 5679   1.329   6.635   3.373
 1594SOL     OW 5680   0.222   4.890   2.893
 1594SOL    HW1 5681   0.251   4.960   2.828
 1594SOL    HW2 5682   0.154   4.831   2.850
 1595SOL     OW 5683   0.623   4.837   6.291
 1595SOL    HW1 5684   0.697   4.833   6.224
 1595SOL    HW2 5685   0.584   4.929   6.293
 1596SOL     OW 5686   1.022   3.151   5.762
 1596SOL    HW1 5687   1.028   3.221   5.691
 1596SOL    HW2 5688   0.944   3.091   5.742
 1597SOL     OW 5689   3.013   5.313   0.951
 1597SOL    HW1 5690   3.044   5.349   0.862
 1597SOL    HW2 5691   3.063   5.229   0.971
 1598SOL     OW 5692   0.673   4.298   0.122
 1598SOL    HW1 5693   0.660   4.248   0.036
 1598SOL    HW2 5694   0.595   4.281   0.182
 1599SOL     OW 5695   4.798   3.602   5.867
 1599SOL    HW1 5696   4.880   3.615   5.923
 1599SOL    HW2 5697   4.731   3.547   5.917
 1600SOL     OW 5698   5.282   2.082   4.810
 1600SOL    HW1 5699   5.264   2.052   4.716
 1600SOL    HW2 5700   5.340   2.164   4.808
 1601SOL     OW 5701   0.475   5.559   4.650
 1601SOL    HW1 5702   0.572   5.541   4.637
 1601SOL    HW2 5703   0.425   5.472   4.655
 1602SOL     OW 5704   2.076   5.809   4.187
 1602SOL    HW1 5705   2.094   5.756   4.270
 1602SOL    HW2 5706   2.059   5.746   4.111
 1603SOL     OW 5707   0.900   6.176   1.648
 1603SOL    HW1 5708   0.895   6.120   1.732
 1603SOL    HW2 5709   0.812   6.174   1.602
 1604SOL     OW 5710   6.147   4.497   6.949
 1604SOL    HW1 5711   6.079   4.503   7.023
 1604SOL    HW2 5712   6.109   4.538   6.866
 1605SOL     OW 5713   6.265   0.062   1.812
 1605SOL    HW1 5714   6.245   0.022   1.723
 1605SOL    HW2 5715   6.187   0.118   1.842
 1606SOL     OW 5716   4.621   0.785   5.300
 1606SOL    HW1 5717   4.565   0.767   5.381
 1606SOL    HW2 5718   4.698   0.842   5.326
 1607SOL     OW 5719   4.952   2.660   0.845
 1607SOL    HW1 5720   4.912   2.714   0.770
 1607SOL    HW2 5721   5.031   2.708   0.882
 1608SOL     OW 5722   1.451   0.181   5.660
 1608SOL    HW1 5723   1.353   0.185   5.677
 1608SOL    HW2 5724   1.500   0.231   5.731
 1609SOL     OW 5725   4.586   1.116   6.580
 1609SOL    HW1 5726   4.529   1.121   6.662
 1609SOL    HW2 5727   4.531   1.085   6.503
 1610SOL     OW 5728   5.908   4.084   5.239
 1610SOL    HW1 5729   5.889   4.179   5.264
 1610SOL    HW2 5730   6.000   4.059   5.270
 1611SOL     OW 5731   3.491   3.506   1.964
 1611SOL    HW1 5732   3.473   3.474   2.057
 1611SOL    HW2 5733   3.534   3.434   1.910
 1612SOL     OW 5734   2.981   0.962   5.544
 1612SOL    HW1 5735   2.954   0.866   5.530
 1612SOL    HW2 5736   3.079   0.967   5.560
 1613SOL     OW 5737   2.068   6.095   0.883
 1613SOL    HW1 5738   2.048   6.134   0.973
 1613SOL    HW2 5739   1.989   6.044   0.850
 1614SOL     OW 5740   6.690   4.370   0.390
 1614SOL    HW1 5741   6.603   4.325   0.370
 1614SOL    HW2 5742   6.719   4.424   0.311
 1615SOL     OW 5743   6.338   4.962   1.329
 1615SOL    HW1 5744   6.418   4.947   1.387
 1615SOL    HW2 5745   6.367   4.997   1.240
 1616SOL     OW 5746   4.545   2.269   5.695
 1616SOL    HW1 5747   4.564   2.213   5.775
 1616SOL    HW2 5748   4.460   2.239   5.652
 1617SOL     OW 5749   5.668   6.861   1.394
 1617SOL    HW1 5750   5.614   6.888   1.314
 1617SOL    HW2 5751   5.715   6.776   1.375
 1618SOL     OW 5752   0.794   3.813   1.393
 1618SOL    HW1 5753   0.824   3.843   1.484
 1618SOL    HW2 5754   0.851   3.857   1.323
 1619SOL     OW 5755   1.576   2.607   4.594
 1619SOL    HW1 5756   1.671   2.624   4.620
 1619SOL    HW2 5757   1.558   2.509   4.600
 1620SOL     OW 5758   1.855   5.741   0.940
 1620SOL    HW1 5759   1.802   5.750   1.024
 1620SOL    HW2 5760   1.836   5.819   0.880
 1621SOL     OW 5761   0.672   0.971   0.420
 1621SOL    HW1 5762   0.708   1.061   0.441
 1621SOL    HW2 5763   0.574   0.977   0.400
 1622SOL     OW 5764   1.645   2.158   4.442
 1622SOL    HW1 5765   1.657   2.078   4.383
 1622SOL    HW2 5766   1.733   2.202   4.456
 1623SOL     OW 5767   2.509   2.788   6.173
 1623SOL    HW1 5768   2.579   2.723   6.201
 1623SOL    HW2 5769   2.440   2.741   6.118
 1624SOL     OW 5770   2.911   0.831   5.835
 1624SOL    HW1 5771   2.958   0.886   5.766
 1624SOL    HW2 5772   2.940   0.861   5.926
 1625SOL     OW 5773   1.128   5.240   2.192
 1625SOL    HW1 5774   1.220   5.226   2.228
 1625SOL    HW2 5775   1.130   5.231   2.092
 1626SOL     OW 5776   2.450   1.687   6.688
 1626SOL    HW1 5777   2.479   1.724   6.600
 1626SOL    HW2 5778   2.530   1.676   6.747
 1627SOL     OW 5779   6.928   2.593   4.618
 1627SOL    HW1 5780   6.877   2.525   4.565
 1627SOL    HW2 5781   6.970   2.550   4.698
 1628SOL     OW 5782   4.618   5.125   6.574
 1628SOL    HW1 5783   4.611   5.215   6.618
 1628SOL    HW2 5784   4.536   5.071   6.595
 1629SOL     OW 5785   2.883   2.321   4.229
 1629SOL    HW1 5786   2.969   2.281   4.260
 1629SOL    HW2 5787   2.851   2.272   4.148
 1630SOL     OW 5788   0.690   5.868   6.023
 1630SOL    HW1 5789   0.770   5.885   6.080
 1630SOL    HW2 5790   0.622   5.939   6.039
 1631SOL     OW 5791   6.494   0.745   6.260
 1631SOL    HW1 5792   6.574   0.695   6.293
 1631SOL    HW2 5793   6.506   0.768   6.163
 1632SOL     OW 5794   0.171   1.436   0.012
 1632SOL    HW1 5795   0.238   1.389   0.071
 1632SOL    HW2 5796   0.175   1.535   0.029
 1633SOL     OW 5797   5.296   2.534   3.859
 1633SOL    HW1 5798   5.300   2.489   3.770
 1633SOL    HW2 5799   5.356   2.486   3.923
 1634SOL     OW 5800   4.459   5.724   5.282
 1634SOL    HW1 5801   4.529   5.788   5.313
 1634SOL    HW2 5802   4.370   5.752   5.319
 1635SOL     OW 5803   6.530   5.284   4.542
 1635SOL    HW1 5804   6.565   5.199   4.583
 1635SOL    HW2 5805   6.548   5.360   4.605
 1636SOL     OW 5806   2.028   4.404   1.217
 1636SOL    HW1 5807   2.127   4.407   1.230
 1636SOL    HW2 5808   1.992   4.497   1.215
 1637SOL     OW 5809   6.420   1.438   2.966
 1637SOL    HW1 5810   6.499   1.471   3.016
 1637SOL    HW2 5811   6.436   1.450   2.867
 1638SOL     OW 5812   1.175   3.893   3.935
 1638SOL    HW1 5813   1.212   3.970   3.988
 1638SOL    HW2 5814   1.240   3.817   3.936
 1639SOL     OW 5815   4.824   6.450   2.459
 1639SOL    HW1 5816   4.730   6.417   2.463
 1639SOL    HW2 5817   4.851   6.463   2.363
 1640SOL     OW 5818   5.664   2.106   0.902
 1640SOL    HW1 5819   5.686   2.168   0.978
 1640SOL    HW2 5820   5.749   2.078   0.857
 1641SOL     OW 5821   5.792   2.744   3.586
 1641SOL    HW1 5822   5.801   2.668   3.650
 1641SOL    HW2 5823   5.837   2.721   3.500
 1642SOL     OW 5824   6.667   3.143   0.559
 1642SOL    HW1 5825   6.649   3.044   0.564
 1642SOL    HW2 5826   6.748   3.159   0.502
 1643SOL     OW 5827   3.046   6.300   4.304
 1643SOL    HW1 5828   3.091   6.386   4.280
 1643SOL    HW2 5829   2.960   6.292   4.253
 1644SOL     OW 5830   1.931   2.479   0.865
 1644SOL    HW1 5831   1.941   2.380   0.851
 1644SOL    HW2 5832   2.022   2.520   0.872
 1645SOL     OW 5833   3.132   6.263   5.187
 1645SOL    HW1 5834   3.191   6.189   5.156
 1645SOL    HW2 5835   3.040   6.251   5.149
 1646SOL     OW 5836   2.596   5.240   1.300
 1646SOL    HW1 5837   2.529   5.281   1.238
 1646SOL    HW2 5838   2.591   5.140   1.293
 1647SOL     OW 5839   5.508   2.510   4.308
 1647SOL    HW1 5840   5.601   2.523   4.343
 1647SOL    HW2 5841   5.482   2.414   4.317
 1648SOL     OW 5842   6.215   6.436   1.729
 1648SOL    HW1 5843   6.262   6.458   1.815
 1648SOL    HW2 5844   6.202   6.338   1.723
 1649SOL     OW 5845   3.369   0.324   3.325
 1649SOL    HW1 5846   3.353   0.422   3.330
 1649SOL    HW2 5847   3.365   0.285   3.417
 1650SOL     OW 5848   3.327   6.804   3.943
 1650SOL    HW1 5849   3.333   6.717   3.991
 1650SOL    HW2 5850   3.388   6.871   3.986
 1651SOL     OW 5851   0.746   0.734   1.179
 1651SOL    HW1 5852   0.792   0.745   1.267
 1651SOL    HW2 5853   0.647   0.744   1.192
 1652SOL     OW 5854   1.791   2.112   1.468
 1652SOL    HW1 5855   1.890   2.120   1.461
 1652SOL    HW2 5856   1.748   2.147   1.385
 1653SOL     OW 5857   0.928   5.627   1.256
 1653SOL    HW1 5858   0.884   5.548   1.213
 1653SOL    HW2 5859   0.858   5.691   1.287
 1654SOL     OW 5860   6.882   3.309   1.792
 1654SOL    HW1 5861   6.978   3.334   1.806
 1654SOL    HW2 5862   6.851   3.342   1.703
 1655SOL     OW 5863   5.364   3.816   6.190
 1655SOL    HW1 5864   5.446   3.801   6.136
 1655SOL    HW2 5865   5.372   3.903   6.240
 1656SOL     OW 5866   1.695   4.114   3.361
 1656SOL    HW1 5867   1.626   4.123   3.289
 1656SOL    HW2 5868   1.762   4.188   3.354
 1657SOL     OW 5869   0.201   1.566   4.546
 1657SOL    HW1 5870   0.186   1.577   4.448
 1657SOL    HW2 5871   0.181   1.652   4.593
 1658SOL     OW 5872   6.937   0.250   3.016
 1658SOL    HW1 5873   6.936   0.153   2.991
 1658SOL    HW2 5874   6.986   0.263   3.102
 1659SOL     OW 5875   4.032   2.105   6.130
 1659SOL    HW1 5876   4.031   2.188   6.186
 1659SOL    HW2 5877   4.039   2.131   6.033
 1660SOL     OW 5878   1.082   5.082   3.956
 1660SOL    HW1 5879   1.119   5.143   4.027
 1660SOL    HW2 5880   1.157   5.028   3.917
 1661SOL     OW 5881   3.482   1.737   1.820
 1661SOL    HW1 5882   3.518   1.671   1.754
 1661SOL    HW2 5883   3.394   1.771   1.787
 1662SOL     OW 5884   6.239   1.060   3.863
 1662SOL    HW1 5885   6.252   1.057   3.764
 1662SOL    HW2 5886   6.319   1.101   3.907
 1663SOL     OW 5887   2.383   0.847   3.073
 1663SOL    HW1 5888   2.302   0.903   3.095
 1663SOL    HW2 5889   2.466   0.898   3.097
 1664SOL     OW 5890   1.572   0.656   3.950
 1664SOL    HW1 5891   1.665   0.626   3.971
 1664SOL    HW2 5892   1.574   0.746   3.907
 1665SOL     OW 5893   0.221   1.804   3.004
 1665SOL    HW1 5894   0.138   1.752   3.027
 1665SOL    HW2 5895   0.299   1.764   3.051
 1666SOL     OW 5896   6.034   2.753   0.856
 1666SOL    HW1 5897   6.130   2.772   0.877
 1666SOL    HW2 5898   6.008   2.802   0.772
 1667SOL     OW 5899   5.408   6.138   0.691
 1667SOL    HW1 5900   5.324   6.124   0.744
 1667SOL    HW2 5901   5.479   6.173   0.751
 1668SOL     OW 5902   4.794   6.529   5.311
 1668SOL    HW1 5903   4.765   6.541   5.405
 1668SOL    HW2 5904   4.768   6.609   5.257
 1669SOL     OW 5905   6.174   6.835   0.422
 1669SOL    HW1 5906   6.206   6.925   0.393
 1669SOL    HW2 5907   6.116   6.846   0.503
 1670SOL     OW 5908   0.173   5.655   5.885
 1670SOL    HW1 5909   0.252   5.714   5.869
 1670SOL    HW2 5910   0.089   5.710   5.879
 1671SOL     OW 5911   4.240   2.250   1.205
 1671SOL    HW1 5912   4.303   2.307   1.258
 1671SOL    HW2 5913   4.146   2.277   1.224
 1672SOL     OW 5914   1.614   4.052   3.063
 1672SOL    HW1 5915   1.683   3.979   3.062
 1672SOL    HW2 5916   1.660   4.141   3.059
 1673SOL     OW 5917   0.762   2.500   4.535
 1673SOL    HW1 5918   0.822   2.467   4.608
 1673SOL    HW2 5919   0.688   2.435   4.519
 1674SOL     OW 5920   1.898   3.706   1.348
 1674SOL    HW1 5921   1.947   3.791   1.367
 1674SOL    HW2 5922   1.962   3.629   1.357
 1675SOL     OW 5923   4.007   6.955   6.321
 1675SOL    HW1 5924   3.951   7.015   6.377
 1675SOL    HW2 5925   3.966   6.945   6.231
 1676SOL     OW 5926   3.093   1.288   2.629
 1676SOL    HW1 5927   3.085   1.302   2.728
 1676SOL    HW2 5928   3.164   1.220   2.610
 1677SOL     OW 5929   4.678   2.102   5.466
 1677SOL    HW1 5930   4.671   2.185   5.522
 1677SOL    HW2 5931   4.702   2.126   5.372
 1678SOL     OW 5932   5.543   4.974   4.223
 1678SOL    HW1 5933   5.449   4.990   4.252
 1678SOL    HW2 5934   5.595   5.060   4.229
 1679SOL     OW 5935   1.887   3.662   5.305
 1679SOL    HW1 5936   1.840   3.585   5.348
 1679SOL    HW2 5937   1.976   3.632   5.269
 1680SOL     OW 5938   1.002   1.636   4.265
 1680SOL    HW1 5939   0.987   1.544   4.228
 1680SOL    HW2 5940   0.945   1.649   4.346
 1681SOL     OW 5941   6.709   5.751   1.084
 1681SOL    HW1 5942   6.611   5.748   1.066
 1681SOL    HW2 5943   6.752   5.666   1.053
 1682SOL     OW 5944   0.225   3.123   4.796
 1682SOL    HW1 5945   0.269   3.040   4.830
 1682SOL    HW2 5946   0.134   3.100   4.760
 1683SOL     OW 5947   4.179   5.095   0.831
 1683SOL    HW1 5948   4.140   5.068   0.919
 1683SOL    HW2 5949   4.246   5.027   0.802
 1684SOL     OW 5950   1.418   6.828   3.026
 1684SOL    HW1 5951   1.387   6.845   3.120
 1684SOL    HW2 5952   1.341   6.798   2.971
 1685SOL     OW 5953   1.965   1.530   6.722
 1685SOL    HW1 5954   2.049   1.564   6.680
 1685SOL    HW2 5955   1.988   1.458   6.787
 1686SOL     OW 5956   2.255   5.630   5.994
 1686SOL    HW1 5957   2.338   5.593   6.035
 1686SOL    HW2 5958   2.189   5.557   5.980
 1687SOL     OW 5959   1.873   3.074   1.664
 1687SOL    HW1 5960   1.949   3.137   1.645
 1687SOL    HW2 5961   1.852   3.075   1.762
 1688SOL     OW 5962   1.750   1.932   3.569
 1688SOL    HW1 5963   1.733   2.015   3.515
 1688SOL    HW2 5964   1.794   1.956   3.655
 1689SOL     OW 5965   3.481   1.004   1.858
 1689SOL    HW1 5966   3.459   0.935   1.927
 1689SOL    HW2 5967   3.436   1.090   1.880
 1690SOL     OW 5968   1.397   2.796   3.213
 1690SOL    HW1 5969   1.461   2.837   3.147
 1690SOL    HW2 5970   1.398   2.850   3.298
 1691SOL     OW 5971   5.096   4.014   3.216
 1691SOL    HW1 5972   5.122   3.954   3.139
 1691SOL    HW2 5973   5.035   4.086   3.183
 1692SOL     OW 5974   6.859   0.045   1.182
 1692SOL    HW1 5975   6.938   0.016   1.236
 1692SOL    HW2 5976   6.777   0.044   1.239
 1693SOL     OW 5977   1.800   2.800   2.836
 1693SOL    HW1 5978   1.768   2.733   2.903
 1693SOL    HW2 5979   1.734   2.806   2.761
 1694SOL     OW 5980   3.907   6.487   4.112
 1694SOL    HW1 5981   3.816   6.455   4.139
 1694SOL    HW2 5982   3.914   6.488   4.012
 1695SOL     OW 5983   2.873   1.173   4.560
 1695SOL    HW1 5984   2.776   1.164   4.534
 1695SOL    HW2 5985   2.918   1.235   4.496
 1696SOL     OW 5986   5.266   5.310   0.545
 1696SOL    HW1 5987   5.348   5.281   0.594
 1696SOL    HW2 5988   5.204   5.231   0.534
 1697SOL     OW 5989   0.192   6.763   1.304
 1697SOL    HW1 5990   0.183   6.772   1.403
 1697SOL    HW2 5991   0.266   6.698   1.283
 1698SOL     OW 5992   4.701   1.614   1.311
 1698SOL    HW1 5993   4.614   1.577   1.280
 1698SOL    HW2 5994   4.724   1.696   1.257
 1699SOL     OW 5995   2.928   1.716   1.834
 1699SOL    HW1 5996   3.005   1.779   1.849
 1699SOL    HW2 5997   2.909   1.666   1.918
 1700SOL     OW 5998   6.420   2.336   3.641
 1700SOL    HW1 5999   6.517   2.318   3.624
 1700SOL    HW2 6000   6.371   2.250   3.649
 1701SOL     OW 6001   5.025   3.030   4.869
 1701SOL    HW1 6002   5.089   3.077   4.930
 1701SOL    HW2 6003   5.002   3.090   4.792
 1702SOL     OW 6004   6.476   3.342   0.441
 1702SOL    HW1 6005   6.530   3.273   0.490
 1702SOL    HW2 6006   6.411   3.384   0.503
 1703SOL     OW 6007   3.481   3.837   3.046
 1703SOL    HW1 6008   3.540   3.812   3.123
 1703SOL    HW2 6009   3.386   3.836   3.076
 1704SOL     OW 6010   0.358   1.365   1.018
 1704SOL    HW1 6011   0.383   1.404   0.930
 1704SOL    HW2 6012   0.436   1.370   1.081
 1705SOL     OW 6013   3.340   2.084   2.068
 1705SOL    HW1 6014   3.364   2.129   1.982
 1705SOL    HW2 6015   3.405   2.010   2.086
 1706SOL     OW 6016   4.163   6.778   1.168
 1706SOL    HW1 6017   4.242   6.811   1.116
 1706SOL    HW2 6018   4.129   6.851   1.227
 1707SOL     OW 6019   4.319   1.629   2.173
 1707SOL    HW1 6020   4.406   1.634   2.222
 1707SOL    HW2 6021   4.272   1.543   2.196
 1708SOL     OW 6022   5.666   6.173   3.091
 1708SOL    HW1 6023   5.708   6.097   3.041
 1708SOL    HW2 6024   5.718   6.192   3.174
 1709SOL     OW 6025   2.828   6.458   2.068
 1709SOL    HW1 6026   2.768   6.393   2.023
 1709SOL    HW2 6027   2.780   6.546   2.078
 1710SOL     OW 6028   6.278   4.502   4.010
 1710SOL    HW1 6029   6.369   4.469   3.984
 1710SOL    HW2 6030   6.209   4.446   3.965
 1711SOL     OW 6031   1.590   4.347   4.972
 1711SOL    HW1 6032   1.499   4.387   4.969
 1711SOL    HW2 6033   1.598   4.287   5.051
 1712SOL     OW 6034   0.564   3.212   6.438
 1712SOL    HW1 6035   0.507   3.279   6.390
 1712SOL    HW2 6036   0.652   3.253   6.461
 1713SOL     OW 6037   2.931   2.183   1.127
 1713SOL    HW1 6038   2.889   2.260   1.174
 1713SOL    HW2 6039   3.029   2.201   1.112
 1714SOL     OW 6040   3.821   1.671   6.356
 1714SOL    HW1 6041   3.784   1.667   6.448
 1714SOL    HW2 6042   3.750   1.702   6.292
 1715SOL     OW 6043   6.745   3.479   2.883
 1715SOL    HW1 6044   6.761   3.423   2.802
 1715SOL    HW2 6045   6.796   3.442   2.961
 1716SOL     OW 6046   5.668   6.406   1.431
 1716SOL    HW1 6047   5.578   6.370   1.410
 1716SOL    HW2 6048   5.738   6.348   1.389
 1717SOL     OW 6049   2.517   6.457   6.538
 1717SOL    HW1 6050   2.617   6.449   6.540
 1717SOL    HW2 6051   2.481   6.399   6.465
 1718SOL     OW 6052   2.007   2.175   0.769
 1718SOL    HW1 6053   2.042   2.177   0.675
 1718SOL    HW2 6054   2.080   2.146   0.831
 1719SOL     OW 6055   2.598   3.920   1.698
 1719SOL    HW1 6056   2.506   3.957   1.711
 1719SOL    HW2 6057   2.664   3.996   1.695
 1720SOL     OW 6058   6.397   1.895   1.746
 1720SOL    HW1 6059   6.369   1.853   1.661
 1720SOL    HW2 6060   6.441   1.983   1.727
 1721SOL     OW 6061   1.412   6.960   2.045
 1721SOL    HW1 6062   1.506   6.986   2.023
 1721SOL    HW2 6063   1.403   6.861   2.044
 1722SOL     OW 6064   5.045   1.066   3.374
 1722SOL    HW1 6065   4.978   1.119   3.321
 1722SOL    HW2 6066   5.114   1.129   3.410
 1723SOL     OW 6067   6.615   2.203   3.470
 1723SOL    HW1 6068   6.679   2.143   3.518
 1723SOL    HW2 6069   6.580   2.156   3.388
 1724SOL     OW 6070   6.017   1.181   0.972
 1724SOL    HW1 6071   6.002   1.247   0.899
 1724SOL    HW2 6072   6.051   1.096   0.933
 1725SOL     OW 6073   3.089   4.063   0.217
 1725SOL    HW1 6074   3.067   4.148   0.264
 1725SOL    HW2 6075   3.114   4.082   0.122
 1726SOL     OW 6076   0.131   4.631   5.100
 1726SOL    HW1 6077   0.048   4.607   5.149
 1726SOL    HW2 6078   0.210   4.587   5.143
 1727SOL     OW 6079   3.732   2.930   4.210
 1727SOL    HW1 6080   3.643   2.974   4.197
 1727SOL    HW2 6081   3.746   2.912   4.307
 1728SOL     OW 6082   5.232   4.824   4.523
 1728SOL    HW1 6083   5.182   4.750   4.477
 1728SOL    HW2 6084   5.318   4.789   4.559
 1729SOL     OW 6085   2.130   3.840   3.841
 1729SOL    HW1 6086   2.161   3.772   3.775
 1729SOL    HW2 6087   2.049   3.887   3.806
 1730SOL     OW 6088   6.667   0.808   5.139
 1730SOL    HW1 6089   6.649   0.752   5.058
 1730SOL    HW2 6090   6.599   0.881   5.144
 1731SOL     OW 6091   0.944   5.114   2.442
 1731SOL    HW1 6092   0.904   5.091   2.354
 1731SOL    HW2 6093   1.014   5.047   2.466
 1732SOL     OW 6094   2.393   4.372   6.251
 1732SOL    HW1 6095   2.402   4.465   6.215
 1732SOL    HW2 6096   2.311   4.366   6.308
 1733SOL     OW 6097   1.427   3.348   2.254
 1733SOL    HW1 6098   1.343   3.393   2.286
 1733SOL    HW2 6099   1.445   3.375   2.160
 1734SOL     OW 6100   5.012   3.131   1.624
 1734SOL    HW1 6101   4.982   3.093   1.536
 1734SOL    HW2 6102   4.946   3.200   1.654
 1735SOL     OW 6103   5.847   5.720   1.730
 1735SOL    HW1 6104   5.760   5.725   1.680
 1735SOL    HW2 6105   5.859   5.803   1.785
 1736SOL     OW 6106   4.706   1.982   0.044
 1736SOL    HW1 6107   4.677   2.076   0.024
 1736SOL    HW2 6108   4.719   1.932   6.983
 1737SOL     OW 6109   2.959   0.464   3.994
 1737SOL    HW1 6110   2.915   0.437   4.080
 1737SOL    HW2 6111   2.900   0.440   3.917
 1738SOL     OW 6112   2.493   2.615   3.662
 1738SOL    HW1 6113   2.477   2.712   3.680
 1738SOL    HW2 6114   2.457   2.561   3.737
 1739SOL     OW 6115   4.880   2.712   5.287
 1739SOL    HW1 6116   4.792   2.758   5.300
 1739SOL    HW2 6117   4.868   2.632   5.228
 1740SOL     OW 6118   0.206   1.271   6.787
 1740SOL    HW1 6119   0.204   1.340   6.860
 1740SOL    HW2 6120   0.242   1.185   6.823
 1741SOL     OW 6121   2.433   1.078   2.445
 1741SOL    HW1 6122   2.396   1.002   2.499
 1741SOL    HW2 6123   2.496   1.042   2.376
 1742SOL     OW 6124   3.822   5.765   5.769
 1742SOL    HW1 6125   3.833   5.686   5.709
 1742SOL    HW2 6126   3.725   5.790   5.773
 1743SOL     OW 6127   2.341   1.353   2.408
 1743SOL    HW1 6128   2.360   1.255   2.406
 1743SOL    HW2 6129   2.428   1.404   2.410
 1744SOL     OW 6130   1.156   6.733   1.849
 1744SOL    HW1 6131   1.212   6.720   1.767
 1744SOL    HW2 6132   1.214   6.730   1.930
 1745SOL     OW 6133   6.816   1.486   4.859
 1745SOL    HW1 6134   6.887   1.417   4.876
 1745SOL    HW2 6135   6.857   1.578   4.868
 1746SOL     OW 6136   2.476   6.404   5.789
 1746SOL    HW1 6137   2.379   6.418   5.807
 1746SOL    HW2 6138   2.499   6.307   5.802
 1747SOL     OW 6139   4.894   6.815   2.625
 1747SOL    HW1 6140   4.960   6.811   2.550
 1747SOL    HW2 6141   4.801   6.818   2.589
 1748SOL     OW 6142   0.180   0.942   3.944
 1748SOL    HW1 6143   0.125   1.024   3.938
 1748SOL    HW2 6144   0.249   0.953   4.016
 1749SOL     OW 6145   3.413   6.483   5.302
 1749SOL    HW1 6146   3.355   6.499   5.382
 1749SOL    HW2 6147   3.356   6.482   5.219
 1750SOL     OW 6148   5.484   1.141   3.680
 1750SOL    HW1 6149   5.577   1.118   3.709
 1750SOL    HW2 6150   5.418   1.100   3.743
 1751SOL     OW 6151   3.090   5.378   4.468
 1751SOL    HW1 6152   3.085   5.426   4.556
 1751SOL    HW2 6153   2.998   5.351   4.441
 1752SOL     OW 6154   6.646   2.144   1.666
 1752SOL    HW1 6155   6.651   2.142   1.566
 1752SOL    HW2 6156   6.705   2.073   1.703
 1753SOL     OW 6157   0.786   1.302   0.446
 1753SOL    HW1 6158   0.776   1.227   0.512
 1753SOL    HW2 6159   0.700   1.353   0.440
 1754SOL     OW 6160   3.853   3.191   1.159
 1754SOL    HW1 6161   3.884   3.096   1.151
 1754SOL    HW2 6162   3.837   3.228   1.068
 1755SOL     OW 6163   5.714   5.175   1.965
 1755SOL    HW1 6164   5.735   5.268   1.995
 1755SOL    HW2 6165   5.793   5.137   1.916
 1756SOL     OW 6166   4.974   4.426   5.694
 1756SOL    HW1 6167   4.895   4.487   5.681
 1756SOL    HW2 6168   4.994   4.418   5.792
 1757SOL     OW 6169   2.244   6.343   4.470
 1757SOL    HW1 6170   2.162   6.378   4.515
 1757SOL    HW2 6171   2.296   6.285   4.534
 1758SOL     OW 6172   2.711   0.539   3.487
 1758SOL    HW1 6173   2.672   0.591   3.410
 1758SOL    HW2 6174   2.648   0.465   3.511
 1759SOL     OW 6175   1.012   5.420   6.453
 1759SOL    HW1 6176   1.074   5.379   6.387
 1759SOL    HW2 6177   0.945   5.477   6.404
 1760SOL     OW 6178   6.112   1.299   1.572
 1760SOL    HW1 6179   6.095   1.220   1.631
 1760SOL    HW2 6180   6.028   1.352   1.563
 1761SOL     OW 6181   6.921   6.860   0.609
 1761SOL    HW1 6182   6.907   6.920   0.688
 1761SOL    HW2 6183   6.934   6.766   0.640
 1762SOL     OW 6184   6.413   1.564   5.049
 1762SOL    HW1 6185   6.394   1.530   4.957
 1762SOL    HW2 6186   6.330   1.561   5.104
 1763SOL     OW 6187   1.717   3.765   4.469
 1763SOL    HW1 6188   1.797   3.775   4.411
 1763SOL    HW2 6189   1.745   3.757   4.564
 1764SOL     OW 6190   1.742   3.567   2.959
 1764SOL    HW1 6191   1.714   3.520   2.875
 1764SOL    HW2 6192   1.813   3.634   2.938
 1765SOL     OW 6193   3.398   2.058   6.660
 1765SOL    HW1 6194   3.420   2.129   6.593
 1765SOL    HW2 6195   3.483   2.019   6.696
 1766SOL     OW 6196   5.072   2.939   4.231
 1766SOL    HW1 6197   5.159   2.981   4.253
 1766SOL    HW2 6198   5.054   2.862   4.292
 1767SOL     OW 6199   5.456   4.171   3.062
 1767SOL    HW1 6200   5.423   4.215   2.978
 1767SOL    HW2 6201   5.469   4.074   3.046
 1768SOL     OW 6202   4.008   0.852   4.826
 1768SOL    HW1 6203   4.043   0.921   4.762
 1768SOL    HW2 6204   3.967   0.898   4.905
 1769SOL     OW 6205   4.163   2.250   4.433
 1769SOL    HW1 6206   4.164   2.240   4.533
 1769SOL    HW2 6207   4.238   2.198   4.394
 1770SOL     OW 6208   1.563   5.976   5.206
 1770SOL    HW1 6209   1.551   6.074   5.218
 1770SOL    HW2 6210   1.473   5.933   5.194
 1771SOL     OW 6211   3.179   5.441   6.607
 1771SOL    HW1 6212   3.160   5.383   6.529
 1771SOL    HW2 6213   3.278   5.455   6.615
 1772SOL     OW 6214   3.244   6.344   3.640
 1772SOL    HW1 6215   3.168   6.281   3.627
 1772SOL    HW2 6216   3.214   6.437   3.619
 1773SOL     OW 6217   2.140   5.012   5.748
 1773SOL    HW1 6218   2.105   4.921   5.726
 1773SOL    HW2 6219   2.199   5.043   5.674
 1774SOL     OW 6220   4.435   6.172   1.456
 1774SOL    HW1 6221   4.512   6.201   1.399
 1774SOL    HW2 6222   4.368   6.246   1.462
 1775SOL     OW 6223   1.948   3.976   3.715
 1775SOL    HW1 6224   1.889   4.017   3.785
 1775SOL    HW2 6225   1.892   3.951   3.635
 1776SOL     OW 6226   3.193   0.172   3.644
 1776SOL    HW1 6227   3.098   0.181   3.614
 1776SOL    HW2 6228   3.212   0.075   3.662
 1777SOL     OW 6229   3.455   5.375   5.878
 1777SOL    HW1 6230   3.490   5.336   5.793
 1777SOL    HW2 6231   3.531   5.390   5.942
 1778SOL     OW 6232   4.322   3.526   5.507
 1778SOL    HW1 6233   4.389   3.541   5.434
 1778SOL    HW2 6234   4.230   3.528   5.469
 1779SOL     OW 6235   4.279   0.927   4.407
 1779SOL    HW1 6236   4.326   0.911   4.320
 1779SOL    HW2 6237   4.327   0.878   4.480
 1780SOL     OW 6238   3.273   2.825   6.945
 1780SOL    HW1 6239   3.326   2.877   6.878
 1780SOL    HW2 6240   3.187   2.795   6.902
 1781SOL     OW 6241   4.680   5.920   3.983
 1781SOL    HW1 6242   4.674   5.822   3.963
 1781SOL    HW2 6243   4.743   5.964   3.919
 1782SOL     OW 6244   3.097   1.887   2.830
 1782SOL    HW1 6245   3.007   1.901   2.871
 1782SOL    HW2 6246   3.146   1.974   2.826
 1783SOL     OW 6247   1.773   4.806   6.425
 1783SOL    HW1 6248   1.838   4.882   6.417
 1783SOL    HW2 6249   1.823   4.720   6.434
 1784SOL     OW 6250   4.016   1.259   6.100
 1784SOL    HW1 6251   3.934   1.207   6.078
 1784SOL    HW2 6252   4.018   1.278   6.199
 1785SOL     OW 6253   6.204   4.347   3.180
 1785SOL    HW1 6254   6.288   4.359   3.232
 1785SOL    HW2 6255   6.179   4.251   3.178
 1786SOL     OW 6256   1.836   2.705   0.347
 1786SOL    HW1 6257   1.922   2.685   0.393
 1786SOL    HW2 6258   1.780   2.764   0.406
 1787SOL     OW 6259   3.486   0.894   4.905
 1787SOL    HW1 6260   3.434   0.953   4.844
 1787SOL    HW2 6261   3.574   0.937   4.926
 1788SOL     OW 6262   3.124   2.710   0.393
 1788SOL    HW1 6263   3.062   2.663   0.456
 1788SOL    HW2 6264   3.114   2.809   0.404
 1789SOL     OW 6265   6.200   2.143   3.344
 1789SOL    HW1 6266   6.216   2.241   3.355
 1789SOL    HW2 6267   6.272   2.092   3.390
 1790SOL     OW 6268   3.977   5.896   4.147
 1790SOL    HW1 6269   3.912   5.934   4.213
 1790SOL    HW2 6270   4.043   5.966   4.121
 1791SOL     OW 6271   5.728   0.948   3.284
 1791SOL    HW1 6272   5.800   0.899   3.234
 1791SOL    HW2 6273   5.770   0.998   3.361
 1792SOL     OW 6274   6.778   2.808   4.782
 1792SOL    HW1 6275   6.720   2.726   4.776
 1792SOL    HW2 6276   6.849   2.804   4.711
 1793SOL     OW 6277   6.681   6.735   3.517
 1793SOL    HW1 6278   6.659   6.640   3.494
 1793SOL    HW2 6279   6.636   6.796   3.451
 1794SOL     OW 6280   5.638   5.976   5.839
 1794SOL    HW1 6281   5.596   5.977   5.930
 1794SOL    HW2 6282   5.570   5.999   5.770
 1795SOL     OW 6283   1.179   2.494   0.593
 1795SOL    HW1 6284   1.240   2.572   0.582
 1795SOL    HW2 6285   1.087   2.519   0.566
 1796SOL     OW 6286   2.454   0.523   4.276
 1796SOL    HW1 6287   2.455   0.614   4.233
 1796SOL    HW2 6288   2.414   0.457   4.213
 1797SOL     OW 6289   1.627   6.887   6.802
 1797SOL    HW1 6290   1.673   6.961   6.753
 1797SOL    HW2 6291   1.655   6.799   6.764
 1798SOL     OW 6292   5.486   2.464   4.027
 1798SOL    HW1 6293   5.534   2.537   3.979
 1798SOL    HW2 6294   5.494   2.478   4.126
 1799SOL     OW 6295   6.798   2.040   5.867
 1799SOL    HW1 6296   6.755   1.967   5.814
 1799SOL    HW2 6297   6.895   2.019   5.880
 1800SOL     OW 6298   3.943   4.814   1.987
 1800SOL    HW1 6299   3.997   4.851   2.062
 1800SOL    HW2 6300   3.847   4.806   2.016
 1801SOL     OW 6301   0.063   0.321   2.198
 1801SOL    HW1 6302   7.013   0.289   2.141
 1801SOL    HW2 6303   0.148   0.319   2.145
 1802SOL     OW 6304   5.638   5.400   3.268
 1802SOL    HW1 6305   5.567   5.461   3.232
 1802SOL    HW2 6306   5.705   5.454   3.318
 1803SOL     OW 6307   0.785   5.683   7.017
 1803SOL    HW1 6308   0.857   5.633   6.968
 1803SOL    HW2 6309   0.827   5.748   0.055
 1804SOL     OW 6310   2.664   3.992   5.308
 1804SOL    HW1 6311   2.634   3.964   5.399
 1804SOL    HW2 6312   2.585   4.009   5.250
 1805SOL     OW 6313   6.012   4.079   5.644
 1805SOL    HW1 6314   6.076   4.111   5.574
 1805SOL    HW2 6315   5.929   4.135   5.640
 1806SOL     OW 6316   0.185   0.769   0.534
 1806SOL    HW1 6317   0.112   0.737   0.473
 1806SOL    HW2 6318   0.151   0.843   0.592
 1807SOL     OW 6319   5.387   2.816   5.355
 1807SOL    HW1 6320   5.292   2.786   5.347
 1807SOL    HW2 6321   5.419   2.850   5.266
 1808SOL     OW 6322   0.589   4.317   6.718
 1808SOL    HW1 6323   0.580   4.239   6.780
 1808SOL    HW2 6324   0.630   4.287   6.632
 1809SOL     OW 6325   2.189   2.248   4.667
 1809SOL    HW1 6326   2.215   2.293   4.752
 1809SOL    HW2 6327   2.091   2.227   4.670
 1810SOL     OW 6328   2.996   6.671   3.216
 1810SOL    HW1 6329   3.089   6.695   3.187
 1810SOL    HW2 6330   2.951   6.752   3.252
 1811SOL     OW 6331   6.024   5.667   3.188
 1811SOL    HW1 6332   6.063   5.618   3.110
 1811SOL    HW2 6333   6.096   5.683   3.257
 1812SOL     OW 6334   4.356   6.509   5.112
 1812SOL    HW1 6335   4.407   6.586   5.150
 1812SOL    HW2 6336   4.417   6.430   5.100
 1813SOL     OW 6337   6.521   5.296   1.345
 1813SOL    HW1 6338   6.621   5.300   1.348
 1813SOL    HW2 6339   6.487   5.266   1.434
 1814SOL     OW 6340   6.116   0.923   0.844
 1814SOL    HW1 6341   6.023   0.913   0.809
 1814SOL    HW2 6342   6.136   0.850   0.908
 1815SOL     OW 6343   6.846   2.190   2.385
 1815SOL    HW1 6344   6.775   2.164   2.450
 1815SOL    HW2 6345   6.910   2.254   2.429
 1816SOL     OW 6346   3.020   3.240   0.888
 1816SOL    HW1 6347   3.043   3.144   0.872
 1816SOL    HW2 6348   2.939   3.264   0.833
 1817SOL     OW 6349   3.127   0.028   2.769
 1817SOL    HW1 6350   3.205   0.056   2.826
 1817SOL    HW2 6351   3.146   6.964   2.729
 1818SOL     OW 6352   1.959   6.725   2.615
 1818SOL    HW1 6353   2.020   6.769   2.681
 1818SOL    HW2 6354   1.891   6.792   2.584
 1819SOL     OW 6355   1.352   4.866   1.622
 1819SOL    HW1 6356   1.312   4.909   1.541
 1819SOL    HW2 6357   1.348   4.767   1.612
 1820SOL     OW 6358   4.737   0.960   2.283
 1820SOL    HW1 6359   4.748   1.040   2.342
 1820SOL    HW2 6360   4.721   0.879   2.339
 1821SOL     OW 6361   0.502   1.056   2.329
 1821SOL    HW1 6362   0.491   1.005   2.243
 1821SOL    HW2 6363   0.506   1.154   2.308
 1822SOL     OW 6364   2.552   3.196   0.846
 1822SOL    HW1 6365   2.567   3.103   0.813
 1822SOL    HW2 6366   2.462   3.228   0.816
 1823SOL     OW 6367   2.903   5.868   2.969
 1823SOL    HW1 6368   2.845   5.948   2.982
 1823SOL    HW2 6369   2.929   5.860   2.873
 1824SOL     OW 6370   3.255   2.687   1.025
 1824SOL    HW1 6371   3.192   2.686   0.947
 1824SOL    HW2 6372   3.216   2.743   1.098
 1825SOL     OW 6373   1.458   1.581   2.997
 1825SOL    HW1 6374   1.450   1.497   3.050
 1825SOL    HW2 6375   1.538   1.633   3.029
 1826SOL     OW 6376   3.176   0.655   1.258
 1826SOL    HW1 6377   3.126   0.725   1.206
 1826SOL    HW2 6378   3.239   0.700   1.321
 1827SOL     OW 6379   0.399   5.516   2.533
 1827SOL    HW1 6380   0.355   5.428   2.517
 1827SOL    HW2 6381   0.495   5.501   2.556
 1828SOL     OW 6382   0.885   2.239   0.371
 1828SOL    HW1 6383   0.957   2.204   0.432
 1828SOL    HW2 6384   0.924   2.306   0.308
 1829SOL     OW 6385   3.974   0.313   3.805
 1829SOL    HW1 6386   3.886   0.330   3.759
 1829SOL    HW2 6387   4.046   0.367   3.761
 1830SOL     OW 6388   5.586   5.902   4.313
 1830SOL    HW1 6389   5.576   5.807   4.342
 1830SOL    HW2 6390   5.622   5.957   4.388
 1831SOL     OW 6391   5.754   0.449   2.659
 1831SOL    HW1 6392   5.712   0.404   2.581
 1831SOL    HW2 6393   5.686   0.509   2.703
 1832SOL     OW 6394   5.562   1.465   0.905
 1832SOL    HW1 6395   5.544   1.563   0.908
 1832SOL    HW2 6396   5.584   1.432   0.997
 1833SOL     OW 6397   5.511   0.860   5.007
 1833SOL    HW1 6398   5.413   0.874   5.017
 1833SOL    HW2 6399   5.528   0.771   4.965
 1834SOL     OW 6400   2.534   3.540   0.557
 1834SOL    HW1 6401   2.434   3.532   0.552
 1834SOL    HW2 6402   2.560   3.573   0.647
 1835SOL     OW 6403   1.397   4.589   1.596
 1835SOL    HW1 6404   1.354   4.558   1.681
 1835SOL    HW2 6405   1.355   4.543   1.518
 1836SOL     OW 6406   5.736   1.787   0.787
 1836SOL    HW1 6407   5.798   1.853   0.831
 1836SOL    HW2 6408   5.649   1.787   0.835
 1837SOL     OW 6409   0.843   2.133   3.766
 1837SOL    HW1 6410   0.908   2.111   3.838
 1837SOL    HW2 6411   0.885   2.117   3.677
 1838SOL     OW 6412   6.935   2.284   4.109
 1838SOL    HW1 6413   6.963   2.219   4.179
 1838SOL    HW2 6414   6.842   2.316   4.128
 1839SOL     OW 6415   4.518   2.602   5.132
 1839SOL    HW1 6416   4.592   2.540   5.106
 1839SOL    HW2 6417   4.431   2.567   5.097
 1840SOL     OW 6418   3.755   5.854   1.107
 1840SOL    HW1 6419   3.770   5.764   1.066
 1840SOL    HW2 6420   3.819   5.867   1.183
 1841SOL     OW 6421   2.334   2.716   4.364
 1841SOL    HW1 6422   2.292   2.788   4.420
 1841SOL    HW2 6423   2.368   2.643   4.422
 1842SOL     OW 6424   0.787   5.573   0.627
 1842SOL    HW1 6425   0.776   5.489   0.574
 1842SOL    HW2 6426   0.787   5.651   0.564
 1843SOL     OW 6427   0.618   1.987   4.390
 1843SOL    HW1 6428   0.694   2.050   4.404
 1843SOL    HW2 6429   0.586   1.952   4.478
 1844SOL     OW 6430   3.273   0.760   5.377
 1844SOL    HW1 6431   3.239   0.722   5.291
 1844SOL    HW2 6432   3.372   0.776   5.370
 1845SOL     OW 6433   2.164   6.694   5.362
 1845SOL    HW1 6434   2.151   6.788   5.390
 1845SOL    HW2 6435   2.168   6.689   5.262
 1846SOL     OW 6436   3.881   1.804   0.501
 1846SOL    HW1 6437   3.971   1.787   0.541
 1846SOL    HW2 6438   3.892   1.860   0.419
 1847SOL     OW 6439   1.470   1.046   6.671
 1847SOL    HW1 6440   1.391   1.032   6.612
 1847SOL    HW2 6441   1.440   1.044   6.767
 1848SOL     OW 6442   1.195   7.022   1.903
 1848SOL    HW1 6443   1.270   6.996   1.964
 1848SOL    HW2 6444   1.225   7.018   1.808
 1849SOL     OW 6445   3.544   1.631   0.713
 1849SOL    HW1 6446   3.571   1.707   0.653
 1849SOL    HW2 6447   3.457   1.653   0.757
 1850SOL     OW 6448   6.623   3.016   2.469
 1850SOL    HW1 6449   6.683   2.958   2.415
 1850SOL    HW2 6450   6.664   3.107   2.479
 1851SOL     OW 6451   0.523   1.987   1.499
 1851SOL    HW1 6452   0.549   1.907   1.445
 1851SOL    HW2 6453   0.483   2.057   1.440
 1852SOL     OW 6454   5.843   4.034   1.171
 1852SOL    HW1 6455   5.781   3.958   1.190
 1852SOL    HW2 6456   5.904   4.047   1.248
 1853SOL     OW 6457   0.705   3.085   2.507
 1853SOL    HW1 6458   0.774   3.013   2.505
 1853SOL    HW2 6459   0.715   3.143   2.425
 1854SOL     OW 6460   2.554   5.874   3.135
 1854SOL    HW1 6461   2.596   5.917   3.054
 1854SOL    HW2 6462   2.456   5.861   3.118
 1855SOL     OW 6463   4.494   4.181   6.884
 1855SOL    HW1 6464   4.552   4.107   6.849
 1855SOL    HW2 6465   4.429   4.145   6.951
 1856SOL     OW 6466   6.516   3.674   5.368
 1856SOL    HW1 6467   6.495   3.743   5.298
 1856SOL    HW2 6468   6.614   3.678   5.389
 1857SOL     OW 6469   3.272   0.868   6.229
 1857SOL    HW1 6470   3.200   0.904   6.288
 1857SOL    HW2 6471   3.243   0.780   6.191
 1858SOL     OW 6472   6.178   2.459   3.881
 1858SOL    HW1 6473   6.186   2.392   3.808
 1858SOL    HW2 6474   6.208   2.548   3.848
 1859SOL     OW 6475   4.235   1.456   3.049
 1859SOL    HW1 6476   4.187   1.369   3.034
 1859SOL    HW2 6477   4.202   1.524   2.983
 1860SOL     OW 6478   6.204   0.659   3.276
 1860SOL    HW1 6479   6.250   0.622   3.195
 1860SOL    HW2 6480   6.203   0.759   3.271
 1861SOL     OW 6481   5.009   6.597   2.793
 1861SOL    HW1 6482   4.950   6.660   2.743
 1861SOL    HW2 6483   5.088   6.646   2.829
 1862SOL     OW 6484   1.990   0.089   6.363
 1862SOL    HW1 6485   2.017   0.028   6.437
 1862SOL    HW2 6486   1.957   0.176   6.401
 1863SOL     OW 6487   1.993   2.137   6.929
 1863SOL    HW1 6488   1.967   2.204   6.861
 1863SOL    HW2 6489   1.981   2.045   6.892
 1864SOL     OW 6490   1.194   6.612   5.450
 1864SOL    HW1 6491   1.291   6.629   5.430
 1864SOL    HW2 6492   1.167   6.663   5.532
 1865SOL     OW 6493   3.334   6.924   5.640
 1865SOL    HW1 6494   3.268   6.901   5.712
 1865SOL    HW2 6495   3.396   6.847   5.626
 1866SOL     OW 6496   4.513   4.999   3.106
 1866SOL    HW1 6497   4.522   5.027   3.011
 1866SOL    HW2 6498   4.419   5.012   3.137
 1867SOL     OW 6499   1.237   4.635   0.186
 1867SOL    HW1 6500   1.331   4.627   0.220
 1867SOL    HW2 6501   1.237   4.627   0.086
 1868SOL     OW 6502   4.895   3.860   0.759
 1868SOL    HW1 6503   4.935   3.772   0.734
 1868SOL    HW2 6504   4.918   3.882   0.854
 1869SOL     OW 6505   6.202   2.194   5.736
 1869SOL    HW1 6506   6.257   2.134   5.794
 1869SOL    HW2 6507   6.253   2.216   5.653
 1870SOL     OW 6508   1.782   2.970   6.250
 1870SOL    HW1 6509   1.740   2.885   6.217
 1870SOL    HW2 6510   1.797   2.963   6.349
 1871SOL     OW 6511   0.443   0.446   6.813
 1871SOL    HW1 6512   0.417   0.482   6.902
 1871SOL    HW2 6513   0.398   0.358   6.798
 1872SOL     OW 6514   3.892   3.138   0.330
 1872SOL    HW1 6515   3.921   3.234   0.340
 1872SOL    HW2 6516   3.880   3.117   0.233
 1873SOL     OW 6517   4.807   1.495   5.353
 1873SOL    HW1 6518   4.756   1.552   5.417
 1873SOL    HW2 6519   4.885   1.547   5.318
 1874SOL     OW 6520   3.019   1.053   1.060
 1874SOL    HW1 6521   3.068   1.132   1.025
 1874SOL    HW2 6522   2.926   1.080   1.088
 1875SOL     OW 6523   0.803   1.441   6.974
 1875SOL    HW1 6524   0.837   1.371   0.011
 1875SOL    HW2 6525   0.749   1.397   6.902
 1876SOL     OW 6526   3.437   0.065   5.850
 1876SOL    HW1 6527   3.406   7.019   5.788
 1876SOL    HW2 6528   3.509   0.118   5.805
 1877SOL     OW 6529   0.588   0.178   2.808
 1877SOL    HW1 6530   0.676   0.225   2.801
 1877SOL    HW2 6531   0.544   0.176   2.718
 1878SOL     OW 6532   6.697   2.066   3.892
 1878SOL    HW1 6533   6.701   2.071   3.792
 1878SOL    HW2 6534   6.611   2.106   3.924
 1879SOL     OW 6535   1.038   4.386   4.277
 1879SOL    HW1 6536   1.068   4.480   4.267
 1879SOL    HW2 6537   1.116   4.328   4.299
 1880SOL     OW 6538   6.947   1.723   4.857
 1880SOL    HW1 6539   6.982   1.780   4.783
 1880SOL    HW2 6540   6.978   1.759   4.945
 1881SOL     OW 6541   6.091   1.941   3.103
 1881SOL    HW1 6542   6.062   1.994   3.023
 1881SOL    HW2 6543   6.048   1.977   3.185
 1882SOL     OW 6544   1.606   4.041   6.282
 1882SOL    HW1 6545   1.537   4.109   6.310
 1882SOL    HW2 6546   1.628   4.054   6.186
 1883SOL     OW 6547   0.094   2.187   3.182
 1883SOL    HW1 6548   0.045   2.112   3.226
 1883SOL    HW2 6549   0.134   2.155   3.097
 1884SOL     OW 6550   0.126   1.744   0.533
 1884SOL    HW1 6551   0.078   1.822   0.573
 1884SOL    HW2 6552   0.086   1.721   0.445
 1885SOL     OW 6553   2.127   1.762   6.214
 1885SOL    HW1 6554   2.122   1.664   6.232
 1885SOL    HW2 6555   2.068   1.785   6.137
 1886SOL     OW 6556   1.403   0.375   1.633
 1886SOL    HW1 6557   1.399   0.386   1.732
 1886SOL    HW2 6558   1.496   0.351   1.605
 1887SOL     OW 6559   1.036   5.672   5.704
 1887SOL    HW1 6560   1.123   5.626   5.687
 1887SOL    HW2 6561   0.971   5.649   5.631
 1888SOL     OW 6562   2.887   2.530   6.904
 1888SOL    HW1 6563   2.898   2.441   6.861
 1888SOL    HW2 6564   2.808   2.577   6.864
 1889SOL     OW 6565   0.434   3.538   5.276
 1889SOL    HW1 6566   0.357   3.503   5.222
 1889SOL    HW2 6567   0.402   3.615   5.332
 1890SOL     OW 6568   1.328   5.650   4.145
 1890SOL    HW1 6569   1.332   5.630   4.243
 1890SOL    HW2 6570   1.245   5.608   4.107
 1891SOL     OW 6571   4.888   2.908   1.404
 1891SOL    HW1 6572   4.856   2.845   1.475
 1891SOL    HW2 6573   4.824   2.985   1.396
 1892SOL     OW 6574   1.363   0.331   2.539
 1892SOL    HW1 6575   1.424   0.396   2.583
 1892SOL    HW2 6576   1.398   0.308   2.448
 1893SOL     OW 6577   3.253   3.350   1.903
 1893SOL    HW1 6578   3.292   3.276   1.849
 1893SOL    HW2 6579   3.319   3.425   1.908
 1894SOL     OW 6580   4.124   3.514   3.704
 1894SOL    HW1 6581   4.156   3.452   3.633
 1894SOL    HW2 6582   4.083   3.595   3.663
 1895SOL     OW 6583   4.113   0.396   1.124
 1895SOL    HW1 6584   4.116   0.457   1.203
 1895SOL    HW2 6585   4.033   0.417   1.068
 1896SOL     OW 6586   5.896   1.507   1.621
 1896SOL    HW1 6587   5.925   1.582   1.561
 1896SOL    HW2 6588   5.796   1.500   1.620
 1897SOL     OW 6589   2.102   5.310   1.610
 1897SOL    HW1 6590   2.167   5.328   1.536
 1897SOL    HW2 6591   2.043   5.233   1.584
 1898SOL     OW 6592   1.897   5.056   3.790
 1898SOL    HW1 6593   1.892   5.127   3.860
 1898SOL    HW2 6594   1.987   5.013   3.792
 1899SOL     OW 6595   0.141   1.455   1.134
 1899SOL    HW1 6596   0.120   1.389   1.207
 1899SOL    HW2 6597   0.225   1.426   1.087
 1900SOL     OW 6598   2.167   0.901   6.782
 1900SOL    HW1 6599   2.229   0.823   6.782
 1900SOL    HW2 6600   2.221   0.986   6.784
 1901SOL     OW 6601   1.736   2.203   0.586
 1901SOL    HW1 6602   1.653   2.225   0.637
 1901SOL    HW2 6603   1.814   2.253   0.625
 1902SOL     OW 6604   2.216   0.788   4.879
 1902SOL    HW1 6605   2.262   0.821   4.961
 1902SOL    HW2 6606   2.124   0.757   4.902
 1903SOL     OW 6607   0.531   3.153   3.012
 1903SOL    HW1 6608   0.564   3.064   2.978
 1903SOL    HW2 6609   0.447   3.140   3.064
 1904SOL     OW 6610   5.791   5.267   3.635
 1904SOL    HW1 6611   5.807   5.315   3.548
 1904SOL    HW2 6612   5.850   5.187   3.639
 1905SOL     OW 6613   0.851   0.212   3.431
 1905SOL    HW1 6614   0.872   0.282   3.363
 1905SOL    HW2 6615   0.769   0.238   3.482
 1906SOL     OW 6616   3.032   0.314   5.436
 1906SOL    HW1 6617   3.082   0.356   5.512
 1906SOL    HW2 6618   2.950   0.269   5.470
 1907SOL     OW 6619   4.505   2.118   1.730
 1907SOL    HW1 6620   4.580   2.054   1.746
 1907SOL    HW2 6621   4.418   2.070   1.743
 1908SOL     OW 6622   3.731   6.007   6.187
 1908SOL    HW1 6623   3.765   6.072   6.119
 1908SOL    HW2 6624   3.799   5.996   6.260
 1909SOL     OW 6625   0.939   2.977   3.686
 1909SOL    HW1 6626   0.845   2.973   3.651
 1909SOL    HW2 6627   1.001   2.937   3.618
 1910SOL     OW 6628   0.164   5.404   5.784
 1910SOL    HW1 6629   0.168   5.493   5.828
 1910SOL    HW2 6630   0.218   5.405   5.699
 1911SOL     OW 6631   0.216   3.560   4.719
 1911SOL    HW1 6632   0.279   3.601   4.653
 1911SOL    HW2 6633   0.258   3.479   4.759
 1912SOL     OW 6634   2.679   6.282   1.909
 1912SOL    HW1 6635   2.736   6.275   1.828
 1912SOL    HW2 6636   2.636   6.193   1.928
 1913SOL     OW 6637   3.164   0.906   4.374
 1913SOL    HW1 6638   3.227   0.973   4.337
 1913SOL    HW2 6639   3.214   0.841   4.432
 1914SOL     OW 6640   3.460   2.929   6.769
 1914SOL    HW1 6641   3.552   2.898   6.745
 1914SOL    HW2 6642   3.458   3.029   6.771
 1915SOL     OW 6643   4.079   2.563   5.825
 1915SOL    HW1 6644   3.989   2.594   5.855
 1915SOL    HW2 6645   4.138   2.551   5.905
 1916SOL     OW 6646   4.491   5.734   1.568
 1916SOL    HW1 6647   4.538   5.740   1.480
 1916SOL    HW2 6648   4.526   5.656   1.620
 1917SOL     OW 6649   2.090   3.707   0.064
 1917SOL    HW1 6650   2.047   3.771   0.000
 1917SOL    HW2 6651   2.118   3.625   0.014
 1918SOL     OW 6652   1.193   1.325   4.916
 1918SOL    HW1 6653   1.117   1.275   4.957
 1918SOL    HW2 6654   1.279   1.282   4.940
 1919SOL     OW 6655   1.915   1.603   1.521
 1919SOL    HW1 6656   2.014   1.589   1.517
 1919SOL    HW2 6657   1.876   1.549   1.595
 1920SOL     OW 6658   6.305   3.874   3.091
 1920SOL    HW1 6659   6.317   3.961   3.045
 1920SOL    HW2 6660   6.226   3.879   3.152
 1921SOL     OW 6661   1.804   3.074   0.077
 1921SOL    HW1 6662   1.874   3.007   0.053
 1921SOL    HW2 6663   1.837   3.166   0.055
 1922SOL     OW 6664   2.948   3.647   1.727
 1922SOL    HW1 6665   2.980   3.687   1.812
 1922SOL    HW2 6666   2.848   3.650   1.724
 1923SOL     OW 6667   4.024   2.204   6.552
 1923SOL    HW1 6668   4.003   2.217   6.455
 1923SOL    HW2 6669   3.991   2.114   6.581
 1924SOL     OW 6670   4.595   6.711   0.183
 1924SOL    HW1 6671   4.510   6.762   0.181
 1924SOL    HW2 6672   4.641   6.726   0.271
 1925SOL     OW 6673   1.234   5.507   1.486
 1925SOL    HW1 6674   1.138   5.499   1.513
 1925SOL    HW2 6675   1.286   5.432   1.526
 1926SOL     OW 6676   3.344   0.203   2.100
 1926SOL    HW1 6677   3.246   0.191   2.089
 1926SOL    HW2 6678   3.371   0.295   2.072
 1927SOL     OW 6679   2.494   4.211   0.556
 1927SOL    HW1 6680   2.395   4.208   0.569
 1927SOL    HW2 6681   2.538   4.145   0.618
 1928SOL     OW 6682   5.320   4.365   4.708
 1928SOL    HW1 6683   5.226   4.377   4.676
 1928SOL    HW2 6684   5.384   4.383   4.633
 1929SOL     OW 6685   2.523   0.605   1.645
 1929SOL    HW1 6686   2.468   0.539   1.697
 1929SOL    HW2 6687   2.466   0.646   1.574
 1930SOL     OW 6688   5.672   3.125   6.561
 1930SOL    HW1 6689   5.659   3.063   6.639
 1930SOL    HW2 6690   5.732   3.201   6.588
 1931SOL     OW 6691   1.053   1.555   6.951
 1931SOL    HW1 6692   1.023   1.650   6.961
 1931SOL    HW2 6693   0.974   1.495   6.959
 1932SOL     OW 6694   4.785   2.754   3.453
 1932SOL    HW1 6695   4.871   2.713   3.485
 1932SOL    HW2 6696   4.800   2.851   3.432
 1933SOL     OW 6697   1.171   2.455   0.859
 1933SOL    HW1 6698   1.191   2.457   0.761
 1933SOL    HW2 6699   1.081   2.497   0.875
 1934SOL     OW 6700   0.069   1.018   5.000
 1934SOL    HW1 6701   0.047   1.077   5.078
 1934SOL    HW2 6702   0.008   0.939   5.000
 1935SOL     OW 6703   4.333   4.866   3.675
 1935SOL    HW1 6704   4.373   4.787   3.722
 1935SOL    HW2 6705   4.313   4.843   3.580
 1936SOL     OW 6706   4.872   3.771   4.082
 1936SOL    HW1 6707   4.878   3.672   4.089
 1936SOL    HW2 6708   4.939   3.804   4.015
 1937SOL     OW 6709   4.459   6.092   0.108
 1937SOL    HW1 6710   4.531   6.139   0.057
 1937SOL    HW2 6711   4.374   6.092   0.055
 1938SOL     OW 6712   1.558   1.949   0.790
 1938SOL    HW1 6713   1.494   1.949   0.867
 1938SOL    HW2 6714   1.607   2.036   0.786
 1939SOL     OW 6715   0.347   6.100   4.083
 1939SOL    HW1 6716   0.261   6.134   4.121
 1939SOL    HW2 6717   0.405   6.066   4.156
 1940SOL     OW 6718   6.150   4.320   1.320
 1940SOL    HW1 6719   6.182   4.238   1.367
 1940SOL    HW2 6720   6.050   4.324   1.324
 1941SOL     OW 6721   1.173   3.121   3.426
 1941SOL    HW1 6722   1.156   3.169   3.339
 1941SOL    HW2 6723   1.227   3.040   3.409
 1942SOL     OW 6724   5.530   3.738   2.851
 1942SOL    HW1 6725   5.581   3.655   2.830
 1942SOL    HW2 6726   5.476   3.765   2.772
 1943SOL     OW 6727   1.145   1.327   2.320
 1943SOL    HW1 6728   1.182   1.301   2.410
 1943SOL    HW2 6729   1.220   1.330   2.254
 1944SOL     OW 6730   6.322   4.180   0.137
 1944SOL    HW1 6731   6.236   4.224   0.163
 1944SOL    HW2 6732   6.304   4.101   0.078
 1945SOL     OW 6733   4.098   6.361   0.705
 1945SOL    HW1 6734   4.016   6.304   0.702
 1945SOL    HW2 6735   4.179   6.304   0.717
 1946SOL     OW 6736   5.844   6.624   1.393
 1946SOL    HW1 6737   5.914   6.595   1.459
 1946SOL    HW2 6738   5.764   6.565   1.403
 1947SOL     OW 6739   6.015   5.693   4.187
 1947SOL    HW1 6740   6.081   5.672   4.115
 1947SOL    HW2 6741   6.009   5.792   4.200
 1948SOL     OW 6742   5.442   5.107   3.041
 1948SOL    HW1 6743   5.342   5.108   3.033
 1948SOL    HW2 6744   5.467   5.096   3.137
 1949SOL     OW 6745   3.943   3.893   0.321
 1949SOL    HW1 6746   4.033   3.849   0.315
 1949SOL    HW2 6747   3.871   3.823   0.308
 1950SOL     OW 6748   4.092   3.283   3.302
 1950SOL    HW1 6749   4.090   3.382   3.312
 1950SOL    HW2 6750   4.128   3.241   3.385
 1951SOL     OW 6751   0.023   4.228   6.330
 1951SOL    HW1 6752   0.089   4.286   6.378
 1951SOL    HW2 6753   0.072   4.167   6.267
 1952SOL     OW 6754   5.663   5.134   1.059
 1952SOL    HW1 6755   5.600   5.211   1.061
 1952SOL    HW2 6756   5.733   5.146   1.129
 1953SOL     OW 6757   6.747   1.389   6.452
 1953SOL    HW1 6758   6.822   1.412   6.391
 1953SOL    HW2 6759   6.768   1.303   6.499
 1954SOL     OW 6760   5.331   6.776   1.498
 1954SOL    HW1 6761   5.361   6.778   1.403
 1954SOL    HW2 6762   5.251   6.834   1.509
 1955SOL     OW 6763   0.150   0.733   1.577
 1955SOL    HW1 6764   0.168   0.785   1.494
 1955SOL    HW2 6765   0.185   0.640   1.567
 1956SOL     OW 6766   4.726   7.008   3.113
 1956SOL    HW1 6767   4.789   7.014   3.191
 1956SOL    HW2 6768   4.720   6.913   3.083
 1957SOL     OW 6769   5.447   3.887   3.892
 1957SOL    HW1 6770   5.462   3.817   3.822
 1957SOL    HW2 6771   5.422   3.843   3.978
 1958SOL     OW 6772   4.807   1.261   1.786
 1958SOL    HW1 6773   4.813   1.340   1.846
 1958SOL    HW2 6774   4.751   1.190   1.830
 1959SOL     OW 6775   6.968   6.383   3.695
 1959SOL    HW1 6776   7.001   6.476   3.680
 1959SOL    HW2 6777   6.932   6.346   3.609
 1960SOL     OW 6778   0.387   3.358   2.810
 1960SOL    HW1 6779   0.363   3.281   2.870
 1960SOL    HW2 6780   0.479   3.343   2.773
 1961SOL     OW 6781   6.384   4.643   4.665
 1961SOL    HW1 6782   6.291   4.606   4.656
 1961SOL    HW2 6783   6.410   4.690   4.580
 1962SOL     OW 6784   1.122   6.091   2.505
 1962SOL    HW1 6785   1.114   6.077   2.406
 1962SOL    HW2 6786   1.101   6.006   2.553
 1963SOL     OW 6787   1.552   2.230   1.277
 1963SOL    HW1 6788   1.457   2.209   1.303
 1963SOL    HW2 6789   1.562   2.329   1.266
 1964SOL     OW 6790   4.994   4.663   1.734
 1964SOL    HW1 6791   4.998   4.755   1.771
 1964SOL    HW2 6792   4.912   4.653   1.678
 1965SOL     OW 6793   1.679   2.880   4.267
 1965SOL    HW1 6794   1.779   2.881   4.257
 1965SOL    HW2 6795   1.649   2.786   4.283
 1966SOL     OW 6796   1.482   5.071   1.020
 1966SOL    HW1 6797   1.438   4.981   1.018
 1966SOL    HW2 6798   1.493   5.099   1.116
 1967SOL     OW 6799   6.177   2.666   4.146
 1967SOL    HW1 6800   6.193   2.600   4.072
 1967SOL    HW2 6801   6.122   2.742   4.111
 1968SOL     OW 6802   2.813   1.073   5.365
 1968SOL    HW1 6803   2.836   1.035   5.276
 1968SOL    HW2 6804   2.881   1.042   5.433
 1969SOL     OW 6805   3.283   0.830   1.432
 1969SOL    HW1 6806   3.238   0.905   1.384
 1969SOL    HW2 6807   3.257   0.833   1.529
 1970SOL     OW 6808   6.863   0.010   5.752
 1970SOL    HW1 6809   6.942   0.040   5.806
 1970SOL    HW2 6810   6.847   6.938   5.768
 1971SOL     OW 6811   0.454   0.270   5.379
 1971SOL    HW1 6812   0.549   0.241   5.384
 1971SOL    HW2 6813   0.438   0.343   5.447
 1972SOL     OW 6814   6.161   2.501   1.527
 1972SOL    HW1 6815   6.109   2.521   1.444
 1972SOL    HW2 6816   6.107   2.442   1.587
 1973SOL     OW 6817   2.405   4.106   1.746
 1973SOL    HW1 6818   2.474   4.172   1.714
 1973SOL    HW2 6819   2.382   4.127   1.841
 1974SOL     OW 6820   4.416   0.124   4.932
 1974SOL    HW1 6821   4.468   0.050   4.888
 1974SOL    HW2 6822   4.479   0.182   4.984
 1975SOL     OW 6823   1.944   2.887   4.193
 1975SOL    HW1 6824   2.042   2.903   4.190
 1975SOL    HW2 6825   1.917   2.832   4.114
 1976SOL     OW 6826   5.042   6.351   6.355
 1976SOL    HW1 6827   5.117   6.325   6.294
 1976SOL    HW2 6828   5.064   6.324   6.449
 1977SOL     OW 6829   2.234   3.296   6.421
 1977SOL    HW1 6830   2.283   3.210   6.404
 1977SOL    HW2 6831   2.282   3.371   6.377
 1978SOL     OW 6832   1.451   6.125   2.894
 1978SOL    HW1 6833   1.417   6.115   2.988
 1978SOL    HW2 6834   1.408   6.205   2.852
 1979SOL     OW 6835   5.501   5.155   0.095
 1979SOL    HW1 6836   5.570   5.198   0.152
 1979SOL    HW2 6837   5.541   5.131   0.006
 1980SOL     OW 6838   3.726   0.449   2.833
 1980SOL    HW1 6839   3.648   0.435   2.894
 1980SOL    HW2 6840   3.803   0.487   2.884
 1981SOL     OW 6841   5.412   2.657   2.233
 1981SOL    HW1 6842   5.364   2.629   2.316
 1981SOL    HW2 6843   5.360   2.630   2.152
 1982SOL     OW 6844   6.865   3.875   3.667
 1982SOL    HW1 6845   6.786   3.823   3.699
 1982SOL    HW2 6846   6.884   3.851   3.572
 1983SOL     OW 6847   0.695   0.314   1.400
 1983SOL    HW1 6848   0.615   0.255   1.410
 1983SOL    HW2 6849   0.747   0.286   1.319
 1984SOL     OW 6850   5.153   2.728   5.263
 1984SOL    HW1 6851   5.176   2.679   5.179
 1984SOL    HW2 6852   5.054   2.744   5.266
 1985SOL     OW 6853   6.894   5.568   2.115
 1985SOL    HW1 6854   6.928   5.625   2.040
 1985SOL    HW2 6855   6.919   5.609   2.203
 1986SOL     OW 6856   2.805   1.231   6.164
 1986SOL    HW1 6857   2.898   1.195   6.167
 1986SOL    HW2 6858   2.740   1.156   6.151
 1987SOL     OW 6859   1.977   1.691   4.410
 1987SOL    HW1 6860   1.902   1.668   4.472
 1987SOL    HW2 6861   1.970   1.634   4.328
 1988SOL     OW 6862   6.838   1.381   1.326
 1988SOL    HW1 6863   6.831   1.441   1.406
 1988SOL    HW2 6864   6.805   1.430   1.245
 1989SOL     OW 6865   2.388   5.974   3.933
 1989SOL    HW1 6866   2.300   6.023   3.925
 1989SOL    HW2 6867   2.371   5.876   3.939
 1990SOL     OW 6868   3.495   0.055   0.628
 1990SOL    HW1 6869   3.527   6.991   0.658
 1990SOL    HW2 6870   3.412   0.044   0.573
 1991SOL     OW 6871   2.354   5.042   0.062
 1991SOL    HW1 6872   2.394   5.063   0.152
 1991SOL    HW2 6873   2.426   5.044   7.018
 1992SOL     OW 6874   6.835   0.029   0.797
 1992SOL    HW1 6875   6.815   7.002   0.879
 1992SOL    HW2 6876   6.751   0.067   0.760
 1993SOL     OW 6877   3.368   2.034   4.484
 1993SOL    HW1 6878   3.439   2.104   4.487
 1993SOL    HW2 6879   3.407   1.945   4.507
 1994SOL     OW 6880   4.798   1.745   0.909
 1994SOL    HW1 6881   4.884   1.720   0.866
 1994SOL    HW2 6882   4.811   1.756   1.007
 1995SOL     OW 6883   5.523   3.494   4.557
 1995SOL    HW1 6884   5.463   3.418   4.579
 1995SOL    HW2 6885   5.610   3.459   4.523
 1996SOL     OW 6886   2.679   1.316   1.125
 1996SOL    HW1 6887   2.722   1.270   1.047
 1996SOL    HW2 6888   2.744   1.325   1.200
 1997SOL     OW 6889   2.882   1.538   4.131
 1997SOL    HW1 6890   2.873   1.637   4.122
 1997SOL    HW2 6891   2.967   1.517   4.180
 1998SOL     OW 6892   1.354   3.679   0.738
 1998SOL    HW1 6893   1.360   3.647   0.643
 1998SOL    HW2 6894   1.370   3.778   0.741
 1999SOL     OW 6895   0.268   0.498   4.814
 1999SOL    HW1 6896   0.284   0.597   4.807
 1999SOL    HW2 6897   0.256   0.474   4.910
 2000SOL     OW 6898   3.954   3.839   6.056
 2000SOL    HW1 6899   3.919   3.757   6.011
 2000SOL    HW2 6900   4.030   3.877   6.003
 2001SOL     OW 6901   1.151   2.049   0.283
 2001SOL    HW1 6902   1.156   1.964   0.336
 2001SOL    HW2 6903   1.208   2.040   0.201
 2002SOL     OW 6904   0.940   5.659   0.849
 2002SOL    HW1 6905   0.999   5.734   0.820
 2002SOL    HW2 6906   0.888   5.626   0.771
 2003SOL     OW 6907   6.668   5.209   1.900
 2003SOL    HW1 6908   6.678   5.275   1.974
 2003SOL    HW2 6909   6.725   5.129   1.918
 2004SOL     OW 6910   4.519   1.132   4.270
 2004SOL    HW1 6911   4.487   1.038   4.271
 2004SOL    HW2 6912   4.617   1.135   4.290
 2005SOL     OW 6913   6.855   5.286   6.863
 2005SOL    HW1 6914   6.815   5.374   6.836
 2005SOL    HW2 6915   6.939   5.303   6.914
 2006SOL     OW 6916   5.379   0.009   4.189
 2006SOL    HW1 6917   5.309   0.041   4.124
 2006SOL    HW2 6918   5.410   6.943   4.162
 2007SOL     OW 6919   5.494   4.045   1.170
 2007SOL    HW1 6920   5.541   3.961   1.142
 2007SOL    HW2 6921   5.551   4.095   1.235
 2008SOL     OW 6922   2.149   3.158   3.987
 2008SOL    HW1 6923   2.186   3.076   4.031
 2008SOL    HW2 6924   2.125   3.225   4.058
 2009SOL     OW 6925   5.294   6.268   1.810
 2009SOL    HW1 6926   5.314   6.184   1.760
 2009SOL    HW2 6927   5.212   6.255   1.865
 2010SOL     OW 6928   1.685   1.739   1.841
 2010SOL    HW1 6929   1.689   1.773   1.747
 2010SOL    HW2 6930   1.657   1.813   1.902
 2011SOL     OW 6931   6.588   0.340   5.031
 2011SOL    HW1 6932   6.646   0.343   4.950
 2011SOL    HW2 6933   6.627   0.276   5.097
 2012SOL     OW 6934   1.447   3.856   2.144
 2012SOL    HW1 6935   1.369   3.797   2.164
 2012SOL    HW2 6936   1.463   3.858   2.045
 2013SOL     OW 6937   6.825   3.086   3.535
 2013SOL    HW1 6938   6.882   3.032   3.473
 2013SOL    HW2 6939   6.787   3.026   3.606
 2014SOL     OW 6940   2.984   0.522   2.856
 2014SOL    HW1 6941   3.034   0.589   2.911
 2014SOL    HW2 6942   3.004   0.430   2.889
 2015SOL     OW 6943   3.531   0.180   0.873
 2015SOL    HW1 6944   3.513   0.125   0.791
 2015SOL    HW2 6945   3.445   0.221   0.904
 2016SOL     OW 6946   1.335   5.630   5.750
 2016SOL    HW1 6947   1.376   5.626   5.841
 2016SOL    HW2 6948   1.364   5.714   5.704
 2017SOL     OW 6949   3.976   0.747   3.514
 2017SOL    HW1 6950   4.013   0.795   3.593
 2017SOL    HW2 6951   3.910   0.805   3.467
 2018SOL     OW 6952   6.979   2.567   3.994
 2018SOL    HW1 6953   6.905   2.618   3.951
 2018SOL    HW2 6954   6.948   2.474   4.016
 2019SOL     OW 6955   6.370   4.492   6.357
 2019SOL    HW1 6956   6.304   4.489   6.282
 2019SOL    HW2 6957   6.422   4.407   6.360
 2020SOL     OW 6958   1.182   6.304   6.457
 2020SOL    HW1 6959   1.152   6.396   6.482
 2020SOL    HW2 6960   1.247   6.270   6.525
 2021SOL     OW 6961   5.942   0.229   3.456
 2021SOL    HW1 6962   5.862   0.278   3.422
 2021SOL    HW2 6963   5.931   0.209   3.553
 2022SOL     OW 6964   1.643   4.641   4.524
 2022SOL    HW1 6965   1.605   4.557   4.563
 2022SOL    HW2 6966   1.733   4.622   4.487
 2023SOL     OW 6967   6.880   0.153   6.573
 2023SOL    HW1 6968   6.794   0.121   6.614
 2023SOL    HW2 6969   6.956   0.099   6.610
 2024SOL     OW 6970   0.061   5.882   3.726
 2024SOL    HW1 6971   6.997   5.915   3.757
 2024SOL    HW2 6972   0.129   5.953   3.738
 2025SOL     OW 6973   3.119   0.637   3.330
 2025SOL    HW1 6974   3.219   0.637   3.327
 2025SOL    HW2 6975   3.088   0.638   3.425
 2026SOL     OW 6976   6.472   1.801   6.842
 2026SOL    HW1 6977   6.416   1.812   6.760
 2026SOL    HW2 6978   6.558   1.852   6.830
 2027SOL     OW 6979   0.523   5.943   1.632
 2027SOL    HW1 6980   0.601   5.892   1.668
 2027SOL    HW2 6981   0.439   5.908   1.673
 2028SOL     OW 6982   3.648   5.551   2.715
 2028SOL    HW1 6983   3.644   5.649   2.735
 2028SOL    HW2 6984   3.610   5.534   2.624
 2029SOL     OW 6985   6.734   1.932   0.273
 2029SOL    HW1 6986   6.645   1.972   0.295
 2029SOL    HW2 6987   6.735   1.901   0.178
 2030SOL     OW 6988   3.409   6.818   2.647
 2030SOL    HW1 6989   3.418   6.720   2.664
 2030SOL    HW2 6990   3.496   6.863   2.668
 2031SOL     OW 6991   6.847   6.029   2.645
 2031SOL    HW1 6992   6.784   6.039   2.568
 2031SOL    HW2 6993   6.795   6.031   2.731
 2032SOL     OW 6994   3.214   1.386   0.805
 2032SOL    HW1 6995   3.234   1.466   0.749
 2032SOL    HW2 6996   3.245   1.304   0.757
 2033SOL     OW 6997   1.522   1.308   0.549
 2033SOL    HW1 6998   1.449   1.241   0.562
 2033SOL    HW2 6999   1.483   1.398   0.533
 2034SOL     OW 7000   1.586   5.396   5.495
 2034SOL    HW1 7001   1.494   5.407   5.457
 2034SOL    HW2 7002   1.580   5.384   5.594
 2035SOL     OW 7003   6.418   0.230   2.116
 2035SOL    HW1 7004   6.475   0.247   2.196
 2035SOL    HW2 7005   6.447   0.145   2.072
 2036SOL     OW 7006   1.440   3.300   3.169
 2036SOL    HW1 7007   1.529   3.317   3.127
 2036SOL    HW2 7008   1.377   3.266   3.099
 2037SOL     OW 7009   6.959   2.605   6.200
 2037SOL    HW1 7010   6.913   2.526   6.240
 2037SOL    HW2 7011   6.961   2.595   6.100
 2038SOL     OW 7012   2.888   1.236   0.062
 2038SOL    HW1 7013   2.825   1.242   7.010
 2038SOL    HW2 7014   2.952   1.313   0.059
 2039SOL     OW 7015   6.992   5.659   2.364
 2039SOL    HW1 7016   7.022   5.566   2.385
 2039SOL    HW2 7017   0.029   5.725   2.406
 2040SOL     OW 7018   1.924   2.340   6.763
 2040SOL    HW1 7019   1.892   2.311   6.673
 2040SOL    HW2 7020   1.845   2.353   6.824
 2041SOL     OW 7021   1.740   6.855   5.419
 2041SOL    HW1 7022   1.685   6.890   5.494
 2041SOL    HW2 7023   1.772   6.931   5.362
 2042SOL     OW 7024   4.866   6.907   6.066
 2042SOL    HW1 7025   4.875   6.808   6.058
 2042SOL    HW2 7026   4.845   6.945   5.976
 2043SOL     OW 7027   6.366   2.094   2.058
 2043SOL    HW1 7028   6.395   2.188   2.073
 2043SOL    HW2 7029   6.443   2.032   2.076
 2044SOL     OW 7030   5.798   0.929   1.776
 2044SOL    HW1 7031   5.817   0.831   1.782
 2044SOL    HW2 7032   5.799   0.956   1.679
 2045SOL     OW 7033   1.853   6.038   5.248
 2045SOL    HW1 7034   1.833   5.976   5.172
 2045SOL    HW2 7035   1.804   6.124   5.234
 2046SOL     OW 7036   6.806   1.792   5.752
 2046SOL    HW1 7037   6.727   1.730   5.751
 2046SOL    HW2 7038   6.839   1.804   5.659
 2047SOL     OW 7039   6.316   2.072   1.121
 2047SOL    HW1 7040   6.269   2.071   1.032
 2047SOL    HW2 7041   6.413   2.052   1.107
 2048SOL     OW 7042   0.605   1.714   4.844
 2048SOL    HW1 7043   0.701   1.712   4.872
 2048SOL    HW2 7044   0.572   1.620   4.831
 2049SOL     OW 7045   4.823   1.222   4.917
 2049SOL    HW1 7046   4.770   1.242   4.834
 2049SOL    HW2 7047   4.792   1.280   4.992
 2050SOL     OW 7048   6.890   2.108   4.926
 2050SOL    HW1 7049   6.887   2.202   4.960
 2050SOL    HW2 7050   6.956   2.056   4.980
 2051SOL     OW 7051   2.076   6.065   0.166
 2051SOL    HW1 7052   2.071   6.137   0.097
 2051SOL    HW2 7053   2.142   6.090   0.237
 2052SOL     OW 7054   1.374   3.209   0.863
 2052SOL    HW1 7055   1.471   3.223   0.879
 2052SOL    HW2 7056   1.349   3.248   0.774
 2053SOL     OW 7057   0.422   5.434   4.292
 2053SOL    HW1 7058   0.498   5.406   4.234
 2053SOL    HW2 7059   0.443   5.522   4.335
 2054SOL     OW 7060   3.483   2.996   2.588
 2054SOL    HW1 7061   3.428   3.009   2.670
 2054SOL    HW2 7062   3.449   2.918   2.537
 2055SOL     OW 7063   6.778   2.884   5.037
 2055SOL    HW1 7064   6.854   2.948   5.039
 2055SOL    HW2 7065   6.771   2.843   4.946
 2056SOL     OW 7066   4.693   4.556   1.274
 2056SOL    HW1 7067   4.691   4.456   1.269
 2056SOL    HW2 7068   4.616   4.594   1.223
 2057SOL     OW 7069   5.268   3.085   4.377
 2057SOL    HW1 7070   5.255   3.033   4.461
 2057SOL    HW2 7071   5.357   3.130   4.379
 2058SOL     OW 7072   0.448   6.525   2.659
 2058SOL    HW1 7073   0.429   6.522   2.757
 2058SOL    HW2 7074   0.533   6.476   2.640
 2059SOL     OW 7075   2.694   0.683   5.228
 2059SOL    HW1 7076   2.620   0.637   5.278
 2059SOL    HW2 7077   2.732   0.620   5.161
 2060SOL     OW 7078   0.853   3.533   0.387
 2060SOL    HW1 7079   0.856   3.593   0.307
 2060SOL    HW2 7080   0.814   3.445   0.362
 2061SOL     OW 7081   2.319   2.782   2.309
 2061SOL    HW1 7082   2.330   2.852   2.380
 2061SOL    HW2 7083   2.398   2.721   2.310
 2062SOL     OW 7084   6.588   4.998   5.423
 2062SOL    HW1 7085   6.593   4.985   5.522
 2062SOL    HW2 7086   6.596   5.095   5.401
 2063SOL     OW 7087   1.565   6.503   5.122
 2063SOL    HW1 7088   1.504   6.475   5.047
 2063SOL    HW2 7089   1.614   6.586   5.095
 2064SOL     OW 7090   1.345   3.920   4.246
 2064SOL    HW1 7091   1.306   3.981   4.177
 2064SOL    HW2 7092   1.303   3.829   4.236
 2065SOL     OW 7093   5.438   2.957   5.647
 2065SOL    HW1 7094   5.523   2.906   5.657
 2065SOL    HW2 7095   5.362   2.894   5.635
 2066SOL     OW 7096   6.244   3.838   5.729
 2066SOL    HW1 7097   6.307   3.901   5.683
 2066SOL    HW2 7098   6.284   3.811   5.817
 2067SOL     OW 7099   6.199   4.559   2.117
 2067SOL    HW1 7100   6.133   4.626   2.084
 2067SOL    HW2 7101   6.180   4.469   2.077
 2068SOL     OW 7102   3.552   1.267   3.785
 2068SOL    HW1 7103   3.496   1.330   3.730
 2068SOL    HW2 7104   3.615   1.320   3.842
 2069SOL     OW 7105   0.116   2.093   4.253
 2069SOL    HW1 7106   0.176   2.136   4.186
 2069SOL    HW2 7107   0.165   2.019   4.300
 2070SOL     OW 7108   1.533   3.154   1.123
 2070SOL    HW1 7109   1.518   3.057   1.104
 2070SOL    HW2 7110   1.621   3.182   1.086
 2071SOL     OW 7111   6.379   1.532   6.252
 2071SOL    HW1 7112   6.344   1.521   6.159
 2071SOL    HW2 7113   6.342   1.460   6.311
 2072SOL     OW 7114   3.925   4.830   5.591
 2072SOL    HW1 7115   3.923   4.795   5.497
 2072SOL    HW2 7116   3.902   4.757   5.654
 2073SOL     OW 7117   3.838   5.731   6.229
 2073SOL    HW1 7118   3.871   5.821   6.258
 2073SOL    HW2 7119   3.740   5.738   6.206
 2074SOL     OW 7120   1.648   3.122   6.000
 2074SOL    HW1 7121   1.712   3.198   5.988
 2074SOL    HW2 7122   1.658   3.057   5.924
 2075SOL     OW 7123   6.531   2.338   2.453
 2075SOL    HW1 7124   6.491   2.423   2.486
 2075SOL    HW2 7125   6.602   2.358   2.385
 2076SOL     OW 7126   6.317   6.937   4.906
 2076SOL    HW1 7127   6.375   6.916   4.985
 2076SOL    HW2 7128   6.372   6.981   4.835
 2077SOL     OW 7129   6.796   2.354   1.759
 2077SOL    HW1 7130   6.737   2.285   1.719
 2077SOL    HW2 7131   6.796   2.344   1.859
 2078SOL     OW 7132   1.766   5.003   5.978
 2078SOL    HW1 7133   1.828   5.025   6.053
 2078SOL    HW2 7134   1.789   5.057   5.898
 2079SOL     OW 7135   5.075   0.736   2.288
 2079SOL    HW1 7136   5.145   0.734   2.217
 2079SOL    HW2 7137   5.048   0.831   2.305
 2080SOL     OW 7138   3.047   2.150   4.598
 2080SOL    HW1 7139   3.130   2.161   4.653
 2080SOL    HW2 7140   3.070   2.155   4.501
 2081SOL     OW 7141   0.436   6.515   3.507
 2081SOL    HW1 7142   0.426   6.561   3.595
 2081SOL    HW2 7143   0.432   6.582   3.433
 2082SOL     OW 7144   0.688   6.418   2.590
 2082SOL    HW1 7145   0.682   6.323   2.558
 2082SOL    HW2 7146   0.734   6.473   2.520
 2083SOL     OW 7147   0.593   6.091   3.354
 2083SOL    HW1 7148   0.518   6.027   3.368
 2083SOL    HW2 7149   0.674   6.041   3.324
 2084SOL     OW 7150   1.250   2.166   1.346
 2084SOL    HW1 7151   1.159   2.188   1.381
 2084SOL    HW2 7152   1.244   2.146   1.248
 2085SOL     OW 7153   4.757   5.478   0.596
 2085SOL    HW1 7154   4.792   5.476   0.690
 2085SOL    HW2 7155   4.818   5.425   0.537
 2086SOL     OW 7156   3.449   6.599   0.010
 2086SOL    HW1 7157   3.522   6.645   6.984
 2086SOL    HW2 7158   3.489   6.527   0.067
 2087SOL     OW 7159   4.317   2.121   6.964
 2087SOL    HW1 7160   4.340   2.175   6.883
 2087SOL    HW2 7161   4.238   2.063   6.944
 2088SOL     OW 7162   0.999   5.861   6.213
 2088SOL    HW1 7163   1.021   5.954   6.240
 2088SOL    HW2 7164   1.011   5.851   6.114
 2089SOL     OW 7165   3.934   2.627   5.394
 2089SOL    HW1 7166   3.997   2.591   5.325
 2089SOL    HW2 7167   3.894   2.712   5.361
 2090SOL     OW 7168   4.576   3.219   5.645
 2090SOL    HW1 7169   4.481   3.228   5.675
 2090SOL    HW2 7170   4.579   3.195   5.548
 2091SOL     OW 7171   6.783   5.900   1.674
 2091SOL    HW1 7172   6.799   5.972   1.605
 2091SOL    HW2 7173   6.826   5.927   1.760
 2092SOL     OW 7174   4.948   3.941   1.024
 2092SOL    HW1 7175   4.925   4.012   1.092
 2092SOL    HW2 7176   5.018   3.881   1.061
 2093SOL     OW 7177   3.961   2.198   2.177
 2093SOL    HW1 7178   3.868   2.236   2.174
 2093SOL    HW2 7179   3.957   2.103   2.207
 2094SOL     OW 7180   5.760   2.480   0.349
 2094SOL    HW1 7181   5.730   2.556   0.291
 2094SOL    HW2 7182   5.829   2.513   0.413
 2095SOL     OW 7183   5.659   6.260   3.523
 2095SOL    HW1 7184   5.575   6.310   3.503
 2095SOL    HW2 7185   5.738   6.315   3.495
 2096SOL     OW 7186   4.526   6.342   2.728
 2096SOL    HW1 7187   4.442   6.334   2.783
 2096SOL    HW2 7188   4.567   6.432   2.743
 2097SOL     OW 7189   2.597   4.315   6.569
 2097SOL    HW1 7190   2.677   4.356   6.613
 2097SOL    HW2 7191   2.620   4.287   6.476
 2098SOL     OW 7192   3.856   5.995   3.358
 2098SOL    HW1 7193   3.756   5.996   3.360
 2098SOL    HW2 7194   3.891   6.087   3.372
 2099SOL     OW 7195   4.108   1.482   0.088
 2099SOL    HW1 7196   4.092   1.391   0.050
 2099SOL    HW2 7197   4.020   1.520   0.117
 2100SOL     OW 7198   5.309   1.260   0.563
 2100SOL    HW1 7199   5.287   1.349   0.602
 2100SOL    HW2 7200   5.254   1.246   0.480
 2101SOL     OW 7201   0.298   6.086   0.800
 2101SOL    HW1 7202   0.369   6.124   0.859
 2101SOL    HW2 7203   0.295   6.137   0.714
 2102SOL     OW 7204   4.109   2.888   1.719
 2102SOL    HW1 7205   4.090   2.941   1.801
 2102SOL    HW2 7206   4.032   2.896   1.655
 2103SOL     OW 7207   3.176   4.502   0.501
 2103SOL    HW1 7208   3.156   4.599   0.506
 2103SOL    HW2 7209   3.210   4.470   0.589
 2104SOL     OW 7210   1.906   4.667   2.690
 2104SOL    HW1 7211   1.899   4.698   2.784
 2104SOL    HW2 7212   1.931   4.744   2.631
 2105SOL     OW 7213   4.931   4.522   0.521
 2105SOL    HW1 7214   4.841   4.558   0.545
 2105SOL    HW2 7215   4.922   4.428   0.488
 2106SOL     OW 7216   5.386   3.476   1.319
 2106SOL    HW1 7217   5.327   3.471   1.400
 2106SOL    HW2 7218   5.457   3.406   1.325
 2107SOL     OW 7219   5.211   3.595   6.267
 2107SOL    HW1 7220   5.277   3.666   6.243
 2107SOL    HW2 7221   5.144   3.585   6.193
 2108SOL     OW 7222   5.778   6.459   5.995
 2108SOL    HW1 7223   5.876   6.443   6.000
 2108SOL    HW2 7224   5.745   6.435   5.904
 2109SOL     OW 7225   3.242   5.070   2.238
 2109SOL    HW1 7226   3.202   5.001   2.298
 2109SOL    HW2 7227   3.191   5.155   2.246
 2110SOL     OW 7228   4.006   0.672   6.680
 2110SOL    HW1 7229   4.024   0.619   6.597
 2110SOL    HW2 7230   4.080   0.738   6.692
 2111SOL     OW 7231   1.090   2.722   5.925
 2111SOL    HW1 7232   1.076   2.815   5.959
 2111SOL    HW2 7233   1.075   2.657   5.999
 2112SOL     OW 7234   5.791   1.283   6.800
 2112SOL    HW1 7235   5.775   1.280   6.899
 2112SOL    HW2 7236   5.826   1.373   6.775
 2113SOL     OW 7237   2.191   6.482   4.065
 2113SOL    HW1 7238   2.219   6.460   3.972
 2113SOL    HW2 7239   2.103   6.530   4.064
 2114SOL     OW 7240   2.387   3.030   0.307
 2114SOL    HW1 7241   2.423   2.939   0.324
 2114SOL    HW2 7242   2.413   3.091   0.381
 2115SOL     OW 7243   0.918   4.278   2.632
 2115SOL    HW1 7244   0.987   4.339   2.669
 2115SOL    HW2 7245   0.847   4.261   2.701
 2116SOL     OW 7246   0.948   2.611   0.522
 2116SOL    HW1 7247   0.856   2.602   0.560
 2116SOL    HW2 7248   0.944   2.661   0.436
 2117SOL     OW 7249   5.689   2.582   2.024
 2117SOL    HW1 7250   5.649   2.492   2.038
 2117SOL    HW2 7251   5.646   2.648   2.086
 2118SOL     OW 7252   6.794   3.698   2.727
 2118SOL    HW1 7253   6.819   3.660   2.638
 2118SOL    HW2 7254   6.759   3.624   2.785
 2119SOL     OW 7255   2.072   0.558   6.578
 2119SOL    HW1 7256   2.089   0.514   6.490
 2119SOL    HW2 7257   2.157   0.599   6.612
 2120SOL     OW 7258   6.684   2.157   2.643
 2120SOL    HW1 7259   6.636   2.238   2.609
 2120SOL    HW2 7260   6.617   2.090   2.674
 2121SOL     OW 7261   1.929   1.167   5.769
 2121SOL    HW1 7262   1.856   1.141   5.706
 2121SOL    HW2 7263   1.924   1.110   5.851
 2122SOL     OW 7264   5.517   6.919   5.725
 2122SOL    HW1 7265   5.499   7.015   5.746
 2122SOL    HW2 7266   5.455   6.888   5.653
 2123SOL     OW 7267   0.256   6.377   2.491
 2123SOL    HW1 7268   0.334   6.408   2.546
 2123SOL    HW2 7269   0.243   6.439   2.414
 2124SOL     OW 7270   3.364   2.926   5.901
 2124SOL    HW1 7271   3.343   2.920   5.803
 2124SOL    HW2 7272   3.418   2.847   5.929
 2125SOL     OW 7273   1.539   6.046   3.358
 2125SOL    HW1 7274   1.472   5.973   3.369
 2125SOL    HW2 7275   1.590   6.058   3.444
 2126SOL     OW 7276   3.854   3.294   0.686
 2126SOL    HW1 7277   3.806   3.299   0.599
 2126SOL    HW2 7278   3.851   3.200   0.721
 2127SOL     OW 7279   0.074   2.741   5.899
 2127SOL    HW1 7280   0.099   2.836   5.919
 2127SOL    HW2 7281   0.148   2.681   5.930
 2128SOL     OW 7282   5.927   3.877   0.961
 2128SOL    HW1 7283   5.902   3.852   0.868
 2128SOL    HW2 7284   5.871   3.956   0.990
 2129SOL     OW 7285   5.244   4.095   3.928
 2129SOL    HW1 7286   5.288   4.012   3.892
 2129SOL    HW2 7287   5.256   4.098   4.027
 2130SOL     OW 7288   2.568   1.394   1.438
 2130SOL    HW1 7289   2.604   1.316   1.489
 2130SOL    HW2 7290   2.643   1.445   1.397
 2131SOL     OW 7291   5.599   1.714   5.854
 2131SOL    HW1 7292   5.552   1.629   5.830
 2131SOL    HW2 7293   5.562   1.750   5.939
 2132SOL     OW 7294   2.806   1.560   6.528
 2132SOL    HW1 7295   2.791   1.657   6.548
 2132SOL    HW2 7296   2.798   1.544   6.430
 2133SOL     OW 7297   2.482   1.642   1.606
 2133SOL    HW1 7298   2.521   1.554   1.581
 2133SOL    HW2 7299   2.539   1.716   1.571
 2134SOL     OW 7300   0.424   0.020   4.140
 2134SOL    HW1 7301   0.447   0.018   4.237
 2134SOL    HW2 7302   0.369   0.101   4.121
 2135SOL     OW 7303   0.829   1.587   3.673
 2135SOL    HW1 7304   0.786   1.651   3.609
 2135SOL    HW2 7305   0.927   1.582   3.655
 2136SOL     OW 7306   1.090   3.433   5.009
 2136SOL    HW1 7307   1.141   3.357   4.969
 2136SOL    HW2 7308   0.992   3.419   4.994
 2137SOL     OW 7309   0.976   6.350   5.256
 2137SOL    HW1 7310   0.883   6.315   5.248
 2137SOL    HW2 7311   0.975   6.432   5.315
 2138SOL     OW 7312   0.175   2.361   1.296
 2138SOL    HW1 7313   0.118   2.326   1.222
 2138SOL    HW2 7314   0.224   2.443   1.265
 2139SOL     OW 7315   2.708   0.819   3.883
 2139SOL    HW1 7316   2.632   0.790   3.825
 2139SOL    HW2 7317   2.688   0.910   3.921
 2140SOL     OW 7318   2.512   6.489   2.858
 2140SOL    HW1 7319   2.564   6.477   2.774
 2140SOL    HW2 7320   2.573   6.515   2.933
 2141SOL     OW 7321   6.759   2.687   1.263
 2141SOL    HW1 7322   6.812   2.670   1.346
 2141SOL    HW2 7323   6.662   2.669   1.280
 2142SOL     OW 7324   1.669   1.869   3.288
 2142SOL    HW1 7325   1.683   1.873   3.387
 2142SOL    HW2 7326   1.701   1.955   3.247
 2143SOL     OW 7327   4.156   6.409   1.448
 2143SOL    HW1 7328   4.211   6.434   1.368
 2143SOL    HW2 7329   4.151   6.486   1.511
 2144SOL     OW 7330   1.296   0.691   2.915
 2144SOL    HW1 7331   1.315   0.682   2.817
 2144SOL    HW2 7332   1.370   0.741   2.959
 2145SOL     OW 7333   3.233   5.783   3.694
 2145SOL    HW1 7334   3.308   5.834   3.651
 2145SOL    HW2 7335   3.268   5.731   3.772
 2146SOL     OW 7336   3.246   3.892   1.871
 2146SOL    HW1 7337   3.205   3.981   1.892
 2146SOL    HW2 7338   3.192   3.819   1.914
 2147SOL     OW 7339   0.434   1.748   0.145
 2147SOL    HW1 7340   0.345   1.720   0.111
 2147SOL    HW2 7341   0.436   1.740   0.245
 2148SOL     OW 7342   4.907   3.818   3.690
 2148SOL    HW1 7343   4.869   3.864   3.609
 2148SOL    HW2 7344   4.921   3.721   3.669
 2149SOL     OW 7345   4.299   0.386   1.530
 2149SOL    HW1 7346   4.268   0.373   1.624
 2149SOL    HW2 7347   4.322   0.482   1.516
 2150SOL     OW 7348   3.942   2.147   2.670
 2150SOL    HW1 7349   3.910   2.113   2.581
 2150SOL    HW2 7350   3.865   2.153   2.733
 2151SOL     OW 7351   3.231   2.689   5.646
 2151SOL    HW1 7352   3.226   2.611   5.584
 2151SOL    HW2 7353   3.155   2.685   5.712
 2152SOL     OW 7354   5.949   6.714   2.095
 2152SOL    HW1 7355   5.892   6.669   2.164
 2152SOL    HW2 7356   5.900   6.717   2.008
 2153SOL     OW 7357   4.821   1.521   3.814
 2153SOL    HW1 7358   4.921   1.518   3.810
 2153SOL    HW2 7359   4.791   1.515   3.910
 2154SOL     OW 7360   2.713   5.422   4.754
 2154SOL    HW1 7361   2.762   5.497   4.710
 2154SOL    HW2 7362   2.771   5.379   4.823
 2155SOL     OW 7363   2.092   5.009   0.568
 2155SOL    HW1 7364   2.074   4.953   0.487
 2155SOL    HW2 7365   2.005   5.043   0.605
 2156SOL     OW 7366   1.804   0.190   1.064
 2156SOL    HW1 7367   1.790   0.214   0.968
 2156SOL    HW2 7368   1.899   0.160   1.078
 2157SOL     OW 7369   0.025   1.500   5.166
 2157SOL    HW1 7370   7.016   1.406   5.160
 2157SOL    HW2 7371   6.979   1.560   5.202
 2158SOL     OW 7372   3.697   6.864   0.746
 2158SOL    HW1 7373   3.767   6.917   0.699
 2158SOL    HW2 7374   3.710   6.871   0.845
 2159SOL     OW 7375   1.420   7.006   4.529
 2159SOL    HW1 7376   1.368   0.043   4.588
 2159SOL    HW2 7377   1.480   6.949   4.585
 2160SOL     OW 7378   3.942   4.100   1.161
 2160SOL    HW1 7379   3.974   4.159   1.235
 2160SOL    HW2 7380   3.869   4.041   1.195
 2161SOL     OW 7381   4.927   3.578   3.158
 2161SOL    HW1 7382   4.890   3.506   3.216
 2161SOL    HW2 7383   5.026   3.564   3.146
 2162SOL     OW 7384   1.935   0.732   6.429
 2162SOL    HW1 7385   1.892   0.784   6.502
 2162SOL    HW2 7386   2.005   0.671   6.467
 2163SOL     OW 7387   1.674   6.898   0.205
 2163SOL    HW1 7388   1.611   6.823   0.185
 2163SOL    HW2 7389   1.669   6.966   0.132
 2164SOL     OW 7390   2.021   0.916   6.271
 2164SOL    HW1 7391   2.104   0.905   6.216
 2164SOL    HW2 7392   2.014   0.841   6.336
 2165SOL     OW 7393   1.517   0.954   2.726
 2165SOL    HW1 7394   1.455   0.930   2.652
 2165SOL    HW2 7395   1.607   0.913   2.709
 2166SOL     OW 7396   1.178   1.963   5.737
 2166SOL    HW1 7397   1.164   2.018   5.655
 2166SOL    HW2 7398   1.272   1.930   5.739
 2167SOL     OW 7399   2.562   0.885   2.198
 2167SOL    HW1 7400   2.538   0.837   2.282
 2167SOL    HW2 7401   2.505   0.850   2.123
 2168SOL     OW 7402   5.956   3.430   4.870
 2168SOL    HW1 7403   6.018   3.374   4.926
 2168SOL    HW2 7404   6.009   3.499   4.821
 2169SOL     OW 7405   5.590   2.868   5.974
 2169SOL    HW1 7406   5.499   2.841   6.006
 2169SOL    HW2 7407   5.598   2.849   5.876
 2170SOL     OW 7408   5.402   4.681   5.215
 2170SOL    HW1 7409   5.353   4.767   5.199
 2170SOL    HW2 7410   5.339   4.604   5.203
 2171SOL     OW 7411   6.575   2.745   0.072
 2171SOL    HW1 7412   6.603   2.791   7.013
 2171SOL    HW2 7413   6.592   2.805   0.150
 2172SOL     OW 7414   2.910   1.008   0.244
 2172SOL    HW1 7415   2.942   1.066   0.168
 2172SOL    HW2 7416   2.869   1.066   0.315
 2173SOL     OW 7417   4.113   0.178   5.709
 2173SOL    HW1 7418   4.055   0.193   5.789
 2173SOL    HW2 7419   4.081   0.098   5.659
 2174SOL     OW 7420   6.611   4.330   5.143
 2174SOL    HW1 7421   6.679   4.262   5.171
 2174SOL    HW2 7422   6.540   4.337   5.213
 2175SOL     OW 7423   3.044   0.236   2.930
 2175SOL    HW1 7424   3.059   0.162   2.864
 2175SOL    HW2 7425   3.107   0.225   3.007
 2176SOL     OW 7426   2.171   2.498   1.816
 2176SOL    HW1 7427   2.081   2.530   1.787
 2176SOL    HW2 7428   2.166   2.400   1.837
 2177SOL     OW 7429   6.491   1.565   1.359
 2177SOL    HW1 7430   6.415   1.513   1.320
 2177SOL    HW2 7431   6.503   1.650   1.307
 2178SOL     OW 7432   1.233   5.030   6.946
 2178SOL    HW1 7433   1.260   5.046   0.016
 2178SOL    HW2 7434   1.148   5.078   6.927
 2179SOL     OW 7435   0.907   5.819   3.988
 2179SOL    HW1 7436   0.886   5.803   4.085
 2179SOL    HW2 7437   0.959   5.904   3.979
 2180SOL     OW 7438   3.243   4.096   2.906
 2180SOL    HW1 7439   3.314   4.090   2.835
 2180SOL    HW2 7440   3.173   4.026   2.889
 2181SOL     OW 7441   4.899   5.447   5.885
 2181SOL    HW1 7442   4.924   5.384   5.812
 2181SOL    HW2 7443   4.867   5.396   5.965
 2182SOL     OW 7444   6.896   3.379   6.790
 2182SOL    HW1 7445   6.945   3.456   6.831
 2182SOL    HW2 7446   6.809   3.366   6.837
 2183SOL     OW 7447   3.117   2.988   0.821
 2183SOL    HW1 7448   3.118   2.889   0.838
 2183SOL    HW2 7449   3.155   3.006   0.731
 2184SOL     OW 7450   3.775   1.320   6.619
 2184SOL    HW1 7451   3.829   1.256   6.673
 2184SOL    HW2 7452   3.723   1.270   6.550
 2185SOL     OW 7453   1.590   0.717   0.597
 2185SOL    HW1 7454   1.612   0.633   0.648
 2185SOL    HW2 7455   1.673   0.749   0.550
 2186SOL     OW 7456   6.867   4.610   2.686
 2186SOL    HW1 7457   6.907   4.633   2.775
 2186SOL    HW2 7458   6.768   4.603   2.694
 2187SOL     OW 7459   6.252   1.272   1.348
 2187SOL    HW1 7460   6.296   1.182   1.345
 2187SOL    HW2 7461   6.194   1.278   1.430
 2188SOL     OW 7462   5.072   6.497   3.911
 2188SOL    HW1 7463   5.038   6.530   3.999
 2188SOL    HW2 7464   4.998   6.452   3.861
 2189SOL     OW 7465   1.802   0.061   5.697
 2189SOL    HW1 7466   1.726   0.006   5.663
 2189SOL    HW2 7467   1.817   0.042   5.794
 2190SOL     OW 7468   6.512   2.713   1.989
 2190SOL    HW1 7469   6.496   2.810   1.973
 2190SOL    HW2 7470   6.492   2.662   1.905
 2191SOL     OW 7471   3.477   2.658   6.714
 2191SOL    HW1 7472   3.439   2.750   6.705
 2191SOL    HW2 7473   3.401   2.592   6.716
 2192SOL     OW 7474   4.133   6.282   5.284
 2192SOL    HW1 7475   4.055   6.238   5.330
 2192SOL    HW2 7476   4.105   6.313   5.193
 2193SOL     OW 7477   1.058   5.464   5.293
 2193SOL    HW1 7478   1.016   5.429   5.376
 2193SOL    HW2 7479   1.033   5.560   5.280
 2194SOL     OW 7480   2.251   6.142   0.428
 2194SOL    HW1 7481   2.274   6.046   0.446
 2194SOL    HW2 7482   2.256   6.194   0.514
 2195SOL     OW 7483   0.918   5.685   2.547
 2195SOL    HW1 7484   0.849   5.744   2.590
 2195SOL    HW2 7485   1.007   5.729   2.554
 2196SOL     OW 7486   3.453   1.136   5.684
 2196SOL    HW1 7487   3.537   1.185   5.663
 2196SOL    HW2 7488   3.470   1.069   5.756
 2197SOL     OW 7489   5.082   4.367   1.580
 2197SOL    HW1 7490   5.115   4.347   1.488
 2197SOL    HW2 7491   4.985   4.344   1.587
 2198SOL     OW 7492   6.842   4.285   0.086
 2198SOL    HW1 7493   6.744   4.290   0.069
 2198SOL    HW2 7494   6.872   4.366   0.137
 2199SOL     OW 7495   4.741   6.774   0.400
 2199SOL    HW1 7496   4.823   6.830   0.391
 2199SOL    HW2 7497   4.732   6.742   0.494
 2200SOL     OW 7498   4.168   0.668   4.564
 2200SOL    HW1 7499   4.209   0.729   4.631
 2200SOL    HW2 7500   4.098   0.717   4.512
 2201SOL     OW 7501   6.204   3.172   2.216
 2201SOL    HW1 7502   6.124   3.233   2.217
 2201SOL    HW2 7503   6.173   3.078   2.205
 2202SOL     OW 7504   3.906   4.856   4.166
 2202SOL    HW1 7505   3.913   4.956   4.172
 2202SOL    HW2 7506   3.810   4.830   4.157
 2203SOL     OW 7507   3.556   2.014   3.603
 2203SOL    HW1 7508   3.569   2.054   3.512
 2203SOL    HW2 7509   3.620   2.058   3.667
 2204SOL     OW 7510   3.109   1.779   0.114
 2204SOL    HW1 7511   3.151   1.847   0.173
 2204SOL    HW2 7512   3.178   1.742   0.052
 2205SOL     OW 7513   1.718   0.032   0.000
 2205SOL    HW1 7514   1.722   6.985   6.956
 2205SOL    HW2 7515   1.797   0.092   7.016
 2206SOL     OW 7516   3.381   3.620   6.606
 2206SOL    HW1 7517   3.340   3.588   6.520
 2206SOL    HW2 7518   3.424   3.709   6.591
 2207SOL     OW 7519   1.527   4.425   6.002
 2207SOL    HW1 7520   1.456   4.453   6.067
 2207SOL    HW2 7521   1.599   4.495   5.999
 2208SOL     OW 7522   0.121   3.380   1.844
 2208SOL    HW1 7523   0.164   3.337   1.765
 2208SOL    HW2 7524   0.170   3.352   1.927
 2209SOL     OW 7525   1.749   5.310   6.541
 2209SOL    HW1 7526   1.761   5.345   6.634
 2209SOL    HW2 7527   1.697   5.225   6.543
 2210SOL     OW 7528   0.871   5.639   3.483
 2210SOL    HW1 7529   0.791   5.682   3.523
 2210SOL    HW2 7530   0.847   5.548   3.448
 2211SOL     OW 7531   6.264   1.096   5.287
 2211SOL    HW1 7532   6.196   1.042   5.237
 2211SOL    HW2 7533   6.331   1.035   5.328
 2212SOL     OW 7534   1.046   6.945   6.110
 2212SOL    HW1 7535   0.975   6.949   6.181
 2212SOL    HW2 7536   1.075   0.012   6.087
 2213SOL     OW 7537   4.204   2.071   3.652
 2213SOL    HW1 7538   4.237   2.007   3.583
 2213SOL    HW2 7539   4.177   2.156   3.608
 2214SOL     OW 7540   5.381   0.421   4.614
 2214SOL    HW1 7541   5.379   0.373   4.525
 2214SOL    HW2 7542   5.471   0.411   4.655
 2215SOL     OW 7543   6.907   1.873   5.500
 2215SOL    HW1 7544   6.907   1.815   5.418
 2215SOL    HW2 7545   6.992   1.926   5.502
 2216SOL     OW 7546   1.101   6.452   0.852
 2216SOL    HW1 7547   1.156   6.406   0.922
 2216SOL    HW2 7548   1.119   6.411   0.763
 2217SOL     OW 7549   4.299   0.103   1.351
 2217SOL    HW1 7550   4.217   0.158   1.369
 2217SOL    HW2 7551   4.310   0.035   1.422
 2218SOL     OW 7552   1.397   5.570   6.450
 2218SOL    HW1 7553   1.460   5.605   6.520
 2218SOL    HW2 7554   1.414   5.473   6.436
 2219SOL     OW 7555   1.110   3.849   3.366
 2219SOL    HW1 7556   1.079   3.776   3.427
 2219SOL    HW2 7557   1.046   3.859   3.290
 2220SOL     OW 7558   0.526   2.214   5.226
 2220SOL    HW1 7559   0.458   2.252   5.164
 2220SOL    HW2 7560   0.549   2.121   5.198
 2221SOL     OW 7561   6.802   1.881   1.530
 2221SOL    HW1 7562   6.875   1.928   1.479
 2221SOL    HW2 7563   6.806   1.907   1.626
 2222SOL     OW 7564   4.718   6.948   2.278
 2222SOL    HW1 7565   4.780   6.892   2.223
 2222SOL    HW2 7566   4.746   0.018   2.274
 2223SOL     OW 7567   5.802   5.502   4.150
 2223SOL    HW1 7568   5.848   5.434   4.093
 2223SOL    HW2 7569   5.856   5.586   4.150
 2224SOL     OW 7570   1.839   5.102   1.893
 2224SOL    HW1 7571   1.876   5.010   1.910
 2224SOL    HW2 7572   1.748   5.094   1.853
 2225SOL     OW 7573   6.450   4.748   2.310
 2225SOL    HW1 7574   6.372   4.698   2.348
 2225SOL    HW2 7575   6.483   4.700   2.228
 2226SOL     OW 7576   3.875   2.604   1.220
 2226SOL    HW1 7577   3.796   2.615   1.159
 2226SOL    HW2 7578   3.919   2.693   1.234
 2227SOL     OW 7579   6.446   3.935   6.137
 2227SOL    HW1 7580   6.536   3.979   6.142
 2227SOL    HW2 7581   6.413   3.916   6.229
 2228SOL     OW 7582   2.869   4.768   6.411
 2228SOL    HW1 7583   2.801   4.713   6.362
 2228SOL    HW2 7584   2.960   4.732   6.393
 2229SOL     OW 7585   4.500   1.448   3.502
 2229SOL    HW1 7586   4.453   1.501   3.432
 2229SOL    HW2 7587   4.596   1.438   3.478
 2230SOL     OW 7588   0.735   5.817   5.184
 2230SOL    HW1 7589   0.783   5.731   5.163
 2230SOL    HW2 7590   0.803   5.889   5.200
 2231SOL     OW 7591   2.220   0.598   1.752
 2231SOL    HW1 7592   2.139   0.621   1.698
 2231SOL    HW2 7593   2.239   0.672   1.817
 2232SOL     OW 7594   0.009   3.069   2.420
 2232SOL    HW1 7595   6.961   3.134   2.438
 2232SOL    HW2 7596   7.004   2.977   2.440
 2233SOL     OW 7597   3.728   6.258   0.432
 2233SOL    HW1 7598   3.747   6.173   0.483
 2233SOL    HW2 7599   3.799   6.325   0.452
 2234SOL     OW 7600   3.360   1.196   0.626
 2234SOL    HW1 7601   3.431   1.245   0.575
 2234SOL    HW2 7602   3.306   1.141   0.562
 2235SOL     OW 7603   1.423   6.968   0.514
 2235SOL    HW1 7604   1.471   6.880   0.515
 2235SOL    HW2 7605   1.331   6.954   0.477
 2236SOL     OW 7606   0.637   4.437   1.152
 2236SOL    HW1 7607   0.658   4.534   1.137
 2236SOL    HW2 7608   0.721   4.388   1.175
 2237SOL     OW 7609   6.993   3.043   4.753
 2237SOL    HW1 7610   6.954   3.100   4.681
 2237SOL    HW2 7611   7.021   2.955   4.714
 2238SOL     OW 7612   0.397   5.523   2.127
 2238SOL    HW1 7613   0.398   5.571   2.215
 2238SOL    HW2 7614   0.488   5.530   2.085
 2239SOL     OW 7615   4.037   4.815   3.653
 2239SOL    HW1 7616   4.044   4.772   3.743
 2239SOL    HW2 7617   4.119   4.870   3.635
 2240SOL     OW 7618   6.603   4.997   3.182
 2240SOL    HW1 7619   6.507   5.000   3.209
 2240SOL    HW2 7620   6.637   5.091   3.171
 2241SOL     OW 7621   0.023   6.619   1.831
 2241SOL    HW1 7622   0.085   6.568   1.891
 2241SOL    HW2 7623   7.011   6.697   1.881
 2242SOL     OW 7624   5.124   2.583   2.918
 2242SOL    HW1 7625   5.027   2.571   2.939
 2242SOL    HW2 7626   5.165   2.494   2.899
 2243SOL     OW 7627   2.160   5.817   4.907
 2243SOL    HW1 7628   2.176   5.764   4.823
 2243SOL    HW2 7629   2.149   5.755   4.984
 2244SOL     OW 7630   2.488   0.197   4.262
 2244SOL    HW1 7631   2.551   0.234   4.330
 2244SOL    HW2 7632   2.396   0.234   4.279
 2245SOL     OW 7633   0.337   1.813   2.723
 2245SOL    HW1 7634   0.259   1.775   2.673
 2245SOL    HW2 7635   0.311   1.827   2.819
 2246SOL     OW 7636   1.032   3.901   6.122
 2246SOL    HW1 7637   1.001   3.839   6.194
 2246SOL    HW2 7638   1.132   3.907   6.124
 2247SOL     OW 7639   1.904   2.626   5.884
 2247SOL    HW1 7640   1.909   2.632   5.984
 2247SOL    HW2 7641   1.823   2.676   5.852
 2248SOL     OW 7642   4.743   4.436   5.439
 2248SOL    HW1 7643   4.830   4.472   5.404
 2248SOL    HW2 7644   4.738   4.451   5.538
 2249SOL     OW 7645   5.385   6.220   3.072
 2249SOL    HW1 7646   5.455   6.165   3.115
 2249SOL    HW2 7647   5.295   6.190   3.103
 2250SOL     OW 7648   6.387   4.173   1.083
 2250SOL    HW1 7649   6.476   4.128   1.074
 2250SOL    HW2 7650   6.316   4.116   1.042
 2251SOL     OW 7651   5.843   1.574   6.835
 2251SOL    HW1 7652   5.744   1.561   6.844
 2251SOL    HW2 7653   5.884   1.583   6.926
 2252SOL     OW 7654   5.507   2.597   5.050
 2252SOL    HW1 7655   5.520   2.555   5.139
 2252SOL    HW2 7656   5.499   2.696   5.061
 2253SOL     OW 7657   2.586   3.012   6.755
 2253SOL    HW1 7658   2.676   2.987   6.790
 2253SOL    HW2 7659   2.568   3.108   6.773
 2254SOL     OW 7660   1.812   3.501   6.255
 2254SOL    HW1 7661   1.894   3.488   6.198
 2254SOL    HW2 7662   1.791   3.598   6.261
 2255SOL     OW 7663   5.972   2.557   2.044
 2255SOL    HW1 7664   6.042   2.592   1.982
 2255SOL    HW2 7665   5.888   2.539   1.993
 2256SOL     OW 7666   3.994   4.935   2.247
 2256SOL    HW1 7667   4.047   4.859   2.284
 2256SOL    HW2 7668   3.896   4.918   2.259
 2257SOL     OW 7669   1.693   3.509   4.041
 2257SOL    HW1 7670   1.749   3.483   4.120
 2257SOL    HW2 7671   1.603   3.467   4.049
 2258SOL     OW 7672   1.656   5.204   5.217
 2258SOL    HW1 7673   1.664   5.303   5.220
 2258SOL    HW2 7674   1.705   5.164   5.295
 2259SOL     OW 7675   5.243   3.570   6.862
 2259SOL    HW1 7676   5.234   3.639   6.790
 2259SOL    HW2 7677   5.201   3.604   6.946
 2260SOL     OW 7678   5.182   5.151   1.773
 2260SOL    HW1 7679   5.182   5.064   1.725
 2260SOL    HW2 7680   5.274   5.172   1.805
 2261SOL     OW 7681   5.233   6.442   0.820
 2261SOL    HW1 7682   5.141   6.481   0.828
 2261SOL    HW2 7683   5.298   6.501   0.869
 2262SOL     OW 7684   5.211   2.433   4.160
 2262SOL    HW1 7685   5.135   2.493   4.136
 2262SOL    HW2 7686   5.297   2.473   4.129
 2263SOL     OW 7687   1.409   5.188   6.051
 2263SOL    HW1 7688   1.408   5.246   6.133
 2263SOL    HW2 7689   1.493   5.203   6.000
 2264SOL     OW 7690   3.245   3.519   3.187
 2264SOL    HW1 7691   3.161   3.510   3.241
 2264SOL    HW2 7692   3.241   3.457   3.109
 2265SOL     OW 7693   0.111   0.694   2.389
 2265SOL    HW1 7694   0.155   0.741   2.312
 2265SOL    HW2 7695   0.024   0.739   2.410
 2266SOL     OW 7696   6.185   0.597   0.680
 2266SOL    HW1 7697   6.228   0.675   0.636
 2266SOL    HW2 7698   6.247   0.559   0.749
 2267SOL     OW 7699   6.168   2.219   5.070
 2267SOL    HW1 7700   6.166   2.127   5.108
 2267SOL    HW2 7701   6.207   2.282   5.138
 2268SOL     OW 7702   0.185   6.534   6.883
 2268SOL    HW1 7703   0.227   6.484   6.959
 2268SOL    HW2 7704   0.111   6.479   6.844
 2269SOL     OW 7705   6.587   5.865   6.117
 2269SOL    HW1 7706   6.589   5.955   6.072
 2269SOL    HW2 7707   6.620   5.796   6.053
 2270SOL     OW 7708   3.017   3.163   1.951
 2270SOL    HW1 7709   2.944   3.231   1.944
 2270SOL    HW2 7710   3.072   3.165   1.868
 2271SOL     OW 7711   5.649   4.850   1.921
 2271SOL    HW1 7712   5.573   4.811   1.869
 2271SOL    HW2 7713   5.614   4.887   2.007
 2272SOL     OW 7714   5.309   1.976   5.455
 2272SOL    HW1 7715   5.300   2.058   5.510
 2272SOL    HW2 7716   5.260   1.900   5.498
 2273SOL     OW 7717   1.104   1.248   3.456
 2273SOL    HW1 7718   1.116   1.186   3.378
 2273SOL    HW2 7719   1.136   1.339   3.430
 2274SOL     OW 7720   1.532   3.587   4.633
 2274SOL    HW1 7721   1.492   3.644   4.705
 2274SOL    HW2 7722   1.583   3.645   4.569
 2275SOL     OW 7723   5.235   5.654   4.808
 2275SOL    HW1 7724   5.214   5.679   4.903
 2275SOL    HW2 7725   5.170   5.584   4.777
 2276SOL     OW 7726   4.398   3.915   0.699
 2276SOL    HW1 7727   4.318   3.976   0.700
 2276SOL    HW2 7728   4.416   3.887   0.604
 2277SOL     OW 7729   3.155   3.369   6.711
 2277SOL    HW1 7730   3.108   3.300   6.767
 2277SOL    HW2 7731   3.229   3.410   6.763
 2278SOL     OW 7732   5.320   6.000   1.678
 2278SOL    HW1 7733   5.275   6.016   1.590
 2278SOL    HW2 7734   5.278   5.922   1.724
 2279SOL     OW 7735   5.663   3.068   5.009
 2279SOL    HW1 7736   5.737   3.016   4.967
 2279SOL    HW2 7737   5.658   3.159   4.969
 2280SOL     OW 7738   6.220   6.148   5.498
 2280SOL    HW1 7739   6.157   6.181   5.568
 2280SOL    HW2 7740   6.303   6.204   5.498
 2281SOL     OW 7741   3.652   1.932   1.592
 2281SOL    HW1 7742   3.572   1.893   1.547
 2281SOL    HW2 7743   3.634   2.028   1.616
 2282SOL     OW 7744   4.575   5.490   3.622
 2282SOL    HW1 7745   4.523   5.507   3.706
 2282SOL    HW2 7746   4.617   5.399   3.629
 2283SOL     OW 7747   0.089   3.410   3.469
 2283SOL    HW1 7748   0.121   3.442   3.558
 2283SOL    HW2 7749   0.149   3.444   3.397
 2284SOL     OW 7750   2.576   1.993   1.686
 2284SOL    HW1 7751   2.552   1.944   1.770
 2284SOL    HW2 7752   2.601   2.087   1.708
 2285SOL     OW 7753   0.913   3.814   0.242
 2285SOL    HW1 7754   0.898   3.893   0.182
 2285SOL    HW2 7755   0.866   3.829   0.329
 2286SOL     OW 7756   5.960   6.058   4.496
 2286SOL    HW1 7757   6.017   6.100   4.567
 2286SOL    HW2 7758   5.918   5.975   4.533
 2287SOL     OW 7759   2.389   2.393   1.465
 2287SOL    HW1 7760   2.457   2.466   1.474
 2287SOL    HW2 7761   2.368   2.378   1.369
 2288SOL     OW 7762   6.995   6.631   2.676
 2288SOL    HW1 7763   6.951   6.713   2.639
 2288SOL    HW2 7764   7.001   6.562   2.605
 2289SOL     OW 7765   6.000   1.517   2.407
 2289SOL    HW1 7766   5.970   1.467   2.326
 2289SOL    HW2 7767   5.942   1.598   2.419
 2290SOL     OW 7768   3.138   3.977   3.456
 2290SOL    HW1 7769   3.161   4.011   3.364
 2290SOL    HW2 7770   3.214   3.995   3.518
 2291SOL     OW 7771   2.039   2.241   1.114
 2291SOL    HW1 7772   1.945   2.222   1.086
 2291SOL    HW2 7773   2.102   2.195   1.051
 2292SOL     OW 7774   4.801   2.043   3.287
 2292SOL    HW1 7775   4.727   2.096   3.329
 2292SOL    HW2 7776   4.863   2.105   3.239
 2293SOL     OW 7777   5.543   1.266   0.710
 2293SOL    HW1 7778   5.539   1.338   0.779
 2293SOL    HW2 7779   5.459   1.266   0.656
 2294SOL     OW 7780   1.158   2.587   6.460
 2294SOL    HW1 7781   1.079   2.615   6.515
 2294SOL    HW2 7782   1.165   2.647   6.380
 2295SOL     OW 7783   6.999   6.819   1.993
 2295SOL    HW1 7784   0.061   6.807   2.040
 2295SOL    HW2 7785   6.938   6.874   2.050
 2296SOL     OW 7786   2.552   5.330   3.343
 2296SOL    HW1 7787   2.541   5.236   3.376
 2296SOL    HW2 7788   2.481   5.388   3.382
 2297SOL     OW 7789   4.660   5.117   5.591
 2297SOL    HW1 7790   4.594   5.189   5.572
 2297SOL    HW2 7791   4.732   5.120   5.522
 2298SOL     OW 7792   3.723   3.232   4.780
 2298SOL    HW1 7793   3.625   3.217   4.794
 2298SOL    HW2 7794   3.742   3.238   4.682
 2299SOL     OW 7795   5.719   3.111   5.280
 2299SOL    HW1 7796   5.768   3.196   5.300
 2299SOL    HW2 7797   5.704   3.105   5.181
 2300SOL     OW 7798   4.071   6.286   3.159
 2300SOL    HW1 7799   4.020   6.291   3.073
 2300SOL    HW2 7800   4.007   6.282   3.235
 2301SOL     OW 7801   3.156   3.046   4.293
 2301SOL    HW1 7802   3.098   3.109   4.241
 2301SOL    HW2 7803   3.157   2.957   4.248
 2302SOL     OW 7804   4.182   1.571   0.330
 2302SOL    HW1 7805   4.130   1.656   0.340
 2302SOL    HW2 7806   4.144   1.518   0.254
 2303SOL     OW 7807   2.593   2.382   0.793
 2303SOL    HW1 7808   2.655   2.327   0.737
 2303SOL    HW2 7809   2.519   2.417   0.736
 2304SOL     OW 7810   6.196   6.167   2.839
 2304SOL    HW1 7811   6.220   6.080   2.794
 2304SOL    HW2 7812   6.151   6.227   2.773
 2305SOL     OW 7813   0.955   1.217   5.036
 2305SOL    HW1 7814   0.894   1.281   4.988
 2305SOL    HW2 7815   0.935   1.218   5.134
 2306SOL     OW 7816   2.236   4.662   3.511
 2306SOL    HW1 7817   2.285   4.610   3.581
 2306SOL    HW2 7818   2.254   4.759   3.523
 2307SOL     OW 7819   1.251   2.719   5.540
 2307SOL    HW1 7820   1.279   2.674   5.625
 2307SOL    HW2 7821   1.298   2.676   5.463
 2308SOL     OW 7822   2.576   4.507   1.845
 2308SOL    HW1 7823   2.505   4.546   1.903
 2308SOL    HW2 7824   2.666   4.525   1.885
 2309SOL     OW 7825   1.281   6.753   4.128
 2309SOL    HW1 7826   1.365   6.806   4.115
 2309SOL    HW2 7827   1.296   6.659   4.096
 2310SOL     OW 7828   4.491   6.832   1.381
 2310SOL    HW1 7829   4.552   6.911   1.382
 2310SOL    HW2 7830   4.477   6.801   1.287
 2311SOL     OW 7831   2.789   5.840   0.676
 2311SOL    HW1 7832   2.881   5.801   0.678
 2311SOL    HW2 7833   2.792   5.931   0.635
 2312SOL     OW 7834   3.898   5.380   2.703
 2312SOL    HW1 7835   3.819   5.426   2.745
 2312SOL    HW2 7836   3.911   5.413   2.610
 2313SOL     OW 7837   4.713   4.969   2.438
 2313SOL    HW1 7838   4.623   4.927   2.447
 2313SOL    HW2 7839   4.722   5.043   2.504
 2314SOL     OW 7840   3.142   5.913   3.399
 2314SOL    HW1 7841   3.167   5.818   3.380
 2314SOL    HW2 7842   3.176   5.939   3.490
 2315SOL     OW 7843   4.553   3.530   5.981
 2315SOL    HW1 7844   4.561   3.432   6.000
 2315SOL    HW2 7845   4.490   3.544   5.904
 2316SOL     OW 7846   5.527   3.097   2.997
 2316SOL    HW1 7847   5.574   3.038   2.932
 2316SOL    HW2 7848   5.501   3.044   3.078
 2317SOL     OW 7849   1.954   4.514   3.462
 2317SOL    HW1 7850   2.049   4.535   3.486
 2317SOL    HW2 7851   1.897   4.519   3.544
 2318SOL     OW 7852   0.402   1.240   3.057
 2318SOL    HW1 7853   0.330   1.177   3.027
 2318SOL    HW2 7854   0.364   1.307   3.121
 2319SOL     OW 7855   1.485   4.872   4.520
 2319SOL    HW1 7856   1.452   4.936   4.588
 2319SOL    HW2 7857   1.549   4.808   4.563
 2320SOL     OW 7858   0.128   2.920   3.999
 2320SOL    HW1 7859   0.150   2.857   3.925
 2320SOL    HW2 7860   0.111   2.868   4.083
 2321SOL     OW 7861   3.165   6.877   4.689
 2321SOL    HW1 7862   3.197   6.853   4.597
 2321SOL    HW2 7863   3.103   6.805   4.722
 2322SOL     OW 7864   1.278   1.001   5.589
 2322SOL    HW1 7865   1.365   0.990   5.637
 2322SOL    HW2 7866   1.228   0.915   5.591
 2323SOL     OW 7867   4.613   5.623   2.676
 2323SOL    HW1 7868   4.657   5.682   2.608
 2323SOL    HW2 7869   4.562   5.680   2.741
 2324SOL     OW 7870   0.627   6.147   2.508
 2324SOL    HW1 7871   0.576   6.123   2.591
 2324SOL    HW2 7872   0.604   6.083   2.435
 2325SOL     OW 7873   1.433   4.094   1.529
 2325SOL    HW1 7874   1.496   4.017   1.518
 2325SOL    HW2 7875   1.458   4.166   1.464
 2326SOL     OW 7876   1.672   5.051   6.895
 2326SOL    HW1 7877   1.593   5.071   6.837
 2326SOL    HW2 7878   1.640   5.010   6.981
 2327SOL     OW 7879   5.156   2.731   3.731
 2327SOL    HW1 7880   5.120   2.815   3.771
 2327SOL    HW2 7881   5.214   2.684   3.798
 2328SOL     OW 7882   4.528   1.231   2.811
 2328SOL    HW1 7883   4.501   1.325   2.791
 2328SOL    HW2 7884   4.626   1.219   2.792
 2329SOL     OW 7885   1.138   5.776   3.826
 2329SOL    HW1 7886   1.205   5.705   3.844
 2329SOL    HW2 7887   1.060   5.765   3.888
 2330SOL     OW 7888   0.604   4.290   2.935
 2330SOL    HW1 7889   0.562   4.335   3.014
 2330SOL    HW2 7890   0.563   4.200   2.921
 2331SOL     OW 7891   0.520   4.232   5.289
 2331SOL    HW1 7892   0.460   4.307   5.262
 2331SOL    HW2 7893   0.610   4.244   5.247
 2332SOL     OW 7894   5.490   2.319   5.552
 2332SOL    HW1 7895   5.549   2.302   5.631
 2332SOL    HW2 7896   5.400   2.280   5.569
 2333SOL     OW 7897   1.234   5.426   3.333
 2333SOL    HW1 7898   1.243   5.467   3.242
 2333SOL    HW2 7899   1.185   5.340   3.325
 2334SOL     OW 7900   3.107   0.060   6.700
 2334SOL    HW1 7901   3.089   7.011   6.765
 2334SOL    HW2 7902   3.039   0.132   6.713
 2335SOL     OW 7903   4.755   0.022   3.579
 2335SOL    HW1 7904   4.853   0.037   3.573
 2335SOL    HW2 7905   4.718   0.002   3.488
 2336SOL     OW 7906   4.964   0.736   6.304
 2336SOL    HW1 7907   4.886   0.796   6.287
 2336SOL    HW2 7908   5.048   0.789   6.301
 2337SOL     OW 7909   5.072   0.144   3.039
 2337SOL    HW1 7910   5.156   0.111   3.083
 2337SOL    HW2 7911   4.993   0.111   3.089
 2338SOL     OW 7912   0.784   6.887   6.651
 2338SOL    HW1 7913   0.802   6.903   6.554
 2338SOL    HW2 7914   0.760   6.973   6.695
 2339SOL     OW 7915   3.459   4.637   0.257
 2339SOL    HW1 7916   3.424   4.712   0.314
 2339SOL    HW2 7917   3.555   4.620   0.279
 2340SOL     OW 7918   3.497   5.732   4.600
 2340SOL    HW1 7919   3.448   5.818   4.591
 2340SOL    HW2 7920   3.533   5.723   4.693
 2341SOL     OW 7921   5.216   5.199   0.972
 2341SOL    HW1 7922   5.231   5.105   0.940
 2341SOL    HW2 7923   5.301   5.251   0.962
 2342SOL     OW 7924   6.310   0.337   5.036
 2342SOL    HW1 7925   6.257   0.335   4.951
 2342SOL    HW2 7926   6.404   0.310   5.017
 2343SOL     OW 7927   1.198   5.475   0.726
 2343SOL    HW1 7928   1.153   5.545   0.672
 2343SOL    HW2 7929   1.244   5.517   0.804
 2344SOL     OW 7930   2.175   2.223   2.578
 2344SOL    HW1 7931   2.260   2.229   2.526
 2344SOL    HW2 7932   2.160   2.307   2.630
 2345SOL     OW 7933   1.945   0.751   4.443
 2345SOL    HW1 7934   1.926   0.776   4.537
 2345SOL    HW2 7935   2.025   0.801   4.410
 2346SOL     OW 7936   5.360   3.851   5.860
 2346SOL    HW1 7937   5.314   3.763   5.868
 2346SOL    HW2 7938   5.457   3.837   5.842
 2347SOL     OW 7939   1.644   2.787   1.827
 2347SOL    HW1 7940   1.721   2.840   1.862
 2347SOL    HW2 7941   1.635   2.703   1.881
 2348SOL     OW 7942   2.839   6.162   2.725
 2348SOL    HW1 7943   2.897   6.234   2.686
 2348SOL    HW2 7944   2.890   6.076   2.728
 2349SOL     OW 7945   6.638   6.667   6.310
 2349SOL    HW1 7946   6.640   6.624   6.220
 2349SOL    HW2 7947   6.612   6.763   6.300
 2350SOL     OW 7948   2.684   0.420   6.119
 2350SOL    HW1 7949   2.650   0.514   6.116
 2350SOL    HW2 7950   2.630   0.363   6.056
 2351SOL     OW 7951   2.456   5.148   4.087
 2351SOL    HW1 7952   2.547   5.117   4.115
 2351SOL    HW2 7953   2.464   5.207   4.007
 2352SOL     OW 7954   0.184   4.054   3.302
 2352SOL    HW1 7955   0.118   4.127   3.320
 2352SOL    HW2 7956   0.144   3.990   3.235
 2353SOL     OW 7957   2.964   4.261   5.719
 2353SOL    HW1 7958   3.045   4.309   5.687
 2353SOL    HW2 7959   2.882   4.311   5.691
 2354SOL     OW 7960   3.386   1.773   0.944
 2354SOL    HW1 7961   3.313   1.772   0.876
 2354SOL    HW2 7962   3.406   1.868   0.970
 2355SOL     OW 7963   0.501   6.438   0.243
 2355SOL    HW1 7964   0.560   6.491   0.183
 2355SOL    HW2 7965   0.532   6.344   0.247
 2356SOL     OW 7966   2.420   5.116   2.690
 2356SOL    HW1 7967   2.370   5.103   2.776
 2356SOL    HW2 7968   2.397   5.042   2.627
 2357SOL     OW 7969   6.330   4.180   2.159
 2357SOL    HW1 7970   6.341   4.089   2.118
 2357SOL    HW2 7971   6.299   4.244   2.089
 2358SOL     OW 7972   3.767   0.904   5.920
 2358SOL    HW1 7973   3.858   0.873   5.897
 2358SOL    HW2 7974   3.705   0.890   5.843
 2359SOL     OW 7975   2.260   1.755   5.530
 2359SOL    HW1 7976   2.262   1.847   5.570
 2359SOL    HW2 7977   2.228   1.690   5.599
 2360SOL     OW 7978   4.107   4.761   1.172
 2360SOL    HW1 7979   4.117   4.686   1.107
 2360SOL    HW2 7980   4.185   4.763   1.234
 2361SOL     OW 7981   3.375   6.854   2.271
 2361SOL    HW1 7982   3.376   6.770   2.326
 2361SOL    HW2 7983   3.359   6.831   2.175
 2362SOL     OW 7984   4.181   5.346   4.857
 2362SOL    HW1 7985   4.144   5.254   4.860
 2362SOL    HW2 7986   4.107   5.412   4.852
 2363SOL     OW 7987   3.208   3.108   0.600
 2363SOL    HW1 7988   3.191   3.047   0.523
 2363SOL    HW2 7989   3.304   3.099   0.629
 2364SOL     OW 7990   4.604   1.867   2.043
 2364SOL    HW1 7991   4.621   1.902   1.951
 2364SOL    HW2 7992   4.568   1.941   2.101
 2365SOL     OW 7993   5.347   3.544   4.191
 2365SOL    HW1 7994   5.287   3.623   4.197
 2365SOL    HW2 7995   5.326   3.479   4.264
 2366SOL     OW 7996   2.613   4.251   5.425
 2366SOL    HW1 7997   2.519   4.252   5.391
 2366SOL    HW2 7998   2.663   4.177   5.381
 2367SOL     OW 7999   0.720   4.118   6.200
 2367SOL    HW1 8000   0.677   4.046   6.146
 2367SOL    HW2 8001   0.809   4.140   6.160
 2368SOL     OW 8002   5.511   0.372   3.800
 2368SOL    HW1 8003   5.575   0.369   3.877
 2368SOL    HW2 8004   5.419   0.350   3.832
 2369SOL     OW 8005   2.805   1.559   3.857
 2369SOL    HW1 8006   2.828   1.539   3.952
 2369SOL    HW2 8007   2.888   1.553   3.801
 2370SOL     OW 8008   5.465   3.181   1.428
 2370SOL    HW1 8009   5.393   3.114   1.413
 2370SOL    HW2 8010   5.495   3.177   1.524
 2371SOL     OW 8011   0.866   6.750   2.839
 2371SOL    HW1 8012   0.966   6.752   2.845
 2371SOL    HW2 8013   0.839   6.677   2.776
 2372SOL     OW 8014   6.722   1.239   6.000
 2372SOL    HW1 8015   6.796   1.192   6.049
 2372SOL    HW2 8016   6.653   1.269   6.065
 2373SOL     OW 8017   6.180   0.269   5.851
 2373SOL    HW1 8018   6.272   0.245   5.820
 2373SOL    HW2 8019   6.145   0.196   5.910
 2374SOL     OW 8020   6.118   6.486   3.061
 2374SOL    HW1 8021   6.080   6.459   2.973
 2374SOL    HW2 8022   6.178   6.413   3.095
 2375SOL     OW 8023   1.222   0.453   4.135
 2375SOL    HW1 8024   1.275   0.534   4.111
 2375SOL    HW2 8025   1.262   0.373   4.089
 2376SOL     OW 8026   6.295   2.391   3.359
 2376SOL    HW1 8027   6.332   2.379   3.267
 2376SOL    HW2 8028   6.369   2.406   3.423
 2377SOL     OW 8029   4.311   4.956   5.732
 2377SOL    HW1 8030   4.348   5.036   5.685
 2377SOL    HW2 8031   4.213   4.969   5.748
 2378SOL     OW 8032   6.402   1.706   0.969
 2378SOL    HW1 8033   6.308   1.733   0.988
 2378SOL    HW2 8034   6.403   1.618   0.921
 2379SOL     OW 8035   0.034   5.337   0.519
 2379SOL    HW1 8036   6.969   5.320   0.560
 2379SOL    HW2 8037   0.083   5.250   0.510
 2380SOL     OW 8038   5.066   4.241   4.892
 2380SOL    HW1 8039   5.127   4.181   4.840
 2380SOL    HW2 8040   5.101   4.334   4.890
 2381SOL     OW 8041   2.644   4.853   5.212
 2381SOL    HW1 8042   2.610   4.820   5.124
 2381SOL    HW2 8043   2.742   4.873   5.205
 2382SOL     OW 8044   1.724   5.979   2.207
 2382SOL    HW1 8045   1.817   5.953   2.234
 2382SOL    HW2 8046   1.662   5.965   2.285
 2383SOL     OW 8047   5.589   5.802   5.016
 2383SOL    HW1 8048   5.542   5.759   5.093
 2383SOL    HW2 8049   5.597   5.736   4.941
 2384SOL     OW 8050   1.007   1.968   1.468
 2384SOL    HW1 8051   0.984   2.065   1.462
 2384SOL    HW2 8052   0.982   1.922   1.383
 2385SOL     OW 8053   0.551   1.639   0.989
 2385SOL    HW1 8054   0.472   1.675   0.940
 2385SOL    HW2 8055   0.603   1.578   0.928
 2386SOL     OW 8056   3.620   5.616   4.217
 2386SOL    HW1 8057   3.700   5.639   4.161
 2386SOL    HW2 8058   3.572   5.539   4.176
 2387SOL     OW 8059   1.022   2.241   3.528
 2387SOL    HW1 8060   1.066   2.288   3.452
 2387SOL    HW2 8061   1.092   2.210   3.593
 2388SOL     OW 8062   6.967   2.106   6.447
 2388SOL    HW1 8063   6.943   2.063   6.534
 2388SOL    HW2 8064   6.960   2.039   6.373
 2389SOL     OW 8065   4.877   4.720   3.939
 2389SOL    HW1 8066   4.977   4.726   3.949
 2389SOL    HW2 8067   4.835   4.803   3.976
 2390SOL     OW 8068   4.753   3.548   6.287
 2390SOL    HW1 8069   4.657   3.558   6.315
 2390SOL    HW2 8070   4.804   3.631   6.313
 2391SOL     OW 8071   3.450   3.429   6.146
 2391SOL    HW1 8072   3.457   3.332   6.120
 2391SOL    HW2 8073   3.391   3.477   6.082
 2392SOL     OW 8074   3.345   5.658   5.319
 2392SOL    HW1 8075   3.283   5.703   5.384
 2392SOL    HW2 8076   3.325   5.560   5.317
 2393SOL     OW 8077   3.945   5.136   1.326
 2393SOL    HW1 8078   3.991   5.069   1.268
 2393SOL    HW2 8079   4.000   5.154   1.408
 2394SOL     OW 8080   0.109   3.208   2.905
 2394SOL    HW1 8081   0.040   3.247   2.843
 2394SOL    HW2 8082   0.066   3.182   2.991
 2395SOL     OW 8083   0.513   3.016   6.244
 2395SOL    HW1 8084   0.552   3.045   6.157
 2395SOL    HW2 8085   0.540   3.079   6.316
 2396SOL     OW 8086   5.886   0.640   4.932
 2396SOL    HW1 8087   5.957   0.586   4.977
 2396SOL    HW2 8088   5.802   0.586   4.925
 2397SOL     OW 8089   0.866   4.864   5.318
 2397SOL    HW1 8090   0.835   4.821   5.402
 2397SOL    HW2 8091   0.961   4.837   5.300
 2398SOL     OW 8092   2.440   5.268   3.840
 2398SOL    HW1 8093   2.481   5.357   3.820
 2398SOL    HW2 8094   2.345   5.268   3.809
 2399SOL     OW 8095   2.676   2.444   3.546
 2399SOL    HW1 8096   2.683   2.361   3.602
 2399SOL    HW2 8097   2.610   2.507   3.587
 2400SOL     OW 8098   1.749   3.813   0.261
 2400SOL    HW1 8099   1.794   3.896   0.294
 2400SOL    HW2 8100   1.810   3.766   0.197
 2401SOL     OW 8101   3.671   0.197   4.798
 2401SOL    HW1 8102   3.712   0.135   4.865
 2401SOL    HW2 8103   3.705   0.290   4.811
 2402SOL     OW 8104   0.863   2.138   2.415
 2402SOL    HW1 8105   0.952   2.145   2.459
 2402SOL    HW2 8106   0.831   2.229   2.388
 2403SOL     OW 8107   3.710   3.738   2.390
 2403SOL    HW1 8108   3.680   3.692   2.307
 2403SOL    HW2 8109   3.718   3.671   2.465
 2404SOL     OW 8110   6.570   0.984   1.050
 2404SOL    HW1 8111   6.645   1.005   0.987
 2404SOL    HW2 8112   6.499   1.054   1.041
 2405SOL     OW 8113   2.451   4.469   0.467
 2405SOL    HW1 8114   2.432   4.504   0.558
 2405SOL    HW2 8115   2.465   4.546   0.404
 2406SOL     OW 8116   1.771   0.187   3.755
 2406SOL    HW1 8117   1.757   0.178   3.657
 2406SOL    HW2 8118   1.683   0.175   3.802
 2407SOL     OW 8119   3.785   1.834   3.446
 2407SOL    HW1 8120   3.869   1.870   3.406
 2407SOL    HW2 8121   3.706   1.869   3.395
 2408SOL     OW 8122   2.001   6.145   3.663
 2408SOL    HW1 8123   1.951   6.091   3.596
 2408SOL    HW2 8124   2.066   6.205   3.616
 2409SOL     OW 8125   2.185   2.450   1.144
 2409SOL    HW1 8126   2.104   2.402   1.110
 2409SOL    HW2 8127   2.257   2.384   1.166
 2410SOL     OW 8128   6.157   3.400   5.920
 2410SOL    HW1 8129   6.149   3.399   6.020
 2410SOL    HW2 8130   6.075   3.359   5.880
 2411SOL     OW 8131   2.689   3.749   6.933
 2411SOL    HW1 8132   2.783   3.759   6.899
 2411SOL    HW2 8133   2.660   3.834   6.977
 2412SOL     OW 8134   2.780   2.309   6.458
 2412SOL    HW1 8135   2.702   2.343   6.511
 2412SOL    HW2 8136   2.752   2.230   6.403
 2413SOL     OW 8137   6.875   2.827   6.618
 2413SOL    HW1 8138   6.873   2.839   6.518
 2413SOL    HW2 8139   6.970   2.824   6.649
 2414SOL     OW 8140   5.755   2.846   4.136
 2414SOL    HW1 8141   5.781   2.840   4.232
 2414SOL    HW2 8142   5.836   2.862   4.080
 2415SOL     OW 8143   2.611   6.263   0.925
 2415SOL    HW1 8144   2.540   6.254   0.996
 2415SOL    HW2 8145   2.608   6.355   0.887
 2416SOL     OW 8146   0.126   3.473   2.715
 2416SOL    HW1 8147   0.088   3.532   2.786
 2416SOL    HW2 8148   0.214   3.436   2.745
 2417SOL     OW 8149   4.325   2.473   0.237
 2417SOL    HW1 8150   4.267   2.450   0.315
 2417SOL    HW2 8151   4.415   2.432   0.249
 2418SOL     OW 8152   4.574   4.161   5.583
 2418SOL    HW1 8153   4.521   4.225   5.639
 2418SOL    HW2 8154   4.644   4.117   5.640
 2419SOL     OW 8155   2.056   6.547   4.487
 2419SOL    HW1 8156   2.126   6.618   4.480
 2419SOL    HW2 8157   1.969   6.589   4.511
 2420SOL     OW 8158   3.405   5.382   2.105
 2420SOL    HW1 8159   3.386   5.374   2.203
 2420SOL    HW2 8160   3.487   5.329   2.082
 2421SOL     OW 8161   3.213   0.129   4.613
 2421SOL    HW1 8162   3.124   0.172   4.601
 2421SOL    HW2 8163   3.201   0.033   4.639
 2422SOL     OW 8164   3.943   6.699   2.130
 2422SOL    HW1 8165   3.988   6.705   2.041
 2422SOL    HW2 8166   3.844   6.693   2.117
 2423SOL     OW 8167   1.680   5.656   2.184
 2423SOL    HW1 8168   1.597   5.662   2.128
 2423SOL    HW2 8169   1.751   5.713   2.143
 2424SOL     OW 8170   5.226   0.412   6.545
 2424SOL    HW1 8171   5.213   0.369   6.635
 2424SOL    HW2 8172   5.257   0.506   6.558
 2425SOL     OW 8173   4.567   5.387   5.544
 2425SOL    HW1 8174   4.603   5.474   5.577
 2425SOL    HW2 8175   4.514   5.403   5.461
 2426SOL     OW 8176   1.298   5.314   5.741
 2426SOL    HW1 8177   1.348   5.401   5.741
 2426SOL    HW2 8178   1.364   5.239   5.744
 2427SOL     OW 8179   4.581   6.703   6.195
 2427SOL    HW1 8180   4.589   6.747   6.106
 2427SOL    HW2 8181   4.495   6.652   6.200
 2428SOL     OW 8182   0.138   1.538   3.786
 2428SOL    HW1 8183   0.104   1.632   3.784
 2428SOL    HW2 8184   0.201   1.528   3.862
 2429SOL     OW 8185   5.147   5.098   2.306
 2429SOL    HW1 8186   5.098   5.037   2.243
 2429SOL    HW2 8187   5.244   5.100   2.281
 2430SOL     OW 8188   5.665   2.239   0.354
 2430SOL    HW1 8189   5.647   2.211   0.448
 2430SOL    HW2 8190   5.711   2.328   0.353
 2431SOL     OW 8191   6.449   1.736   1.981
 2431SOL    HW1 8192   6.453   1.771   1.887
 2431SOL    HW2 8193   6.355   1.710   2.003
 2432SOL     OW 8194   3.176   5.340   1.971
 2432SOL    HW1 8195   3.129   5.416   1.926
 2432SOL    HW2 8196   3.252   5.375   2.026
 2433SOL     OW 8197   6.741   5.638   0.249
 2433SOL    HW1 8198   6.791   5.562   0.206
 2433SOL    HW2 8199   6.693   5.606   0.330
 2434SOL     OW 8200   4.076   1.959   2.818
 2434SOL    HW1 8201   4.035   2.035   2.769
 2434SOL    HW2 8202   4.168   1.984   2.848
 2435SOL     OW 8203   5.445   0.003   6.319
 2435SOL    HW1 8204   5.386   0.043   6.389
 2435SOL    HW2 8205   5.418   6.933   6.304
 2436SOL     OW 8206   1.315   1.117   1.533
 2436SOL    HW1 8207   1.285   1.088   1.623
 2436SOL    HW2 8208   1.237   1.154   1.482
 2437SOL     OW 8209   6.117   6.327   2.333
 2437SOL    HW1 8210   6.071   6.336   2.422
 2437SOL    HW2 8211   6.215   6.314   2.348
 2438SOL     OW 8212   3.325   1.820   4.264
 2438SOL    HW1 8213   3.266   1.856   4.192
 2438SOL    HW2 8214   3.421   1.834   4.239
 2439SOL     OW 8215   0.345   4.993   6.349
 2439SOL    HW1 8216   0.266   4.944   6.385
 2439SOL    HW2 8217   0.400   5.027   6.425
 2440SOL     OW 8218   3.995   1.426   4.293
 2440SOL    HW1 8219   3.963   1.350   4.236
 2440SOL    HW2 8220   4.066   1.477   4.245
 2441SOL     OW 8221   5.603   0.411   6.738
 2441SOL    HW1 8222   5.687   0.369   6.774
 2441SOL    HW2 8223   5.525   0.353   6.759
 2442SOL     OW 8224   5.129   3.857   1.999
 2442SOL    HW1 8225   5.048   3.816   2.042
 2442SOL    HW2 8226   5.127   3.956   2.016
 2443SOL     OW 8227   2.244   1.154   7.017
 2443SOL    HW1 8228   2.293   1.102   6.947
 2443SOL    HW2 8229   2.267   1.118   0.082
 2444SOL     OW 8230   4.716   4.939   0.614
 2444SOL    HW1 8231   4.625   4.977   0.629
 2444SOL    HW2 8232   4.785   5.005   0.644
 2445SOL     OW 8233   0.075   1.887   2.013
 2445SOL    HW1 8234   0.037   1.794   2.016
 2445SOL    HW2 8235   0.165   1.887   2.056
 2446SOL     OW 8236   1.273   3.036   1.931
 2446SOL    HW1 8237   1.245   2.945   1.962
 2446SOL    HW2 8238   1.193   3.096   1.928
 2447SOL     OW 8239   2.220   1.050   0.454
 2447SOL    HW1 8240   2.233   1.144   0.484
 2447SOL    HW2 8241   2.295   0.994   0.488
 2448SOL     OW 8242   6.083   1.920   4.202
 2448SOL    HW1 8243   6.050   1.956   4.289
 2448SOL    HW2 8244   6.167   1.868   4.217
 2449SOL     OW 8245   1.809   4.607   2.176
 2449SOL    HW1 8246   1.870   4.597   2.097
 2449SOL    HW2 8247   1.834   4.539   2.245
 2450SOL     OW 8248   3.244   5.358   6.933
 2450SOL    HW1 8249   3.272   5.359   0.003
 2450SOL    HW2 8250   3.173   5.427   6.918
 2451SOL     OW 8251   0.795   0.251   4.108
 2451SOL    HW1 8252   0.729   0.275   4.037
 2451SOL    HW2 8253   0.847   0.332   4.134
 2452SOL     OW 8254   2.192   2.242   3.012
 2452SOL    HW1 8255   2.172   2.336   2.985
 2452SOL    HW2 8256   2.183   2.182   2.933
 2453SOL     OW 8257   6.635   1.856   0.954
 2453SOL    HW1 8258   6.681   1.797   0.887
 2453SOL    HW2 8259   6.545   1.818   0.975
 2454SOL     OW 8260   3.252   5.619   0.889
 2454SOL    HW1 8261   3.333   5.606   0.945
 2454SOL    HW2 8262   3.176   5.649   0.947
 2455SOL     OW 8263   3.001   1.466   0.081
 2455SOL    HW1 8264   3.087   1.513   0.064
 2455SOL    HW2 8265   2.937   1.487   0.007
 2456SOL     OW 8266   0.662   3.643   6.960
 2456SOL    HW1 8267   0.591   3.576   6.939
 2456SOL    HW2 8268   0.693   3.688   6.876
 2457SOL     OW 8269   5.557   1.489   5.583
 2457SOL    HW1 8270   5.458   1.489   5.567
 2457SOL    HW2 8271   5.577   1.448   5.671
 2458SOL     OW 8272   0.814   0.950   3.293
 2458SOL    HW1 8273   0.731   1.004   3.306
 2458SOL    HW2 8274   0.810   0.868   3.350
 2459SOL     OW 8275   2.837   5.435   6.084
 2459SOL    HW1 8276   2.801   5.525   6.061
 2459SOL    HW2 8277   2.876   5.392   6.002
 2460SOL     OW 8278   0.848   0.957   6.806
 2460SOL    HW1 8279   0.873   0.998   6.893
 2460SOL    HW2 8280   0.835   1.029   6.737
 2461SOL     OW 8281   4.492   0.026   4.378
 2461SOL    HW1 8282   4.408   7.005   4.405
 2461SOL    HW2 8283   4.476   0.124   4.372
 2462SOL     OW 8284   0.750   4.733   0.507
 2462SOL    HW1 8285   0.661   4.738   0.462
 2462SOL    HW2 8286   0.743   4.772   0.599
 2463SOL     OW 8287   6.694   1.552   0.652
 2463SOL    HW1 8288   6.671   1.455   0.663
 2463SOL    HW2 8289   6.678   1.580   0.557
 2464SOL     OW 8290   0.764   2.579   3.098
 2464SOL    HW1 8291   0.686   2.577   3.160
 2464SOL    HW2 8292   0.740   2.630   3.015
 2465SOL     OW 8293   6.862   5.978   6.086
 2465SOL    HW1 8294   6.852   6.074   6.113
 2465SOL    HW2 8295   6.836   5.920   6.163
 2466SOL     OW 8296   1.961   1.793   2.070
 2466SOL    HW1 8297   2.007   1.877   2.039
 2466SOL    HW2 8298   1.929   1.805   2.164
 2467SOL     OW 8299   4.405   1.913   5.876
 2467SOL    HW1 8300   4.359   1.927   5.788
 2467SOL    HW2 8301   4.336   1.909   5.949
 2468SOL     OW 8302   3.940   0.339   6.709
 2468SOL    HW1 8303   3.997   0.366   6.631
 2468SOL    HW2 8304   3.962   0.245   6.735
 2469SOL     OW 8305   4.021   3.209   5.668
 2469SOL    HW1 8306   3.990   3.114   5.675
 2469SOL    HW2 8307   3.962   3.258   5.604
 2470SOL     OW 8308   4.261   4.469   6.181
 2470SOL    HW1 8309   4.327   4.510   6.243
 2470SOL    HW2 8310   4.191   4.420   6.234
 2471SOL     OW 8311   3.148   6.978   0.595
 2471SOL    HW1 8312   3.054   7.007   0.577
 2471SOL    HW2 8313   3.190   6.948   0.510
 2472SOL     OW 8314   4.466   2.317   3.364
 2472SOL    HW1 8315   4.480   2.415   3.381
 2472SOL    HW2 8316   4.537   2.265   3.412
 2473SOL     OW 8317   1.271   4.776   5.070
 2473SOL    HW1 8318   1.221   4.770   4.984
 2473SOL    HW2 8319   1.362   4.816   5.053
 2474SOL     OW 8320   1.048   5.638   0.292
 2474SOL    HW1 8321   1.118   5.709   0.293
 2474SOL    HW2 8322   1.089   5.551   0.263
 2475SOL     OW 8323   4.576   0.468   0.963
 2475SOL    HW1 8324   4.596   0.552   0.913
 2475SOL    HW2 8325   4.587   0.484   1.061
 2476SOL     OW 8326   5.646   6.999   2.680
 2476SOL    HW1 8327   5.562   6.948   2.663
 2476SOL    HW2 8328   5.630   0.071   2.663
 2477SOL     OW 8329   3.772   0.770   3.133
 2477SOL    HW1 8330   3.685   0.753   3.085
 2477SOL    HW2 8331   3.840   0.703   3.103
 2478SOL     OW 8332   5.049   0.726   1.854
 2478SOL    HW1 8333   5.118   0.724   1.926
 2478SOL    HW2 8334   4.964   0.765   1.890
 2479SOL     OW 8335   1.396   2.490   1.327
 2479SOL    HW1 8336   1.329   2.472   1.399
 2479SOL    HW2 8337   1.460   2.560   1.358
 2480SOL     OW 8338   4.009   2.369   1.262
 2480SOL    HW1 8339   3.973   2.456   1.228
 2480SOL    HW2 8340   3.980   2.356   1.357
 2481SOL     OW 8341   2.780   0.407   1.493
 2481SOL    HW1 8342   2.802   0.367   1.582
 2481SOL    HW2 8343   2.817   0.349   1.420
 2482SOL     OW 8344   5.048   3.488   0.272
 2482SOL    HW1 8345   5.105   3.556   0.318
 2482SOL    HW2 8346   4.967   3.469   0.328
 2483SOL     OW 8347   1.411   1.556   0.404
 2483SOL    HW1 8348   1.468   1.629   0.367
 2483SOL    HW2 8349   1.385   1.493   0.330
 2484SOL     OW 8350   3.292   0.796   0.367
 2484SOL    HW1 8351   3.244   0.709   0.356
 2484SOL    HW2 8352   3.282   0.851   0.284
 2485SOL     OW 8353   5.199   3.118   0.482
 2485SOL    HW1 8354   5.130   3.144   0.550
 2485SOL    HW2 8355   5.154   3.104   0.394
 2486SOL     OW 8356   1.053   5.314   5.870
 2486SOL    HW1 8357   1.128   5.304   5.805
 2486SOL    HW2 8358   1.036   5.411   5.886
 2487SOL     OW 8359   4.159   6.194   0.021
 2487SOL    HW1 8360   4.121   6.286   0.024
 2487SOL    HW2 8361   4.108   6.139   6.980
 2488SOL     OW 8362   0.629   3.310   1.773
 2488SOL    HW1 8363   0.632   3.276   1.679
 2488SOL    HW2 8364   0.698   3.382   1.785
 2489SOL     OW 8365   1.007   6.073   3.387
 2489SOL    HW1 8366   1.000   6.005   3.459
 2489SOL    HW2 8367   0.944   6.050   3.312
 2490SOL     OW 8368   0.394   5.812   0.789
 2490SOL    HW1 8369   0.347   5.900   0.794
 2490SOL    HW2 8370   0.455   5.801   0.867
 2491SOL     OW 8371   3.466   4.637   1.392
 2491SOL    HW1 8372   3.474   4.671   1.298
 2491SOL    HW2 8373   3.457   4.537   1.390
 2492SOL     OW 8374   4.324   3.407   1.180
 2492SOL    HW1 8375   4.313   3.461   1.263
 2492SOL    HW2 8376   4.235   3.393   1.137
 2493SOL     OW 8377   6.661   7.000   1.377
 2493SOL    HW1 8378   6.660   0.027   1.461
 2493SOL    HW2 8379   6.577   7.018   1.325
 2494SOL     OW 8380   5.987   4.092   2.134
 2494SOL    HW1 8381   5.974   4.031   2.212
 2494SOL    HW2 8382   5.900   4.136   2.111
 2495SOL     OW 8383   5.527   5.467   3.622
 2495SOL    HW1 8384   5.492   5.373   3.619
 2495SOL    HW2 8385   5.539   5.496   3.717
 2496SOL     OW 8386   0.297   3.284   6.800
 2496SOL    HW1 8387   0.249   3.292   6.713
 2496SOL    HW2 8388   0.232   3.262   6.872
 2497SOL     OW 8389   0.216   0.044   0.899
 2497SOL    HW1 8390   0.306   0.039   0.941
 2497SOL    HW2 8391   0.166   0.123   0.936
 2498SOL     OW 8392   3.319   2.465   5.441
 2498SOL    HW1 8393   3.293   2.379   5.485
 2498SOL    HW2 8394   3.275   2.471   5.352
 2499SOL     OW 8395   5.891   3.167   2.004
 2499SOL    HW1 8396   5.875   3.092   1.939
 2499SOL    HW2 8397   5.911   3.251   1.954
 2500SOL     OW 8398   3.369   4.272   6.638
 2500SOL    HW1 8399   3.376   4.275   6.737
 2500SOL    HW2 8400   3.280   4.234   6.612
 2501SOL     OW 8401   5.392   5.599   0.170
 2501SOL    HW1 8402   5.361   5.508   0.196
 2501SOL    HW2 8403   5.490   5.607   0.188
 2502SOL     OW 8404   1.208   0.150   4.775
 2502SOL    HW1 8405   1.306   0.147   4.795
 2502SOL    HW2 8406   1.166   0.225   4.827
 2503SOL     OW 8407   2.877   6.353   4.788
 2503SOL    HW1 8408   2.819   6.288   4.740
 2503SOL    HW2 8409   2.847   6.446   4.768
 2504SOL     OW 8410   3.656   5.638   3.580
 2504SOL    HW1 8411   3.744   5.652   3.534
 2504SOL    HW2 8412   3.588   5.605   3.514
 2505SOL     OW 8413   0.410   6.805   2.906
 2505SOL    HW1 8414   0.314   6.798   2.880
 2505SOL    HW2 8415   0.465   6.825   2.824
 2506SOL     OW 8416   6.624   3.015   6.542
 2506SOL    HW1 8417   6.694   3.086   6.549
 2506SOL    HW2 8418   6.667   2.925   6.547
 2507SOL     OW 8419   6.460   3.143   0.043
 2507SOL    HW1 8420   6.475   3.135   6.970
 2507SOL    HW2 8421   6.379   3.090   0.069
 2508SOL     OW 8422   2.549   1.551   3.766
 2508SOL    HW1 8423   2.638   1.553   3.811
 2508SOL    HW2 8424   2.521   1.644   3.741
 2509SOL     OW 8425   0.224   4.395   1.343
 2509SOL    HW1 8426   0.236   4.296   1.332
 2509SOL    HW2 8427   0.260   4.442   1.262
 2510SOL     OW 8428   2.930   4.469   1.205
 2510SOL    HW1 8429   2.850   4.462   1.264
 2510SOL    HW2 8430   2.913   4.421   1.119
 2511SOL     OW 8431   2.767   1.838   4.098
 2511SOL    HW1 8432   2.810   1.864   4.012
 2511SOL    HW2 8433   2.817   1.878   4.174
 2512SOL     OW 8434   4.467   3.704   5.326
 2512SOL    HW1 8435   4.544   3.654   5.287
 2512SOL    HW2 8436   4.450   3.787   5.271
 2513SOL     OW 8437   1.877   5.016   4.861
 2513SOL    HW1 8438   1.957   4.990   4.915
 2513SOL    HW2 8439   1.835   4.934   4.823
 2514SOL     OW 8440   0.606   3.709   5.167
 2514SOL    HW1 8441   0.554   3.794   5.164
 2514SOL    HW2 8442   0.555   3.640   5.218
 2515SOL     OW 8443   1.688   6.357   0.496
 2515SOL    HW1 8444   1.685   6.268   0.540
 2515SOL    HW2 8445   1.781   6.379   0.469
 2516SOL     OW 8446   4.957   1.423   2.801
 2516SOL    HW1 8447   4.931   1.431   2.897
 2516SOL    HW2 8448   4.966   1.515   2.761
 2517SOL     OW 8449   1.310   0.360   6.094
 2517SOL    HW1 8450   1.376   0.399   6.159
 2517SOL    HW2 8451   1.236   0.425   6.077
 2518SOL     OW 8452   1.651   5.414   1.038
 2518SOL    HW1 8453   1.589   5.374   0.970
 2518SOL    HW2 8454   1.739   5.435   0.995
 2519SOL     OW 8455   4.178   0.279   1.840
 2519SOL    HW1 8456   4.208   0.358   1.894
 2519SOL    HW2 8457   4.082   0.260   1.860
 2520SOL     OW 8458   3.108   1.601   0.986
 2520SOL    HW1 8459   3.026   1.657   0.970
 2520SOL    HW2 8460   3.082   1.515   1.029
 2521SOL     OW 8461   3.082   0.427   5.172
 2521SOL    HW1 8462   3.041   0.354   5.117
 2521SOL    HW2 8463   3.069   0.406   5.269
 2522SOL     OW 8464   0.902   1.719   5.464
 2522SOL    HW1 8465   0.817   1.714   5.411
 2522SOL    HW2 8466   0.976   1.752   5.406
 2523SOL     OW 8467   1.064   2.846   0.883
 2523SOL    HW1 8468   1.022   2.919   0.937
 2523SOL    HW2 8469   1.140   2.883   0.830
 2524SOL     OW 8470   0.107   6.500   4.937
 2524SOL    HW1 8471   0.080   6.596   4.930
 2524SOL    HW2 8472   0.097   6.456   4.848
 2525SOL     OW 8473   1.010   2.119   5.532
 2525SOL    HW1 8474   0.927   2.064   5.542
 2525SOL    HW2 8475   1.028   2.134   5.434
 2526SOL     OW 8476   1.692   4.696   0.021
 2526SOL    HW1 8477   1.766   4.747   7.003
 2526SOL    HW2 8478   1.730   4.630   0.086
 2527SOL     OW 8479   6.061   6.427   6.014
 2527SOL    HW1 8480   6.090   6.383   6.099
 2527SOL    HW2 8481   6.138   6.433   5.951
 2528SOL     OW 8482   5.779   5.052   6.368
 2528SOL    HW1 8483   5.808   5.124   6.305
 2528SOL    HW2 8484   5.860   5.008   6.407
 2529SOL     OW 8485   6.412   6.176   6.641
 2529SOL    HW1 8486   6.316   6.186   6.666
 2529SOL    HW2 8487   6.465   6.145   6.720
 2530SOL     OW 8488   2.333   6.277   4.717
 2530SOL    HW1 8489   2.391   6.309   4.793
 2530SOL    HW2 8490   2.237   6.280   4.745
 2531SOL     OW 8491   5.490   5.782   4.594
 2531SOL    HW1 8492   5.441   5.869   4.591
 2531SOL    HW2 8493   5.432   5.710   4.558
 2532SOL     OW 8494   0.261   5.950   0.510
 2532SOL    HW1 8495   0.301   6.015   0.446
 2532SOL    HW2 8496   0.177   5.988   0.549
 2533SOL     OW 8497   3.972   0.162   4.034
 2533SOL    HW1 8498   4.052   0.127   4.082
 2533SOL    HW2 8499   4.001   0.208   3.950
 2534SOL     OW 8500   3.770   1.530   2.097
 2534SOL    HW1 8501   3.791   1.528   2.195
 2534SOL    HW2 8502   3.787   1.622   2.061
 2535SOL     OW 8503   3.728   3.454   6.068
 2535SOL    HW1 8504   3.730   3.504   6.155
 2535SOL    HW2 8505   3.648   3.484   6.015
 2536SOL     OW 8506   1.556   1.338   5.723
 2536SOL    HW1 8507   1.468   1.339   5.770
 2536SOL    HW2 8508   1.630   1.346   5.790
 2537SOL     OW 8509   3.493   0.169   6.285
 2537SOL    HW1 8510   3.405   0.145   6.328
 2537SOL    HW2 8511   3.547   0.086   6.272
 2538SOL     OW 8512   0.518   4.304   3.572
 2538SOL    HW1 8513   0.549   4.210   3.558
 2538SOL    HW2 8514   0.595   4.366   3.566
 2539SOL     OW 8515   5.623   0.936   4.700
 2539SOL    HW1 8516   5.584   0.951   4.791
 2539SOL    HW2 8517   5.567   0.868   4.651
 2540SOL     OW 8518   4.231   2.144   2.615
 2540SOL    HW1 8519   4.286   2.130   2.697
 2540SOL    HW2 8520   4.135   2.160   2.640
 2541SOL     OW 8521   3.644   0.973   4.484
 2541SOL    HW1 8522   3.660   0.882   4.522
 2541SOL    HW2 8523   3.564   0.970   4.423
 2542SOL     OW 8524   3.690   3.193   6.199
 2542SOL    HW1 8525   3.751   3.121   6.167
 2542SOL    HW2 8526   3.716   3.280   6.156
 2543SOL     OW 8527   0.276   0.874   3.553
 2543SOL    HW1 8528   0.296   0.831   3.466
 2543SOL    HW2 8529   0.359   0.918   3.589
 2544SOL     OW 8530   0.674   6.274   0.866
 2544SOL    HW1 8531   0.673   6.276   0.766
 2544SOL    HW2 8532   0.649   6.364   0.901
 2545SOL     OW 8533   1.262   6.958   1.637
 2545SOL    HW1 8534   1.177   6.972   1.586
 2545SOL    HW2 8535   1.310   6.878   1.600
 2546SOL     OW 8536   6.504   1.187   1.933
 2546SOL    HW1 8537   6.587   1.203   1.987
 2546SOL    HW2 8538   6.461   1.275   1.911
 2547SOL     OW 8539   6.994   4.085   0.198
 2547SOL    HW1 8540   6.930   4.139   0.144
 2547SOL    HW2 8541   6.990   4.114   0.294
 2548SOL     OW 8542   0.785   6.922   5.153
 2548SOL    HW1 8543   0.699   6.947   5.110
 2548SOL    HW2 8544   0.794   6.822   5.156
 2549SOL     OW 8545   0.861   0.203   0.903
 2549SOL    HW1 8546   0.906   0.291   0.891
 2549SOL    HW2 8547   0.855   0.181   1.000
 2550SOL     OW 8548   0.064   0.392   6.782
 2550SOL    HW1 8549   0.055   0.492   6.784
 2550SOL    HW2 8550   0.032   0.358   6.694
 2551SOL     OW 8551   3.487   4.636   0.660
 2551SOL    HW1 8552   3.418   4.577   0.703
 2551SOL    HW2 8553   3.444   4.691   0.588
 2552SOL     OW 8554   1.531   6.221   4.211
 2552SOL    HW1 8555   1.603   6.276   4.168
 2552SOL    HW2 8556   1.568   6.174   4.291
 2553SOL     OW 8557   4.259   3.746   5.826
 2553SOL    HW1 8558   4.285   3.775   5.734
 2553SOL    HW2 8559   4.237   3.826   5.882
 2554SOL     OW 8560   2.853   0.534   0.537
 2554SOL    HW1 8561   2.793   0.600   0.491
 2554SOL    HW2 8562   2.834   0.442   0.502
 2555SOL     OW 8563   5.796   0.380   5.035
 2555SOL    HW1 8564   5.843   0.339   5.113
 2555SOL    HW2 8565   5.715   0.327   5.012
 2556SOL     OW 8566   3.836   6.314   0.163
 2556SOL    HW1 8567   3.769   6.288   0.232
 2556SOL    HW2 8568   3.887   6.394   0.196
 2557SOL     OW 8569   2.574   4.239   0.288
 2557SOL    HW1 8570   2.528   4.292   0.360
 2557SOL    HW2 8571   2.531   4.149   0.281
 2558SOL     OW 8572   5.067   1.583   5.322
 2558SOL    HW1 8573   5.079   1.666   5.266
 2558SOL    HW2 8574   5.148   1.525   5.313
 2559SOL     OW 8575   0.601   3.906   5.458
 2559SOL    HW1 8576   0.570   3.997   5.483
 2559SOL    HW2 8577   0.522   3.849   5.435
 2560SOL     OW 8578   5.921   2.778   5.231
 2560SOL    HW1 8579   5.835   2.802   5.276
 2560SOL    HW2 8580   5.901   2.730   5.145
 2561SOL     OW 8581   2.939   5.600   5.405
 2561SOL    HW1 8582   2.947   5.500   5.400
 2561SOL    HW2 8583   2.869   5.631   5.342
 2562SOL     OW 8584   2.315   5.306   1.421
 2562SOL    HW1 8585   2.330   5.363   1.340
 2562SOL    HW2 8586   2.313   5.210   1.395
 2563SOL     OW 8587   3.206   1.674   0.750
 2563SOL    HW1 8588   3.184   1.644   0.843
 2563SOL    HW2 8589   3.122   1.690   0.699
 2564SOL     OW 8590   2.472   5.623   6.874
 2564SOL    HW1 8591   2.423   5.692   6.927
 2564SOL    HW2 8592   2.454   5.637   6.777
 2565SOL     OW 8593   1.057   6.886   6.619
 2565SOL    HW1 8594   0.960   6.886   6.641
 2565SOL    HW2 8595   1.101   6.807   6.661
 2566SOL     OW 8596   2.125   6.964   1.025
 2566SOL    HW1 8597   2.110   0.030   1.063
 2566SOL    HW2 8598   2.038   6.923   0.999
 2567SOL     OW 8599   1.224   0.463   0.969
 2567SOL    HW1 8600   1.264   0.373   0.980
 2567SOL    HW2 8601   1.295   0.533   0.980
 2568SOL     OW 8602   4.016   1.407   6.813
 2568SOL    HW1 8603   3.947   1.335   6.814
 2568SOL    HW2 8604   3.971   1.497   6.811
 2569SOL     OW 8605   3.263   0.594   2.164
 2569SOL    HW1 8606   3.165   0.603   2.145
 2569SOL    HW2 8607   3.281   0.623   2.258
 2570SOL     OW 8608   5.609   0.067   6.112
 2570SOL    HW1 8609   5.576   0.043   6.203
 2570SOL    HW2 8610   5.576   0.158   6.087
 2571SOL     OW 8611   2.218   4.611   4.773
 2571SOL    HW1 8612   2.304   4.586   4.817
 2571SOL    HW2 8613   2.178   4.531   4.729
 2572SOL     OW 8614   2.900   6.064   1.263
 2572SOL    HW1 8615   2.950   6.004   1.326
 2572SOL    HW2 8616   2.907   6.027   1.170
 2573SOL     OW 8617   0.136   1.850   1.733
 2573SOL    HW1 8618   0.225   1.895   1.737
 2573SOL    HW2 8619   0.084   1.870   1.816
 2574SOL     OW 8620   5.650   3.927   0.560
 2574SOL    HW1 8621   5.557   3.909   0.528
 2574SOL    HW2 8622   5.713   3.923   0.483
 2575SOL     OW 8623   4.843   5.796   0.827
 2575SOL    HW1 8624   4.824   5.698   0.828
 2575SOL    HW2 8625   4.893   5.819   0.744
 2576SOL     OW 8626   4.274   6.544   4.659
 2576SOL    HW1 8627   4.207   6.615   4.639
 2576SOL    HW2 8628   4.362   6.587   4.681
 2577SOL     OW 8629   4.132   6.694   2.333
 2577SOL    HW1 8630   4.107   6.645   2.416
 2577SOL    HW2 8631   4.049   6.729   2.288
 2578SOL     OW 8632   4.658   1.860   4.371
 2578SOL    HW1 8633   4.616   1.933   4.317
 2578SOL    HW2 8634   4.634   1.871   4.467
 2579SOL     OW 8635   1.513   6.801   3.795
 2579SOL    HW1 8636   1.446   6.861   3.839
 2579SOL    HW2 8637   1.502   6.807   3.696
 2580SOL     OW 8638   2.714   4.564   6.286
 2580SOL    HW1 8639   2.721   4.538   6.190
 2580SOL    HW2 8640   2.708   4.482   6.343
 2581SOL     OW 8641   2.137   4.970   2.310
 2581SOL    HW1 8642   2.101   5.020   2.231
 2581SOL    HW2 8643   2.061   4.933   2.363
 2582SOL     OW 8644   0.332   4.155   1.295
 2582SOL    HW1 8645   0.402   4.164   1.225
 2582SOL    HW2 8646   0.357   4.083   1.359
 2583SOL     OW 8647   1.228   1.544   6.763
 2583SOL    HW1 8648   1.170   1.531   6.844
 2583SOL    HW2 8649   1.309   1.486   6.770
 2584SOL     OW 8650   5.010   5.544   6.171
 2584SOL    HW1 8651   5.010   5.583   6.079
 2584SOL    HW2 8652   5.063   5.602   6.233
 2585SOL     OW 8653   3.587   3.480   1.041
 2585SOL    HW1 8654   3.548   3.445   1.126
 2585SOL    HW2 8655   3.554   3.573   1.025
 2586SOL     OW 8656   3.197   0.663   5.111
 2586SOL    HW1 8657   3.136   0.690   5.037
 2586SOL    HW2 8658   3.157   0.587   5.162
 2587SOL     OW 8659   6.032   1.240   3.830
 2587SOL    HW1 8660   6.090   1.161   3.848
 2587SOL    HW2 8661   6.030   1.259   3.732
 2588SOL     OW 8662   4.591   2.114   5.899
 2588SOL    HW1 8663   4.525   2.039   5.903
 2588SOL    HW2 8664   4.684   2.077   5.905
 2589SOL     OW 8665   1.492   6.501   5.883
 2589SOL    HW1 8666   1.515   6.563   5.958
 2589SOL    HW2 8667   1.510   6.407   5.912
 2590SOL     OW 8668   3.981   4.705   0.453
 2590SOL    HW1 8669   4.058   4.641   0.447
 2590SOL    HW2 8670   4.012   4.796   0.425
 2591SOL     OW 8671   6.922   4.517   3.457
 2591SOL    HW1 8672   6.910   4.594   3.395
 2591SOL    HW2 8673   6.916   4.548   3.552
 2592SOL     OW 8674   3.343   4.825   6.828
 2592SOL    HW1 8675   3.277   4.879   6.776
 2592SOL    HW2 8676   3.295   4.759   6.885
 2593SOL     OW 8677   3.950   5.871   0.132
 2593SOL    HW1 8678   4.039   5.906   0.161
 2593SOL    HW2 8679   3.947   5.863   0.032
 2594SOL     OW 8680   2.340   3.608   6.089
 2594SOL    HW1 8681   2.286   3.583   6.009
 2594SOL    HW2 8682   2.408   3.677   6.063
 2595SOL     OW 8683   6.888   0.720   4.134
 2595SOL    HW1 8684   6.798   0.732   4.176
 2595SOL    HW2 8685   6.884   0.748   4.038
 2596SOL     OW 8686   2.924   2.216   1.770
 2596SOL    HW1 8687   2.937   2.310   1.801
 2596SOL    HW2 8688   2.920   2.155   1.850
 2597SOL     OW 8689   0.626   5.102   6.043
 2597SOL    HW1 8690   0.533   5.069   6.026
 2597SOL    HW2 8691   0.680   5.097   5.959
 2598SOL     OW 8692   6.571   1.567   2.692
 2598SOL    HW1 8693   6.662   1.595   2.660
 2598SOL    HW2 8694   6.542   1.486   2.641
 2599SOL     OW 8695   1.434   5.720   0.744
 2599SOL    HW1 8696   1.527   5.684   0.756
 2599SOL    HW2 8697   1.404   5.703   0.649
 2600SOL     OW 8698   5.678   2.687   4.761
 2600SOL    HW1 8699   5.652   2.594   4.735
 2600SOL    HW2 8700   5.724   2.731   4.684
 2601SOL     OW 8701   1.482   1.799   1.155
 2601SOL    HW1 8702   1.529   1.804   1.243
 2601SOL    HW2 8703   1.533   1.854   1.087
 2602SOL     OW 8704   1.428   5.015   4.999
 2602SOL    HW1 8705   1.423   5.034   5.098
 2602SOL    HW2 8706   1.364   5.074   4.951
 2603SOL     OW 8707   3.088   1.380   2.901
 2603SOL    HW1 8708   3.064   1.475   2.921
 2603SOL    HW2 8709   3.065   1.323   2.980
 2604SOL     OW 8710   4.609   1.972   2.774
 2604SOL    HW1 8711   4.574   2.052   2.823
 2604SOL    HW2 8712   4.633   2.000   2.680
 2605SOL     OW 8713   1.461   3.358   2.562
 2605SOL    HW1 8714   1.479   3.262   2.542
 2605SOL    HW2 8715   1.485   3.413   2.482
 2606SOL     OW 8716   6.060   5.200   1.963
 2606SOL    HW1 8717   6.141   5.182   1.907
 2606SOL    HW2 8718   5.997   5.123   1.957
 2607SOL     OW 8719   0.650   1.378   1.130
 2607SOL    HW1 8720   0.685   1.433   1.206
 2607SOL    HW2 8721   0.698   1.402   1.046
 2608SOL     OW 8722   3.955   5.228   0.539
 2608SOL    HW1 8723   4.055   5.225   0.535
 2608SOL    HW2 8724   3.923   5.315   0.500
 2609SOL     OW 8725   5.926   1.401   2.188
 2609SOL    HW1 8726   5.942   1.303   2.177
 2609SOL    HW2 8727   5.921   1.444   2.098
 2610SOL     OW 8728   0.580   4.606   4.188
 2610SOL    HW1 8729   0.553   4.694   4.149
 2610SOL    HW2 8730   0.669   4.579   4.152
 2611SOL     OW 8731   4.702   6.246   0.087
 2611SOL    HW1 8732   4.735   6.226   7.020
 2611SOL    HW2 8733   4.758   6.319   0.127
 2612SOL     OW 8734   5.773   6.610   4.619
 2612SOL    HW1 8735   5.747   6.640   4.527
 2612SOL    HW2 8736   5.709   6.540   4.650
 2613SOL     OW 8737   2.234   5.393   6.816
 2613SOL    HW1 8738   2.331   5.407   6.799
 2613SOL    HW2 8739   2.208   5.301   6.786
 2614SOL     OW 8740   6.196   1.406   0.097
 2614SOL    HW1 8741   6.178   1.453   0.010
 2614SOL    HW2 8742   6.261   1.460   0.151
 2615SOL     OW 8743   1.086   3.655   0.828
 2615SOL    HW1 8744   1.072   3.596   0.907
 2615SOL    HW2 8745   1.183   3.657   0.805
 2616SOL     OW 8746   1.646   1.722   5.865
 2616SOL    HW1 8747   1.710   1.667   5.920
 2616SOL    HW2 8748   1.698   1.778   5.800
 2617SOL     OW 8749   4.730   0.895   0.637
 2617SOL    HW1 8750   4.706   0.890   0.734
 2617SOL    HW2 8751   4.654   0.937   0.587
 2618SOL     OW 8752   0.697   6.484   4.069
 2618SOL    HW1 8753   0.697   6.556   4.138
 2618SOL    HW2 8754   0.791   6.453   4.053
 2619SOL     OW 8755   4.688   1.668   1.713
 2619SOL    HW1 8756   4.653   1.615   1.791
 2619SOL    HW2 8757   4.716   1.605   1.640
 2620SOL     OW 8758   6.379   0.426   2.544
 2620SOL    HW1 8759   6.352   0.503   2.486
 2620SOL    HW2 8760   6.298   0.379   2.578
 2621SOL     OW 8761   0.887   4.529   2.326
 2621SOL    HW1 8762   0.809   4.530   2.389
 2621SOL    HW2 8763   0.947   4.606   2.348
 2622SOL     OW 8764   3.112   3.444   5.926
 2622SOL    HW1 8765   3.160   3.365   5.964
 2622SOL    HW2 8766   3.016   3.440   5.950
 2623SOL     OW 8767   0.619   0.823   4.960
 2623SOL    HW1 8768   0.710   0.781   4.961
 2623SOL    HW2 8769   0.564   0.782   4.888
 2624SOL     OW 8770   6.632   2.389   4.920
 2624SOL    HW1 8771   6.593   2.298   4.935
 2624SOL    HW2 8772   6.726   2.391   4.955
 2625SOL     OW 8773   2.361   4.067   5.695
 2625SOL    HW1 8774   2.286   4.133   5.700
 2625SOL    HW2 8775   2.415   4.071   5.778
 2626SOL     OW 8776   6.543   0.239   5.991
 2626SOL    HW1 8777   6.463   0.191   6.028
 2626SOL    HW2 8778   6.562   0.206   5.898
 2627SOL     OW 8779   0.903   0.692   6.089
 2627SOL    HW1 8780   0.812   0.730   6.074
 2627SOL    HW2 8781   0.967   0.732   6.024
 2628SOL     OW 8782   2.038   3.595   4.902
 2628SOL    HW1 8783   2.105   3.527   4.932
 2628SOL    HW2 8784   1.946   3.566   4.931
 2629SOL     OW 8785   4.051   3.430   2.540
 2629SOL    HW1 8786   4.012   3.421   2.631
 2629SOL    HW2 8787   4.030   3.521   2.504
 2630SOL     OW 8788   3.624   1.631   3.755
 2630SOL    HW1 8789   3.600   1.609   3.850
 2630SOL    HW2 8790   3.689   1.707   3.755
 2631SOL     OW 8791   5.599   0.867   6.656
 2631SOL    HW1 8792   5.585   0.865   6.557
 2631SOL    HW2 8793   5.638   0.780   6.686
 2632SOL     OW 8794   6.081   3.641   1.163
 2632SOL    HW1 8795   6.057   3.544   1.160
 2632SOL    HW2 8796   6.007   3.695   1.125
 2633SOL     OW 8797   6.583   2.036   5.192
 2633SOL    HW1 8798   6.651   2.106   5.213
 2633SOL    HW2 8799   6.514   2.034   5.264
 2634SOL     OW 8800   0.675   5.777   3.561
 2634SOL    HW1 8801   0.582   5.750   3.537
 2634SOL    HW2 8802   0.679   5.802   3.657
 2635SOL     OW 8803   6.241   5.633   3.960
 2635SOL    HW1 8804   6.292   5.570   4.019
 2635SOL    HW2 8805   6.304   5.680   3.899
 2636SOL     OW 8806   4.029   0.551   0.145
 2636SOL    HW1 8807   3.968   0.487   0.190
 2636SOL    HW2 8808   4.009   0.553   0.047
 2637SOL     OW 8809   6.330   1.781   3.987
 2637SOL    HW1 8810   6.382   1.726   3.922
 2637SOL    HW2 8811   6.234   1.782   3.960
 2638SOL     OW 8812   0.415   0.085   4.479
 2638SOL    HW1 8813   0.457   0.004   4.438
 2638SOL    HW2 8814   0.441   0.166   4.426
 2639SOL     OW 8815   5.029   5.405   5.569
 2639SOL    HW1 8816   4.949   5.457   5.542
 2639SOL    HW2 8817   5.001   5.324   5.621
 2640SOL     OW 8818   6.731   0.160   5.190
 2640SOL    HW1 8819   6.826   0.157   5.158
 2640SOL    HW2 8820   6.727   0.132   5.286
 2641SOL     OW 8821   4.666   2.100   1.153
 2641SOL    HW1 8822   4.697   2.194   1.170
 2641SOL    HW2 8823   4.605   2.071   1.226
 2642SOL     OW 8824   5.887   0.750   3.762
 2642SOL    HW1 8825   5.899   0.771   3.665
 2642SOL    HW2 8826   5.940   0.815   3.816
 2643SOL     OW 8827   1.711   3.112   3.950
 2643SOL    HW1 8828   1.715   3.133   4.048
 2643SOL    HW2 8829   1.798   3.139   3.907
 2644SOL     OW 8830   4.909   5.624   4.957
 2644SOL    HW1 8831   4.959   5.569   4.890
 2644SOL    HW2 8832   4.813   5.629   4.931
 2645SOL     OW 8833   5.440   4.633   3.619
 2645SOL    HW1 8834   5.407   4.614   3.527
 2645SOL    HW2 8835   5.380   4.588   3.686
 2646SOL     OW 8836   0.437   3.512   6.833
 2646SOL    HW1 8837   0.386   3.431   6.806
 2646SOL    HW2 8838   0.399   3.592   6.785
 2647SOL     OW 8839   5.865   6.738   1.852
 2647SOL    HW1 8840   5.911   6.789   1.778
 2647SOL    HW2 8841   5.827   6.654   1.815
 2648SOL     OW 8842   0.340   6.621   4.181
 2648SOL    HW1 8843   0.390   6.536   4.167
 2648SOL    HW2 8844   0.335   6.671   4.095
 2649SOL     OW 8845   5.538   3.200   1.691
 2649SOL    HW1 8846   5.559   3.286   1.738
 2649SOL    HW2 8847   5.461   3.156   1.736
 2650SOL     OW 8848   2.454   5.785   4.578
 2650SOL    HW1 8849   2.528   5.762   4.641
 2650SOL    HW2 8850   2.431   5.705   4.523
 2651SOL     OW 8851   3.553   0.970   0.065
 2651SOL    HW1 8852   3.462   0.970   0.025
 2651SOL    HW2 8853   3.553   0.918   0.150
 2652SOL     OW 8854   4.685   3.491   5.635
 2652SOL    HW1 8855   4.735   3.521   5.716
 2652SOL    HW2 8856   4.639   3.404   5.654
 2653SOL     OW 8857   3.842   6.042   5.645
 2653SOL    HW1 8858   3.868   6.002   5.733
 2653SOL    HW2 8859   3.805   5.970   5.586
 2654SOL     OW 8860   5.214   6.700   0.641
 2654SOL    HW1 8861   5.237   6.770   0.573
 2654SOL    HW2 8862   5.292   6.640   0.654
 2655SOL     OW 8863   4.535   5.912   3.614
 2655SOL    HW1 8864   4.475   5.885   3.538
 2655SOL    HW2 8865   4.626   5.932   3.578
 2656SOL     OW 8866   3.209   5.288   3.792
 2656SOL    HW1 8867   3.225   5.244   3.880
 2656SOL    HW2 8868   3.191   5.385   3.806
 2657SOL     OW 8869   1.990   2.987   0.687
 2657SOL    HW1 8870   1.973   2.890   0.707
 2657SOL    HW2 8871   2.079   2.996   0.642
 2658SOL     OW 8872   4.629   4.599   0.705
 2658SOL    HW1 8873   4.574   4.597   0.622
 2658SOL    HW2 8874   4.580   4.553   0.779
 2659SOL     OW 8875   4.805   3.056   5.039
 2659SOL    HW1 8876   4.891   3.038   4.991
 2659SOL    HW2 8877   4.736   2.990   5.011
 2660SOL     OW 8878   0.403   1.038   1.373
 2660SOL    HW1 8879   0.471   1.094   1.327
 2660SOL    HW2 8880   0.438   0.945   1.386
 2661SOL     OW 8881   1.713   0.551   1.874
 2661SOL    HW1 8882   1.719   0.633   1.817
 2661SOL    HW2 8883   1.767   0.478   1.833
 2662SOL     OW 8884   2.474   0.413   3.504
 2662SOL    HW1 8885   2.451   0.507   3.527
 2662SOL    HW2 8886   2.431   0.389   3.417
 2663SOL     OW 8887   4.177   5.820   5.731
 2663SOL    HW1 8888   4.129   5.823   5.819
 2663SOL    HW2 8889   4.164   5.907   5.684
 2664SOL     OW 8890   3.679   3.016   5.695
 2664SOL    HW1 8891   3.670   3.023   5.596
 2664SOL    HW2 8892   3.667   2.921   5.723
 2665SOL     OW 8893   2.537   3.286   5.558
 2665SOL    HW1 8894   2.563   3.202   5.509
 2665SOL    HW2 8895   2.612   3.352   5.551
 2666SOL     OW 8896   1.621   3.422   1.987
 2666SOL    HW1 8897   1.668   3.466   1.910
 2666SOL    HW2 8898   1.526   3.404   1.961
 2667SOL     OW 8899   0.807   5.446   3.953
 2667SOL    HW1 8900   0.764   5.494   4.030
 2667SOL    HW2 8901   0.906   5.457   3.960
 2668SOL     OW 8902   5.595   3.144   4.264
 2668SOL    HW1 8903   5.571   3.091   4.345
 2668SOL    HW2 8904   5.669   3.098   4.215
 2669SOL     OW 8905   3.383   5.768   6.589
 2669SOL    HW1 8906   3.439   5.687   6.578
 2669SOL    HW2 8907   3.326   5.759   6.671
 2670SOL     OW 8908   6.364   2.011   5.012
 2670SOL    HW1 8909   6.440   2.001   5.077
 2670SOL    HW2 8910   6.400   2.006   4.919
 2671SOL     OW 8911   4.421   6.073   6.052
 2671SOL    HW1 8912   4.327   6.071   6.019
 2671SOL    HW2 8913   4.478   6.126   5.989
 2672SOL     OW 8914   3.070   0.435   1.844
 2672SOL    HW1 8915   3.083   0.475   1.935
 2672SOL    HW2 8916   3.157   0.399   1.810
 2673SOL     OW 8917   5.453   1.123   2.265
 2673SOL    HW1 8918   5.541   1.164   2.287
 2673SOL    HW2 8919   5.380   1.181   2.300
 2674SOL     OW 8920   1.688   4.845   3.808
 2674SOL    HW1 8921   1.779   4.819   3.778
 2674SOL    HW2 8922   1.678   4.945   3.803
 2675SOL     OW 8923   0.162   6.808   3.582
 2675SOL    HW1 8924   0.179   6.805   3.484
 2675SOL    HW2 8925   0.119   6.894   3.607
 2676SOL     OW 8926   3.274   3.839   2.444
 2676SOL    HW1 8927   3.274   3.789   2.358
 2676SOL    HW2 8928   3.348   3.806   2.502
 2677SOL     OW 8929   3.009   4.713   1.112
 2677SOL    HW1 8930   2.974   4.623   1.138
 2677SOL    HW2 8931   2.937   4.781   1.123
 2678SOL     OW 8932   6.877   3.072   1.984
 2678SOL    HW1 8933   6.910   3.147   1.926
 2678SOL    HW2 8934   6.777   3.071   1.985
 2679SOL     OW 8935   1.725   5.162   2.646
 2679SOL    HW1 8936   1.665   5.190   2.720
 2679SOL    HW2 8937   1.807   5.220   2.646
 2680SOL     OW 8938   1.247   2.597   0.205
 2680SOL    HW1 8939   1.287   2.512   0.240
 2680SOL    HW2 8940   1.219   2.584   0.110
 2681SOL     OW 8941   1.556   2.939   5.316
 2681SOL    HW1 8942   1.578   2.919   5.221
 2681SOL    HW2 8943   1.495   3.019   5.320
 2682SOL     OW 8944   5.328   4.269   2.854
 2682SOL    HW1 8945   5.237   4.230   2.847
 2682SOL    HW2 8946   5.369   4.274   2.763
 2683SOL     OW 8947   2.171   4.527   2.745
 2683SOL    HW1 8948   2.234   4.504   2.671
 2683SOL    HW2 8949   2.096   4.583   2.709
 2684SOL     OW 8950   5.259   6.474   1.478
 2684SOL    HW1 8951   5.278   6.564   1.441
 2684SOL    HW2 8952   5.257   6.479   1.578
 2685SOL     OW 8953   6.727   4.866   4.675
 2685SOL    HW1 8954   6.762   4.949   4.719
 2685SOL    HW2 8955   6.774   4.852   4.588
 2686SOL     OW 8956   0.912   1.254   5.290
 2686SOL    HW1 8957   0.936   1.351   5.294
 2686SOL    HW2 8958   0.967   1.202   5.355
 2687SOL     OW 8959   3.921   6.580   1.427
 2687SOL    HW1 8960   4.016   6.554   1.411
 2687SOL    HW2 8961   3.866   6.554   1.347
 2688SOL     OW 8962   3.167   2.219   0.970
 2688SOL    HW1 8963   3.136   2.204   0.876
 2688SOL    HW2 8964   3.251   2.167   0.986
 2689SOL     OW 8965   0.443   3.615   2.574
 2689SOL    HW1 8966   0.535   3.592   2.542
 2689SOL    HW2 8967   0.387   3.532   2.578
 2690SOL     OW 8968   2.967   3.132   0.208
 2690SOL    HW1 8969   3.019   3.204   0.161
 2690SOL    HW2 8970   2.893   3.174   0.261
 2691SOL     OW 8971   0.397   4.708   4.004
 2691SOL    HW1 8972   0.303   4.730   4.032
 2691SOL    HW2 8973   0.400   4.612   3.974
 2692SOL     OW 8974   2.144   6.051   3.372
 2692SOL    HW1 8975   2.213   5.984   3.399
 2692SOL    HW2 8976   2.054   6.021   3.404
 2693SOL     OW 8977   1.586   5.136   4.081
 2693SOL    HW1 8978   1.676   5.180   4.075
 2693SOL    HW2 8979   1.597   5.037   4.089
 2694SOL     OW 8980   3.895   6.666   3.133
 2694SOL    HW1 8981   3.988   6.651   3.167
 2694SOL    HW2 8982   3.899   6.687   3.036
 2695SOL     OW 8983   6.176   0.344   3.108
 2695SOL    HW1 8984   6.096   0.375   3.159
 2695SOL    HW2 8985   6.227   0.423   3.075
 2696SOL     OW 8986   4.609   4.212   6.494
 2696SOL    HW1 8987   4.536   4.248   6.435
 2696SOL    HW2 8988   4.607   4.259   6.582
 2697SOL     OW 8989   4.607   1.135   1.920
 2697SOL    HW1 8990   4.561   1.223   1.906
 2697SOL    HW2 8991   4.556   1.082   1.987
 2698SOL     OW 8992   2.038   4.971   6.769
 2698SOL    HW1 8993   2.043   4.999   6.865
 2698SOL    HW2 8994   1.949   4.929   6.752
 2699SOL     OW 8995   3.097   5.887   1.378
 2699SOL    HW1 8996   3.170   5.830   1.341
 2699SOL    HW2 8997   3.039   5.831   1.438
 2700SOL     OW 8998   2.547   1.878   0.769
 2700SOL    HW1 8999   2.617   1.907   0.704
 2700SOL    HW2 9000   2.460   1.922   0.747
 2701SOL     OW 9001   5.238   2.781   5.614
 2701SOL    HW1 9002   5.301   2.705   5.598
 2701SOL    HW2 9003   5.146   2.756   5.582
 2702SOL     OW 9004   1.210   2.130   3.730
 2702SOL    HW1 9005   1.206   2.182   3.816
 2702SOL    HW2 9006   1.303   2.097   3.716
 2703SOL     OW 9007   1.733   5.819   1.187
 2703SOL    HW1 9008   1.804   5.811   1.257
 2703SOL    HW2 9009   1.671   5.741   1.194
 2704SOL     OW 9010   6.844   5.610   2.636
 2704SOL    HW1 9011   6.870   5.514   2.630
 2704SOL    HW2 9012   6.892   5.662   2.565
 2705SOL     OW 9013   6.422   1.201   5.674
 2705SOL    HW1 9014   6.390   1.118   5.626
 2705SOL    HW2 9015   6.455   1.176   5.765
 2706SOL     OW 9016   6.127   4.498   4.609
 2706SOL    HW1 9017   6.038   4.496   4.655
 2706SOL    HW2 9018   6.166   4.406   4.609
 2707SOL     OW 9019   3.854   6.347   3.843
 2707SOL    HW1 9020   3.928   6.282   3.826
 2707SOL    HW2 9021   3.768   6.298   3.856
 2708SOL     OW 9022   6.446   2.684   0.423
 2708SOL    HW1 9023   6.435   2.647   0.516
 2708SOL    HW2 9024   6.541   2.674   0.395
 2709SOL     OW 9025   4.506   6.763   5.909
 2709SOL    HW1 9026   4.590   6.759   5.855
 2709SOL    HW2 9027   4.474   6.858   5.913
 2710SOL     OW 9028   1.785   2.523   3.585
 2710SOL    HW1 9029   1.738   2.525   3.673
 2710SOL    HW2 9030   1.745   2.593   3.525
 2711SOL     OW 9031   2.996   1.574   3.447
 2711SOL    HW1 9032   2.929   1.647   3.437
 2711SOL    HW2 9033   2.988   1.535   3.539
 2712SOL     OW 9034   3.056   5.552   1.849
 2712SOL    HW1 9035   3.033   5.647   1.870
 2712SOL    HW2 9036   2.983   5.513   1.792
 2713SOL     OW 9037   4.050   4.292   6.322
 2713SOL    HW1 9038   3.973   4.286   6.258
 2713SOL    HW2 9039   4.044   4.220   6.390
 2714SOL     OW 9040   4.267   3.898   6.738
 2714SOL    HW1 9041   4.275   3.809   6.693
 2714SOL    HW2 9042   4.283   3.887   6.836
 2715SOL     OW 9043   5.252   2.026   1.080
 2715SOL    HW1 9044   5.174   2.085   1.061
 2715SOL    HW2 9045   5.284   1.984   0.995
 2716SOL     OW 9046   4.781   2.634   3.206
 2716SOL    HW1 9047   4.797   2.706   3.273
 2716SOL    HW2 9048   4.822   2.549   3.239
 2717SOL     OW 9049   0.617   6.873   2.499
 2717SOL    HW1 9050   0.584   6.877   2.593
 2717SOL    HW2 9051   0.547   6.828   2.442
 2718SOL     OW 9052   6.793   0.962   5.358
 2718SOL    HW1 9053   6.836   0.875   5.383
 2718SOL    HW2 9054   6.760   0.957   5.263
 2719SOL     OW 9055   1.323   4.314   2.151
 2719SOL    HW1 9056   1.280   4.226   2.170
 2719SOL    HW2 9057   1.389   4.336   2.223
 2720SOL     OW 9058   0.984   0.229   4.564
 2720SOL    HW1 9059   1.066   0.255   4.615
 2720SOL    HW2 9060   1.009   0.167   4.490
 2721SOL     OW 9061   3.349   6.607   2.422
 2721SOL    HW1 9062   3.397   6.544   2.361
 2721SOL    HW2 9063   3.379   6.592   2.517
 2722SOL     OW 9064   5.022   5.321   6.501
 2722SOL    HW1 9065   5.032   5.240   6.443
 2722SOL    HW2 9066   4.991   5.294   6.592
 2723SOL     OW 9067   2.855   6.224   6.964
 2723SOL    HW1 9068   2.916   6.144   6.965
 2723SOL    HW2 9069   2.893   6.294   6.904
 2724SOL     OW 9070   1.537   5.628   6.699
 2724SOL    HW1 9071   1.544   5.727   6.712
 2724SOL    HW2 9072   1.624   5.585   6.723
 2725SOL     OW 9073   5.410   4.089   4.435
 2725SOL    HW1 9074   5.505   4.118   4.437
 2725SOL    HW2 9075   5.405   3.991   4.413
 2726SOL     OW 9076   0.830   2.292   1.785
 2726SOL    HW1 9077   0.812   2.273   1.881
 2726SOL    HW2 9078   0.847   2.206   1.737
 2727SOL     OW 9079   1.932   3.885   4.360
 2727SOL    HW1 9080   1.999   3.865   4.288
 2727SOL    HW2 9081   1.979   3.917   4.442
 2728SOL     OW 9082   5.080   5.701   6.724
 2728SOL    HW1 9083   5.151   5.660   6.783
 2728SOL    HW2 9084   5.070   5.645   6.642
 2729SOL     OW 9085   6.638   6.345   6.968
 2729SOL    HW1 9086   6.620   6.403   6.888
 2729SOL    HW2 9087   6.610   6.251   6.947
 2730SOL     OW 9088   0.680   5.617   0.970
 2730SOL    HW1 9089   0.618   5.693   0.988
 2730SOL    HW2 9090   0.769   5.652   0.941
 2731SOL     OW 9091   2.977   3.344   3.223
 2731SOL    HW1 9092   3.013   3.338   3.130
 2731SOL    HW2 9093   2.877   3.347   3.220
 2732SOL     OW 9094   5.261   2.403   1.750
 2732SOL    HW1 9095   5.300   2.466   1.683
 2732SOL    HW2 9096   5.177   2.441   1.788
 2733SOL     OW 9097   6.913   1.222   5.154
 2733SOL    HW1 9098   6.814   1.210   5.150
 2733SOL    HW2 9099   6.944   1.215   5.249
 2734SOL     OW 9100   3.404   6.159   1.539
 2734SOL    HW1 9101   3.328   6.143   1.475
 2734SOL    HW2 9102   3.472   6.218   1.495
 2735SOL     OW 9103   1.753   2.432   0.389
 2735SOL    HW1 9104   1.672   2.455   0.443
 2735SOL    HW2 9105   1.788   2.515   0.346
 2736SOL     OW 9106   5.581   6.192   4.244
 2736SOL    HW1 9107   5.626   6.189   4.334
 2736SOL    HW2 9108   5.487   6.160   4.253
 2737SOL     OW 9109   3.005   2.759   5.815
 2737SOL    HW1 9110   3.049   2.843   5.846
 2737SOL    HW2 9111   2.910   2.758   5.848
 2738SOL     OW 9112   6.300   6.964   2.275
 2738SOL    HW1 9113   6.280   0.023   2.226
 2738SOL    HW2 9114   6.289   6.978   2.373
 2739SOL     OW 9115   0.775   5.217   1.017
 2739SOL    HW1 9116   0.720   5.138   0.991
 2739SOL    HW2 9117   0.815   5.259   0.936
 2740SOL     OW 9118   0.607   5.183   2.122
 2740SOL    HW1 9119   0.553   5.180   2.038
 2740SOL    HW2 9120   0.605   5.276   2.160
 2741SOL     OW 9121   0.394   1.918   4.930
 2741SOL    HW1 9122   0.346   1.874   5.006
 2741SOL    HW2 9123   0.457   1.853   4.888
 2742SOL     OW 9124   2.612   5.391   1.895
 2742SOL    HW1 9125   2.623   5.305   1.846
 2742SOL    HW2 9126   2.516   5.408   1.913
 2743SOL     OW 9127   6.920   4.896   2.405
 2743SOL    HW1 9128   6.832   4.850   2.415
 2743SOL    HW2 9129   6.993   4.828   2.413
 2744SOL     OW 9130   3.443   3.394   2.217
 2744SOL    HW1 9131   3.456   3.296   2.229
 2744SOL    HW2 9132   3.356   3.421   2.259
 2745SOL     OW 9133   6.648   1.169   5.103
 2745SOL    HW1 9134   6.619   1.256   5.143
 2745SOL    HW2 9135   6.672   1.183   5.007
 2746SOL     OW 9136   0.728   1.455   4.586
 2746SOL    HW1 9137   0.784   1.376   4.611
 2746SOL    HW2 9138   0.787   1.532   4.563
 2747SOL     OW 9139   4.930   5.255   6.761
 2747SOL    HW1 9140   4.839   5.295   6.759
 2747SOL    HW2 9141   4.944   5.208   6.848
 2748SOL     OW 9142   4.453   0.592   1.550
 2748SOL    HW1 9143   4.485   0.675   1.505
 2748SOL    HW2 9144   4.516   0.569   1.625
 2749SOL     OW 9145   0.916   4.512   0.395
 2749SOL    HW1 9146   1.005   4.554   0.411
 2749SOL    HW2 9147   0.844   4.576   0.422
 2750SOL     OW 9148   2.443   5.033   1.835
 2750SOL    HW1 9149   2.536   5.060   1.812
 2750SOL    HW2 9150   2.444   4.951   1.892
 2751SOL     OW 9151   1.506   2.168   1.010
 2751SOL    HW1 9152   1.489   2.267   1.009
 2751SOL    HW2 9153   1.550   2.144   1.097
 2752SOL     OW 9154   3.856   4.670   6.558
 2752SOL    HW1 9155   3.841   4.737   6.630
 2752SOL    HW2 9156   3.925   4.603   6.587
 2753SOL     OW 9157   6.654   5.977   5.240
 2753SOL    HW1 9158   6.612   6.025   5.162
 2753SOL    HW2 9159   6.732   5.924   5.208
 2754SOL     OW 9160   0.604   0.080   0.172
 2754SOL    HW1 9161   0.684   0.073   0.112
 2754SOL    HW2 9162   0.564   7.014   0.184
 2755SOL     OW 9163   3.461   6.948   3.060
 2755SOL    HW1 9164   3.490   6.861   3.021
 2755SOL    HW2 9165   3.499   6.958   3.152
 2756SOL     OW 9166   4.534   6.386   0.274
 2756SOL    HW1 9167   4.575   6.351   0.190
 2756SOL    HW2 9168   4.462   6.452   0.251
 2757SOL     OW 9169   1.917   5.808   0.373
 2757SOL    HW1 9170   1.937   5.873   0.299
 2757SOL    HW2 9171   1.873   5.727   0.335
 2758SOL     OW 9172   5.129   0.220   4.685
 2758SOL    HW1 9173   5.150   0.296   4.748
 2758SOL    HW2 9174   5.134   0.253   4.591
 2759SOL     OW 9175   4.991   6.479   4.426
 2759SOL    HW1 9176   4.935   6.561   4.418
 2759SOL    HW2 9177   4.953   6.419   4.497
 2760SOL     OW 9178   1.212   5.593   1.235
 2760SOL    HW1 9179   1.120   5.628   1.220
 2760SOL    HW2 9180   1.227   5.577   1.332
 2761SOL     OW 9181   1.666   4.873   4.080
 2761SOL    HW1 9182   1.615   4.808   4.136
 2761SOL    HW2 9183   1.678   4.836   3.988
 2762SOL     OW 9184   0.779   0.787   5.271
 2762SOL    HW1 9185   0.722   0.739   5.338
 2762SOL    HW2 9186   0.742   0.878   5.255
 2763SOL     OW 9187   5.621   1.860   3.990
 2763SOL    HW1 9188   5.597   1.764   4.006
 2763SOL    HW2 9189   5.713   1.877   4.023
 2764SOL     OW 9190   6.164   0.392   1.252
 2764SOL    HW1 9191   6.159   0.486   1.287
 2764SOL    HW2 9192   6.091   0.337   1.293
 2765SOL     OW 9193   5.473   0.595   0.601
 2765SOL    HW1 9194   5.375   0.592   0.582
 2765SOL    HW2 9195   5.519   0.526   0.545
 2766SOL     OW 9196   5.146   1.936   0.610
 2766SOL    HW1 9197   5.071   1.883   0.571
 2766SOL    HW2 9198   5.183   1.997   0.540
 2767SOL     OW 9199   6.931   5.137   6.454
 2767SOL    HW1 9200   6.976   5.189   6.381
 2767SOL    HW2 9201   6.992   5.130   6.533
 2768SOL     OW 9202   5.213   0.608   0.004
 2768SOL    HW1 9203   5.223   0.553   6.947
 2768SOL    HW2 9204   5.126   0.585   0.049
 2769SOL     OW 9205   6.939   4.517   3.720
 2769SOL    HW1 9206   6.866   4.463   3.761
 2769SOL    HW2 9207   7.025   4.466   3.727
 2770SOL     OW 9208   2.436   5.454   6.125
 2770SOL    HW1 9209   2.413   5.365   6.086
 2770SOL    HW2 9210   2.494   5.441   6.206
 2771SOL     OW 9211   5.647   1.428   2.154
 2771SOL    HW1 9212   5.704   1.398   2.230
 2771SOL    HW2 9213   5.553   1.440   2.186
 2772SOL     OW 9214   4.357   1.944   1.107
 2772SOL    HW1 9215   4.408   1.957   1.192
 2772SOL    HW2 9216   4.264   1.980   1.118
 2773SOL     OW 9217   5.335   3.432   5.606
 2773SOL    HW1 9218   5.390   3.390   5.533
 2773SOL    HW2 9219   5.243   3.394   5.605
 2774SOL     OW 9220   6.953   3.133   3.079
 2774SOL    HW1 9221   6.893   3.054   3.090
 2774SOL    HW2 9222   6.899   3.217   3.075
 2775SOL     OW 9223   0.069   5.534   0.333
 2775SOL    HW1 9224   0.015   5.604   0.380
 2775SOL    HW2 9225   0.060   5.447   0.381
 2776SOL     OW 9226   5.215   5.785   5.476
 2776SOL    HW1 9227   5.212   5.817   5.382
 2776SOL    HW2 9228   5.150   5.837   5.532
 2777SOL     OW 9229   3.010   1.528   2.036
 2777SOL    HW1 9230   3.098   1.507   1.993
 2777SOL    HW2 9231   3.026   1.563   2.128
 2778SOL     OW 9232   1.427   1.396   5.304
 2778SOL    HW1 9233   1.407   1.477   5.248
 2778SOL    HW2 9234   1.509   1.413   5.359
 2779SOL     OW 9235   4.725   6.958   0.818
 2779SOL    HW1 9236   4.797   6.968   0.749
 2779SOL    HW2 9237   4.664   0.011   0.815
 2780SOL     OW 9238   6.868   5.342   5.803
 2780SOL    HW1 9239   6.896   5.405   5.876
 2780SOL    HW2 9240   6.934   5.268   5.795
 2781SOL     OW 9241   5.992   5.632   2.143
 2781SOL    HW1 9242   5.978   5.675   2.232
 2781SOL    HW2 9243   6.028   5.699   2.079
 2782SOL     OW 9244   2.764   2.743   5.931
 2782SOL    HW1 9245   2.676   2.741   5.883
 2782SOL    HW2 9246   2.766   2.668   5.998
 2783SOL     OW 9247   5.826   3.187   4.604
 2783SOL    HW1 9248   5.873   3.147   4.682
 2783SOL    HW2 9249   5.731   3.206   4.628
 2784SOL     OW 9250   2.806   1.775   1.216
 2784SOL    HW1 9251   2.817   1.759   1.117
 2784SOL    HW2 9252   2.850   1.861   1.241
 2785SOL     OW 9253   5.867   1.665   0.065
 2785SOL    HW1 9254   5.962   1.693   0.075
 2785SOL    HW2 9255   5.831   1.637   0.155
 2786SOL     OW 9256   4.399   6.483   1.309
 2786SOL    HW1 9257   4.465   6.543   1.266
 2786SOL    HW2 9258   4.384   6.403   1.251
 2787SOL     OW 9259   2.064   2.715   6.602
 2787SOL    HW1 9260   2.086   2.809   6.629
 2787SOL    HW2 9261   2.100   2.651   6.670
 2788SOL     OW 9262   2.129   4.222   0.071
 2788SOL    HW1 9263   2.174   4.308   0.097
 2788SOL    HW2 9264   2.030   4.234   0.074
 2789SOL     OW 9265   1.759   2.808   3.403
 2789SOL    HW1 9266   1.745   2.892   3.350
 2789SOL    HW2 9267   1.817   2.828   3.481
 2790SOL     OW 9268   2.871   5.491   2.688
 2790SOL    HW1 9269   2.894   5.587   2.677
 2790SOL    HW2 9270   2.943   5.444   2.738
 2791SOL     OW 9271   0.898   4.277   4.492
 2791SOL    HW1 9272   0.922   4.182   4.474
 2791SOL    HW2 9273   0.914   4.332   4.410
 2792SOL     OW 9274   1.028   0.003   5.250
 2792SOL    HW1 9275   0.944   6.980   5.226
 2792SOL    HW2 9276   1.035   0.088   5.197
 2793SOL     OW 9277   4.834   2.443   2.876
 2793SOL    HW1 9278   4.849   2.355   2.831
 2793SOL    HW2 9279   4.738   2.469   2.866
 2794SOL     OW 9280   6.861   2.461   0.633
 2794SOL    HW1 9281   6.899   2.443   0.723
 2794SOL    HW2 9282   6.927   2.434   0.563
 2795SOL     OW 9283   2.500   3.638   0.865
 2795SOL    HW1 9284   2.543   3.548   0.856
 2795SOL    HW2 9285   2.427   3.633   0.933
 2796SOL     OW 9286   6.688   4.790   2.945
 2796SOL    HW1 9287   6.675   4.865   3.009
 2796SOL    HW2 9288   6.690   4.703   2.995
 2797SOL     OW 9289   4.798   5.718   4.643
 2797SOL    HW1 9290   4.763   5.787   4.706
 2797SOL    HW2 9291   4.765   5.628   4.670
 2798SOL     OW 9292   1.199   4.504   1.770
 2798SOL    HW1 9293   1.127   4.541   1.712
 2798SOL    HW2 9294   1.176   4.519   1.866
 2799SOL     OW 9295   0.439   5.437   0.095
 2799SOL    HW1 9296   0.425   5.517   0.153
 2799SOL    HW2 9297   0.536   5.428   0.073
 2800SOL     OW 9298   4.286   4.576   6.648
 2800SOL    HW1 9299   4.333   4.489   6.658
 2800SOL    HW2 9300   4.351   4.651   6.661
 2801SOL     OW 9301   4.477   5.429   4.589
 2801SOL    HW1 9302   4.427   5.505   4.631
 2801SOL    HW2 9303   4.572   5.431   4.618
 2802SOL     OW 9304   4.821   3.430   6.675
 2802SOL    HW1 9305   4.768   3.474   6.747
 2802SOL    HW2 9306   4.758   3.383   6.612
 2803SOL     OW 9307   3.150   6.057   6.315
 2803SOL    HW1 9308   3.073   6.108   6.355
 2803SOL    HW2 9309   3.207   6.021   6.388
 2804SOL     OW 9310   0.105   4.520   4.582
 2804SOL    HW1 9311   0.099   4.589   4.509
 2804SOL    HW2 9312   0.016   4.511   4.626
 2805SOL     OW 9313   4.570   3.248   1.180
 2805SOL    HW1 9314   4.649   3.306   1.198
 2805SOL    HW2 9315   4.487   3.295   1.209
 2806SOL     OW 9316   5.936   5.043   3.701
 2806SOL    HW1 9317   5.883   4.966   3.736
 2806SOL    HW2 9318   5.991   5.082   3.775
 2807SOL     OW 9319   5.532   5.250   4.127
 2807SOL    HW1 9320   5.439   5.280   4.106
 2807SOL    HW2 9321   5.591   5.263   4.048
 2808SOL     OW 9322   4.945   2.705   2.412
 2808SOL    HW1 9323   5.035   2.703   2.456
 2808SOL    HW2 9324   4.939   2.629   2.347
 2809SOL     OW 9325   6.811   2.764   1.511
 2809SOL    HW1 9326   6.844   2.688   1.567
 2809SOL    HW2 9327   6.851   2.849   1.544
 2810SOL     OW 9328   3.075   6.127   4.547
 2810SOL    HW1 9329   3.080   6.034   4.512
 2810SOL    HW2 9330   3.083   6.192   4.471
 2811SOL     OW 9331   0.657   0.590   3.481
 2811SOL    HW1 9332   0.721   0.643   3.536
 2811SOL    HW2 9333   0.671   0.493   3.498
 2812SOL     OW 9334   6.119   3.593   0.855
 2812SOL    HW1 9335   6.213   3.623   0.845
 2812SOL    HW2 9336   6.092   3.598   0.951
 2813SOL     OW 9337   6.257   0.060   5.650
 2813SOL    HW1 9338   6.165   0.096   5.660
 2813SOL    HW2 9339   6.317   0.131   5.614
 2814SOL     OW 9340   4.892   2.852   0.154
 2814SOL    HW1 9341   4.963   2.782   0.150
 2814SOL    HW2 9342   4.804   2.809   0.175
 2815SOL     OW 9343   0.050   1.928   5.063
 2815SOL    HW1 9344   0.109   1.849   5.047
 2815SOL    HW2 9345   0.091   1.988   5.131
 2816SOL     OW 9346   6.790   6.153   4.090
 2816SOL    HW1 9347   6.845   6.134   4.009
 2816SOL    HW2 9348   6.719   6.220   4.068
 2817SOL     OW 9349   2.086   0.188   1.135
 2817SOL    HW1 9350   2.079   0.202   1.234
 2817SOL    HW2 9351   2.118   0.272   1.091
 2818SOL     OW 9352   6.944   5.909   6.402
 2818SOL    HW1 9353   6.933   5.817   6.439
 2818SOL    HW2 9354   0.014   5.924   6.377
 2819SOL     OW 9355   0.212   1.649   1.366
 2819SOL    HW1 9356   0.166   1.620   1.449
 2819SOL    HW2 9357   0.170   1.603   1.287
 2820SOL     OW 9358   0.966   1.832   2.731
 2820SOL    HW1 9359   0.891   1.831   2.797
 2820SOL    HW2 9360   1.033   1.902   2.758
 2821SOL     OW 9361   3.903   3.822   7.025
 2821SOL    HW1 9362   3.923   3.920   7.025
 2821SOL    HW2 9363   3.850   3.799   0.082
 2822SOL     OW 9364   4.363   2.604   7.023
 2822SOL    HW1 9365   4.366   2.548   0.080
 2822SOL    HW2 9366   4.411   2.558   6.949
 2823SOL     OW 9367   2.895   6.918   0.914
 2823SOL    HW1 9368   2.927   6.831   0.952
 2823SOL    HW2 9369   2.872   6.906   0.818
 2824SOL     OW 9370   2.271   1.353   4.484
 2824SOL    HW1 9371   2.285   1.451   4.470
 2824SOL    HW2 9372   2.273   1.306   4.396
 2825SOL     OW 9373   0.031   7.022   6.702
 2825SOL    HW1 9374   0.010   0.040   6.789
 2825SOL    HW2 9375   0.089   6.942   6.717
 2826SOL     OW 9376   5.093   2.020   6.695
 2826SOL    HW1 9377   5.081   2.094   6.628
 2826SOL    HW2 9378   5.003   1.991   6.728
 2827SOL     OW 9379   5.832   1.137   5.197
 2827SOL    HW1 9380   5.750   1.152   5.143
 2827SOL    HW2 9381   5.897   1.082   5.144
 2828SOL     OW 9382   3.289   0.716   6.691
 2828SOL    HW1 9383   3.272   0.772   6.772
 2828SOL    HW2 9384   3.354   0.764   6.631
 2829SOL     OW 9385   3.249   4.222   5.972
 2829SOL    HW1 9386   3.248   4.284   5.894
 2829SOL    HW2 9387   3.254   4.128   5.940
 2830SOL     OW 9388   0.710   3.432   6.542
 2830SOL    HW1 9389   0.794   3.444   6.596
 2830SOL    HW2 9390   0.647   3.506   6.562
 2831SOL     OW 9391   0.274   6.085   3.814
 2831SOL    HW1 9392   0.346   6.112   3.750
 2831SOL    HW2 9393   0.312   6.083   3.907
 2832SOL     OW 9394   6.970   1.321   1.602
 2832SOL    HW1 9395   6.918   1.237   1.590
 2832SOL    HW2 9396   0.042   1.304   1.585
 2833SOL     OW 9397   4.976   2.502   2.226
 2833SOL    HW1 9398   4.918   2.522   2.147
 2833SOL    HW2 9399   5.070   2.484   2.195
 2834SOL     OW 9400   2.591   0.243   5.931
 2834SOL    HW1 9401   2.654   0.210   5.860
 2834SOL    HW2 9402   2.609   0.194   6.017
 2835SOL     OW 9403   6.864   0.469   2.211
 2835SOL    HW1 9404   6.839   0.374   2.191
 2835SOL    HW2 9405   6.952   0.471   2.257
 2836SOL     OW 9406   6.542   6.764   1.906
 2836SOL    HW1 9407   6.579   6.682   1.863
 2836SOL    HW2 9408   6.500   6.740   1.994
 2837SOL     OW 9409   5.734   3.281   3.051
 2837SOL    HW1 9410   5.812   3.233   3.088
 2837SOL    HW2 9411   5.651   3.227   3.064
 2838SOL     OW 9412   1.665   4.121   1.751
 2838SOL    HW1 9413   1.595   4.115   1.681
 2838SOL    HW2 9414   1.625   4.103   1.841
 2839SOL     OW 9415   5.681   1.028   1.992
 2839SOL    HW1 9416   5.583   1.009   1.996
 2839SOL    HW2 9417   5.719   0.988   1.908
 2840SOL     OW 9418   0.780   1.079   4.066
 2840SOL    HW1 9419   0.751   1.173   4.050
 2840SOL    HW2 9420   0.710   1.016   4.032
 2841SOL     OW 9421   7.013   0.541   5.801
 2841SOL    HW1 9422   6.933   0.502   5.848
 2841SOL    HW2 9423   7.008   0.640   5.803
 2842SOL     OW 9424   0.063   2.725   4.219
 2842SOL    HW1 9425   0.005   2.687   4.148
 2842SOL    HW2 9426   0.110   2.651   4.267
 2843SOL     OW 9427   2.849   1.858   3.387
 2843SOL    HW1 9428   2.791   1.939   3.382
 2843SOL    HW2 9429   2.911   1.857   3.308
 2844SOL     OW 9430   1.467   4.944   0.363
 2844SOL    HW1 9431   1.509   4.993   0.438
 2844SOL    HW2 9432   1.385   4.896   0.396
 2845SOL     OW 9433   0.918   3.082   0.986
 2845SOL    HW1 9434   0.887   3.143   0.913
 2845SOL    HW2 9435   1.014   3.103   1.008
 2846SOL     OW 9436   4.546   1.410   6.521
 2846SOL    HW1 9437   4.585   1.416   6.429
 2846SOL    HW2 9438   4.574   1.324   6.563
 2847SOL     OW 9439   5.152   3.629   2.885
 2847SOL    HW1 9440   5.064   3.588   2.859
 2847SOL    HW2 9441   5.212   3.632   2.805
 2848SOL     OW 9442   0.848   4.438   6.342
 2848SOL    HW1 9443   0.855   4.525   6.392
 2848SOL    HW2 9444   0.764   4.439   6.288
 2849SOL     OW 9445   3.862   6.831   1.499
 2849SOL    HW1 9446   3.952   6.859   1.535
 2849SOL    HW2 9447   3.864   6.734   1.477
 2850SOL     OW 9448   3.352   0.098   2.344
 2850SOL    HW1 9449   3.355   0.145   2.256
 2850SOL    HW2 9450   3.372   0.001   2.330
 2851SOL     OW 9451   6.848   3.587   5.818
 2851SOL    HW1 9452   6.769   3.535   5.851
 2851SOL    HW2 9453   6.816   3.664   5.763
 2852SOL     OW 9454   5.556   4.662   0.083
 2852SOL    HW1 9455   5.498   4.611   0.147
 2852SOL    HW2 9456   5.508   4.745   0.054
 2853SOL     OW 9457   2.373   2.254   0.477
 2853SOL    HW1 9458   2.317   2.174   0.499
 2853SOL    HW2 9459   2.464   2.224   0.449
 2854SOL     OW 9460   3.592   1.872   4.529
 2854SOL    HW1 9461   3.558   1.780   4.546
 2854SOL    HW2 9462   3.660   1.895   4.599
 2855SOL     OW 9463   2.400   1.313   6.367
 2855SOL    HW1 9464   2.331   1.309   6.440
 2855SOL    HW2 9465   2.428   1.407   6.354
 2856SOL     OW 9466   2.312   2.936   6.343
 2856SOL    HW1 9467   2.228   2.912   6.294
 2856SOL    HW2 9468   2.387   2.879   6.310
 2857SOL     OW 9469   3.475   1.625   2.061
 2857SOL    HW1 9470   3.508   1.709   2.019
 2857SOL    HW2 9471   3.520   1.546   2.018
 2858SOL     OW 9472   6.519   3.527   1.721
 2858SOL    HW1 9473   6.545   3.473   1.801
 2858SOL    HW2 9474   6.499   3.466   1.644
 2859SOL     OW 9475   4.918   2.265   0.646
 2859SOL    HW1 9476   4.946   2.286   0.553
 2859SOL    HW2 9477   4.873   2.345   0.686
 2860SOL     OW 9478   3.548   1.680   1.244
 2860SOL    HW1 9479   3.489   1.608   1.208
 2860SOL    HW2 9480   3.495   1.738   1.307
 2861SOL     OW 9481   4.679   4.950   5.954
 2861SOL    HW1 9482   4.649   5.045   5.943
 2861SOL    HW2 9483   4.775   4.948   5.981
 2862SOL     OW 9484   5.321   2.123   3.366
 2862SOL    HW1 9485   5.336   2.045   3.306
 2862SOL    HW2 9486   5.408   2.154   3.404
 2863SOL     OW 9487   5.510   1.305   6.467
 2863SOL    HW1 9488   5.494   1.403   6.457
 2863SOL    HW2 9489   5.608   1.287   6.467
 2864SOL     OW 9490   4.108   1.113   1.680
 2864SOL    HW1 9491   4.025   1.084   1.727
 2864SOL    HW2 9492   4.154   1.184   1.734
 2865SOL     OW 9493   5.295   4.111   5.846
 2865SOL    HW1 9494   5.332   4.022   5.873
 2865SOL    HW2 9495   5.370   4.170   5.815
 2866SOL     OW 9496   6.542   6.090   6.889
 2866SOL    HW1 9497   6.524   6.078   6.987
 2866SOL    HW2 9498   6.541   6.000   6.844
 2867SOL     OW 9499   6.049   3.798   2.450
 2867SOL    HW1 9500   6.100   3.831   2.530
 2867SOL    HW2 9501   5.961   3.845   2.445
 2868SOL     OW 9502   0.436   3.222   5.672
 2868SOL    HW1 9503   0.338   3.207   5.653
 2868SOL    HW2 9504   0.455   3.320   5.674
 2869SOL     OW 9505   6.096   1.306   3.560
 2869SOL    HW1 9506   6.007   1.341   3.532
 2869SOL    HW2 9507   6.168   1.369   3.531
 2870SOL     OW 9508   0.390   1.206   4.669
 2870SOL    HW1 9509   0.386   1.305   4.682
 2870SOL    HW2 9510   0.338   1.160   4.740
 2871SOL     OW 9511   1.596   1.368   0.243
 2871SOL    HW1 9512   1.662   1.365   0.168
 2871SOL    HW2 9513   1.640   1.408   0.324
 2872SOL     OW 9514   2.393   2.038   3.414
 2872SOL    HW1 9515   2.488   2.065   3.401
 2872SOL    HW2 9516   2.374   1.955   3.362
 2873SOL     OW 9517   1.002   4.976   2.819
 2873SOL    HW1 9518   1.053   5.061   2.805
 2873SOL    HW2 9519   0.948   4.984   2.903
 2874SOL     OW 9520   3.900   5.755   2.790
 2874SOL    HW1 9521   3.838   5.709   2.726
 2874SOL    HW2 9522   3.988   5.707   2.791
 2875SOL     OW 9523   5.011   6.023   6.873
 2875SOL    HW1 9524   4.972   6.087   6.939
 2875SOL    HW2 9525   5.012   6.064   6.782
 2876SOL     OW 9526   0.910   0.097   1.992
 2876SOL    HW1 9527   0.995   0.096   2.045
 2876SOL    HW2 9528   0.874   0.190   1.988
 2877SOL     OW 9529   3.773   2.837   5.306
 2877SOL    HW1 9530   3.678   2.809   5.316
 2877SOL    HW2 9531   3.781   2.935   5.320
 2878SOL     OW 9532   3.624   4.946   4.600
 2878SOL    HW1 9533   3.596   4.938   4.504
 2878SOL    HW2 9534   3.719   4.976   4.605
 2879SOL     OW 9535   5.247   5.089   0.213
 2879SOL    HW1 9536   5.335   5.090   0.165
 2879SOL    HW2 9537   5.179   5.039   0.159
 2880SOL     OW 9538   5.751   6.973   0.779
 2880SOL    HW1 9539   5.782   6.999   0.871
 2880SOL    HW2 9540   5.719   0.029   0.731
 2881SOL     OW 9541   5.869   6.342   1.227
 2881SOL    HW1 9542   5.925   6.258   1.225
 2881SOL    HW2 9543   5.923   6.416   1.267
 2882SOL     OW 9544   0.619   3.532   2.250
 2882SOL    HW1 9545   0.652   3.609   2.196
 2882SOL    HW2 9546   0.519   3.526   2.243
 2883SOL     OW 9547   5.386   6.351   3.950
 2883SOL    HW1 9548   5.450   6.380   4.020
 2883SOL    HW2 9549   5.301   6.321   3.993
 2884SOL     OW 9550   0.731   5.822   2.696
 2884SOL    HW1 9551   0.778   5.792   2.779
 2884SOL    HW2 9552   0.764   5.912   2.669
 2885SOL     OW 9553   0.527   3.187   2.003
 2885SOL    HW1 9554   0.588   3.120   2.046
 2885SOL    HW2 9555   0.561   3.210   1.912
 2886SOL     OW 9556   2.275   4.083   6.567
 2886SOL    HW1 9557   2.178   4.055   6.560
 2886SOL    HW2 9558   2.323   4.055   6.483
 2887SOL     OW 9559   1.464   0.159   4.833
 2887SOL    HW1 9560   1.459   0.239   4.774
 2887SOL    HW2 9561   1.551   0.112   4.820
 2888SOL     OW 9562   0.568   4.947   6.798
 2888SOL    HW1 9563   0.653   4.979   6.756
 2888SOL    HW2 9564   0.589   4.878   6.868
 2889SOL     OW 9565   1.967   0.248   2.252
 2889SOL    HW1 9566   1.932   0.201   2.333
 2889SOL    HW2 9567   2.061   0.276   2.269
 2890SOL     OW 9568   2.714   0.698   0.996
 2890SOL    HW1 9569   2.755   0.619   0.951
 2890SOL    HW2 9570   2.693   0.676   1.092
 2891SOL     OW 9571   2.368   4.482   3.731
 2891SOL    HW1 9572   2.445   4.483   3.667
 2891SOL    HW2 9573   2.334   4.389   3.741
 2892SOL     OW 9574   5.614   3.645   0.483
 2892SOL    HW1 9575   5.594   3.725   0.428
 2892SOL    HW2 9576   5.653   3.673   0.571
 2893SOL     OW 9577   0.419   6.473   4.632
 2893SOL    HW1 9578   0.458   6.565   4.621
 2893SOL    HW2 9579   0.488   6.412   4.670
 2894SOL     OW 9580   3.224   2.592   0.108
 2894SOL    HW1 9581   3.241   2.678   0.061
 2894SOL    HW2 9582   3.153   2.605   0.178
 2895SOL     OW 9583   4.288   3.262   6.636
 2895SOL    HW1 9584   4.222   3.319   6.587
 2895SOL    HW2 9585   4.322   3.190   6.576
 2896SOL     OW 9586   3.166   5.297   6.383
 2896SOL    HW1 9587   3.174   5.362   6.308
 2896SOL    HW2 9588   3.218   5.214   6.362
 2897SOL     OW 9589   2.865   5.820   3.475
 2897SOL    HW1 9590   2.885   5.730   3.436
 2897SOL    HW2 9591   2.944   5.880   3.464
 2898SOL     OW 9592   4.312   5.273   3.896
 2898SOL    HW1 9593   4.263   5.331   3.962
 2898SOL    HW2 9594   4.254   5.258   3.816
 2899SOL     OW 9595   0.297   2.037   0.436
 2899SOL    HW1 9596   0.306   2.019   0.534
 2899SOL    HW2 9597   0.351   2.118   0.412
 2900SOL     OW 9598   1.545   4.861   5.531
 2900SOL    HW1 9599   1.539   4.761   5.530
 2900SOL    HW2 9600   1.494   4.897   5.609
 2901SOL     OW 9601   1.636   0.461   2.668
 2901SOL    HW1 9602   1.724   0.435   2.629
 2901SOL    HW2 9603   1.640   0.455   2.767
 2902SOL     OW 9604   5.572   5.734   1.189
 2902SOL    HW1 9605   5.517   5.696   1.115
 2902SOL    HW2 9606   5.512   5.759   1.265
 2903SOL     OW 9607   3.071   0.262   1.537
 2903SOL    HW1 9608   3.110   0.343   1.495
 2903SOL    HW2 9609   3.069   0.272   1.636
 2904SOL     OW 9610   2.099   3.368   5.371
 2904SOL    HW1 9611   2.171   3.303   5.347
 2904SOL    HW2 9612   2.126   3.418   5.454
 2905SOL     OW 9613   1.212   2.472   3.586
 2905SOL    HW1 9614   1.289   2.507   3.638
 2905SOL    HW2 9615   1.131   2.468   3.644
 2906SOL     OW 9616   4.833   5.539   2.814
 2906SOL    HW1 9617   4.752   5.557   2.758
 2906SOL    HW2 9618   4.891   5.620   2.816
 2907SOL     OW 9619   0.424   1.137   4.411
 2907SOL    HW1 9620   0.390   1.155   4.504
 2907SOL    HW2 9621   0.506   1.192   4.395
 2908SOL     OW 9622   4.152   6.886   3.956
 2908SOL    HW1 9623   4.161   6.968   4.013
 2908SOL    HW2 9624   4.185   6.906   3.864
 2909SOL     OW 9625   0.332   6.224   3.137
 2909SOL    HW1 9626   0.345   6.125   3.139
 2909SOL    HW2 9627   0.299   6.255   3.226
 2910SOL     OW 9628   4.766   6.070   4.358
 2910SOL    HW1 9629   4.687   6.122   4.391
 2910SOL    HW2 9630   4.738   5.976   4.338
 2911SOL     OW 9631   1.755   5.139   3.313
 2911SOL    HW1 9632   1.761   5.041   3.292
 2911SOL    HW2 9633   1.670   5.176   3.275
 2912SOL     OW 9634   3.957   6.085   6.869
 2912SOL    HW1 9635   3.860   6.111   6.862
 2912SOL    HW2 9636   3.964   5.988   6.890
 2913SOL     OW 9637   1.657   5.236   2.377
 2913SOL    HW1 9638   1.638   5.224   2.475
 2913SOL    HW2 9639   1.744   5.284   2.366
 2914SOL     OW 9640   6.010   5.879   5.670
 2914SOL    HW1 9641   6.003   5.975   5.696
 2914SOL    HW2 9642   6.104   5.860   5.640
 2915SOL     OW 9643   4.938   1.821   5.101
 2915SOL    HW1 9644   5.016   1.795   5.045
 2915SOL    HW2 9645   4.853   1.805   5.049
 2916SOL     OW 9646   6.518   5.262   5.961
 2916SOL    HW1 9647   6.425   5.288   5.984
 2916SOL    HW2 9648   6.551   5.319   5.886
 2917SOL     OW 9649   4.378   0.481   2.002
 2917SOL    HW1 9650   4.438   0.420   2.055
 2917SOL    HW2 9651   4.326   0.540   2.064
 2918SOL     OW 9652   0.306   3.527   3.033
 2918SOL    HW1 9653   0.209   3.552   3.037
 2918SOL    HW2 9654   0.321   3.464   2.957
 2919SOL     OW 9655   6.379   1.141   7.020
 2919SOL    HW1 9656   6.328   1.166   6.937
 2919SOL    HW2 9657   6.382   1.219   0.056
 2920SOL     OW 9658   3.356   1.888   2.564
 2920SOL    HW1 9659   3.405   1.818   2.616
 2920SOL    HW2 9660   3.417   1.967   2.549
 2921SOL     OW 9661   0.636   0.606   3.227
 2921SOL    HW1 9662   0.603   0.688   3.180
 2921SOL    HW2 9663   0.621   0.614   3.325
 2922SOL     OW 9664   5.740   6.658   7.018
 2922SOL    HW1 9665   5.697   6.707   0.069
 2922SOL    HW2 9666   5.837   6.646   0.010
 2923SOL     OW 9667   0.171   4.655   1.886
 2923SOL    HW1 9668   0.090   4.665   1.829
 2923SOL    HW2 9669   0.207   4.562   1.878
 2924SOL     OW 9670   6.974   2.278   6.740
 2924SOL    HW1 9671   6.895   2.261   6.799
 2924SOL    HW2 9672   6.948   2.338   6.665
 2925SOL     OW 9673   5.286   0.844   3.168
 2925SOL    HW1 9674   5.363   0.805   3.117
 2925SOL    HW2 9675   5.288   0.810   3.262
 2926SOL     OW 9676   6.983   1.260   4.873
 2926SOL    HW1 9677   0.034   1.201   4.848
 2926SOL    HW2 9678   6.958   1.245   4.968
 2927SOL     OW 9679   2.319   1.844   2.056
 2927SOL    HW1 9680   2.356   1.834   1.963
 2927SOL    HW2 9681   2.227   1.883   2.050
 2928SOL     OW 9682   6.708   2.364   6.156
 2928SOL    HW1 9683   6.679   2.272   6.130
 2928SOL    HW2 9684   6.698   2.425   6.078
 2929SOL     OW 9685   0.712   0.990   5.889
 2929SOL    HW1 9686   0.625   1.021   5.851
 2929SOL    HW2 9687   0.767   1.068   5.917
 2930SOL     OW 9688   4.703   6.645   4.923
 2930SOL    HW1 9689   4.630   6.710   4.947
 2930SOL    HW2 9690   4.781   6.695   4.886
 2931SOL     OW 9691   5.536   6.444   0.025
 2931SOL    HW1 9692   5.587   6.526   7.024
 2931SOL    HW2 9693   5.459   6.430   6.988
 2932SOL     OW 9694   1.579   4.959   2.029
 2932SOL    HW1 9695   1.567   4.998   1.938
 2932SOL    HW2 9696   1.585   4.860   2.023
 2933SOL     OW 9697   5.709   2.773   2.862
 2933SOL    HW1 9698   5.768   2.716   2.805
 2933SOL    HW2 9699   5.719   2.869   2.835
 2934SOL     OW 9700   3.928   0.999   0.226
 2934SOL    HW1 9701   3.882   0.931   0.283
 2934SOL    HW2 9702   3.863   1.073   0.204
 2935SOL     OW 9703   6.467   3.343   1.523
 2935SOL    HW1 9704   6.466   3.243   1.522
 2935SOL    HW2 9705   6.451   3.377   1.431
 2936SOL     OW 9706   5.038   5.506   1.898
 2936SOL    HW1 9707   4.956   5.559   1.876
 2936SOL    HW2 9708   5.023   5.410   1.875
 2937SOL     OW 9709   3.855   4.524   0.612
 2937SOL    HW1 9710   3.802   4.553   0.691
 2937SOL    HW2 9711   3.901   4.603   0.571
 2938SOL     OW 9712   4.974   4.590   5.930
 2938SOL    HW1 9713   4.968   4.620   6.025
 2938SOL    HW2 9714   4.882   4.584   5.891
 2939SOL     OW 9715   0.713   0.239   4.563
 2939SOL    HW1 9716   0.688   0.179   4.487
 2939SOL    HW2 9717   0.812   0.235   4.577
 2940SOL     OW 9718   5.932   0.097   6.326
 2940SOL    HW1 9719   5.999   0.103   6.400
 2940SOL    HW2 9720   5.844   0.067   6.362
 2941SOL     OW 9721   2.204   2.365   5.125
 2941SOL    HW1 9722   2.222   2.379   5.027
 2941SOL    HW2 9723   2.164   2.448   5.164
 2942SOL     OW 9724   2.372   1.330   1.961
 2942SOL    HW1 9725   2.323   1.300   2.042
 2942SOL    HW2 9726   2.327   1.411   1.923
 2943SOL     OW 9727   5.818   3.749   2.902
 2943SOL    HW1 9728   5.809   3.649   2.897
 2943SOL    HW2 9729   5.732   3.792   2.875
 2944SOL     OW 9730   2.499   5.454   5.219
 2944SOL    HW1 9731   2.406   5.483   5.241
 2944SOL    HW2 9732   2.533   5.392   5.290
 2945SOL     OW 9733   4.059   3.213   3.610
 2945SOL    HW1 9734   4.015   3.301   3.628
 2945SOL    HW2 9735   4.071   3.164   3.697
 2946SOL     OW 9736   0.219   5.238   6.702
 2946SOL    HW1 9737   0.241   5.257   6.797
 2946SOL    HW2 9738   0.300   5.202   6.656
 2947SOL     OW 9739   1.159   4.589   0.454
 2947SOL    HW1 9740   1.183   4.566   0.360
 2947SOL    HW2 9741   1.184   4.684   0.473
 2948SOL     OW 9742   6.719   4.116   5.654
 2948SOL    HW1 9743   6.792   4.143   5.591
 2948SOL    HW2 9744   6.682   4.197   5.699
 2949SOL     OW 9745   1.827   6.296   0.957
 2949SOL    HW1 9746   1.868   6.371   0.905
 2949SOL    HW2 9747   1.891   6.265   1.027
 2950SOL     OW 9748   5.020   3.861   4.563
 2950SOL    HW1 9749   4.963   3.857   4.482
 2950SOL    HW2 9750   4.964   3.847   4.645
 2951SOL     OW 9751   6.591   2.357   0.619
 2951SOL    HW1 9752   6.675   2.409   0.629
 2951SOL    HW2 9753   6.612   2.260   0.611
 2952SOL     OW 9754   1.045   5.850   4.772
 2952SOL    HW1 9755   0.966   5.870   4.713
 2952SOL    HW2 9756   1.122   5.908   4.746
 2953SOL     OW 9757   4.740   2.871   2.651
 2953SOL    HW1 9758   4.791   2.915   2.577
 2953SOL    HW2 9759   4.769   2.908   2.739
 2954SOL     OW 9760   0.840   5.524   1.719
 2954SOL    HW1 9761   0.879   5.506   1.628
 2954SOL    HW2 9762   0.886   5.465   1.786
 2955SOL     OW 9763   0.810   3.894   0.480
 2955SOL    HW1 9764   0.824   3.852   0.570
 2955SOL    HW2 9765   0.713   3.914   0.467
 2956SOL     OW 9766   6.023   6.081   3.055
 2956SOL    HW1 9767   6.081   6.092   2.974
 2956SOL    HW2 9768   5.972   5.996   3.048
 2957SOL     OW 9769   6.766   3.357   1.555
 2957SOL    HW1 9770   6.669   3.356   1.531
 2957SOL    HW2 9771   6.818   3.401   1.482
 2958SOL     OW 9772   2.684   4.699   4.824
 2958SOL    HW1 9773   2.606   4.742   4.869
 2958SOL    HW2 9774   2.746   4.661   4.893
 2959SOL     OW 9775   4.405   4.256   0.320
 2959SOL    HW1 9776   4.420   4.259   0.419
 2959SOL    HW2 9777   4.465   4.322   0.275
 2960SOL     OW 9778   3.286   0.441   6.663
 2960SOL    HW1 9779   3.207   0.425   6.722
 2960SOL    HW2 9780   3.320   0.534   6.679
 2961SOL     OW 9781   5.355   2.736   4.284
 2961SOL    HW1 9782   5.385   2.798   4.212
 2961SOL    HW2 9783   5.415   2.656   4.286
 2962SOL     OW 9784   4.247   1.127   4.054
 2962SOL    HW1 9785   4.200   1.144   4.141
 2962SOL    HW2 9786   4.341   1.100   4.072
 2963SOL     OW 9787   1.815   1.561   6.018
 2963SOL    HW1 9788   1.886   1.509   5.971
 2963SOL    HW2 9789   1.856   1.640   6.064
 2964SOL     OW 9790   0.904   6.909   1.826
 2964SOL    HW1 9791   0.988   6.855   1.823
 2964SOL    HW2 9792   0.914   6.982   1.894
 2965SOL     OW 9793   6.919   0.793   5.003
 2965SOL    HW1 9794   6.849   0.799   5.075
 2965SOL    HW2 9795   6.965   0.705   5.009
 2966SOL     OW 9796   6.196   4.755   4.060
 2966SOL    HW1 9797   6.198   4.808   3.975
 2966SOL    HW2 9798   6.224   4.661   4.041
 2967SOL     OW 9799   5.806   2.171   4.501
 2967SOL    HW1 9800   5.873   2.104   4.469
 2967SOL    HW2 9801   5.841   2.263   4.487
 2968SOL     OW 9802   1.344   4.191   5.343
 2968SOL    HW1 9803   1.335   4.116   5.278
 2968SOL    HW2 9804   1.253   4.223   5.370
 2969SOL     OW 9805   6.199   1.215   4.150
 2969SOL    HW1 9806   6.256   1.177   4.076
 2969SOL    HW2 9807   6.116   1.256   4.110
 2970SOL     OW 9808   0.863   4.121   6.760
 2970SOL    HW1 9809   0.885   4.210   6.799
 2970SOL    HW2 9810   0.916   4.106   6.677
 2971SOL     OW 9811   5.105   3.021   5.577
 2971SOL    HW1 9812   5.013   2.990   5.554
 2971SOL    HW2 9813   5.166   2.942   5.585
 2972SOL     OW 9814   6.550   4.774   6.178
 2972SOL    HW1 9815   6.598   4.855   6.142
 2972SOL    HW2 9816   6.615   4.699   6.189
 2973SOL     OW 9817   5.424   1.275   4.147
 2973SOL    HW1 9818   5.483   1.298   4.070
 2973SOL    HW2 9819   5.478   1.267   4.230
 2974SOL     OW 9820   0.639   3.583   2.806
 2974SOL    HW1 9821   0.595   3.545   2.725
 2974SOL    HW2 9822   0.705   3.653   2.779
 2975SOL     OW 9823   0.786   2.294   5.210
 2975SOL    HW1 9824   0.691   2.267   5.227
 2975SOL    HW2 9825   0.830   2.226   5.151
 2976SOL     OW 9826   4.234   1.275   2.367
 2976SOL    HW1 9827   4.330   1.265   2.394
 2976SOL    HW2 9828   4.216   1.215   2.288
 2977SOL     OW 9829   1.768   0.087   4.228
 2977SOL    HW1 9830   1.674   0.057   4.246
 2977SOL    HW2 9831   1.831   0.010   4.240
 2978SOL     OW 9832   4.026   4.491   6.687
 2978SOL    HW1 9833   4.028   4.445   6.776
 2978SOL    HW2 9834   4.119   4.513   6.659
 2979SOL     OW 9835   4.451   6.700   4.161
 2979SOL    HW1 9836   4.445   6.730   4.256
 2979SOL    HW2 9837   4.542   6.722   4.125
 2980SOL     OW 9838   1.603   5.898   3.759
 2980SOL    HW1 9839   1.625   5.948   3.842
 2980SOL    HW2 9840   1.552   5.815   3.782
 2981SOL     OW 9841   0.674   0.288   5.695
 2981SOL    HW1 9842   0.729   0.364   5.729
 2981SOL    HW2 9843   0.723   0.202   5.711
 2982SOL     OW 9844   4.876   6.293   3.464
 2982SOL    HW1 9845   4.839   6.337   3.382
 2982SOL    HW2 9846   4.919   6.207   3.439
 2983SOL     OW 9847   0.982   1.327   4.214
 2983SOL    HW1 9848   0.967   1.230   4.235
 2983SOL    HW2 9849   1.027   1.335   4.125
 2984SOL     OW 9850   5.000   5.808   1.650
 2984SOL    HW1 9851   5.057   5.794   1.731
 2984SOL    HW2 9852   4.913   5.850   1.678
 2985SOL     OW 9853   0.710   2.576   5.183
 2985SOL    HW1 9854   0.742   2.494   5.231
 2985SOL    HW2 9855   0.727   2.567   5.085
 2986SOL     OW 9856   2.027   4.084   6.496
 2986SOL    HW1 9857   2.062   4.089   6.402
 2986SOL    HW2 9858   1.952   4.018   6.499
 2987SOL     OW 9859   4.912   0.771   3.441
 2987SOL    HW1 9860   4.891   0.825   3.522
 2987SOL    HW2 9861   4.967   0.826   3.378
 2988SOL     OW 9862   0.309   0.227   2.929
 2988SOL    HW1 9863   0.369   0.204   3.005
 2988SOL    HW2 9864   0.301   0.327   2.922
 2989SOL     OW 9865   6.566   5.940   0.623
 2989SOL    HW1 9866   6.499   5.892   0.679
 2989SOL    HW2 9867   6.558   5.909   0.528
 2990SOL     OW 9868   4.193   1.411   3.358
 2990SOL    HW1 9869   4.216   1.314   3.357
 2990SOL    HW2 9870   4.226   1.454   3.274
 2991SOL     OW 9871   6.612   4.010   0.314
 2991SOL    HW1 9872   6.611   3.941   0.385
 2991SOL    HW2 9873   6.567   4.093   0.347
 2992SOL     OW 9874   2.381   5.299   5.800
 2992SOL    HW1 9875   2.375   5.199   5.798
 2992SOL    HW2 9876   2.477   5.326   5.811
 2993SOL     OW 9877   1.055   4.890   1.942
 2993SOL    HW1 9878   1.021   4.883   1.848
 2993SOL    HW2 9879   0.995   4.951   1.994
 2994SOL     OW 9880   4.290   0.541   0.963
 2994SOL    HW1 9881   4.235   0.480   1.019
 2994SOL    HW2 9882   4.364   0.489   0.920
 2995SOL     OW 9883   0.878   3.343   6.788
 2995SOL    HW1 9884   0.968   3.358   6.828
 2995SOL    HW2 9885   0.885   3.279   6.712
 2996SOL     OW 9886   2.505   5.868   3.681
 2996SOL    HW1 9887   2.583   5.806   3.690
 2996SOL    HW2 9888   2.484   5.908   3.770
 2997SOL     OW 9889   4.840   6.751   2.152
 2997SOL    HW1 9890   4.918   6.724   2.208
 2997SOL    HW2 9891   4.823   6.681   2.082
 2998SOL     OW 9892   5.328   6.572   4.880
 2998SOL    HW1 9893   5.372   6.650   4.835
 2998SOL    HW2 9894   5.396   6.523   4.934
 2999SOL     OW 9895   3.517   5.565   3.825
 2999SOL    HW1 9896   3.446   5.597   3.887
 2999SOL    HW2 9897   3.547   5.641   3.768
 3000SOL     OW 9898   1.380   3.928   7.007
 3000SOL    HW1 9899   1.412   3.869   0.055
 3000SOL    HW2 9900   1.387   4.024   0.009
 3001SOL     OW 9901   5.267   0.136   6.556
 3001SOL    HW1 9902   5.217   0.202   6.499
 3001SOL    HW2 9903   5.213   0.052   6.565
 3002SOL     OW 9904   4.472   0.126   5.413
 3002SOL    HW1 9905   4.453   0.197   5.481
 3002SOL    HW2 9906   4.563   0.089   5.429
 3003SOL     OW 9907   2.306   6.857   6.628
 3003SOL    HW1 9908   2.292   6.790   6.554
 3003SOL    HW2 9909   2.375   6.821   6.692
 3004SOL     OW 9910   0.714   5.375   3.523
 3004SOL    HW1 9911   0.660   5.399   3.604
 3004SOL    HW2 9912   0.797   5.326   3.552
 3005SOL     OW 9913   3.814   2.695   0.257
 3005SOL    HW1 9914   3.906   2.733   0.248
 3005SOL    HW2 9915   3.765   2.743   0.330
 3006SOL     OW 9916   6.280   2.052   6.771
 3006SOL    HW1 9917   6.289   2.000   6.686
 3006SOL    HW2 9918   6.237   2.140   6.752
 3007SOL     OW 9919   6.257   4.989   2.176
 3007SOL    HW1 9920   6.328   4.946   2.120
 3007SOL    HW2 9921   6.273   4.968   2.272
 3008SOL     OW 9922   3.532   0.444   6.263
 3008SOL    HW1 9923   3.532   0.344   6.265
 3008SOL    HW2 9924   3.489   0.478   6.346
 3009SOL     OW 9925   0.422   6.528   2.920
 3009SOL    HW1 9926   0.401   6.625   2.918
 3009SOL    HW2 9927   0.341   6.476   2.949
 3010SOL     OW 9928   3.584   5.938   3.002
 3010SOL    HW1 9929   3.577   5.986   2.915
 3010SOL    HW2 9930   3.494   5.901   3.026
 3011SOL     OW 9931   6.025   1.341   0.342
 3011SOL    HW1 9932   6.094   1.354   0.413
 3011SOL    HW2 9933   6.053   1.389   0.259
 3012SOL     OW 9934   1.434   3.640   5.334
 3012SOL    HW1 9935   1.349   3.662   5.287
 3012SOL    HW2 9936   1.511   3.651   5.272
 3013SOL     OW 9937   5.537   5.507   4.273
 3013SOL    HW1 9938   5.485   5.565   4.210
 3013SOL    HW2 9939   5.632   5.500   4.242
 3014SOL     OW 9940   5.038   2.929   3.861
 3014SOL    HW1 9941   5.017   3.008   3.919
 3014SOL    HW2 9942   4.960   2.911   3.800
 3015SOL     OW 9943   3.285   1.998   0.612
 3015SOL    HW1 9944   3.324   2.090   0.608
 3015SOL    HW2 9945   3.357   1.932   0.634
 3016SOL     OW 9946   2.633   6.250   3.705
 3016SOL    HW1 9947   2.660   6.168   3.755
 3016SOL    HW2 9948   2.550   6.232   3.652
 3017SOL     OW 9949   0.462   5.178   1.898
 3017SOL    HW1 9950   0.379   5.232   1.917
 3017SOL    HW2 9951   0.447   5.123   1.815
 3018SOL     OW 9952   3.029   6.902   5.147
 3018SOL    HW1 9953   3.084   6.953   5.081
 3018SOL    HW2 9954   3.012   6.810   5.113
 3019SOL     OW 9955   1.979   6.880   0.645
 3019SOL    HW1 9956   1.977   6.911   0.550
 3019SOL    HW2 9957   1.943   6.952   0.704
 3020SOL     OW 9958   3.599   4.138   1.654
 3020SOL    HW1 9959   3.667   4.065   1.663
 3020SOL    HW2 9960   3.586   4.159   1.557
 3021SOL     OW 9961   2.665   1.215   6.768
 3021SOL    HW1 9962   2.604   1.289   6.795
 3021SOL    HW2 9963   2.675   1.214   6.668
 3022SOL     OW 9964   3.774   5.731   3.040
 3022SOL    HW1 9965   3.828   5.735   2.956
 3022SOL    HW2 9966   3.720   5.815   3.049
 3023SOL     OW 9967   4.300   6.704   2.645
 3023SOL    HW1 9968   4.359   6.727   2.722
 3023SOL    HW2 9969   4.332   6.751   2.563
 3024SOL     OW 9970   4.225   0.047   6.103
 3024SOL    HW1 9971   4.224   0.140   6.067
 3024SOL    HW2 9972   4.132   0.010   6.103
 3025SOL     OW 9973   3.312   2.101   0.195
 3025SOL    HW1 9974   3.310   2.090   0.096
 3025SOL    HW2 9975   3.246   2.170   0.223
 3026SOL     OW 9976   2.008   2.062   0.275
 3026SOL    HW1 9977   1.912   2.062   0.246
 3026SOL    HW2 9978   2.048   2.152   0.255
 3027SOL     OW 9979   4.415   0.809   1.840
 3027SOL    HW1 9980   4.464   0.771   1.918
 3027SOL    HW2 9981   4.479   0.857   1.781
 3028SOL     OW 9982   1.320   3.906   6.183
 3028SOL    HW1 9983   1.387   3.963   6.231
 3028SOL    HW2 9984   1.364   3.820   6.157
 3029SOL     OW 9985   0.398   4.931   5.216
 3029SOL    HW1 9986   0.469   5.000   5.202
 3029SOL    HW2 9987   0.320   4.951   5.155
 3030SOL     OW 9988   0.589   2.549   6.064
 3030SOL    HW1 9989   0.541   2.630   6.029
 3030SOL    HW2 9990   0.593   2.479   5.992
 3031SOL     OW 9991   0.188   3.393   0.614
 3031SOL    HW1 9992   0.185   3.404   0.515
 3031SOL    HW2 9993   0.117   3.449   0.657
 3032SOL     OW 9994   4.444   6.841   0.548
 3032SOL    HW1 9995   4.445   6.745   0.523
 3032SOL    HW2 9996   4.482   6.896   0.474
 3033SOL     OW 9997   1.105   2.531   1.218
 3033SOL    HW1 9998   1.066   2.453   1.169
 3033SOL    HW2 9999   1.108   2.511   1.316
 3034SOL     OW10000   1.993   5.901   3.816
 3034SOL    HW110001   2.018   5.832   3.748
 3034SOL    HW210002   1.980   5.989   3.770
 3035SOL     OW10003   6.659   2.890   0.286
 3035SOL    HW110004   6.671   2.858   0.380
 3035SOL    HW210005   6.591   2.963   0.284
 3036SOL     OW10006   1.275   3.202   6.500
 3036SOL    HW110007   1.191   3.247   6.468
 3036SOL    HW210008   1.286   3.114   6.453
 3037SOL     OW10009   6.370   5.852   4.237
 3037SOL    HW110010   6.353   5.893   4.148
 3037SOL    HW210011   6.395   5.756   4.225
 3038SOL     OW10012   5.799   6.849   6.547
 3038SOL    HW110013   5.759   6.805   6.627
 3038SOL    HW210014   5.778   6.795   6.465
 3039SOL     OW10015   6.824   3.621   2.426
 3039SOL    HW110016   6.817   3.521   2.414
 3039SOL    HW210017   6.869   3.661   2.347
 3040SOL     OW10018   4.977   3.617   6.065
 3040SOL    HW110019   4.924   3.691   6.107
 3040SOL    HW210020   4.954   3.531   6.108
 3041SOL     OW10021   2.195   2.678   5.508
 3041SOL    HW110022   2.254   2.743   5.459
 3041SOL    HW210023   2.195   2.700   5.605
 3042SOL     OW10024   5.586   6.975   1.710
 3042SOL    HW110025   5.573   6.876   1.720
 3042SOL    HW210026   5.538   7.006   1.627
 3043SOL     OW10027   0.661   5.152   1.262
 3043SOL    HW110028   0.704   5.178   1.176
 3043SOL    HW210029   0.633   5.056   1.259
 3044SOL     OW10030   2.952   4.971   6.008
 3044SOL    HW110031   2.967   4.992   5.911
 3044SOL    HW210032   2.987   4.879   6.028
 3045SOL     OW10033   4.638   0.534   2.988
 3045SOL    HW110034   4.701   0.497   3.056
 3045SOL    HW210035   4.678   0.527   2.897
 3046SOL     OW10036   2.732   2.128   5.962
 3046SOL    HW110037   2.766   2.067   5.891
 3046SOL    HW210038   2.663   2.081   6.017
 3047SOL     OW10039   5.401   6.311   2.548
 3047SOL    HW110040   5.420   6.398   2.593
 3047SOL    HW210041   5.346   6.327   2.466
 3048SOL     OW10042   3.868   2.863   1.597
 3048SOL    HW110043   3.843   2.790   1.533
 3048SOL    HW210044   3.789   2.924   1.610
 3049SOL     OW10045   1.589   5.867   1.488
 3049SOL    HW110046   1.645   5.808   1.545
 3049SOL    HW210047   1.648   5.927   1.433
 3050SOL     OW10048   3.135   1.021   3.368
 3050SOL    HW110049   3.106   1.117   3.372
 3050SOL    HW210050   3.091   0.969   3.441
 3051SOL     OW10051   2.520   3.528   6.957
 3051SOL    HW110052   2.586   3.600   6.933
 3051SOL    HW210053   2.521   3.513   0.030
 3052SOL     OW10054   3.985   0.609   2.239
 3052SOL    HW110055   3.988   0.576   2.334
 3052SOL    HW210056   4.078   0.621   2.205
 3053SOL     OW10057   6.816   0.653   6.851
 3053SOL    HW110058   6.899   0.692   6.811
 3053SOL    HW210059   6.798   0.564   6.808
 3054SOL     OW10060   0.665   2.694   0.897
 3054SOL    HW110061   0.732   2.658   0.963
 3054SOL    HW210062   0.660   2.793   0.906
 3055SOL     OW10063   4.296   6.934   3.741
 3055SOL    HW110064   4.380   6.905   3.695
 3055SOL    HW210065   4.268   7.024   3.707
 3056SOL     OW10066   6.998   0.869   6.267
 3056SOL    HW110067   7.025   0.800   6.200
 3056SOL    HW210068   6.993   0.827   6.358
 3057SOL     OW10069   4.167   5.693   2.760
 3057SOL    HW110070   4.231   5.635   2.810
 3057SOL    HW210071   4.215   5.773   2.724
 3058SOL     OW10072   6.977   5.468   1.332
 3058SOL    HW110073   0.050   5.463   1.316
 3058SOL    HW210074   6.949   5.564   1.336
 3059SOL     OW10075   2.148   2.139   5.432
 3059SOL    HW110076   2.210   2.166   5.358
 3059SOL    HW210077   2.100   2.056   5.406
 3060SOL     OW10078   0.669   6.254   0.580
 3060SOL    HW110079   0.610   6.174   0.588
 3060SOL    HW210080   0.728   6.244   0.499
 3061SOL     OW10081   6.454   0.969   5.077
 3061SOL    HW110082   6.482   0.953   4.982
 3061SOL    HW210083   6.506   1.046   5.114
 3062SOL     OW10084   1.413   6.757   6.946
 3062SOL    HW110085   1.346   6.707   6.892
 3062SOL    HW210086   1.484   6.793   6.885
 3063SOL     OW10087   2.928   5.409   1.645
 3063SOL    HW110088   2.957   5.321   1.609
 3063SOL    HW210089   2.832   5.425   1.623
 3064SOL     OW10090   5.718   3.701   3.675
 3064SOL    HW110091   5.766   3.615   3.658
 3064SOL    HW210092   5.775   3.760   3.733
 3065SOL     OW10093   2.012   1.243   6.795
 3065SOL    HW110094   2.069   1.179   6.846
 3065SOL    HW210095   1.986   1.203   6.708
 3066SOL     OW10096   5.463   4.788   0.730
 3066SOL    HW110097   5.394   4.725   0.766
 3066SOL    HW210098   5.554   4.752   0.748
 3067SOL     OW10099   3.575   2.120   4.171
 3067SOL    HW110100   3.581   2.020   4.176
 3067SOL    HW210101   3.571   2.159   4.263
 3068SOL     OW10102   5.400   5.866   0.593
 3068SOL    HW110103   5.457   5.923   0.535
 3068SOL    HW210104   5.374   5.917   0.675
 3069SOL     OW10105   6.828   6.172   2.152
 3069SOL    HW110106   6.750   6.195   2.092
 3069SOL    HW210107   6.911   6.213   2.115
 3070SOL     OW10108   1.706   1.163   2.505
 3070SOL    HW110109   1.780   1.101   2.479
 3070SOL    HW210110   1.619   1.114   2.500
 3071SOL     OW10111   5.463   6.432   3.485
 3071SOL    HW110112   5.481   6.499   3.413
 3071SOL    HW210113   5.481   6.474   3.574
 3072SOL     OW10114   0.953   6.144   0.737
 3072SOL    HW110115   0.889   6.193   0.796
 3072SOL    HW210116   1.002   6.209   0.680
 3073SOL     OW10117   0.926   3.488   5.229
 3073SOL    HW110118   0.851   3.456   5.172
 3073SOL    HW210119   0.996   3.531   5.170
 3074SOL     OW10120   5.915   2.609   1.058
 3074SOL    HW110121   5.837   2.555   1.026
 3074SOL    HW210122   5.963   2.649   0.979
 3075SOL     OW10123   1.782   6.667   1.333
 3075SOL    HW110124   1.784   6.618   1.246
 3075SOL    HW210125   1.875   6.677   1.368
 3076SOL     OW10126   6.693   1.465   4.609
 3076SOL    HW110127   6.746   1.413   4.543
 3076SOL    HW210128   6.751   1.488   4.688
 3077SOL     OW10129   5.008   5.185   2.783
 3077SOL    HW110130   5.015   5.122   2.706
 3077SOL    HW210131   5.097   5.224   2.803
 3078SOL     OW10132   1.915   3.437   1.020
 3078SOL    HW110133   1.866   3.350   1.009
 3078SOL    HW210134   1.854   3.504   1.062
 3079SOL     OW10135   2.363   2.450   4.516
 3079SOL    HW110136   2.454   2.411   4.530
 3079SOL    HW210137   2.300   2.413   4.585
 3080SOL     OW10138   5.361   4.581   3.365
 3080SOL    HW110139   5.334   4.501   3.312
 3080SOL    HW210140   5.319   4.663   3.326
 3081SOL     OW10141   0.544   3.763   6.191
 3081SOL    HW110142   0.500   3.678   6.163
 3081SOL    HW210143   0.574   3.813   6.110
 3082SOL     OW10144   3.564   6.319   3.346
 3082SOL    HW110145   3.603   6.399   3.301
 3082SOL    HW210146   3.547   6.340   3.442
 3083SOL     OW10147   3.779   6.429   3.510
 3083SOL    HW110148   3.840   6.496   3.552
 3083SOL    HW210149   3.693   6.425   3.560
 3084SOL     OW10150   4.802   4.888   4.432
 3084SOL    HW110151   4.743   4.815   4.466
 3084SOL    HW210152   4.765   4.924   4.346
 3085SOL     OW10153   0.636   4.839   2.481
 3085SOL    HW110154   0.677   4.920   2.441
 3085SOL    HW210155   0.574   4.865   2.555
 3086SOL     OW10156   4.435   1.674   1.895
 3086SOL    HW110157   4.456   1.707   1.987
 3086SOL    HW210158   4.336   1.661   1.887
 3087SOL     OW10159   0.817   5.166   3.957
 3087SOL    HW110160   0.910   5.129   3.946
 3087SOL    HW210161   0.819   5.264   3.940
 3088SOL     OW10162   2.481   5.014   5.644
 3088SOL    HW110163   2.570   5.016   5.599
 3088SOL    HW210164   2.465   4.924   5.685
 3089SOL     OW10165   0.725   2.530   0.649
 3089SOL    HW110166   0.664   2.500   0.576
 3089SOL    HW210167   0.677   2.593   0.710
 3090SOL     OW10168   1.910   2.039   1.824
 3090SOL    HW110169   1.958   2.046   1.911
 3090SOL    HW210170   1.832   2.101   1.823
 3091SOL     OW10171   2.324   6.272   0.219
 3091SOL    HW110172   2.289   6.366   0.226
 3091SOL    HW210173   2.304   6.222   0.303
 3092SOL     OW10174   4.789   6.875   0.057
 3092SOL    HW110175   4.851   6.818   0.004
 3092SOL    HW210176   4.714   6.820   0.093
 3093SOL     OW10177   5.213   4.953   5.969
 3093SOL    HW110178   5.195   4.979   5.874
 3093SOL    HW210179   5.297   4.900   5.974
 3094SOL     OW10180   3.566   6.519   4.573
 3094SOL    HW110181   3.479   6.528   4.525
 3094SOL    HW210182   3.641   6.511   4.506
 3095SOL     OW10183   2.733   5.003   4.115
 3095SOL    HW110184   2.832   5.012   4.116
 3095SOL    HW210185   2.708   4.906   4.116
 3096SOL     OW10186   0.701   0.235   4.835
 3096SOL    HW110187   0.718   0.224   4.737
 3096SOL    HW210188   0.753   0.166   4.886
 3097SOL     OW10189   0.593   2.352   0.898
 3097SOL    HW110190   0.542   2.275   0.938
 3097SOL    HW210191   0.654   2.318   0.827
 3098SOL     OW10192   2.471   3.719   1.129
 3098SOL    HW110193   2.459   3.768   1.215
 3098SOL    HW210194   2.531   3.640   1.143
 3099SOL     OW10195   0.110   5.416   4.872
 3099SOL    HW110196   0.096   5.418   4.773
 3099SOL    HW210197   0.204   5.390   4.892
 3100SOL     OW10198   6.574   0.086   4.378
 3100SOL    HW110199   6.535   0.081   4.285
 3100SOL    HW210200   6.657   0.141   4.376
 3101SOL     OW10201   5.023   5.964   5.558
 3101SOL    HW110202   5.022   6.016   5.473
 3101SOL    HW210203   4.985   6.020   5.632
 3102SOL     OW10204   0.654   5.060   2.795
 3102SOL    HW110205   0.608   4.975   2.771
 3102SOL    HW210206   0.721   5.043   2.867
 3103SOL     OW10207   3.189   1.568   1.360
 3103SOL    HW110208   3.254   1.539   1.290
 3103SOL    HW210209   3.123   1.494   1.377
 3104SOL     OW10210   6.119   6.796   4.805
 3104SOL    HW110211   6.055   6.808   4.881
 3104SOL    HW210212   6.203   6.847   4.824
 3105SOL     OW10213   6.737   4.930   2.731
 3105SOL    HW110214   6.703   4.898   2.642
 3105SOL    HW210215   6.718   4.860   2.800
 3106SOL     OW10216   6.938   1.234   3.163
 3106SOL    HW110217   6.999   1.217   3.086
 3106SOL    HW210218   6.895   1.148   3.192
 3107SOL     OW10219   3.928   0.732   3.964
 3107SOL    HW110220   3.835   0.766   3.977
 3107SOL    HW210221   3.990   0.782   4.024
 3108SOL     OW10222   1.680   0.470   4.174
 3108SOL    HW110223   1.771   0.456   4.136
 3108SOL    HW210224   1.686   0.527   4.256
 3109SOL     OW10225   5.391   5.686   3.103
 3109SOL    HW110226   5.296   5.678   3.134
 3109SOL    HW210227   5.445   5.731   3.175
 3110SOL     OW10228   0.713   1.899   3.713
 3110SOL    HW110229   0.675   1.975   3.765
 3110SOL    HW210230   0.659   1.884   3.631
 3111SOL     OW10231   6.403   6.010   4.016
 3111SOL    HW110232   6.475   5.972   3.958
 3111SOL    HW210233   6.434   6.096   4.056
 3112SOL     OW10234   5.013   3.072   6.372
 3112SOL    HW110235   5.041   2.983   6.407
 3112SOL    HW210236   5.086   3.109   6.313
 3113SOL     OW10237   2.001   0.001   4.523
 3113SOL    HW110238   2.049   6.998   4.606
 3113SOL    HW210239   1.947   0.082   4.541
 3114SOL     OW10240   4.889   2.974   6.944
 3114SOL    HW110241   4.808   3.029   6.925
 3114SOL    HW210242   4.897   2.960   0.017
 3115SOL     OW10243   4.641   3.294   0.108
 3115SOL    HW110244   4.637   3.257   0.201
 3115SOL    HW210245   4.664   3.221   0.044
 3116SOL     OW10246   6.812   3.864   0.156
 3116SOL    HW110247   6.767   3.775   0.159
 3116SOL    HW210248   6.747   3.935   0.181
 3117SOL     OW10249   4.529   3.406   5.333
 3117SOL    HW110250   4.572   3.318   5.314
 3117SOL    HW210251   4.571   3.476   5.275
 3118SOL     OW10252   0.631   4.647   0.203
 3118SOL    HW110253   0.565   4.687   0.267
 3118SOL    HW210254   0.611   4.549   0.192
 3119SOL     OW10255   1.822   3.725   5.926
 3119SOL    HW110256   1.734   3.773   5.937
 3119SOL    HW210257   1.836   3.703   5.829
 3120SOL     OW10258   2.421   6.784   4.247
 3120SOL    HW110259   2.377   6.844   4.314
 3120SOL    HW210260   2.392   6.690   4.262
 3121SOL     OW10261   0.635   1.775   2.435
 3121SOL    HW110262   0.625   1.874   2.438
 3121SOL    HW210263   0.720   1.751   2.389
 3122SOL     OW10264   3.158   5.844   5.854
 3122SOL    HW110265   3.087   5.889   5.801
 3122SOL    HW210266   3.202   5.910   5.915
 3123SOL     OW10267   3.372   6.788   3.529
 3123SOL    HW110268   3.359   6.875   3.577
 3123SOL    HW210269   3.327   6.715   3.581
 3124SOL     OW10270   4.039   0.052   4.646
 3124SOL    HW110271   3.939   0.052   4.642
 3124SOL    HW210272   4.073   0.140   4.611
 3125SOL     OW10273   6.303   1.841   6.215
 3125SOL    HW110274   6.335   1.754   6.253
 3125SOL    HW210275   6.304   1.911   6.287
 3126SOL     OW10276   4.780   4.600   6.876
 3126SOL    HW110277   4.788   4.511   6.831
 3126SOL    HW210278   4.777   4.587   6.976
 3127SOL     OW10279   1.134   2.467   2.957
 3127SOL    HW110280   1.083   2.551   2.937
 3127SOL    HW210281   1.091   2.420   3.034
 3128SOL     OW10282   2.193   7.010   6.825
 3128SOL    HW110283   2.254   0.060   6.848
 3128SOL    HW210284   2.228   6.961   6.746
 3129SOL     OW10285   1.497   4.450   6.496
 3129SOL    HW110286   1.547   4.409   6.572
 3129SOL    HW210287   1.561   4.471   6.422
 3130SOL     OW10288   2.071   4.249   2.591
 3130SOL    HW110289   2.091   4.286   2.682
 3130SOL    HW210290   2.154   4.209   2.553
 3131SOL     OW10291   0.802   2.616   1.521
 3131SOL    HW110292   0.863   2.652   1.450
 3131SOL    HW210293   0.787   2.519   1.506
 3132SOL     OW10294   4.959   5.698   5.937
 3132SOL    HW110295   4.930   5.608   5.906
 3132SOL    HW210296   5.042   5.725   5.888
 3133SOL     OW10297   2.695   2.215   3.705
 3133SOL    HW110298   2.641   2.138   3.741
 3133SOL    HW210299   2.788   2.183   3.685
 3134SOL     OW10300   5.263   4.553   1.684
 3134SOL    HW110301   5.235   4.640   1.643
 3134SOL    HW210302   5.187   4.488   1.681
 3135SOL     OW10303   4.463   1.668   4.955
 3135SOL    HW110304   4.434   1.711   4.870
 3135SOL    HW210305   4.559   1.644   4.950
 3136SOL     OW10306   6.083   7.016   6.135
 3136SOL    HW110307   6.035   6.944   6.083
 3136SOL    HW210308   6.018   0.038   6.193
 3137SOL     OW10309   5.469   0.547   3.602
 3137SOL    HW110310   5.497   0.483   3.674
 3137SOL    HW210311   5.419   0.623   3.643
 3138SOL     OW10312   6.552   2.105   4.209
 3138SOL    HW110313   6.517   2.079   4.119
 3138SOL    HW210314   6.626   2.043   4.234
 3139SOL     OW10315   4.557   7.008   6.296
 3139SOL    HW110316   4.495   0.044   6.344
 3139SOL    HW210317   4.562   6.920   6.344
 3140SOL     OW10318   6.147   6.690   6.194
 3140SOL    HW110319   6.114   6.757   6.260
 3140SOL    HW210320   6.073   6.666   6.131
 3141SOL     OW10321   0.565   6.966   6.160
 3141SOL    HW110322   0.598   0.002   6.088
 3141SOL    HW210323   0.511   7.018   6.226
 3142SOL     OW10324   4.725   5.850   1.079
 3142SOL    HW110325   4.670   5.768   1.095
 3142SOL    HW210326   4.774   5.840   0.992
 3143SOL     OW10327   0.065   2.413   6.981
 3143SOL    HW110328   0.010   2.353   6.923
 3143SOL    HW210329   0.024   2.504   6.983
 3144SOL     OW10330   2.765   3.763   0.929
 3144SOL    HW110331   2.668   3.764   0.904
 3144SOL    HW210332   2.775   3.737   1.025
 3145SOL     OW10333   2.208   5.421   2.820
 3145SOL    HW110334   2.254   5.332   2.818
 3145SOL    HW210335   2.276   5.493   2.828
 3146SOL     OW10336   1.529   0.028   3.188
 3146SOL    HW110337   1.489   0.020   3.097
 3146SOL    HW210338   1.470   7.007   3.254
 3147SOL     OW10339   4.294   5.519   6.504
 3147SOL    HW110340   4.369   5.466   6.464
 3147SOL    HW210341   4.321   5.615   6.513
 3148SOL     OW10342   4.414   5.316   4.310
 3148SOL    HW110343   4.487   5.262   4.352
 3148SOL    HW210344   4.379   5.382   4.376
 3149SOL     OW10345   3.341   0.298   5.553
 3149SOL    HW110346   3.352   0.296   5.454
 3149SOL    HW210347   3.320   0.391   5.582
 3150SOL     OW10348   5.301   5.292   3.976
 3150SOL    HW110349   5.241   5.369   3.953
 3150SOL    HW210350   5.303   5.228   3.899
 3151SOL     OW10351   4.397   1.095   6.811
 3151SOL    HW110352   4.344   1.015   6.842
 3151SOL    HW210353   4.346   1.178   6.832
 3152SOL     OW10354   1.299   5.237   1.599
 3152SOL    HW110355   1.285   5.144   1.563
 3152SOL    HW210356   1.262   5.244   1.691
 3153SOL     OW10357   6.605   3.998   2.049
 3153SOL    HW110358   6.675   3.995   1.978
 3153SOL    HW210359   6.649   3.993   2.139
 3154SOL     OW10360   6.104   1.782   0.438
 3154SOL    HW110361   6.135   1.705   0.495
 3154SOL    HW210362   6.024   1.824   0.478
 3155SOL     OW10363   0.015   5.394   1.600
 3155SOL    HW110364   0.003   5.428   1.506
 3155SOL    HW210365   6.952   5.395   1.647
 3156SOL     OW10366   3.698   3.314   3.813
 3156SOL    HW110367   3.624   3.282   3.872
 3156SOL    HW210368   3.746   3.235   3.774
 3157SOL     OW10369   1.986   2.977   4.762
 3157SOL    HW110370   2.016   2.904   4.824
 3157SOL    HW210371   2.036   3.061   4.784
 3158SOL     OW10372   4.607   0.519   1.212
 3158SOL    HW110373   4.549   0.441   1.234
 3158SOL    HW210374   4.597   0.590   1.281
 3159SOL     OW10375   5.004   0.247   6.777
 3159SOL    HW110376   4.991   0.153   6.808
 3159SOL    HW210377   4.946   0.264   6.697
 3160SOL     OW10378   6.332   5.590   5.723
 3160SOL    HW110379   6.390   5.510   5.710
 3160SOL    HW210380   6.334   5.617   5.820
 3161SOL     OW10381   1.217   1.450   2.000
 3161SOL    HW110382   1.206   1.524   1.933
 3161SOL    HW210383   1.287   1.386   1.968
 3162SOL     OW10384   0.152   5.108   0.225
 3162SOL    HW110385   0.173   5.011   0.209
 3162SOL    HW210386   0.227   5.150   0.276
 3163SOL     OW10387   3.579   2.582   6.447
 3163SOL    HW110388   3.553   2.658   6.505
 3163SOL    HW210389   3.644   2.523   6.495
 3164SOL     OW10390   4.513   3.871   1.621
 3164SOL    HW110391   4.493   3.849   1.525
 3164SOL    HW210392   4.443   3.934   1.656
 3165SOL     OW10393   1.436   6.327   1.716
 3165SOL    HW110394   1.442   6.402   1.650
 3165SOL    HW210395   1.416   6.242   1.668
 3166SOL     OW10396   4.518   2.563   6.276
 3166SOL    HW110397   4.575   2.555   6.358
 3166SOL    HW210398   4.559   2.630   6.214
 3167SOL     OW10399   6.831   5.000   1.999
 3167SOL    HW110400   6.793   4.908   2.011
 3167SOL    HW210401   6.869   5.032   2.086
 3168SOL     OW10402   4.876   2.517   0.462
 3168SOL    HW110403   4.780   2.502   0.486
 3168SOL    HW210404   4.893   2.481   0.370
 3169SOL     OW10405   0.551   3.461   5.901
 3169SOL    HW110406   0.640   3.462   5.856
 3169SOL    HW210407   0.524   3.366   5.918
 3170SOL     OW10408   4.105   0.090   0.025
 3170SOL    HW110409   4.036   0.116   6.983
 3170SOL    HW210410   4.116   0.164   0.091
 3171SOL     OW10411   6.899   6.631   1.303
 3171SOL    HW110412   6.893   6.663   1.398
 3171SOL    HW210413   6.979   6.671   1.259
 3172SOL     OW10414   0.516   5.952   4.704
 3172SOL    HW110415   0.561   5.994   4.784
 3172SOL    HW210416   0.543   6.002   4.622
 3173SOL     OW10417   2.949   1.170   1.599
 3173SOL    HW110418   2.977   1.081   1.560
 3173SOL    HW210419   3.019   1.201   1.663
 3174SOL     OW10420   2.408   2.806   6.709
 3174SOL    HW110421   2.328   2.862   6.689
 3174SOL    HW210422   2.490   2.862   6.707
 3175SOL     OW10423   0.552   6.431   6.488
 3175SOL    HW110424   0.504   6.477   6.414
 3175SOL    HW210425   0.560   6.493   6.567
 3176SOL     OW10426   1.951   4.730   5.202
 3176SOL    HW110427   2.002   4.816   5.207
 3176SOL    HW210428   1.863   4.741   5.248
 3177SOL     OW10429   5.638   5.535   5.353
 3177SOL    HW110430   5.697   5.458   5.329
 3177SOL    HW210431   5.681   5.590   5.424
 3178SOL     OW10432   6.881   3.446   1.312
 3178SOL    HW110433   6.868   3.527   1.255
 3178SOL    HW210434   6.908   3.368   1.255
 3179SOL     OW10435   2.199   2.213   1.864
 3179SOL    HW110436   2.218   2.244   1.771
 3179SOL    HW210437   2.285   2.196   1.912
 3180SOL     OW10438   3.969   0.613   6.368
 3180SOL    HW110439   3.921   0.543   6.314
 3180SOL    HW210440   3.999   0.687   6.307
 3181SOL     OW10441   0.409   0.433   3.460
 3181SOL    HW110442   0.443   0.350   3.416
 3181SOL    HW210443   0.485   0.495   3.480
 3182SOL     OW10444   0.681   0.610   5.443
 3182SOL    HW110445   0.615   0.557   5.495
 3182SOL    HW210446   0.766   0.557   5.433
 3183SOL     OW10447   4.390   4.184   1.330
 3183SOL    HW110448   4.339   4.100   1.314
 3183SOL    HW210449   4.425   4.185   1.423
 3184SOL     OW10450   2.960   1.888   2.264
 3184SOL    HW110451   3.060   1.876   2.260
 3184SOL    HW210452   2.935   1.928   2.352
 3185SOL     OW10453   6.230   0.469   6.124
 3185SOL    HW110454   6.177   0.414   6.059
 3185SOL    HW210455   6.298   0.523   6.075
 3186SOL     OW10456   2.868   1.297   3.338
 3186SOL    HW110457   2.869   1.381   3.391
 3186SOL    HW210458   2.819   1.226   3.389
 3187SOL     OW10459   3.669   4.150   6.879
 3187SOL    HW110460   3.570   4.137   6.877
 3187SOL    HW210461   3.690   4.248   6.878
 3188SOL     OW10462   3.584   6.057   3.292
 3188SOL    HW110463   3.579   6.156   3.303
 3188SOL    HW210464   3.582   6.035   3.194
 3189SOL     OW10465   2.530   1.250   3.237
 3189SOL    HW110466   2.617   1.299   3.228
 3189SOL    HW210467   2.487   1.275   3.324
 3190SOL     OW10468   1.226   6.521   1.315
 3190SOL    HW110469   1.172   6.438   1.300
 3190SOL    HW210470   1.252   6.560   1.227
 3191SOL     OW10471   3.475   0.568   1.153
 3191SOL    HW110472   3.410   0.632   1.112
 3191SOL    HW210473   3.557   0.617   1.180
 3192SOL     OW10474   0.669   2.002   1.182
 3192SOL    HW110475   0.658   1.925   1.245
 3192SOL    HW210476   0.738   1.979   1.113
 3193SOL     OW10477   4.531   2.891   5.996
 3193SOL    HW110478   4.433   2.888   5.972
 3193SOL    HW210479   4.569   2.799   5.990
 3194SOL     OW10480   1.197   2.827   6.703
 3194SOL    HW110481   1.283   2.813   6.654
 3194SOL    HW210482   1.203   2.911   6.757
 3195SOL     OW10483   1.578   2.603   3.392
 3195SOL    HW110484   1.644   2.677   3.386
 3195SOL    HW210485   1.505   2.617   3.326
 3196SOL     OW10486   6.548   0.512   5.263
 3196SOL    HW110487   6.470   0.501   5.325
 3196SOL    HW210488   6.547   0.439   5.194
 3197SOL     OW10489   1.226   5.814   3.028
 3197SOL    HW110490   1.270   5.859   3.106
 3197SOL    HW210491   1.156   5.874   2.990
 3198SOL     OW10492   6.693   1.897   6.784
 3198SOL    HW110493   6.675   1.992   6.809
 3198SOL    HW210494   6.788   1.888   6.755
 3199SOL     OW10495   4.725   2.439   1.547
 3199SOL    HW110496   4.705   2.475   1.638
 3199SOL    HW210497   4.675   2.492   1.478
 3200SOL     OW10498   0.307   2.568   1.189
 3200SOL    HW110499   0.279   2.656   1.151
 3200SOL    HW210500   0.404   2.571   1.214
 3201SOL     OW10501   5.036   3.559   3.895
 3201SOL    HW110502   4.991   3.545   3.806
 3201SOL    HW210503   5.104   3.632   3.887
 3202SOL     OW10504   1.842   4.407   2.346
 3202SOL    HW110505   1.880   4.315   2.338
 3202SOL    HW210506   1.798   4.417   2.436
 3203SOL     OW10507   5.871   0.911   0.705
 3203SOL    HW110508   5.772   0.921   0.694
 3203SOL    HW210509   5.893   0.818   0.733
 3204SOL     OW10510   5.618   5.769   1.589
 3204SOL    HW110511   5.537   5.730   1.545
 3204SOL    HW210512   5.667   5.825   1.523
 3205SOL     OW10513   6.872   4.687   6.970
 3205SOL    HW110514   6.898   4.732   0.030
 3205SOL    HW210515   6.940   4.618   6.946
 3206SOL     OW10516   0.310   0.156   5.712
 3206SOL    HW110517   0.237   0.219   5.735
 3206SOL    HW210518   0.313   0.144   5.612
 3207SOL     OW10519   0.258   1.152   5.624
 3207SOL    HW110520   0.161   1.144   5.643
 3207SOL    HW210521   0.280   1.247   5.601
 3208SOL     OW10522   4.384   6.091   4.917
 3208SOL    HW110523   4.443   6.063   4.994
 3208SOL    HW210524   4.438   6.144   4.852
 3209SOL     OW10525   3.315   6.968   3.726
 3209SOL    HW110526   3.295   6.904   3.800
 3209SOL    HW210527   3.409   7.002   3.734
 3210SOL     OW10528   0.417   3.334   2.499
 3210SOL    HW110529   0.372   3.245   2.490
 3210SOL    HW210530   0.501   3.323   2.550
 3211SOL     OW10531   2.229   4.215   0.670
 3211SOL    HW110532   2.197   4.154   0.742
 3211SOL    HW210533   2.254   4.304   0.709
 3212SOL     OW10534   4.247   1.897   6.503
 3212SOL    HW110535   4.180   1.904   6.430
 3212SOL    HW210536   4.220   1.824   6.566
 3213SOL     OW10537   6.037   5.061   2.839
 3213SOL    HW110538   5.992   5.013   2.915
 3213SOL    HW210539   5.968   5.102   2.780
 3214SOL     OW10540   4.840   5.980   0.139
 3214SOL    HW110541   4.793   6.069   0.133
 3214SOL    HW210542   4.924   5.991   0.191
 3215SOL     OW10543   6.312   2.762   0.883
 3215SOL    HW110544   6.378   2.695   0.850
 3215SOL    HW210545   6.359   2.833   0.935
 3216SOL     OW10546   5.746   5.927   2.934
 3216SOL    HW110547   5.797   5.905   2.851
 3216SOL    HW210548   5.737   5.845   2.991
 3217SOL     OW10549   1.324   4.395   3.724
 3217SOL    HW110550   1.373   4.311   3.703
 3217SOL    HW210551   1.244   4.402   3.665
 3218SOL     OW10552   4.155   6.992   3.444
 3218SOL    HW110553   4.188   7.006   3.351
 3218SOL    HW210554   4.195   0.035   3.505
 3219SOL     OW10555   0.033   0.701   3.618
 3219SOL    HW110556   0.072   0.779   3.568
 3219SOL    HW210557   0.085   0.686   3.702
 3220SOL     OW10558   6.954   4.605   5.314
 3220SOL    HW110559   6.893   4.557   5.252
 3220SOL    HW210560   6.902   4.672   5.367
 3221SOL     OW10561   2.635   6.035   2.572
 3221SOL    HW110562   2.681   6.096   2.636
 3221SOL    HW210563   2.639   6.074   2.480
 3222SOL     OW10564   5.057   2.025   2.994
 3222SOL    HW110565   5.079   2.009   3.090
 3222SOL    HW210566   4.970   2.072   2.987
 3223SOL     OW10567   3.093   5.106   6.940
 3223SOL    HW110568   3.154   5.178   6.908
 3223SOL    HW210569   3.070   5.045   6.865
 3224SOL     OW10570   4.703   5.309   6.075
 3224SOL    HW110571   4.665   5.341   6.161
 3224SOL    HW210572   4.640   5.244   6.032
 3225SOL     OW10573   4.688   3.232   6.518
 3225SOL    HW110574   4.718   3.216   6.424
 3225SOL    HW210575   4.628   3.157   6.547
 3226SOL     OW10576   2.167   0.926   4.316
 3226SOL    HW110577   2.221   0.874   4.250
 3226SOL    HW210578   2.221   0.942   4.398
 3227SOL     OW10579   3.134   2.144   6.685
 3227SOL    HW110580   3.229   2.116   6.670
 3227SOL    HW210581   3.113   2.223   6.627
 3228SOL     OW10582   5.653   3.240   3.892
 3228SOL    HW110583   5.668   3.156   3.840
 3228SOL    HW210584   5.568   3.283   3.861
 3229SOL     OW10585   3.304   1.949   5.620
 3229SOL    HW110586   3.310   1.854   5.587
 3229SOL    HW210587   3.378   2.003   5.579
 3230SOL     OW10588   0.485   1.564   3.369
 3230SOL    HW110589   0.550   1.640   3.370
 3230SOL    HW210590   0.513   1.495   3.436
 3231SOL     OW10591   4.754   6.003   1.492
 3231SOL    HW110592   4.802   5.915   1.490
 3231SOL    HW210593   4.674   5.997   1.551
 3232SOL     OW10594   4.188   5.140   5.215
 3232SOL    HW110595   4.159   5.128   5.310
 3232SOL    HW210596   4.107   5.139   5.156
 3233SOL     OW10597   0.895   4.263   1.187
 3233SOL    HW110598   0.936   4.185   1.233
 3233SOL    HW210599   0.954   4.291   1.111
 3234SOL     OW10600   6.995   2.425   0.364
 3234SOL    HW110601   7.015   2.521   0.343
 3234SOL    HW210602   6.932   2.388   0.295
 3235SOL     OW10603   5.979   6.433   2.822
 3235SOL    HW110604   5.903   6.493   2.848
 3235SOL    HW210605   5.944   6.344   2.795
 3236SOL     OW10606   1.801   3.078   1.936
 3236SOL    HW110607   1.832   3.173   1.942
 3236SOL    HW210608   1.706   3.072   1.965
 3237SOL     OW10609   4.690   6.983   4.548
 3237SOL    HW110610   4.766   0.019   4.530
 3237SOL    HW210611   4.611   7.011   4.495
 3238SOL     OW10612   0.561   5.816   6.902
 3238SOL    HW110613   0.507   5.737   6.873
 3238SOL    HW210614   0.652   5.786   6.930
 3239SOL     OW10615   6.078   0.986   6.918
 3239SOL    HW110616   6.049   1.056   6.983
 3239SOL    HW210617   6.045   1.010   6.827
 3240SOL     OW10618   0.242   6.814   4.709
 3240SOL    HW110619   0.205   6.725   4.684
 3240SOL    HW210620   0.240   6.875   4.630
 3241SOL     OW10621   4.793   1.114   4.311
 3241SOL    HW110622   4.846   1.194   4.337
 3241SOL    HW210623   4.852   1.048   4.264
 3242SOL     OW10624   3.695   5.231   0.446
 3242SOL    HW110625   3.706   5.284   0.362
 3242SOL    HW210626   3.784   5.221   0.492
 3243SOL     OW10627   5.104   4.993   6.756
 3243SOL    HW110628   5.020   5.014   6.705
 3243SOL    HW210629   5.145   4.910   6.719
 3244SOL     OW10630   5.184   6.050   5.868
 3244SOL    HW110631   5.240   5.971   5.845
 3244SOL    HW210632   5.115   6.023   5.936
 3245SOL     OW10633   4.241   2.950   6.216
 3245SOL    HW110634   4.145   2.979   6.219
 3245SOL    HW210635   4.247   2.854   6.245
 3246SOL     OW10636   5.143   0.169   2.522
 3246SOL    HW110637   5.195   0.162   2.608
 3246SOL    HW210638   5.045   0.168   2.543
 3247SOL     OW10639   0.280   3.883   3.057
 3247SOL    HW110640   0.338   3.848   2.983
 3247SOL    HW210641   0.242   3.806   3.109
 3248SOL     OW10642   6.249   3.790   2.248
 3248SOL    HW110643   6.257   3.702   2.203
 3248SOL    HW210644   6.165   3.792   2.304
 3249SOL     OW10645   3.849   4.733   5.347
 3249SOL    HW110646   3.823   4.637   5.333
 3249SOL    HW210647   3.886   4.770   5.262
 3250SOL     OW10648   5.390   6.874   2.749
 3250SOL    HW110649   5.365   6.970   2.762
 3250SOL    HW210650   5.450   6.845   2.824
 3251SOL     OW10651   3.746   1.650   3.085
 3251SOL    HW110652   3.719   1.618   3.176
 3251SOL    HW210653   3.839   1.688   3.090
 3252SOL     OW10654   3.536   1.180   3.070
 3252SOL    HW110655   3.451   1.192   3.121
 3252SOL    HW210656   3.570   1.268   3.039
 3253SOL     OW10657   4.683   3.072   1.384
 3253SOL    HW110658   4.648   3.138   1.317
 3253SOL    HW210659   4.614   3.055   1.454
 3254SOL     OW10660   3.643   4.903   3.992
 3254SOL    HW110661   3.682   4.989   4.024
 3254SOL    HW210662   3.638   4.905   3.892
 3255SOL     OW10663   4.665   5.219   0.429
 3255SOL    HW110664   4.699   5.146   0.489
 3255SOL    HW210665   4.731   5.295   0.428
 3256SOL     OW10666   5.511   6.584   5.944
 3256SOL    HW110667   5.520   6.684   5.945
 3256SOL    HW210668   5.600   6.542   5.961
 3257SOL     OW10669   1.438   1.919   0.541
 3257SOL    HW110670   1.447   1.955   0.634
 3257SOL    HW210671   1.517   1.862   0.520
 3258SOL     OW10672   4.944   6.551   1.736
 3258SOL    HW110673   4.939   6.574   1.833
 3258SOL    HW210674   4.963   6.634   1.683
 3259SOL     OW10675   4.406   6.121   4.544
 3259SOL    HW110676   4.405   6.197   4.479
 3259SOL    HW210677   4.391   6.035   4.494
 3260SOL     OW10678   1.798   1.410   0.679
 3260SOL    HW110679   1.859   1.364   0.744
 3260SOL    HW210680   1.706   1.372   0.686
 3261SOL     OW10681   3.924   0.031   0.699
 3261SOL    HW110682   3.930   6.989   0.625
 3261SOL    HW210683   3.961   7.016   0.783
 3262SOL     OW10684   3.403   1.721   3.613
 3262SOL    HW110685   3.386   1.816   3.639
 3262SOL    HW210686   3.493   1.693   3.648
 3263SOL     OW10687   4.567   6.755   3.442
 3263SOL    HW110688   4.540   6.832   3.384
 3263SOL    HW210689   4.503   6.680   3.430
 3264SOL     OW10690   0.021   5.491   0.021
 3264SOL    HW110691   0.011   5.495   0.120
 3264SOL    HW210692   0.105   5.443   7.022
 3265SOL     OW10693   3.740   2.387   6.547
 3265SOL    HW110694   3.723   2.297   6.506
 3265SOL    HW210695   3.755   2.377   6.646
 3266SOL     OW10696   6.744   2.562   7.017
 3266SOL    HW110697   6.768   2.504   0.069
 3266SOL    HW210698   6.689   2.639   0.024
 3267SOL     OW10699   3.443   2.083   1.262
 3267SOL    HW110700   3.433   2.181   1.278
 3267SOL    HW210701   3.370   2.034   1.310
 3268SOL     OW10702   1.154   4.232   0.158
 3268SOL    HW110703   1.058   4.246   0.179
 3268SOL    HW210704   1.209   4.251   0.240
 3269SOL     OW10705   4.947   4.901   1.335
 3269SOL    HW110706   4.952   4.826   1.401
 3269SOL    HW210707   4.980   4.869   1.246
 3270SOL     OW10708   0.348   5.356   3.653
 3270SOL    HW110709   0.271   5.400   3.699
 3270SOL    HW210710   0.430   5.412   3.665
 3271SOL     OW10711   5.478   2.230   2.431
 3271SOL    HW110712   5.473   2.199   2.526
 3271SOL    HW210713   5.432   2.319   2.423
 3272SOL     OW10714   3.836   0.140   6.985
 3272SOL    HW110715   3.820   0.043   6.998
 3272SOL    HW210716   3.799   0.191   0.038
 3273SOL     OW10717   1.385   6.171   2.164
 3273SOL    HW110718   1.477   6.197   2.192
 3273SOL    HW210719   1.371   6.074   2.183
 3274SOL     OW10720   3.136   1.824   5.974
 3274SOL    HW110721   3.223   1.775   5.970
 3274SOL    HW210722   3.110   1.853   5.881
 3275SOL     OW10723   2.254   0.405   6.941
 3275SOL    HW110724   2.173   0.385   6.886
 3275SOL    HW210725   2.246   0.360   0.005
 3276SOL     OW10726   3.436   5.195   6.809
 3276SOL    HW110727   3.410   5.162   6.718
 3276SOL    HW210728   3.368   5.260   6.842
 3277SOL     OW10729   6.665   6.625   6.033
 3277SOL    HW110730   6.621   6.603   5.945
 3277SOL    HW210731   6.687   6.723   6.035
 3278SOL     OW10732   0.691   1.048   5.299
 3278SOL    HW110733   0.656   1.057   5.392
 3278SOL    HW210734   0.753   1.124   5.279
 3279SOL     OW10735   0.026   0.180   1.041
 3279SOL    HW110736   6.972   0.124   1.064
 3279SOL    HW210737   0.055   0.231   1.122
 3280SOL     OW10738   2.672   5.044   6.570
 3280SOL    HW110739   2.727   4.968   6.605
 3280SOL    HW210740   2.733   5.117   6.538
 3281SOL     OW10741   1.874   5.159   0.681
 3281SOL    HW110742   1.944   5.226   0.654
 3281SOL    HW210743   1.851   5.174   0.777
 3282SOL     OW10744   2.803   6.165   4.581
 3282SOL    HW110745   2.889   6.162   4.530
 3282SOL    HW210746   2.733   6.113   4.531
 3283SOL     OW10747   3.183   1.993   3.380
 3283SOL    HW110748   3.151   1.903   3.352
 3283SOL    HW210749   3.119   2.063   3.346
 3284SOL     OW10750   0.153   6.251   6.490
 3284SOL    HW110751   0.253   6.247   6.488
 3284SOL    HW210752   0.122   6.325   6.430
 3285SOL     OW10753   0.272   2.915   2.758
 3285SOL    HW110754   0.186   2.961   2.782
 3285SOL    HW210755   0.304   2.861   2.836
 3286SOL     OW10756   3.839   3.591   3.894
 3286SOL    HW110757   3.782   3.665   3.930
 3286SOL    HW210758   3.836   3.592   3.794
 3287SOL     OW10759   1.714   6.006   7.021
 3287SOL    HW110760   1.643   5.937   7.004
 3287SOL    HW210761   1.671   6.092   0.024
 3288SOL     OW10762   0.753   6.250   6.516
 3288SOL    HW110763   0.843   6.286   6.538
 3288SOL    HW210764   0.693   6.324   6.487
 3289SOL     OW10765   1.023   5.923   5.466
 3289SOL    HW110766   1.001   5.960   5.556
 3289SOL    HW210767   1.090   5.849   5.476
 3290SOL     OW10768   0.163   6.160   1.784
 3290SOL    HW110769   0.157   6.063   1.758
 3290SOL    HW210770   0.133   6.217   1.708
 3291SOL     OW10771   2.008   6.309   6.424
 3291SOL    HW110772   2.078   6.380   6.411
 3291SOL    HW210773   2.032   6.228   6.370
 3292SOL     OW10774   0.512   0.666   6.690
 3292SOL    HW110775   0.606   0.661   6.657
 3292SOL    HW210776   0.485   0.577   6.726
 3293SOL     OW10777   0.296   1.468   3.201
 3293SOL    HW110778   0.205   1.484   3.240
 3293SOL    HW210779   0.365   1.508   3.261
 3294SOL     OW10780   6.706   0.769   6.627
 3294SOL    HW110781   6.748   0.715   6.700
 3294SOL    HW210782   6.691   0.712   6.547
 3295SOL     OW10783   2.691   2.060   1.061
 3295SOL    HW110784   2.664   2.030   1.153
 3295SOL    HW210785   2.788   2.084   1.062
 3296SOL     OW10786   2.267   0.120   2.134
 3296SOL    HW110787   2.269   0.215   2.163
 3296SOL    HW210788   2.337   0.105   2.064
 3297SOL     OW10789   3.332   2.127   5.244
 3297SOL    HW110790   3.293   2.196   5.183
 3297SOL    HW210791   3.263   2.057   5.264
 3298SOL     OW10792   6.416   3.141   3.101
 3298SOL    HW110793   6.385   3.162   3.194
 3298SOL    HW210794   6.403   3.044   3.082
 3299SOL     OW10795   1.513   0.015   4.280
 3299SOL    HW110796   1.428   0.056   4.247
 3299SOL    HW210797   1.501   7.013   4.376
 3300SOL     OW10798   6.516   0.020   5.122
 3300SOL    HW110799   6.590   0.086   5.135
 3300SOL    HW210800   6.430   0.060   5.153
 3301SOL     OW10801   0.802   3.932   3.784
 3301SOL    HW110802   0.717   3.916   3.834
 3301SOL    HW210803   0.846   4.016   3.817
 3302SOL     OW10804   1.194   5.297   4.158
 3302SOL    HW110805   1.289   5.324   4.145
 3302SOL    HW210806   1.183   5.255   4.248
 3303SOL     OW10807   3.359   3.031   2.833
 3303SOL    HW110808   3.387   3.028   2.929
 3303SOL    HW210809   3.267   3.070   2.826
 3304SOL     OW10810   1.119   5.505   3.557
 3304SOL    HW110811   1.039   5.564   3.545
 3304SOL    HW210812   1.151   5.473   3.468
 3305SOL     OW10813   1.461   1.008   1.995
 3305SOL    HW110814   1.425   0.991   2.086
 3305SOL    HW210815   1.401   0.968   1.926
 3306SOL     OW10816   2.176   4.095   3.319
 3306SOL    HW110817   2.152   4.043   3.237
 3306SOL    HW210818   2.249   4.159   3.297
 3307SOL     OW10819   0.025   5.903   0.238
 3307SOL    HW110820   0.073   5.838   0.179
 3307SOL    HW210821   0.009   5.861   0.328
 3308SOL     OW10822   4.409   6.083   0.399
 3308SOL    HW110823   4.441   6.093   0.305
 3308SOL    HW210824   4.482   6.046   0.455
 3309SOL     OW10825   1.225   4.757   3.242
 3309SOL    HW110826   1.260   4.678   3.193
 3309SOL    HW210827   1.215   4.834   3.179
 3310SOL     OW10828   0.424   4.164   3.310
 3310SOL    HW110829   0.334   4.120   3.310
 3310SOL    HW210830   0.495   4.094   3.295
 3311SOL     OW10831   3.533   6.287   1.344
 3311SOL    HW110832   3.544   6.384   1.324
 3311SOL    HW210833   3.458   6.250   1.289
 3312SOL     OW10834   2.971   4.349   6.085
 3312SOL    HW110835   3.003   4.331   6.178
 3312SOL    HW210836   3.034   4.306   6.020
 3313SOL     OW10837   1.406   5.348   3.561
 3313SOL    HW110838   1.382   5.258   3.597
 3313SOL    HW210839   1.333   5.381   3.502
 3314SOL     OW10840   1.652   3.383   5.183
 3314SOL    HW110841   1.684   3.301   5.136
 3314SOL    HW210842   1.566   3.362   5.231
 3315SOL     OW10843   6.775   2.742   3.940
 3315SOL    HW110844   6.678   2.716   3.940
 3315SOL    HW210845   6.784   2.835   3.904
 3316SOL     OW10846   4.320   2.308   6.023
 3316SOL    HW110847   4.276   2.267   5.943
 3316SOL    HW210848   4.357   2.236   6.081
 3317SOL     OW10849   4.581   2.834   1.734
 3317SOL    HW110850   4.602   2.920   1.781
 3317SOL    HW210851   4.667   2.789   1.708
 3318SOL     OW10852   2.808   6.140   6.177
 3318SOL    HW110853   2.784   6.059   6.124
 3318SOL    HW210854   2.805   6.221   6.118
 3319SOL     OW10855   0.479   6.297   4.406
 3319SOL    HW110856   0.424   6.375   4.435
 3319SOL    HW210857   0.469   6.285   4.307
 3320SOL     OW10858   5.761   1.510   5.412
 3320SOL    HW110859   5.681   1.513   5.472
 3320SOL    HW210860   5.818   1.432   5.438
 3321SOL     OW10861   3.328   3.137   2.367
 3321SOL    HW110862   3.319   3.064   2.436
 3321SOL    HW210863   3.255   3.127   2.300
 3322SOL     OW10864   4.128   1.788   0.635
 3322SOL    HW110865   4.150   1.708   0.689
 3322SOL    HW210866   4.136   1.870   0.691
 3323SOL     OW10867   2.197   4.364   6.475
 3323SOL    HW110868   2.100   4.371   6.498
 3323SOL    HW210869   2.232   4.276   6.505
 3324SOL     OW10870   1.017   4.069   0.450
 3324SOL    HW110871   0.966   3.984   0.457
 3324SOL    HW210872   1.114   4.050   0.435
 3325SOL     OW10873   1.531   3.145   0.184
 3325SOL    HW110874   1.544   3.215   0.254
 3325SOL    HW210875   1.619   3.121   0.144
 3326SOL     OW10876   5.914   1.957   1.938
 3326SOL    HW110877   5.907   1.879   2.001
 3326SOL    HW210878   6.004   1.956   1.894
 3327SOL     OW10879   2.610   6.697   2.168
 3327SOL    HW110880   2.626   6.621   2.232
 3327SOL    HW210881   2.530   6.749   2.198
 3328SOL     OW10882   4.578   0.500   1.784
 3328SOL    HW110883   4.623   0.412   1.776
 3328SOL    HW210884   4.520   0.501   1.866
 3329SOL     OW10885   3.988   0.807   5.283
 3329SOL    HW110886   3.942   0.763   5.205
 3329SOL    HW210887   4.085   0.819   5.262
 3330SOL     OW10888   5.646   6.779   2.413
 3330SOL    HW110889   5.547   6.786   2.405
 3330SOL    HW210890   5.688   6.860   2.372
 3331SOL     OW10891   1.663   3.261   2.999
 3331SOL    HW110892   1.731   3.225   3.063
 3331SOL    HW210893   1.699   3.256   2.906
 3332SOL     OW10894   5.153   4.937   0.005
 3332SOL    HW110895   5.140   4.975   6.939
 3332SOL    HW210896   5.240   4.888   0.009
 3333SOL     OW10897   3.294   3.444   1.146
 3333SOL    HW110898   3.374   3.424   1.202
 3333SOL    HW210899   3.267   3.361   1.096
 3334SOL     OW10900   2.069   2.656   2.476
 3334SOL    HW110901   2.121   2.683   2.394
 3334SOL    HW210902   1.997   2.592   2.450
 3335SOL     OW10903   3.636   4.370   5.671
 3335SOL    HW110904   3.628   4.344   5.767
 3335SOL    HW210905   3.548   4.356   5.625
 3336SOL     OW10906   3.035   6.879   3.936
 3336SOL    HW110907   3.135   6.876   3.943
 3336SOL    HW210908   3.004   6.974   3.944
 3337SOL     OW10909   3.472   3.759   2.618
 3337SOL    HW110910   3.513   3.779   2.707
 3337SOL    HW210911   3.529   3.797   2.546
 3338SOL     OW10912   1.220   1.705   1.471
 3338SOL    HW110913   1.274   1.789   1.458
 3338SOL    HW210914   1.209   1.659   1.383
 3339SOL     OW10915   2.040   0.290   5.250
 3339SOL    HW110916   2.011   0.302   5.345
 3339SOL    HW210917   2.012   0.371   5.197
 3340SOL     OW10918   4.719   0.882   3.877
 3340SOL    HW110919   4.777   0.957   3.847
 3340SOL    HW210920   4.761   0.836   3.955
 3341SOL     OW10921   2.467   4.699   2.341
 3341SOL    HW110922   2.551   4.689   2.288
 3341SOL    HW210923   2.458   4.793   2.372
 3342SOL     OW10924   5.827   0.526   3.044
 3342SOL    HW110925   5.898   0.497   3.108
 3342SOL    HW210926   5.769   0.596   3.087
 3343SOL     OW10927   5.416   5.471   6.668
 3343SOL    HW110928   5.363   5.457   6.585
 3343SOL    HW210929   5.448   5.384   6.703
 3344SOL     OW10930   6.549   2.299   1.997
 3344SOL    HW110931   6.586   2.228   1.937
 3344SOL    HW210932   6.467   2.338   1.955
 3345SOL     OW10933   0.631   4.211   0.816
 3345SOL    HW110934   0.730   4.216   0.829
 3345SOL    HW210935   0.612   4.161   0.731
 3346SOL     OW10936   2.855   0.569   6.865
 3346SOL    HW110937   2.860   0.632   6.942
 3346SOL    HW210938   2.877   0.618   6.781
 3347SOL     OW10939   0.930   3.036   6.191
 3347SOL    HW110940   0.874   2.978   6.250
 3347SOL    HW210941   0.910   3.132   6.211
 3348SOL     OW10942   3.497   3.921   6.306
 3348SOL    HW110943   3.526   4.006   6.261
 3348SOL    HW210944   3.533   3.918   6.399
 3349SOL     OW10945   2.217   4.663   4.113
 3349SOL    HW110946   2.183   4.569   4.117
 3349SOL    HW210947   2.290   4.675   4.180
 3350SOL     OW10948   0.444   4.113   5.528
 3350SOL    HW110949   0.506   4.172   5.475
 3350SOL    HW210950   0.350   4.129   5.499
 3351SOL     OW10951   5.572   0.646   1.002
 3351SOL    HW110952   5.648   0.594   0.964
 3351SOL    HW210953   5.584   0.657   1.101
 3352SOL     OW10954   5.267   2.113   0.426
 3352SOL    HW110955   5.315   2.094   0.341
 3352SOL    HW210956   5.310   2.189   0.473
 3353SOL     OW10957   2.049   0.715   1.567
 3353SOL    HW110958   2.026   0.812   1.559
 3353SOL    HW210959   2.061   0.675   1.476
 3354SOL     OW10960   4.065   3.375   5.958
 3354SOL    HW110961   4.003   3.313   5.911
 3354SOL    HW210962   4.017   3.419   6.034
 3355SOL     OW10963   2.426   0.977   5.046
 3355SOL    HW110964   2.469   1.001   5.133
 3355SOL    HW210965   2.426   1.056   4.985
 3356SOL     OW10966   1.302   6.391   6.212
 3356SOL    HW110967   1.337   6.484   6.216
 3356SOL    HW210968   1.272   6.362   6.303
 3357SOL     OW10969   2.814   3.518   2.129
 3357SOL    HW110970   2.749   3.464   2.077
 3357SOL    HW210971   2.907   3.501   2.095
 3358SOL     OW10972   5.573   1.437   2.866
 3358SOL    HW110973   5.610   1.381   2.940
 3358SOL    HW210974   5.515   1.509   2.904
 3359SOL     OW10975   6.974   5.728   4.023
 3359SOL    HW110976   6.948   5.804   3.964
 3359SOL    HW210977   6.892   5.682   4.057
 3360SOL     OW10978   0.352   2.889   5.762
 3360SOL    HW110979   0.400   2.951   5.700
 3360SOL    HW210980   0.412   2.814   5.787
 3361SOL     OW10981   0.614   0.556   4.239
 3361SOL    HW110982   0.643   0.595   4.326
 3361SOL    HW210983   0.694   0.546   4.179
 3362SOL     OW10984   3.958   1.744   4.139
 3362SOL    HW110985   3.883   1.695   4.182
 3362SOL    HW210986   3.980   1.827   4.191
 3363SOL     OW10987   6.527   2.852   1.043
 3363SOL    HW110988   6.526   2.952   1.039
 3363SOL    HW210989   6.544   2.822   1.137
 3364SOL     OW10990   1.862   4.394   3.009
 3364SOL    HW110991   1.881   4.349   3.097
 3364SOL    HW210992   1.893   4.489   3.014
 3365SOL     OW10993   2.181   3.155   4.853
 3365SOL    HW110994   2.223   3.236   4.893
 3365SOL    HW210995   2.224   3.072   4.890
 3366SOL     OW10996   7.006   3.503   4.636
 3366SOL    HW110997   0.071   3.521   4.672
 3366SOL    HW210998   7.014   3.447   4.553
 3367SOL     OW10999   3.676   3.322   4.312
 3367SOL    HW111000   3.720   3.388   4.371
 3367SOL    HW211001   3.632   3.369   4.235
 3368SOL     OW11002   1.792   6.306   6.693
 3368SOL    HW111003   1.833   6.237   6.753
 3368SOL    HW211004   1.801   6.277   6.598
 3369SOL     OW11005   4.344   1.632   1.563
 3369SOL    HW111006   4.400   1.652   1.643
 3369SOL    HW211007   4.349   1.534   1.543
 3370SOL     OW11008   6.678   5.641   1.658
 3370SOL    HW111009   6.721   5.729   1.637
 3370SOL    HW211010   6.591   5.634   1.610
 3371SOL     OW11011   2.064   3.303   2.704
 3371SOL    HW111012   2.075   3.227   2.640
 3371SOL    HW211013   2.051   3.388   2.653
 3372SOL     OW11014   6.847   2.959   1.177
 3372SOL    HW111015   6.834   2.987   1.272
 3372SOL    HW211016   6.803   2.870   1.162
 3373SOL     OW11017   6.682   1.190   1.632
 3373SOL    HW111018   6.660   1.287   1.624
 3373SOL    HW211019   6.646   1.155   1.719
 3374SOL     OW11020   0.810   6.748   3.522
 3374SOL    HW111021   0.836   6.704   3.436
 3374SOL    HW211022   0.789   6.845   3.505
 3375SOL     OW11023   6.754   5.125   6.661
 3375SOL    HW111024   6.816   5.126   6.583
 3375SOL    HW211025   6.783   5.193   6.728
 3376SOL     OW11026   2.313   3.451   5.605
 3376SOL    HW111027   2.336   3.527   5.545
 3376SOL    HW211028   2.378   3.376   5.590
 3377SOL     OW11029   6.271   5.123   3.819
 3377SOL    HW111030   6.273   5.213   3.776
 3377SOL    HW211031   6.361   5.102   3.858
 3378SOL     OW11032   1.291   6.609   6.769
 3378SOL    HW111033   1.373   6.557   6.793
 3378SOL    HW211034   1.288   6.623   6.670
 3379SOL     OW11035   1.067   3.385   4.507
 3379SOL    HW111036   1.018   3.404   4.422
 3379SOL    HW211037   1.158   3.428   4.502
 3380SOL     OW11038   3.921   4.595   5.728
 3380SOL    HW111039   3.881   4.514   5.686
 3380SOL    HW211040   3.917   4.588   5.828
 3381SOL     OW11041   1.187   3.012   1.313
 3381SOL    HW111042   1.109   3.010   1.375
 3381SOL    HW211043   1.174   2.944   1.240
 3382SOL     OW11044   0.046   2.209   1.087
 3382SOL    HW111045   0.075   2.113   1.079
 3382SOL    HW211046   6.998   2.215   1.155
 3383SOL     OW11047   3.377   4.809   0.480
 3383SOL    HW111048   3.428   4.893   0.499
 3383SOL    HW211049   3.279   4.828   0.486
 3384SOL     OW11050   2.888   4.243   0.563
 3384SOL    HW111051   2.851   4.152   0.545
 3384SOL    HW211052   2.946   4.271   0.487
 3385SOL     OW11053   0.003   2.240   3.864
 3385SOL    HW111054   0.098   2.268   3.874
 3385SOL    HW211055   6.976   2.264   3.946
 3386SOL     OW11056   6.607   4.905   6.559
 3386SOL    HW111057   6.685   4.941   6.508
 3386SOL    HW211058   6.535   4.879   6.496
 3387SOL     OW11059   5.570   1.113   3.121
 3387SOL    HW111060   5.598   1.110   3.025
 3387SOL    HW211061   5.605   1.031   3.168
 3388SOL     OW11062   5.083   4.080   1.351
 3388SOL    HW111063   5.150   4.016   1.312
 3388SOL    HW211064   5.106   4.173   1.323
 3389SOL     OW11065   5.982   6.423   0.368
 3389SOL    HW111066   5.896   6.472   0.381
 3389SOL    HW211067   6.041   6.475   0.307
 3390SOL     OW11068   3.879   6.748   5.699
 3390SOL    HW111069   3.867   6.649   5.699
 3390SOL    HW211070   3.841   6.787   5.783
 3391SOL     OW11071   5.610   2.964   3.481
 3391SOL    HW111072   5.699   2.942   3.441
 3391SOL    HW211073   5.574   2.883   3.527
 3392SOL     OW11074   4.184   7.023   4.867
 3392SOL    HW111075   4.268   0.049   4.883
 3392SOL    HW211076   4.147   0.021   4.777
 3393SOL     OW11077   4.971   0.007   0.578
 3393SOL    HW111078   5.016   6.945   0.595
 3393SOL    HW211079   4.954   0.017   0.480
 3394SOL     OW11080   3.610   5.352   1.071
 3394SOL    HW111081   3.675   5.275   1.064
 3394SOL    HW211082   3.546   5.334   1.145
 3395SOL     OW11083   4.067   0.554   3.317
 3395SOL    HW111084   4.035   0.460   3.308
 3395SOL    HW211085   4.010   0.602   3.384
 3396SOL     OW11086   5.735   1.079   3.764
 3396SOL    HW111087   5.785   1.162   3.789
 3396SOL    HW211088   5.703   1.033   3.847
 3397SOL     OW11089   2.579   5.506   6.392
 3397SOL    HW111090   2.605   5.602   6.385
 3397SOL    HW211091   2.659   5.448   6.383
 3398SOL     OW11092   0.414   1.857   5.382
 3398SOL    HW111093   0.408   1.929   5.452
 3398SOL    HW211094   0.323   1.824   5.359
 3399SOL     OW11095   0.643   4.679   2.999
 3399SOL    HW111096   0.669   4.619   3.075
 3399SOL    HW211097   0.559   4.728   3.022
 3400SOL     OW11098   5.657   2.859   5.346
 3400SOL    HW111099   5.560   2.837   5.358
 3400SOL    HW211100   5.668   2.959   5.341
 3401SOL     OW11101   6.609   3.662   6.303
 3401SOL    HW111102   6.559   3.693   6.384
 3401SOL    HW211103   6.548   3.663   6.224
 3402SOL     OW11104   6.452   5.122   1.092
 3402SOL    HW111105   6.492   5.209   1.119
 3402SOL    HW211106   6.354   5.135   1.073
 3403SOL     OW11107   4.338   6.558   6.025
 3403SOL    HW111108   4.397   6.631   5.992
 3403SOL    HW211109   4.298   6.509   5.947
 3404SOL     OW11110   5.045   3.333   5.903
 3404SOL    HW111111   5.141   3.361   5.910
 3404SOL    HW211112   4.995   3.367   5.983
 3405SOL     OW11113   4.903   6.406   5.686
 3405SOL    HW111114   4.832   6.469   5.654
 3405SOL    HW211115   4.993   6.446   5.671
 3406SOL     OW11116   2.160   3.932   2.321
 3406SOL    HW111117   2.107   3.977   2.249
 3406SOL    HW211118   2.159   3.833   2.306
 3407SOL     OW11119   2.167   3.790   0.830
 3407SOL    HW111120   2.142   3.852   0.905
 3407SOL    HW211121   2.221   3.840   0.762
 3408SOL     OW11122   4.577   2.595   3.755
 3408SOL    HW111123   4.600   2.499   3.771
 3408SOL    HW211124   4.532   2.632   3.836
 3409SOL     OW11125   4.190   0.125   0.609
 3409SOL    HW111126   4.101   0.088   0.638
 3409SOL    HW211127   4.177   0.215   0.567
 3410SOL     OW11128   5.687   6.640   2.654
 3410SOL    HW111129   5.670   6.698   2.575
 3410SOL    HW211130   5.607   6.581   2.670
 3411SOL     OW11131   6.768   1.594   1.160
 3411SOL    HW111132   6.700   1.652   1.205
 3411SOL    HW211133   6.740   1.578   1.065
 3412SOL     OW11134   5.192   3.713   1.788
 3412SOL    HW111135   5.105   3.689   1.745
 3412SOL    HW211136   5.175   3.776   1.864
 3413SOL     OW11137   6.962   1.959   6.708
 3413SOL    HW111138   7.019   1.889   6.751
 3413SOL    HW211139   7.000   2.049   6.727
 3414SOL     OW11140   4.231   2.866   0.474
 3414SOL    HW111141   4.246   2.830   0.382
 3414SOL    HW211142   4.185   2.798   0.531
 3415SOL     OW11143   2.388   2.436   4.207
 3415SOL    HW111144   2.367   2.531   4.231
 3415SOL    HW211145   2.471   2.408   4.254
 3416SOL     OW11146   6.379   0.358   0.071
 3416SOL    HW111147   6.292   0.366   0.120
 3416SOL    HW211148   6.402   0.446   0.030
 3417SOL     OW11149   0.330   0.783   3.291
 3417SOL    HW111150   0.388   0.813   3.215
 3417SOL    HW211151   0.272   0.707   3.261
 3418SOL     OW11152   4.437   5.077   2.424
 3418SOL    HW111153   4.506   5.143   2.393
 3418SOL    HW211154   4.366   5.125   2.475
 3419SOL     OW11155   3.696   5.454   6.018
 3419SOL    HW111156   3.739   5.366   6.038
 3419SOL    HW211157   3.765   5.518   5.983
 3420SOL     OW11158   4.776   2.875   3.728
 3420SOL    HW111159   4.767   2.843   3.634
 3420SOL    HW211160   4.775   2.975   3.728
 3421SOL     OW11161   5.570   1.839   3.363
 3421SOL    HW111162   5.499   1.855   3.295
 3421SOL    HW211163   5.658   1.870   3.327
 3422SOL     OW11164   2.169   0.161   0.640
 3422SOL    HW111165   2.204   0.078   0.685
 3422SOL    HW211166   2.245   0.221   0.617
 3423SOL     OW11167   1.056   4.234   5.426
 3423SOL    HW111168   1.044   4.293   5.346
 3423SOL    HW211169   0.992   4.157   5.421
 3424SOL     OW11170   4.561   6.625   1.143
 3424SOL    HW111171   4.646   6.587   1.179
 3424SOL    HW211172   4.582   6.700   1.080
 3425SOL     OW11173   5.599   4.226   1.397
 3425SOL    HW111174   5.663   4.196   1.469
 3425SOL    HW211175   5.552   4.309   1.428
 3426SOL     OW11176   5.678   3.540   0.814
 3426SOL    HW111177   5.711   3.445   0.822
 3426SOL    HW211178   5.756   3.601   0.800
 3427SOL     OW11179   1.221   2.098   1.082
 3427SOL    HW111180   1.315   2.123   1.060
 3427SOL    HW211181   1.209   2.000   1.070
 3428SOL     OW11182   4.741   5.797   5.806
 3428SOL    HW111183   4.810   5.801   5.878
 3428SOL    HW211184   4.755   5.872   5.742
 3429SOL     OW11185   0.283   0.842   1.017
 3429SOL    HW111186   0.312   0.935   0.996
 3429SOL    HW211187   0.186   0.831   0.993
 3430SOL     OW11188   2.459   4.746   5.699
 3430SOL    HW111189   2.446   4.651   5.726
 3430SOL    HW211190   2.510   4.749   5.613
 3431SOL     OW11191   2.401   6.261   2.985
 3431SOL    HW111192   2.489   6.243   3.028
 3431SOL    HW211193   2.385   6.360   2.982
 3432SOL     OW11194   2.212   4.771   0.141
 3432SOL    HW111195   2.299   4.809   0.107
 3432SOL    HW211196   2.208   4.674   0.118
 3433SOL     OW11197   2.450   0.954   6.567
 3433SOL    HW111198   2.530   0.991   6.520
 3433SOL    HW211199   2.478   0.882   6.630
 3434SOL     OW11200   3.113   1.945   1.950
 3434SOL    HW111201   3.185   1.989   2.004
 3434SOL    HW211202   3.024   1.977   1.982
 3435SOL     OW11203   1.998   0.560   0.331
 3435SOL    HW111204   1.902   0.533   0.342
 3435SOL    HW211205   2.003   0.637   0.268
 3436SOL     OW11206   4.284   5.299   0.208
 3436SOL    HW111207   4.296   5.224   0.273
 3436SOL    HW211208   4.319   5.384   0.247
 3437SOL     OW11209   1.405   6.120   6.126
 3437SOL    HW111210   1.404   6.035   6.179
 3437SOL    HW211211   1.336   6.183   6.163
 3438SOL     OW11212   1.165   4.027   1.040
 3438SOL    HW111213   1.206   4.111   1.076
 3438SOL    HW211214   1.177   4.023   0.941
 3439SOL     OW11215   2.436   5.896   2.691
 3439SOL    HW111216   2.492   5.952   2.630
 3439SOL    HW211217   2.465   5.801   2.685
 3440SOL     OW11218   3.938   3.059   4.678
 3440SOL    HW111219   3.864   3.100   4.732
 3440SOL    HW211220   4.012   3.031   4.740
 3441SOL     OW11221   5.543   5.261   5.704
 3441SOL    HW111222   5.460   5.288   5.752
 3441SOL    HW211223   5.541   5.163   5.687
 3442SOL     OW11224   2.935   3.526   1.470
 3442SOL    HW111225   2.835   3.522   1.471
 3442SOL    HW211226   2.967   3.600   1.529
 3443SOL     OW11227   3.000   5.926   2.696
 3443SOL    HW111228   3.089   5.969   2.681
 3443SOL    HW211229   2.990   5.849   2.632
 3444SOL     OW11230   5.640   4.564   1.499
 3444SOL    HW111231   5.640   4.628   1.423
 3444SOL    HW211232   5.557   4.508   1.495
 3445SOL     OW11233   6.462   4.842   3.883
 3445SOL    HW111234   6.499   4.932   3.862
 3445SOL    HW211235   6.366   4.838   3.854
 3446SOL     OW11236   5.479   0.063   1.487
 3446SOL    HW111237   5.558   0.116   1.454
 3446SOL    HW211238   5.484   6.996   1.450
 3447SOL     OW11239   5.141   0.363   0.175
 3447SOL    HW111240   5.206   0.340   0.102
 3447SOL    HW211241   5.092   0.447   0.150
 3448SOL     OW11242   1.193   6.333   5.488
 3448SOL    HW111243   1.174   6.429   5.469
 3448SOL    HW211244   1.226   6.289   5.405
 3449SOL     OW11245   6.311   5.108   5.096
 3449SOL    HW111246   6.274   5.105   5.003
 3449SOL    HW211247   6.321   5.014   5.131
 3450SOL     OW11248   1.397   0.204   6.622
 3450SOL    HW111249   1.495   0.184   6.628
 3450SOL    HW211250   1.384   0.292   6.575
 3451SOL     OW11251   1.664   6.102   0.630
 3451SOL    HW111252   1.663   6.016   0.579
 3451SOL    HW211253   1.716   6.090   0.714
 3452SOL     OW11254   5.566   0.961   5.362
 3452SOL    HW111255   5.501   0.886   5.373
 3452SOL    HW211256   5.517   1.047   5.348
 3453SOL     OW11257   5.196   6.329   5.875
 3453SOL    HW111258   5.188   6.375   5.787
 3453SOL    HW211259   5.191   6.230   5.862
 3454SOL     OW11260   1.733   2.679   3.086
 3454SOL    HW111261   1.676   2.606   3.046
 3454SOL    HW211262   1.785   2.642   3.163
 3455SOL     OW11263   1.887   3.210   5.381
 3455SOL    HW111264   1.966   3.272   5.373
 3455SOL    HW211265   1.824   3.247   5.449
 3456SOL     OW11266   4.469   4.551   2.146
 3456SOL    HW111267   4.521   4.614   2.088
 3456SOL    HW211268   4.478   4.458   2.110
 3457SOL     OW11269   3.636   5.410   4.968
 3457SOL    HW111270   3.646   5.385   4.871
 3457SOL    HW211271   3.560   5.475   4.977
 3458SOL     OW11272   4.532   1.650   2.358
 3458SOL    HW111273   4.629   1.676   2.365
 3458SOL    HW211274   4.483   1.683   2.438
 3459SOL     OW11275   4.011   1.196   2.542
 3459SOL    HW111276   4.040   1.229   2.631
 3459SOL    HW211277   4.084   1.211   2.475
 3460SOL     OW11278   3.784   1.614   5.933
 3460SOL    HW111279   3.766   1.577   6.024
 3460SOL    HW211280   3.745   1.553   5.864
 3461SOL     OW11281   5.700   5.008   6.891
 3461SOL    HW111282   5.742   5.051   6.811
 3461SOL    HW211283   5.764   5.012   6.968
 3462SOL     OW11284   2.284   3.180   6.778
 3462SOL    HW111285   2.244   3.270   6.760
 3462SOL    HW211286   2.383   3.186   6.766
 3463SOL     OW11287   0.267   3.837   1.321
 3463SOL    HW111288   0.247   3.785   1.404
 3463SOL    HW211289   0.360   3.874   1.327
 3464SOL     OW11290   0.426   4.420   6.442
 3464SOL    HW111291   0.493   4.346   6.444
 3464SOL    HW211292   0.334   4.381   6.447
 3465SOL     OW11293   1.918   1.025   1.919
 3465SOL    HW111294   1.826   1.061   1.902
 3465SOL    HW211295   1.953   1.062   2.005
 3466SOL     OW11296   0.135   4.363   5.701
 3466SOL    HW111297   0.207   4.373   5.770
 3466SOL    HW211298   0.052   4.409   5.731
 3467SOL     OW11299   2.395   2.238   6.258
 3467SOL    HW111300   2.339   2.320   6.243
 3467SOL    HW211301   2.337   2.163   6.288
 3468SOL     OW11302   2.772   6.260   3.344
 3468SOL    HW111303   2.860   6.259   3.296
 3468SOL    HW211304   2.746   6.166   3.368
 3469SOL     OW11305   6.746   2.383   3.630
 3469SOL    HW111306   6.837   2.405   3.597
 3469SOL    HW211307   6.704   2.315   3.570
 3470SOL     OW11308   0.480   5.652   1.497
 3470SOL    HW111309   0.518   5.590   1.428
 3470SOL    HW211310   0.499   5.615   1.588
 3471SOL     OW11311   4.137   5.682   4.903
 3471SOL    HW111312   4.111   5.772   4.939
 3471SOL    HW211313   4.055   5.626   4.892
 3472SOL     OW11314   2.525   0.472   4.527
 3472SOL    HW111315   2.552   0.375   4.527
 3472SOL    HW211316   2.500   0.499   4.434
 3473SOL     OW11317   6.025   1.514   5.851
 3473SOL    HW111318   6.047   1.421   5.821
 3473SOL    HW211319   5.962   1.556   5.785
 3474SOL     OW11320   3.622   5.255   2.016
 3474SOL    HW111321   3.665   5.240   2.105
 3474SOL    HW211322   3.672   5.203   1.946
 3475SOL     OW11323   1.285   6.515   3.975
 3475SOL    HW111324   1.343   6.475   3.905
 3475SOL    HW211325   1.190   6.488   3.959
 3476SOL     OW11326   4.817   0.760   4.609
 3476SOL    HW111327   4.898   0.816   4.592
 3476SOL    HW211328   4.799   0.701   4.530
 3477SOL     OW11329   4.340   6.013   1.152
 3477SOL    HW111330   4.395   5.945   1.200
 3477SOL    HW211331   4.289   5.969   1.078
 3478SOL     OW11332   3.340   5.681   5.983
 3478SOL    HW111333   3.291   5.596   6.000
 3478SOL    HW211334   3.275   5.751   5.953
 3479SOL     OW11335   0.429   0.583   1.996
 3479SOL    HW111336   0.436   0.528   2.079
 3479SOL    HW211337   0.336   0.576   1.959
 3480SOL     OW11338   6.791   1.102   3.459
 3480SOL    HW111339   6.886   1.119   3.485
 3480SOL    HW211340   6.763   1.012   3.493
 3481SOL     OW11341   3.002   6.614   6.528
 3481SOL    HW111342   3.002   6.642   6.432
 3481SOL    HW211343   3.095   6.618   6.564
 3482SOL     OW11344   6.276   2.112   1.513
 3482SOL    HW111345   6.223   2.177   1.459
 3482SOL    HW211346   6.226   2.026   1.521
 3483SOL     OW11347   2.341   0.720   1.477
 3483SOL    HW111348   2.271   0.751   1.541
 3483SOL    HW211349   2.354   0.789   1.406
 3484SOL     OW11350   3.275   2.944   3.502
 3484SOL    HW111351   3.207   3.017   3.502
 3484SOL    HW211352   3.279   2.903   3.593
 3485SOL     OW11353   1.847   2.737   5.199
 3485SOL    HW111354   1.753   2.714   5.222
 3485SOL    HW211355   1.855   2.836   5.186
 3486SOL     OW11356   4.769   1.467   1.532
 3486SOL    HW111357   4.757   1.522   1.450
 3486SOL    HW211358   4.692   1.405   1.542
 3487SOL     OW11359   6.105   1.927   6.016
 3487SOL    HW111360   6.147   1.926   6.106
 3487SOL    HW211361   6.015   1.884   6.020
 3488SOL     OW11362   6.268   3.551   4.023
 3488SOL    HW111363   6.180   3.569   4.067
 3488SOL    HW211364   6.336   3.528   4.092
 3489SOL     OW11365   3.942   0.102   1.725
 3489SOL    HW111366   3.985   0.018   1.692
 3489SOL    HW211367   3.871   0.130   1.660
 3490SOL     OW11368   5.451   3.875   0.384
 3490SOL    HW111369   5.453   3.809   0.309
 3490SOL    HW211370   5.478   3.965   0.350
 3491SOL     OW11371   6.860   3.149   5.764
 3491SOL    HW111372   6.874   3.051   5.752
 3491SOL    HW211373   6.928   3.186   5.826
 3492SOL     OW11374   0.438   5.555   6.856
 3492SOL    HW111375   0.344   5.583   6.841
 3492SOL    HW211376   0.444   5.500   6.940
 3493SOL     OW11377   5.817   5.288   1.516
 3493SOL    HW111378   5.909   5.289   1.554
 3493SOL    HW211379   5.779   5.196   1.522
 3494SOL     OW11380   3.323   0.352   1.705
 3494SOL    HW111381   3.393   0.302   1.755
 3494SOL    HW211382   3.366   0.422   1.647
 3495SOL     OW11383   4.512   5.287   1.728
 3495SOL    HW111384   4.418   5.256   1.737
 3495SOL    HW211385   4.556   5.285   1.818
 3496SOL     OW11386   1.387   2.940   0.502
 3496SOL    HW111387   1.460   3.003   0.474
 3496SOL    HW211388   1.359   2.886   0.422
 3497SOL     OW11389   3.900   1.396   3.154
 3497SOL    HW111390   3.973   1.335   3.124
 3497SOL    HW211391   3.821   1.342   3.184
 3498SOL     OW11392   2.667   1.392   0.793
 3498SOL    HW111393   2.673   1.293   0.801
 3498SOL    HW211394   2.634   1.431   0.879
 3499SOL     OW11395   0.371   3.483   4.036
 3499SOL    HW111396   0.421   3.438   4.110
 3499SOL    HW211397   0.283   3.437   4.023
 3500SOL     OW11398   6.132   4.146   6.354
 3500SOL    HW111399   6.211   4.128   6.412
 3500SOL    HW211400   6.062   4.076   6.370
 3501SOL     OW11401   1.830   4.679   4.960
 3501SOL    HW111402   1.740   4.723   4.960
 3501SOL    HW211403   1.880   4.704   5.043
 3502SOL     OW11404   0.367   1.951   1.714
 3502SOL    HW111405   0.435   1.955   1.641
 3502SOL    HW211406   0.394   2.012   1.788
 3503SOL     OW11407   4.863   5.754   5.418
 3503SOL    HW111408   4.946   5.805   5.441
 3503SOL    HW211409   4.882   5.656   5.421
 3504SOL     OW11410   2.606   3.502   1.203
 3504SOL    HW111411   2.626   3.486   1.299
 3504SOL    HW211412   2.682   3.471   1.147
 3505SOL     OW11413   5.630   6.224   5.300
 3505SOL    HW111414   5.689   6.182   5.368
 3505SOL    HW211415   5.685   6.257   5.223
 3506SOL     OW11416   3.921   5.047   3.853
 3506SOL    HW111417   3.897   4.950   3.853
 3506SOL    HW211418   3.856   5.098   3.909
 3507SOL     OW11419   1.132   0.472   6.431
 3507SOL    HW111420   1.080   0.497   6.513
 3507SOL    HW211421   1.220   0.433   6.457
 3508SOL     OW11422   5.730   2.893   0.428
 3508SOL    HW111423   5.749   2.988   0.405
 3508SOL    HW211424   5.656   2.888   0.495
 3509SOL     OW11425   6.154   6.016   6.569
 3509SOL    HW111426   6.070   5.995   6.520
 3509SOL    HW211427   6.232   5.977   6.520
 3510SOL     OW11428   2.183   2.275   1.601
 3510SOL    HW111429   2.095   2.278   1.553
 3510SOL    HW211430   2.241   2.351   1.569
 3511SOL     OW11431   0.267   2.552   6.814
 3511SOL    HW111432   0.225   2.482   6.871
 3511SOL    HW211433   0.367   2.548   6.824
 3512SOL     OW11434   2.238   3.531   0.287
 3512SOL    HW111435   2.198   3.620   0.267
 3512SOL    HW211436   2.201   3.463   0.223
 3513SOL     OW11437   6.643   4.340   1.304
 3513SOL    HW111438   6.694   4.304   1.225
 3513SOL    HW211439   6.618   4.265   1.364
 3514SOL     OW11440   0.572   6.013   1.260
 3514SOL    HW111441   0.562   6.034   1.358
 3514SOL    HW211442   0.658   6.050   1.227
 3515SOL     OW11443   2.673   6.038   2.914
 3515SOL    HW111444   2.581   6.072   2.932
 3515SOL    HW211445   2.711   6.085   2.835
 3516SOL     OW11446   3.413   1.093   0.375
 3516SOL    HW111447   3.500   1.061   0.414
 3516SOL    HW211448   3.427   1.182   0.332
 3517SOL     OW11449   0.819   1.150   6.624
 3517SOL    HW111450   0.807   1.232   6.679
 3517SOL    HW211451   0.874   1.172   6.543
 3518SOL     OW11452   4.625   3.589   6.788
 3518SOL    HW111453   4.590   3.626   6.874
 3518SOL    HW211454   4.624   3.661   6.719
 3519SOL     OW11455   1.704   6.656   6.641
 3519SOL    HW111456   1.623   6.633   6.587
 3519SOL    HW211457   1.702   6.605   6.727
 3520SOL     OW11458   3.934   4.640   0.980
 3520SOL    HW111459   3.904   4.548   0.954
 3520SOL    HW211460   3.853   4.697   0.997
 3521SOL     OW11461   5.570   2.350   2.055
 3521SOL    HW111462   5.615   2.271   2.097
 3521SOL    HW211463   5.538   2.327   1.964
 3522SOL     OW11464   3.281   5.096   1.864
 3522SOL    HW111465   3.252   5.187   1.893
 3522SOL    HW211466   3.265   5.031   1.939
 3523SOL     OW11467   2.995   4.828   4.853
 3523SOL    HW111468   2.924   4.854   4.788
 3523SOL    HW211469   2.956   4.769   4.924
 3524SOL     OW11470   2.434   0.342   0.846
 3524SOL    HW111471   2.482   0.260   0.816
 3524SOL    HW211472   2.405   0.396   0.767
 3525SOL     OW11473   0.692   2.820   1.968
 3525SOL    HW111474   0.655   2.859   2.052
 3525SOL    HW211475   0.731   2.893   1.912
 3526SOL     OW11476   0.735   0.702   2.837
 3526SOL    HW111477   0.813   0.746   2.795
 3526SOL    HW211478   0.746   0.702   2.937
 3527SOL     OW11479   5.782   2.908   6.423
 3527SOL    HW111480   5.738   2.981   6.475
 3527SOL    HW211481   5.781   2.823   6.476
 3528SOL     OW11482   0.310   6.302   3.397
 3528SOL    HW111483   0.357   6.384   3.429
 3528SOL    HW211484   0.312   6.233   3.469
 3529SOL     OW11485   4.646   6.952   5.283
 3529SOL    HW111486   4.726   6.924   5.231
 3529SOL    HW211487   4.607   0.009   5.242
 3530SOL     OW11488   3.094   5.650   2.280
 3530SOL    HW111489   3.032   5.666   2.204
 3530SOL    HW211490   3.098   5.552   2.299
 3531SOL     OW11491   5.897   4.803   0.974
 3531SOL    HW111492   5.991   4.803   1.009
 3531SOL    HW211493   5.883   4.881   0.913
 3532SOL     OW11494   2.599   0.483   6.813
 3532SOL    HW111495   2.614   0.447   6.721
 3532SOL    HW211496   2.687   0.498   6.858
 3533SOL     OW11497   1.157   1.904   3.588
 3533SOL    HW111498   1.185   1.944   3.500
 3533SOL    HW211499   1.160   1.974   3.659
 3534SOL     OW11500   5.372   1.832   5.172
 3534SOL    HW111501   5.454   1.840   5.229
 3534SOL    HW211502   5.293   1.809   5.229
 3535SOL     OW11503   5.573   5.217   6.021
 3535SOL    HW111504   5.499   5.264   5.972
 3535SOL    HW211505   5.589   5.261   6.109
 3536SOL     OW11506   2.137   3.425   2.961
 3536SOL    HW111507   2.149   3.521   2.986
 3536SOL    HW211508   2.096   3.419   2.870
 3537SOL     OW11509   2.236   5.893   0.559
 3537SOL    HW111510   2.167   5.911   0.630
 3537SOL    HW211511   2.191   5.856   0.478
 3538SOL     OW11512   2.750   6.940   3.047
 3538SOL    HW111513   2.756   0.010   3.074
 3538SOL    HW211514   2.759   6.882   3.129
 3539SOL     OW11515   5.676   4.906   6.578
 3539SOL    HW111516   5.577   4.917   6.591
 3539SOL    HW211517   5.707   4.969   6.506
 3540SOL     OW11518   2.629   3.249   6.452
 3540SOL    HW111519   2.693   3.209   6.518
 3540SOL    HW211520   2.612   3.344   6.476
 3541SOL     OW11521   2.626   2.419   1.106
 3541SOL    HW111522   2.543   2.404   1.159
 3541SOL    HW211523   2.646   2.337   1.052
 3542SOL     OW11524   5.181   2.376   6.842
 3542SOL    HW111525   5.262   2.362   6.784
 3542SOL    HW211526   5.204   2.355   6.937
 3543SOL     OW11527   2.244   2.732   2.980
 3543SOL    HW111528   2.246   2.706   3.076
 3543SOL    HW211529   2.192   2.817   2.970
 3544SOL     OW11530   2.736   4.461   6.046
 3544SOL    HW111531   2.819   4.405   6.051
 3544SOL    HW211532   2.746   4.528   5.972
 3545SOL     OW11533   3.763   6.904   1.020
 3545SOL    HW111534   3.674   6.933   1.054
 3545SOL    HW211535   3.835   6.937   1.081
 3546SOL     OW11536   6.462   3.682   3.358
 3546SOL    HW111537   6.518   3.639   3.429
 3546SOL    HW211538   6.486   3.643   3.269
 3547SOL     OW11539   0.035   3.693   5.367
 3547SOL    HW111540   0.081   3.775   5.401
 3547SOL    HW211541   0.082   3.612   5.400
 3548SOL     OW11542   5.124   1.649   5.927
 3548SOL    HW111543   5.099   1.654   5.831
 3548SOL    HW211544   5.055   1.696   5.982
 3549SOL     OW11545   3.050   5.532   0.379
 3549SOL    HW111546   3.095   5.456   0.425
 3549SOL    HW211547   3.071   5.530   0.282
 3550SOL     OW11548   4.976   1.989   5.296
 3550SOL    HW111549   4.947   1.927   5.224
 3550SOL    HW211550   5.016   2.071   5.255
 3551SOL     OW11551   3.788   2.167   5.407
 3551SOL    HW111552   3.863   2.222   5.371
 3551SOL    HW211553   3.706   2.223   5.415
 3552SOL     OW11554   6.717   6.080   2.412
 3552SOL    HW111555   6.640   6.016   2.401
 3552SOL    HW211556   6.765   6.090   2.325
 3553SOL     OW11557   3.988   5.520   6.145
 3553SOL    HW111558   4.026   5.480   6.229
 3553SOL    HW211559   3.954   5.612   6.164
 3554SOL     OW11560   4.029   3.646   1.717
 3554SOL    HW111561   4.013   3.637   1.815
 3554SOL    HW211562   4.040   3.556   1.677
 3555SOL     OW11563   1.703   2.280   3.836
 3555SOL    HW111564   1.756   2.347   3.886
 3555SOL    HW211565   1.758   2.199   3.818
 3556SOL     OW11566   4.271   0.847   5.237
 3556SOL    HW111567   4.295   0.770   5.295
 3556SOL    HW211568   4.354   0.898   5.212
 3557SOL     OW11569   6.969   1.079   2.203
 3557SOL    HW111570   0.030   1.071   2.153
 3557SOL    HW211571   6.903   1.014   2.166
 3558SOL     OW11572   3.492   6.688   0.845
 3558SOL    HW111573   3.398   6.697   0.811
 3558SOL    HW211574   3.553   6.745   0.790
 3559SOL     OW11575   3.907   6.323   4.771
 3559SOL    HW111576   3.968   6.302   4.694
 3559SOL    HW211577   3.849   6.244   4.789
 3560SOL     OW11578   1.318   5.368   5.058
 3560SOL    HW111579   1.277   5.459   5.048
 3560SOL    HW211580   1.281   5.324   5.140
 3561SOL     OW11581   5.143   4.762   5.295
 3561SOL    HW111582   5.056   4.722   5.263
 3561SOL    HW211583   5.163   4.729   5.387
 3562SOL     OW11584   2.710   1.167   4.902
 3562SOL    HW111585   2.747   1.108   4.974
 3562SOL    HW211586   2.783   1.224   4.864
 3563SOL     OW11587   5.728   2.033   5.527
 3563SOL    HW111588   5.771   1.945   5.507
 3563SOL    HW211589   5.650   2.048   5.466
 3564SOL     OW11590   0.230   4.523   2.929
 3564SOL    HW111591   0.253   4.428   2.909
 3564SOL    HW211592   0.313   4.574   2.952
 3565SOL     OW11593   3.199   5.627   3.468
 3565SOL    HW111594   3.186   5.669   3.558
 3565SOL    HW211595   3.284   5.575   3.467
 3566SOL     OW11596   6.352   0.956   5.557
 3566SOL    HW111597   6.397   0.885   5.502
 3566SOL    HW211598   6.253   0.940   5.557
 3567SOL     OW11599   0.263   4.277   6.895
 3567SOL    HW111600   0.334   4.207   6.884
 3567SOL    HW211601   0.299   4.366   6.868
 3568SOL     OW11602   6.401   3.555   6.133
 3568SOL    HW111603   6.357   3.586   6.218
 3568SOL    HW211604   6.393   3.455   6.127
 3569SOL     OW11605   2.982   2.087   5.440
 3569SOL    HW111606   2.925   2.127   5.511
 3569SOL    HW211607   2.963   2.131   5.352
 3570SOL     OW11608   5.921   0.919   4.152
 3570SOL    HW111609   5.973   0.896   4.070
 3570SOL    HW211610   5.909   1.019   4.156
 3571SOL     OW11611   6.693   5.798   6.376
 3571SOL    HW111612   6.655   5.814   6.285
 3571SOL    HW211613   6.752   5.875   6.402
 3572SOL     OW11614   5.387   3.480   3.920
 3572SOL    HW111615   5.395   3.546   3.845
 3572SOL    HW211616   5.422   3.519   4.004
 3573SOL     OW11617   1.116   4.431   3.959
 3573SOL    HW111618   1.146   4.427   3.864
 3573SOL    HW211619   1.181   4.485   4.012
 3574SOL     OW11620   0.183   5.108   0.553
 3574SOL    HW111621   0.145   5.037   0.493
 3574SOL    HW211622   0.208   5.068   0.641
 3575SOL     OW11623   6.145   5.317   3.340
 3575SOL    HW111624   6.185   5.226   3.329
 3575SOL    HW211625   6.089   5.339   3.260
 3576SOL     OW11626   0.387   1.288   6.314
 3576SOL    HW111627   0.439   1.203   6.304
 3576SOL    HW211628   0.349   1.314   6.224
 3577SOL     OW11629   0.671   2.386   6.581
 3577SOL    HW111630   0.644   2.296   6.616
 3577SOL    HW211631   0.765   2.382   6.547
 3578SOL     OW11632   3.114   4.166   6.700
 3578SOL    HW111633   3.146   4.082   6.655
 3578SOL    HW211634   3.029   4.147   6.749
 3579SOL     OW11635   6.691   3.685   5.022
 3579SOL    HW111636   6.670   3.779   4.996
 3579SOL    HW211637   6.731   3.683   5.114
 3580SOL     OW11638   5.791   1.960   1.618
 3580SOL    HW111639   5.875   1.996   1.660
 3580SOL    HW211640   5.739   1.908   1.686
 3581SOL     OW11641   6.523   0.147   2.610
 3581SOL    HW111642   6.612   0.189   2.593
 3581SOL    HW211643   6.490   0.176   2.700
 3582SOL     OW11644   1.081   0.861   5.866
 3582SOL    HW111645   1.028   0.869   5.781
 3582SOL    HW211646   1.111   0.952   5.895
 3583SOL     OW11647   1.040   4.493   6.898
 3583SOL    HW111648   1.020   4.434   6.820
 3583SOL    HW211649   0.980   4.470   6.974
 3584SOL     OW11650   6.116   6.286   6.276
 3584SOL    HW111651   6.192   6.235   6.316
 3584SOL    HW211652   6.054   6.315   6.348
 3585SOL     OW11653   3.425   5.030   4.753
 3585SOL    HW111654   3.457   5.125   4.761
 3585SOL    HW211655   3.490   4.978   4.697
 3586SOL     OW11656   6.496   2.807   5.297
 3586SOL    HW111657   6.538   2.768   5.380
 3586SOL    HW211658   6.405   2.841   5.318
 3587SOL     OW11659   2.716   6.854   1.118
 3587SOL    HW111660   2.722   6.760   1.084
 3587SOL    HW211661   2.777   6.913   1.064
 3588SOL     OW11662   1.911   2.172   5.710
 3588SOL    HW111663   1.920   2.197   5.613
 3588SOL    HW211664   1.865   2.246   5.758
 3589SOL     OW11665   3.747   0.728   4.352
 3589SOL    HW111666   3.750   0.710   4.253
 3589SOL    HW211667   3.654   0.715   4.386
 3590SOL     OW11668   1.371   4.544   6.173
 3590SOL    HW111669   1.380   4.640   6.201
 3590SOL    HW211670   1.275   4.516   6.181
 3591SOL     OW11671   5.672   3.124   5.975
 3591SOL    HW111672   5.654   3.029   5.997
 3591SOL    HW211673   5.617   3.152   5.897
 3592SOL     OW11674   5.189   3.288   2.635
 3592SOL    HW111675   5.267   3.324   2.686
 3592SOL    HW211676   5.112   3.273   2.697
 3593SOL     OW11677   2.340   6.510   4.299
 3593SOL    HW111678   2.287   6.489   4.217
 3593SOL    HW211679   2.312   6.450   4.374
 3594SOL     OW11680   2.424   0.987   3.491
 3594SOL    HW111681   2.481   0.966   3.412
 3594SOL    HW211682   2.350   0.921   3.498
 3595SOL     OW11683   2.336   6.603   5.116
 3595SOL    HW111684   2.306   6.539   5.187
 3595SOL    HW211685   2.257   6.646   5.073
 3596SOL     OW11686   6.390   0.936   2.888
 3596SOL    HW111687   6.427   0.999   2.819
 3596SOL    HW211688   6.367   0.849   2.844
 3597SOL     OW11689   3.724   6.119   4.317
 3597SOL    HW111690   3.759   6.076   4.401
 3597SOL    HW211691   3.634   6.080   4.295
 3598SOL     OW11692   0.880   0.119   5.670
 3598SOL    HW111693   0.917   0.094   5.581
 3598SOL    HW211694   0.864   0.036   5.724
 3599SOL     OW11695   0.391   2.002   5.630
 3599SOL    HW111696   0.408   2.101   5.627
 3599SOL    HW211697   0.383   1.973   5.726
 3600SOL     OW11698   6.516   3.134   1.131
 3600SOL    HW111699   6.533   3.150   1.228
 3600SOL    HW211700   6.581   3.188   1.076
 3601SOL     OW11701   0.154   4.013   0.871
 3601SOL    HW111702   0.185   4.106   0.895
 3601SOL    HW211703   0.232   3.959   0.840
 3602SOL     OW11704   1.756   0.835   0.427
 3602SOL    HW111705   1.695   0.912   0.406
 3602SOL    HW211706   1.833   0.836   0.364
 3603SOL     OW11707   3.748   5.359   4.372
 3603SOL    HW111708   3.797   5.371   4.285
 3603SOL    HW211709   3.812   5.324   4.441
 3604SOL     OW11710   0.063   2.835   3.030
 3604SOL    HW111711   7.022   2.790   2.971
 3604SOL    HW211712   0.015   2.883   3.103
 3605SOL     OW11713   6.141   4.534   6.192
 3605SOL    HW111714   6.077   4.465   6.160
 3605SOL    HW211715   6.179   4.583   6.114
 3606SOL     OW11716   6.930   4.572   6.188
 3606SOL    HW111717   6.981   4.615   6.262
 3606SOL    HW211718   6.842   4.540   6.221
 3607SOL     OW11719   5.211   0.529   0.492
 3607SOL    HW111720   5.134   0.476   0.527
 3607SOL    HW211721   5.235   0.497   0.400
 3608SOL     OW11722   6.840   1.459   1.903
 3608SOL    HW111723   6.898   1.453   1.822
 3608SOL    HW211724   6.753   1.501   1.878
 3609SOL     OW11725   0.047   1.072   4.276
 3609SOL    HW111726   0.088   1.117   4.356
 3609SOL    HW211727   6.982   1.037   4.300
 3610SOL     OW11728   0.766   6.687   4.502
 3610SOL    HW111729   0.767   6.738   4.588
 3610SOL    HW211730   0.758   6.589   4.521
 3611SOL     OW11731   3.677   4.981   5.232
 3611SOL    HW111732   3.763   4.949   5.193
 3611SOL    HW211733   3.619   5.018   5.159
 3612SOL     OW11734   0.834   6.427   6.276
 3612SOL    HW111735   0.746   6.402   6.234
 3612SOL    HW211736   0.906   6.419   6.207
 3613SOL     OW11737   5.040   4.984   0.815
 3613SOL    HW111738   5.135   5.010   0.832
 3613SOL    HW211739   4.981   5.020   0.888
 3614SOL     OW11740   3.784   3.496   2.998
 3614SOL    HW111741   3.862   3.471   3.055
 3614SOL    HW211742   3.729   3.414   2.979
 3615SOL     OW11743   5.882   5.529   6.063
 3615SOL    HW111744   5.914   5.596   5.996
 3615SOL    HW211745   5.835   5.454   6.016
 3616SOL     OW11746   6.536   2.295   0.122
 3616SOL    HW111747   6.526   2.266   0.027
 3616SOL    HW211748   6.500   2.388   0.132
 3617SOL     OW11749   5.240   1.823   6.213
 3617SOL    HW111750   5.276   1.813   6.306
 3617SOL    HW211751   5.163   1.887   6.214
 3618SOL     OW11752   1.403   1.781   5.767
 3618SOL    HW111753   1.370   1.724   5.692
 3618SOL    HW211754   1.491   1.747   5.798
 3619SOL     OW11755   6.004   2.335   4.078
 3619SOL    HW111756   6.044   2.362   3.990
 3619SOL    HW211757   6.012   2.411   4.143
 3620SOL     OW11758   5.310   6.622   5.301
 3620SOL    HW111759   5.351   6.535   5.275
 3620SOL    HW211760   5.211   6.612   5.309
 3621SOL     OW11761   3.101   2.999   5.909
 3621SOL    HW111762   3.061   2.943   5.982
 3621SOL    HW211763   3.198   2.976   5.899
 3622SOL     OW11764   0.858   1.821   3.002
 3622SOL    HW111765   0.875   1.723   3.001
 3622SOL    HW211766   0.885   1.859   3.091
 3623SOL     OW11767   6.434   5.575   4.232
 3623SOL    HW111768   6.526   5.537   4.236
 3623SOL    HW211769   6.373   5.519   4.289
 3624SOL     OW11770   1.933   6.160   2.721
 3624SOL    HW111771   1.945   6.252   2.685
 3624SOL    HW211772   1.969   6.093   2.655
 3625SOL     OW11773   6.203   3.101   6.260
 3625SOL    HW111774   6.240   3.020   6.214
 3625SOL    HW211775   6.103   3.097   6.259
 3626SOL     OW11776   2.368   3.650   5.429
 3626SOL    HW111777   2.329   3.739   5.451
 3626SOL    HW211778   2.467   3.657   5.425
 3627SOL     OW11779   4.084   3.554   3.376
 3627SOL    HW111780   4.035   3.602   3.449
 3627SOL    HW211781   4.105   3.617   3.302
 3628SOL     OW11782   2.138   6.597   1.782
 3628SOL    HW111783   2.083   6.538   1.724
 3628SOL    HW211784   2.079   6.658   1.835
 3629SOL     OW11785   6.642   1.778   5.121
 3629SOL    HW111786   6.612   1.870   5.147
 3629SOL    HW211787   6.641   1.770   5.021
 3630SOL     OW11788   5.748   2.579   4.373
 3630SOL    HW111789   5.757   2.678   4.380
 3630SOL    HW211790   5.825   2.542   4.321
 3631SOL     OW11791   2.674   0.267   4.442
 3631SOL    HW111792   2.687   0.182   4.493
 3631SOL    HW211793   2.758   0.322   4.446
 3632SOL     OW11794   5.126   0.893   0.895
 3632SOL    HW111795   5.118   0.989   0.870
 3632SOL    HW211796   5.128   0.837   0.812
 3633SOL     OW11797   3.085   2.391   5.928
 3633SOL    HW111798   3.160   2.327   5.916
 3633SOL    HW211799   3.121   2.485   5.931
 3634SOL     OW11800   0.703   6.093   4.155
 3634SOL    HW111801   0.705   6.168   4.221
 3634SOL    HW211802   0.702   6.131   4.062
 3635SOL     OW11803   3.555   0.699   5.694
 3635SOL    HW111804   3.631   0.635   5.684
 3635SOL    HW211805   3.585   0.791   5.665
 3636SOL     OW11806   0.222   6.017   5.831
 3636SOL    HW111807   0.281   5.957   5.779
 3636SOL    HW211808   0.192   6.093   5.772
 3637SOL     OW11809   5.971   1.862   1.104
 3637SOL    HW111810   5.879   1.826   1.120
 3637SOL    HW211811   5.985   1.942   1.163
 3638SOL     OW11812   6.312   4.902   4.243
 3638SOL    HW111813   6.274   4.853   4.320
 3638SOL    HW211814   6.283   4.859   4.158
 3639SOL     OW11815   3.734   3.819   0.852
 3639SOL    HW111816   3.725   3.907   0.898
 3639SOL    HW211817   3.652   3.801   0.798
 3640SOL     OW11818   3.631   6.351   6.727
 3640SOL    HW111819   3.611   6.285   6.654
 3640SOL    HW211820   3.665   6.303   6.808
 3641SOL     OW11821   4.166   2.224   4.707
 3641SOL    HW111822   4.204   2.238   4.798
 3641SOL    HW211823   4.139   2.128   4.696
 3642SOL     OW11824   4.801   1.510   5.784
 3642SOL    HW111825   4.857   1.556   5.715
 3642SOL    HW211826   4.841   1.421   5.805
 3643SOL     OW11827   2.803   5.649   4.627
 3643SOL    HW111828   2.889   5.680   4.667
 3643SOL    HW211829   2.727   5.696   4.672
 3644SOL     OW11830   6.741   0.901   1.388
 3644SOL    HW111831   6.656   0.925   1.434
 3644SOL    HW211832   6.778   0.982   1.342
 3645SOL     OW11833   5.682   1.615   4.101
 3645SOL    HW111834   5.646   1.535   4.054
 3645SOL    HW211835   5.671   1.603   4.200
 3646SOL     OW11836   0.259   4.899   5.881
 3646SOL    HW111837   0.315   4.944   5.812
 3646SOL    HW211838   0.289   4.927   5.972
 3647SOL     OW11839   1.376   3.602   0.485
 3647SOL    HW111840   1.329   3.625   0.400
 3647SOL    HW211841   1.458   3.660   0.495
 3648SOL     OW11842   3.513   5.066   2.897
 3648SOL    HW111843   3.518   5.163   2.921
 3648SOL    HW211844   3.542   5.054   2.802
 3649SOL     OW11845   4.256   2.989   1.394
 3649SOL    HW111846   4.262   2.906   1.450
 3649SOL    HW211847   4.334   3.049   1.416
 3650SOL     OW11848   6.721   5.593   0.732
 3650SOL    HW111849   6.759   5.537   0.805
 3650SOL    HW211850   6.779   5.674   0.719
 3651SOL     OW11851   1.053   6.020   2.973
 3651SOL    HW111852   1.110   6.096   3.002
 3651SOL    HW211853   0.963   6.026   3.017
 3652SOL     OW11854   4.860   6.360   3.749
 3652SOL    HW111855   4.792   6.356   3.822
 3652SOL    HW211856   4.824   6.414   3.673
 3653SOL     OW11857   6.521   0.708   3.177
 3653SOL    HW111858   6.447   0.662   3.128
 3653SOL    HW211859   6.592   0.642   3.200
 3654SOL     OW11860   2.050   6.376   6.931
 3654SOL    HW111861   2.034   6.444   6.859
 3654SOL    HW211862   2.148   6.366   6.946
 3655SOL     OW11863   1.018   0.075   4.060
 3655SOL    HW111864   1.005   0.072   3.960
 3655SOL    HW211865   0.946   0.131   4.101
 3656SOL     OW11866   1.394   2.844   1.431
 3656SOL    HW111867   1.445   2.826   1.347
 3656SOL    HW211868   1.327   2.916   1.414
 3657SOL     OW11869   4.539   6.230   5.889
 3657SOL    HW111870   4.633   6.265   5.896
 3657SOL    HW211871   4.522   6.198   5.796
 3658SOL     OW11872   1.401   5.796   4.564
 3658SOL    HW111873   1.485   5.819   4.515
 3658SOL    HW211874   1.371   5.705   4.537
 3659SOL     OW11875   3.034   3.855   6.193
 3659SOL    HW111876   3.128   3.835   6.167
 3659SOL    HW211877   2.973   3.836   6.115
 3660SOL     OW11878   5.273   6.009   2.111
 3660SOL    HW111879   5.214   5.929   2.103
 3660SOL    HW211880   5.369   5.980   2.106
 3661SOL     OW11881   4.355   2.320   6.336
 3661SOL    HW111882   4.404   2.400   6.301
 3661SOL    HW211883   4.365   2.244   6.273
 3662SOL     OW11884   3.402   0.675   4.042
 3662SOL    HW111885   3.350   0.758   4.064
 3662SOL    HW211886   3.340   0.605   4.007
 3663SOL     OW11887   1.342   1.322   0.861
 3663SOL    HW111888   1.333   1.401   0.801
 3663SOL    HW211889   1.416   1.263   0.828
 3664SOL     OW11890   5.112   1.813   1.206
 3664SOL    HW111891   5.148   1.819   1.299
 3664SOL    HW211892   5.152   1.886   1.151
 3665SOL     OW11893   0.750   6.154   5.869
 3665SOL    HW111894   0.697   6.237   5.852
 3665SOL    HW211895   0.691   6.086   5.913
 3666SOL     OW11896   2.081   4.247   3.656
 3666SOL    HW111897   2.016   4.323   3.651
 3666SOL    HW211898   2.035   4.166   3.692
 3667SOL     OW11899   6.002   6.921   0.629
 3667SOL    HW111900   5.918   6.919   0.682
 3667SOL    HW211901   6.078   6.951   0.687
 3668SOL     OW11902   1.681   0.426   1.558
 3668SOL    HW111903   1.719   0.462   1.473
 3668SOL    HW211904   1.755   0.392   1.616
 3669SOL     OW11905   5.957   1.449   4.321
 3669SOL    HW111906   5.908   1.429   4.406
 3669SOL    HW211907   5.973   1.548   4.315
 3670SOL     OW11908   2.282   5.243   0.734
 3670SOL    HW111909   2.275   5.170   0.667
 3670SOL    HW211910   2.265   5.206   0.826
 3671SOL     OW11911   5.958   0.465   3.260
 3671SOL    HW111912   6.004   0.538   3.310
 3671SOL    HW211913   5.908   0.406   3.325
 3672SOL     OW11914   5.760   1.703   1.147
 3672SOL    HW111915   5.692   1.777   1.152
 3672SOL    HW211916   5.765   1.657   1.235
 3673SOL     OW11917   3.513   0.519   5.975
 3673SOL    HW111918   3.534   0.477   6.063
 3673SOL    HW211919   3.581   0.491   5.908
 3674SOL     OW11920   0.471   0.464   5.575
 3674SOL    HW111921   0.401   0.499   5.639
 3674SOL    HW211922   0.523   0.392   5.620
 3675SOL     OW11923   1.900   3.029   5.165
 3675SOL    HW111924   1.890   3.098   5.237
 3675SOL    HW211925   1.996   3.002   5.158
 3676SOL     OW11926   4.308   5.076   4.543
 3676SOL    HW111927   4.331   5.107   4.451
 3676SOL    HW211928   4.391   5.066   4.597
 3677SOL     OW11929   0.876   6.044   2.715
 3677SOL    HW111930   0.872   6.138   2.682
 3677SOL    HW211931   0.927   6.041   2.801
 3678SOL     OW11932   0.783   3.261   4.070
 3678SOL    HW111933   0.744   3.353   4.066
 3678SOL    HW211934   0.883   3.267   4.068
 3679SOL     OW11935   0.930   1.194   2.710
 3679SOL    HW111936   0.889   1.130   2.776
 3679SOL    HW211937   0.861   1.259   2.680
 3680SOL     OW11938   6.289   2.970   3.900
 3680SOL    HW111939   6.268   2.968   3.998
 3680SOL    HW211940   6.260   3.058   3.861
 3681SOL     OW11941   0.368   0.497   5.990
 3681SOL    HW111942   0.410   0.516   6.078
 3681SOL    HW211943   0.381   0.400   5.967
 3682SOL     OW11944   6.195   2.559   5.984
 3682SOL    HW111945   6.210   2.621   6.062
 3682SOL    HW211946   6.183   2.614   5.901
 3683SOL     OW11947   6.813   0.327   4.864
 3683SOL    HW111948   6.846   0.283   4.948
 3683SOL    HW211949   6.889   0.374   4.818
 3684SOL     OW11950   1.287   3.369   0.608
 3684SOL    HW111951   1.189   3.356   0.619
 3684SOL    HW211952   1.305   3.461   0.572
 3685SOL     OW11953   6.083   6.284   5.688
 3685SOL    HW111954   6.054   6.376   5.662
 3685SOL    HW211955   6.010   6.240   5.740
 3686SOL     OW11956   6.385   5.154   3.522
 3686SOL    HW111957   6.372   5.175   3.426
 3686SOL    HW211958   6.322   5.208   3.578
 3687SOL     OW11959   2.974   6.012   5.721
 3687SOL    HW111960   2.898   6.030   5.660
 3687SOL    HW211961   2.977   6.081   5.794
 3688SOL     OW11962   1.084   3.992   7.009
 3688SOL    HW111963   1.112   4.070   0.039
 3688SOL    HW211964   1.165   3.943   6.977
 3689SOL     OW11965   1.078   0.601   5.539
 3689SOL    HW111966   1.049   0.674   5.478
 3689SOL    HW211967   1.035   0.515   5.511
 3690SOL     OW11968   3.998   0.265   6.228
 3690SOL    HW111969   4.088   0.307   6.238
 3690SOL    HW211970   3.927   0.334   6.239
 3691SOL     OW11971   2.062   3.082   6.919
 3691SOL    HW111972   2.161   3.075   6.905
 3691SOL    HW211973   2.018   3.106   6.833
 3692SOL     OW11974   1.236   5.994   4.636
 3692SOL    HW111975   1.310   5.933   4.610
 3692SOL    HW211976   1.266   6.089   4.626
 3693SOL     OW11977   1.807   3.178   2.781
 3693SOL    HW111978   1.845   3.085   2.783
 3693SOL    HW211979   1.872   3.240   2.739
 3694SOL     OW11980   0.971   4.816   2.590
 3694SOL    HW111981   0.971   4.893   2.654
 3694SOL    HW211982   0.943   4.848   2.500
 3695SOL     OW11983   0.500   2.397   2.527
 3695SOL    HW111984   0.516   2.334   2.603
 3695SOL    HW211985   0.403   2.396   2.502
 3696SOL     OW11986   4.065   5.570   5.181
 3696SOL    HW111987   4.122   5.615   5.250
 3696SOL    HW211988   4.112   5.573   5.093
 3697SOL     OW11989   7.010   5.944   3.459
 3697SOL    HW111990   0.047   5.925   3.535
 3697SOL    HW211991   6.956   5.862   3.439
 3698SOL     OW11992   3.534   6.287   5.043
 3698SOL    HW111993   3.510   6.364   4.983
 3698SOL    HW211994   3.496   6.203   5.005
 3699SOL     OW11995   6.867   3.413   3.147
 3699SOL    HW111996   6.893   3.494   3.200
 3699SOL    HW211997   6.802   3.359   3.200
 3700SOL     OW11998   5.606   0.769   3.752
 3700SOL    HW111999   5.706   0.760   3.759
 3700SOL    HW212000   5.583   0.815   3.666
 3701SOL     OW12001   0.611   1.082   3.395
 3701SOL    HW112002   0.515   1.104   3.415
 3701SOL    HW212003   0.671   1.142   3.447
 3702SOL     OW12004   4.275   0.223   2.224
 3702SOL    HW112005   4.194   0.265   2.183
 3702SOL    HW212006   4.305   0.147   2.167
 3703SOL     OW12007   4.120   3.450   6.404
 3703SOL    HW112008   4.209   3.471   6.363
 3703SOL    HW212009   4.074   3.535   6.428
 3704SOL     OW12010   2.734   0.808   1.796
 3704SOL    HW112011   2.816   0.757   1.769
 3704SOL    HW212012   2.708   0.870   1.722
 3705SOL     OW12013   4.960   6.596   4.142
 3705SOL    HW112014   4.974   6.599   4.241
 3705SOL    HW212015   4.862   6.598   4.121
 3706SOL     OW12016   0.759   2.786   4.817
 3706SOL    HW112017   0.734   2.813   4.724
 3706SOL    HW212018   0.854   2.813   4.835
 3707SOL     OW12019   5.457   3.438   5.095
 3707SOL    HW112020   5.378   3.395   5.140
 3707SOL    HW212021   5.463   3.534   5.123
 3708SOL     OW12022   6.050   0.797   6.371
 3708SOL    HW112023   6.140   0.755   6.367
 3708SOL    HW212024   6.056   0.886   6.416
 3709SOL     OW12025   3.774   0.918   6.947
 3709SOL    HW112026   3.687   0.942   6.990
 3709SOL    HW212027   3.820   0.847   7.000
 3710SOL     OW12028   6.754   5.833   6.924
 3710SOL    HW112029   6.719   5.870   7.010
 3710SOL    HW212030   6.684   5.838   6.854
 3711SOL     OW12031   0.032   5.979   2.181
 3711SOL    HW112032   7.018   6.014   2.267
 3711SOL    HW212033   0.131   5.993   2.181
 3712SOL     OW12034   7.013   5.687   6.569
 3712SOL    HW112035   0.056   5.620   6.541
 3712SOL    HW212036   6.986   5.668   6.664
 3713SOL     OW12037   1.699   6.263   4.976
 3713SOL    HW112038   1.600   6.257   4.988
 3713SOL    HW212039   1.732   6.349   5.015
 3714SOL     OW12040   5.252   6.176   5.007
 3714SOL    HW112041   5.338   6.136   4.976
 3714SOL    HW212042   5.189   6.185   4.930
 3715SOL     OW12043   5.604   3.847   4.718
 3715SOL    HW112044   5.525   3.786   4.715
 3715SOL    HW212045   5.648   3.840   4.807
 3716SOL     OW12046   0.087   6.507   4.231
 3716SOL    HW112047   0.160   6.548   4.177
 3716SOL    HW212048   0.108   6.516   4.329
 3717SOL     OW12049   6.473   5.555   7.021
 3717SOL    HW112050   6.562   5.515   0.014
 3717SOL    HW212051   6.452   5.624   0.066
 3718SOL     OW12052   2.449   6.418   6.109
 3718SOL    HW112053   2.429   6.324   6.137
 3718SOL    HW212054   2.369   6.456   6.061
 3719SOL     OW12055   5.054   4.303   0.663
 3719SOL    HW112056   4.966   4.255   0.673
 3719SOL    HW212057   5.039   4.391   0.618
 3720SOL     OW12058   5.722   2.037   6.270
 3720SOL    HW112059   5.757   2.092   6.345
 3720SOL    HW212060   5.782   1.960   6.254
 3721SOL     OW12061   5.254   4.717   0.323
 3721SOL    HW112062   5.212   4.712   0.414
 3721SOL    HW212063   5.308   4.635   0.308
 3722SOL     OW12064   0.393   6.689   2.457
 3722SOL    HW112065   0.357   6.775   2.494
 3722SOL    HW212066   0.420   6.629   2.533
 3723SOL     OW12067   6.326   6.436   1.976
 3723SOL    HW112068   6.345   6.345   2.013
 3723SOL    HW212069   6.279   6.490   2.045
 3724SOL     OW12070   2.530   5.055   6.849
 3724SOL    HW112071   2.617   5.093   6.880
 3724SOL    HW212072   2.523   5.064   6.750
 3725SOL     OW12073   5.228   6.031   6.469
 3725SOL    HW112074   5.294   5.999   6.537
 3725SOL    HW212075   5.269   6.025   6.378
 3726SOL     OW12076   6.453   4.537   1.581
 3726SOL    HW112077   6.378   4.596   1.552
 3726SOL    HW212078   6.483   4.481   1.503
 3727SOL     OW12079   0.128   2.905   6.187
 3727SOL    HW112080   0.188   2.826   6.203
 3727SOL    HW212081   0.036   2.884   6.219
 3728SOL     OW12082   1.145   3.689   0.312
 3728SOL    HW112083   1.059   3.738   0.298
 3728SOL    HW212084   1.139   3.599   0.268
 3729SOL     OW12085   0.823   2.454   4.024
 3729SOL    HW112086   0.897   2.398   4.062
 3729SOL    HW212087   0.819   2.541   4.073
 3730SOL     OW12088   2.986   5.980   0.037
 3730SOL    HW112089   2.961   5.999   0.132
 3730SOL    HW212090   2.912   5.930   7.018
 3731SOL     OW12091   4.770   0.495   0.421
 3731SOL    HW112092   4.690   0.538   0.463
 3731SOL    HW212093   4.762   0.502   0.321
 3732SOL     OW12094   1.641   2.732   6.177
 3732SOL    HW112095   1.586   2.684   6.245
 3732SOL    HW212096   1.588   2.744   6.093
 3733SOL     OW12097   2.027   4.012   1.342
 3733SOL    HW112098   2.112   4.018   1.395
 3733SOL    HW212099   1.959   4.075   1.379
 3734SOL     OW12100   4.155   1.609   1.896
 3734SOL    HW112101   4.162   1.597   1.995
 3734SOL    HW212102   4.063   1.584   1.866
 3735SOL     OW12103   1.347   2.037   3.396
 3735SOL    HW112104   1.355   2.014   3.299
 3735SOL    HW212105   1.396   2.122   3.415
 3736SOL     OW12106   0.513   3.153   0.832
 3736SOL    HW112107   0.440   3.092   0.803
 3736SOL    HW212108   0.481   3.248   0.829
 3737SOL     OW12109   4.910   7.003   3.322
 3737SOL    HW112110   4.950   0.023   3.402
 3737SOL    HW212111   4.966   6.924   3.297
 3738SOL     OW12112   6.404   6.550   3.340
 3738SOL    HW112113   6.429   6.639   3.302
 3738SOL    HW212114   6.462   6.532   3.420
 3739SOL     OW12115   1.500   4.377   2.370
 3739SOL    HW112116   1.571   4.448   2.380
 3739SOL    HW212117   1.541   4.287   2.384
 3740SOL     OW12118   4.734   0.663   6.629
 3740SOL    HW112119   4.713   0.608   6.710
 3740SOL    HW212120   4.755   0.757   6.657
 3741SOL     OW12121   4.746   3.259   1.666
 3741SOL    HW112122   4.705   3.195   1.731
 3741SOL    HW212123   4.673   3.311   1.621
 3742SOL     OW12124   2.810   2.384   5.538
 3742SOL    HW112125   2.875   2.431   5.478
 3742SOL    HW212126   2.717   2.405   5.509
 3743SOL     OW12127   5.687   4.671   0.829
 3743SOL    HW112128   5.742   4.706   0.905
 3743SOL    HW212129   5.657   4.578   0.850
 3744SOL     OW12130   0.537   5.817   3.289
 3744SOL    HW112131   0.561   5.730   3.246
 3744SOL    HW212132   0.438   5.829   3.286
 3745SOL     OW12133   3.049   5.369   2.845
 3745SOL    HW112134   3.140   5.396   2.879
 3745SOL    HW212135   3.050   5.271   2.825
 3746SOL     OW12136   4.453   1.382   1.960
 3746SOL    HW112137   4.457   1.381   2.060
 3746SOL    HW212138   4.474   1.474   1.926
 3747SOL     OW12139   3.196   6.889   5.865
 3747SOL    HW112140   3.102   6.921   5.856
 3747SOL    HW212141   3.196   6.797   5.905
 3748SOL     OW12142   5.528   0.350   1.823
 3748SOL    HW112143   5.535   0.450   1.825
 3748SOL    HW212144   5.440   0.322   1.860
 3749SOL     OW12145   1.672   6.535   3.874
 3749SOL    HW112146   1.749   6.597   3.894
 3749SOL    HW212147   1.592   6.589   3.848
 3750SOL     OW12148   1.670   4.156   0.395
 3750SOL    HW112149   1.646   4.127   0.302
 3750SOL    HW212150   1.769   4.149   0.407
 3751SOL     OW12151   0.059   3.599   3.006
 3751SOL    HW112152   0.027   3.690   2.981
 3751SOL    HW212153   7.006   3.541   3.027
 3752SOL     OW12154   5.036   1.065   5.465
 3752SOL    HW112155   5.038   1.057   5.564
 3752SOL    HW212156   4.952   1.112   5.437
 3753SOL     OW12157   6.228   0.248   4.762
 3753SOL    HW112158   6.192   0.339   4.740
 3753SOL    HW212159   6.312   0.232   4.709
 3754SOL     OW12160   2.188   0.798   1.949
 3754SOL    HW112161   2.234   0.840   2.027
 3754SOL    HW212162   2.144   0.870   1.894
 3755SOL     OW12163   3.337   5.399   4.850
 3755SOL    HW112164   3.368   5.386   4.755
 3755SOL    HW212165   3.339   5.496   4.873
 3756SOL     OW12166   3.295   5.709   0.074
 3756SOL    HW112167   3.391   5.711   0.046
 3756SOL    HW212168   3.259   5.802   0.076
 3757SOL     OW12169   0.060   5.035   1.838
 3757SOL    HW112170   0.124   5.097   1.884
 3757SOL    HW212171   6.997   5.038   1.884
 3758SOL     OW12172   1.977   1.076   4.639
 3758SOL    HW112173   2.051   1.008   4.637
 3758SOL    HW212174   2.008   1.159   4.592
 3759SOL     OW12175   4.691   0.830   4.858
 3759SOL    HW112176   4.744   0.796   4.781
 3759SOL    HW212177   4.634   0.757   4.895
 3760SOL     OW12178   0.252   0.338   3.706
 3760SOL    HW112179   0.207   0.389   3.779
 3760SOL    HW212180   0.298   0.402   3.645
 3761SOL     OW12181   6.380   1.142   4.630
 3761SOL    HW112182   6.340   1.134   4.539
 3761SOL    HW212183   6.362   1.234   4.666
 3762SOL     OW12184   1.384   3.942   2.405
 3762SOL    HW112185   1.437   3.917   2.486
 3762SOL    HW212186   1.422   3.897   2.325
 3763SOL     OW12187   6.436   3.898   0.682
 3763SOL    HW112188   6.455   3.993   0.704
 3763SOL    HW212189   6.505   3.864   0.619
 3764SOL     OW12190   2.220   0.521   2.662
 3764SOL    HW112191   2.156   0.487   2.731
 3764SOL    HW212192   2.173   0.585   2.601
 3765SOL     OW12193   5.995   2.107   1.708
 3765SOL    HW112194   5.926   2.112   1.780
 3765SOL    HW212195   6.069   2.046   1.736
 3766SOL     OW12196   2.111   2.521   4.404
 3766SOL    HW112197   2.139   2.608   4.363
 3766SOL    HW212198   2.191   2.477   4.447
 3767SOL     OW12199   3.612   4.142   6.213
 3767SOL    HW112200   3.690   4.165   6.155
 3767SOL    HW212201   3.619   4.192   6.300
 3768SOL     OW12202   1.543   0.304   4.595
 3768SOL    HW112203   1.607   0.262   4.530
 3768SOL    HW212204   1.578   0.394   4.622
 3769SOL     OW12205   5.376   5.289   4.958
 3769SOL    HW112206   5.382   5.247   4.867
 3769SOL    HW212207   5.287   5.267   4.999
 3770SOL     OW12208   1.202   1.136   0.161
 3770SOL    HW112209   1.262   1.213   0.138
 3770SOL    HW212210   1.252   1.070   0.217
 3771SOL     OW12211   6.299   4.536   0.655
 3771SOL    HW112212   6.339   4.480   0.727
 3771SOL    HW212213   6.202   4.548   0.672
 3772SOL     OW12214   1.432   6.327   0.494
 3772SOL    HW112215   1.396   6.343   0.402
 3772SOL    HW212216   1.531   6.333   0.492
 3773SOL     OW12217   5.408   4.318   5.680
 3773SOL    HW112218   5.459   4.280   5.603
 3773SOL    HW212219   5.339   4.382   5.646
 3774SOL     OW12220   5.900   4.997   1.898
 3774SOL    HW112221   5.810   4.962   1.870
 3774SOL    HW212222   5.939   4.937   1.967
 3775SOL     OW12223   3.604   4.909   3.726
 3775SOL    HW112224   3.677   4.887   3.662
 3775SOL    HW212225   3.531   4.842   3.718
 3776SOL     OW12226   3.659   2.540   6.900
 3776SOL    HW112227   3.691   2.450   6.872
 3776SOL    HW212228   3.601   2.578   6.827
 3777SOL     OW12229   2.549   5.684   3.365
 3777SOL    HW112230   2.540   5.712   3.269
 3777SOL    HW212231   2.645   5.673   3.388
 3778SOL     OW12232   1.763   6.714   4.481
 3778SOL    HW112233   1.694   6.763   4.535
 3778SOL    HW212234   1.718   6.644   4.425
 3779SOL     OW12235   0.316   5.296   0.404
 3779SOL    HW112236   0.293   5.243   0.486
 3779SOL    HW212237   0.306   5.393   0.424
 3780SOL     OW12238   6.941   2.715   2.828
 3780SOL    HW112239   6.990   2.694   2.743
 3780SOL    HW212240   6.930   2.631   2.882
 3781SOL     OW12241   0.865   6.523   4.900
 3781SOL    HW112242   0.790   6.458   4.888
 3781SOL    HW212243   0.865   6.557   4.994
 3782SOL     OW12244   4.033   6.271   2.210
 3782SOL    HW112245   4.079   6.234   2.129
 3782SOL    HW212246   3.955   6.213   2.234
 3783SOL     OW12247   5.623   4.837   4.987
 3783SOL    HW112248   5.524   4.850   4.975
 3783SOL    HW212249   5.671   4.861   4.903
 3784SOL     OW12250   5.272   2.674   2.007
 3784SOL    HW112251   5.189   2.723   2.034
 3784SOL    HW212252   5.297   2.700   1.914
 3785SOL     OW12253   0.656   3.360   5.282
 3785SOL    HW112254   0.598   3.436   5.312
 3785SOL    HW212255   0.599   3.293   5.234
 3786SOL     OW12256   1.963   2.482   3.203
 3786SOL    HW112257   1.894   2.412   3.224
 3786SOL    HW212258   2.003   2.463   3.113
 3787SOL     OW12259   4.385   0.491   3.400
 3787SOL    HW112260   4.297   0.443   3.404
 3787SOL    HW212261   4.400   0.525   3.307
 3788SOL     OW12262   6.737   4.204   4.574
 3788SOL    HW112263   6.649   4.224   4.616
 3788SOL    HW212264   6.726   4.132   4.505
 3789SOL     OW12265   0.620   3.285   2.678
 3789SOL    HW112266   0.679   3.230   2.619
 3789SOL    HW212267   0.651   3.280   2.772
 3790SOL     OW12268   1.233   5.847   6.636
 3790SOL    HW112269   1.311   5.871   6.692
 3790SOL    HW212270   1.150   5.890   6.672
 3791SOL     OW12271   4.981   1.565   6.299
 3791SOL    HW112272   4.907   1.517   6.252
 3791SOL    HW212273   4.960   1.663   6.301
 3792SOL     OW12274   1.186   1.419   4.422
 3792SOL    HW112275   1.180   1.410   4.522
 3792SOL    HW212276   1.095   1.410   4.382
 3793SOL     OW12277   5.428   6.405   1.274
 3793SOL    HW112278   5.445   6.310   1.246
 3793SOL    HW212279   5.357   6.407   1.345
 3794SOL     OW12280   2.223   3.183   1.252
 3794SOL    HW112281   2.268   3.094   1.256
 3794SOL    HW212282   2.176   3.193   1.164
 3795SOL     OW12283   3.024   5.667   1.084
 3795SOL    HW112284   2.964   5.628   1.153
 3795SOL    HW212285   3.110   5.696   1.125
 3796SOL     OW12286   4.052   2.007   1.460
 3796SOL    HW112287   3.999   1.938   1.510
 3796SOL    HW212288   4.028   2.005   1.363
 3797SOL     OW12289   1.134   3.691   2.706
 3797SOL    HW112290   1.231   3.706   2.726
 3797SOL    HW212291   1.092   3.638   2.780
 3798SOL     OW12292   2.872   6.968   2.578
 3798SOL    HW112293   2.795   6.909   2.602
 3798SOL    HW212294   2.957   6.926   2.610
 3799SOL     OW12295   6.909   2.557   3.358
 3799SOL    HW112296   6.978   2.537   3.289
 3799SOL    HW212297   6.948   2.545   3.449
 3800SOL     OW12298   4.762   1.772   2.893
 3800SOL    HW112299   4.749   1.785   2.992
 3800SOL    HW212300   4.687   1.817   2.844
 3801SOL     OW12301   5.125   6.865   2.046
 3801SOL    HW112302   5.045   6.913   2.085
 3801SOL    HW212303   5.187   6.931   2.005
 3802SOL     OW12304   0.587   1.887   2.746
 3802SOL    HW112305   0.643   1.895   2.663
 3802SOL    HW212306   0.498   1.848   2.722
 3803SOL     OW12307   3.439   3.714   3.790
 3803SOL    HW112308   3.457   3.730   3.887
 3803SOL    HW212309   3.485   3.629   3.762
 3804SOL     OW12310   3.016   1.326   4.311
 3804SOL    HW112311   2.986   1.254   4.248
 3804SOL    HW212312   3.091   1.291   4.367
 3805SOL     OW12313   2.098   2.587   1.376
 3805SOL    HW112314   1.998   2.583   1.382
 3805SOL    HW212315   2.130   2.521   1.308
 3806SOL     OW12316   3.898   3.832   6.323
 3806SOL    HW112317   3.917   3.848   6.226
 3806SOL    HW212318   3.915   3.916   6.375
 3807SOL     OW12319   1.319   4.635   4.452
 3807SOL    HW112320   1.282   4.568   4.516
 3807SOL    HW212321   1.350   4.716   4.504
 3808SOL     OW12322   4.647   0.236   5.653
 3808SOL    HW112323   4.623   0.303   5.723
 3808SOL    HW212324   4.670   0.285   5.568
 3809SOL     OW12325   6.170   1.944   1.893
 3809SOL    HW112326   6.206   1.989   1.975
 3809SOL    HW212327   6.244   1.926   1.830
 3810SOL     OW12328   6.916   2.843   3.280
 3810SOL    HW112329   6.900   2.745   3.281
 3810SOL    HW212330   6.997   2.865   3.335
 3811SOL     OW12331   6.823   6.348   4.496
 3811SOL    HW112332   6.830   6.258   4.454
 3811SOL    HW212333   6.811   6.418   4.425
 3812SOL     OW12334   3.521   5.341   6.301
 3812SOL    HW112335   3.526   5.430   6.254
 3812SOL    HW212336   3.540   5.268   6.235
 3813SOL     OW12337   6.183   3.960   1.006
 3813SOL    HW112338   6.227   3.909   1.080
 3813SOL    HW212339   6.086   3.937   1.003
 3814SOL     OW12340   0.266   0.066   3.771
 3814SOL    HW112341   0.267   0.159   3.736
 3814SOL    HW212342   0.171   0.036   3.782
 3815SOL     OW12343   5.440   2.902   0.552
 3815SOL    HW112344   5.437   2.945   0.642
 3815SOL    HW212345   5.364   2.935   0.496
 3816SOL     OW12346   0.926   6.025   5.235
 3816SOL    HW112347   0.952   5.989   5.325
 3816SOL    HW212348   0.997   6.000   5.168
 3817SOL     OW12349   5.073   3.581   2.427
 3817SOL    HW112350   5.113   3.572   2.518
 3817SOL    HW212351   5.041   3.492   2.396
 3818SOL     OW12352   0.342   0.580   1.182
 3818SOL    HW112353   0.372   0.645   1.112
 3818SOL    HW212354   0.354   0.487   1.148
 3819SOL     OW12355   6.361   4.268   2.714
 3819SOL    HW112356   6.268   4.232   2.719
 3819SOL    HW212357   6.375   4.313   2.626
 3820SOL     OW12358   5.240   6.702   3.832
 3820SOL    HW112359   5.173   6.636   3.865
 3820SOL    HW212360   5.324   6.654   3.806
 3821SOL     OW12361   0.798   0.621   0.931
 3821SOL    HW112362   0.711   0.580   0.902
 3821SOL    HW212363   0.784   0.673   1.015
 3822SOL     OW12364   2.758   6.886   6.801
 3822SOL    HW112365   2.850   6.848   6.804
 3822SOL    HW212366   2.697   6.824   6.752
 3823SOL     OW12367   4.649   4.540   6.581
 3823SOL    HW112368   4.688   4.631   6.590
 3823SOL    HW212369   4.639   4.498   6.671
 3824SOL     OW12370   1.061   2.194   0.902
 3824SOL    HW112371   1.106   2.270   0.855
 3824SOL    HW212372   1.121   2.159   0.974
 3825SOL     OW12373   1.321   4.253   1.096
 3825SOL    HW112374   1.377   4.261   1.014
 3825SOL    HW212375   1.379   4.262   1.177
 3826SOL     OW12376   7.021   3.626   1.788
 3826SOL    HW112377   0.015   3.528   1.793
 3826SOL    HW212378   0.059   3.675   1.848
 3827SOL     OW12379   0.487   0.703   1.666
 3827SOL    HW112380   0.463   0.639   1.739
 3827SOL    HW212381   0.555   0.660   1.606
 3828SOL     OW12382   3.676   4.040   4.481
 3828SOL    HW112383   3.610   4.055   4.555
 3828SOL    HW212384   3.769   4.056   4.515
 3829SOL     OW12385   0.441   4.852   2.032
 3829SOL    HW112386   0.405   4.859   1.939
 3829SOL    HW212387   0.535   4.819   2.028
 3830SOL     OW12388   0.323   0.977   5.422
 3830SOL    HW112389   0.268   0.965   5.339
 3830SOL    HW212390   0.263   1.009   5.496
 3831SOL     OW12391   4.301   2.062   2.915
 3831SOL    HW112392   4.286   2.082   3.012
 3831SOL    HW212393   4.379   2.115   2.882
 3832SOL     OW12394   6.584   0.666   2.386
 3832SOL    HW112395   6.598   0.572   2.417
 3832SOL    HW212396   6.487   0.679   2.365
 3833SOL     OW12397   2.052   6.920   6.560
 3833SOL    HW112398   2.149   6.907   6.580
 3833SOL    HW212399   2.017   6.838   6.513
 3834SOL     OW12400   4.097   4.154   0.926
 3834SOL    HW112401   4.086   4.098   0.843
 3834SOL    HW212402   4.030   4.125   0.994
 3835SOL     OW12403   4.030   5.911   5.012
 3835SOL    HW112404   4.051   6.007   4.994
 3835SOL    HW212405   3.931   5.898   5.010
 3836SOL     OW12406   0.800   4.717   5.550
 3836SOL    HW112407   0.802   4.621   5.579
 3836SOL    HW212408   0.832   4.774   5.625
 3837SOL     OW12409   4.467   5.437   5.305
 3837SOL    HW112410   4.461   5.387   5.218
 3837SOL    HW212411   4.456   5.535   5.289
 3838SOL     OW12412   1.471   2.315   3.220
 3838SOL    HW112413   1.384   2.331   3.267
 3838SOL    HW212414   1.464   2.348   3.125
 3839SOL     OW12415   4.100   0.997   2.800
 3839SOL    HW112416   4.054   0.994   2.889
 3839SOL    HW212417   4.033   1.021   2.729
 3840SOL     OW12418   2.864   1.744   5.980
 3840SOL    HW112419   2.936   1.813   5.986
 3840SOL    HW212420   2.835   1.735   5.885
 3841SOL     OW12421   1.200   3.958   4.572
 3841SOL    HW112422   1.243   4.045   4.598
 3841SOL    HW212423   1.270   3.886   4.573
 3842SOL     OW12424   2.377   2.755   4.047
 3842SOL    HW112425   2.384   2.760   4.147
 3842SOL    HW212426   2.426   2.675   4.014
 3843SOL     OW12427   5.416   3.654   0.757
 3843SOL    HW112428   5.501   3.608   0.782
 3843SOL    HW212429   5.435   3.750   0.736
 3844SOL     OW12430   1.417   3.995   6.744
 3844SOL    HW112431   1.408   3.987   6.843
 3844SOL    HW212432   1.489   3.933   6.712
 3845SOL     OW12433   2.816   5.762   6.584
 3845SOL    HW112434   2.734   5.780   6.529
 3845SOL    HW212435   2.792   5.704   6.662
 3846SOL     OW12436   0.750   3.854   4.290
 3846SOL    HW112437   0.838   3.865   4.244
 3846SOL    HW212438   0.742   3.922   4.363
 3847SOL     OW12439   4.842   2.541   4.748
 3847SOL    HW112440   4.913   2.575   4.810
 3847SOL    HW212441   4.781   2.615   4.723
 3848SOL     OW12442   4.828   4.014   2.449
 3848SOL    HW112443   4.807   3.924   2.485
 3848SOL    HW212444   4.860   4.005   2.355
 3849SOL     OW12445   0.728   0.343   6.131
 3849SOL    HW112446   0.746   0.319   6.227
 3849SOL    HW212447   0.640   0.389   6.124
 3850SOL     OW12448   3.386   2.987   1.585
 3850SOL    HW112449   3.412   2.909   1.641
 3850SOL    HW212450   3.320   3.044   1.634
 3851SOL     OW12451   0.030   4.819   3.335
 3851SOL    HW112452   0.024   4.856   3.428
 3851SOL    HW212453   6.963   4.810   3.297
 3852SOL     OW12454   3.364   6.242   4.332
 3852SOL    HW112455   3.400   6.177   4.266
 3852SOL    HW212456   3.274   6.274   4.302
 3853SOL     OW12457   1.109   2.883   3.059
 3853SOL    HW112458   1.084   2.975   3.029
 3853SOL    HW212459   1.208   2.879   3.074
 3854SOL     OW12460   1.011   2.488   2.664
 3854SOL    HW112461   1.078   2.521   2.731
 3854SOL    HW212462   0.918   2.503   2.698
 3855SOL     OW12463   4.151   6.249   6.754
 3855SOL    HW112464   4.228   6.217   6.809
 3855SOL    HW212465   4.068   6.198   6.779
 3856SOL     OW12466   0.305   1.391   6.039
 3856SOL    HW112467   0.213   1.408   6.076
 3856SOL    HW212468   0.328   1.463   5.973
 3857SOL     OW12469   1.474   6.587   6.497
 3857SOL    HW112470   1.489   6.490   6.520
 3857SOL    HW212471   1.406   6.593   6.424
 3858SOL     OW12472   3.368   1.076   6.069
 3858SOL    HW112473   3.287   1.075   6.010
 3858SOL    HW212474   3.370   0.994   6.125
 3859SOL     OW12475   6.233   0.615   1.950
 3859SOL    HW112476   6.241   0.714   1.962
 3859SOL    HW212477   6.306   0.569   2.001
 3860SOL     OW12478   1.501   1.259   4.649
 3860SOL    HW112479   1.472   1.310   4.568
 3860SOL    HW212480   1.501   1.319   4.728
 3861SOL     OW12481   4.750   5.963   2.932
 3861SOL    HW112482   4.728   5.946   3.028
 3861SOL    HW212483   4.739   6.060   2.912
 3862SOL     OW12484   0.407   0.238   4.807
 3862SOL    HW112485   0.382   0.335   4.808
 3862SOL    HW212486   0.507   0.230   4.810
 3863SOL     OW12487   6.216   1.545   6.886
 3863SOL    HW112488   6.198   1.552   6.788
 3863SOL    HW212489   6.259   1.630   6.918
 3864SOL     OW12490   2.288   0.569   5.207
 3864SOL    HW112491   2.365   0.605   5.260
 3864SOL    HW212492   2.293   0.469   5.205
 3865SOL     OW12493   4.238   1.305   1.180
 3865SOL    HW112494   4.158   1.323   1.123
 3865SOL    HW212495   4.207   1.275   1.271
 3866SOL     OW12496   4.127   0.829   0.143
 3866SOL    HW112497   4.098   0.734   0.138
 3866SOL    HW212498   4.056   0.883   0.187
 3867SOL     OW12499   0.746   4.426   3.522
 3867SOL    HW112500   0.814   4.417   3.595
 3867SOL    HW212501   0.733   4.522   3.499
 3868SOL     OW12502   3.526   6.958   7.010
 3868SOL    HW112503   3.439   6.935   6.966
 3868SOL    HW212504   3.600   6.913   6.961
 3869SOL     OW12505   6.501   3.097   4.051
 3869SOL    HW112506   6.573   3.141   3.997
 3869SOL    HW212507   6.446   3.038   3.992
 3870SOL     OW12508   7.019   6.347   0.809
 3870SOL    HW112509   0.012   6.255   0.844
 3870SOL    HW212510   6.964   6.340   0.726
 3871SOL     OW12511   3.499   0.671   3.125
 3871SOL    HW112512   3.444   0.672   3.209
 3871SOL    HW212513   3.462   0.603   3.062
 3872SOL     OW12514   3.255   3.446   3.927
 3872SOL    HW112515   3.165   3.407   3.946
 3872SOL    HW212516   3.245   3.523   3.864
 3873SOL     OW12517   5.874   4.303   1.089
 3873SOL    HW112518   5.851   4.206   1.099
 3873SOL    HW212519   5.877   4.346   1.180
 3874SOL     OW12520   4.351   0.145   6.930
 3874SOL    HW112521   4.389   0.095   6.852
 3874SOL    HW212522   4.285   0.087   6.978
 3875SOL     OW12523   2.134   3.324   3.222
 3875SOL    HW112524   2.123   3.417   3.255
 3875SOL    HW212525   2.101   3.317   3.127
 3876SOL     OW12526   3.803   5.598   1.021
 3876SOL    HW112527   3.844   5.552   1.100
 3876SOL    HW212528   3.706   5.575   1.015
 3877SOL     OW12529   5.804   2.358   1.397
 3877SOL    HW112530   5.737   2.378   1.469
 3877SOL    HW212531   5.818   2.259   1.391
 3878SOL     OW12532   4.614   6.549   4.674
 3878SOL    HW112533   4.684   6.585   4.612
 3878SOL    HW212534   4.620   6.596   4.762
 3879SOL     OW12535   6.217   5.545   0.896
 3879SOL    HW112536   6.237   5.584   0.985
 3879SOL    HW212537   6.172   5.614   0.839
 3880SOL     OW12538   5.159   4.147   4.571
 3880SOL    HW112539   5.154   4.064   4.627
 3880SOL    HW212540   5.239   4.141   4.511
 3881SOL     OW12541   1.553   3.524   1.219
 3881SOL    HW112542   1.473   3.569   1.258
 3881SOL    HW212543   1.568   3.436   1.264
 3882SOL     OW12544   0.755   1.361   5.949
 3882SOL    HW112545   0.757   1.368   5.850
 3882SOL    HW212546   0.661   1.348   5.980
 3883SOL     OW12547   3.844   1.476   2.361
 3883SOL    HW112548   3.746   1.487   2.380
 3883SOL    HW212549   3.896   1.531   2.426
 3884SOL     OW12550   0.941   5.931   2.300
 3884SOL    HW112551   0.872   5.925   2.372
 3884SOL    HW212552   0.955   6.027   2.276
 3885SOL     OW12553   6.591   5.356   2.844
 3885SOL    HW112554   6.607   5.454   2.834
 3885SOL    HW212555   6.676   5.310   2.866
 3886SOL     OW12556   4.975   5.914   5.074
 3886SOL    HW112557   4.895   5.863   5.043
 3886SOL    HW212558   5.006   5.975   5.002
 3887SOL     OW12559   1.212   0.106   6.869
 3887SOL    HW112560   1.255   0.134   6.955
 3887SOL    HW212561   1.267   0.138   6.792
 3888SOL     OW12562   6.426   0.228   5.498
 3888SOL    HW112563   6.407   0.199   5.405
 3888SOL    HW212564   6.500   0.173   5.537
 3889SOL     OW12565   6.657   3.800   0.518
 3889SOL    HW112566   6.675   3.701   0.519
 3889SOL    HW212567   6.741   3.849   0.540
 3890SOL     OW12568   6.462   4.375   3.316
 3890SOL    HW112569   6.479   4.473   3.322
 3890SOL    HW212570   6.523   4.327   3.379
 3891SOL     OW12571   5.484   3.832   4.448
 3891SOL    HW112572   5.487   3.788   4.538
 3891SOL    HW212573   5.573   3.824   4.404
 3892SOL     OW12574   0.031   1.999   1.509
 3892SOL    HW112575   0.034   2.089   1.552
 3892SOL    HW212576   0.063   1.929   1.573
 3893SOL     OW12577   4.216   3.556   6.789
 3893SOL    HW112578   4.261   3.487   6.847
 3893SOL    HW212579   4.122   3.568   6.819
 3894SOL     OW12580   4.465   0.778   0.467
 3894SOL    HW112581   4.503   0.712   0.531
 3894SOL    HW212582   4.447   0.864   0.515
 3895SOL     OW12583   1.099   0.591   5.815
 3895SOL    HW112584   1.103   0.690   5.828
 3895SOL    HW212585   1.065   0.570   5.724
 3896SOL     OW12586   7.009   1.131   5.538
 3896SOL    HW112587   6.929   1.189   5.548
 3896SOL    HW212588   7.008   1.088   5.448
 3897SOL     OW12589   3.863   5.504   2.444
 3897SOL    HW112590   3.905   5.521   2.354
 3897SOL    HW212591   3.770   5.541   2.444
 3898SOL     OW12592   2.720   3.200   5.995
 3898SOL    HW112593   2.631   3.222   5.957
 3898SOL    HW212594   2.709   3.133   6.068
 3899SOL     OW12595   4.491   6.685   5.306
 3899SOL    HW112596   4.541   6.757   5.354
 3899SOL    HW212597   4.431   6.637   5.369
 3900SOL     OW12598   4.841   3.325   3.518
 3900SOL    HW112599   4.782   3.251   3.488
 3900SOL    HW212600   4.895   3.358   3.440
 3901SOL     OW12601   2.834   0.436   5.658
 3901SOL    HW112602   2.788   0.351   5.635
 3901SOL    HW212603   2.933   0.422   5.654
 3902SOL     OW12604   6.028   2.852   1.916
 3902SOL    HW112605   5.989   2.892   1.833
 3902SOL    HW212606   6.100   2.787   1.891
 3903SOL     OW12607   3.804   5.547   6.863
 3903SOL    HW112608   3.786   5.571   6.767
 3903SOL    HW212609   3.767   5.457   6.883
 3904SOL     OW12610   2.757   1.353   5.864
 3904SOL    HW112611   2.689   1.330   5.934
 3904SOL    HW212612   2.724   1.431   5.810
 3905SOL     OW12613   0.306   0.210   6.779
 3905SOL    HW112614   0.319   0.166   6.868
 3905SOL    HW212615   0.222   0.263   6.780
 3906SOL     OW12616   5.771   6.133   5.492
 3906SOL    HW112617   5.802   6.153   5.585
 3906SOL    HW212618   5.846   6.093   5.439
 3907SOL     OW12619   5.839   1.053   3.515
 3907SOL    HW112620   5.911   0.986   3.530
 3907SOL    HW212621   5.786   1.064   3.599
 3908SOL     OW12622   1.060   2.324   0.170
 3908SOL    HW112623   1.039   2.230   0.143
 3908SOL    HW212624   1.156   2.329   0.200
 3909SOL     OW12625   6.931   5.844   5.615
 3909SOL    HW112626   6.836   5.824   5.588
 3909SOL    HW212627   6.984   5.868   5.534
 3910SOL     OW12628   3.709   3.534   2.592
 3910SOL    HW112629   3.717   3.434   2.587
 3910SOL    HW212630   3.680   3.560   2.684
 3911SOL     OW12631   4.595   1.689   5.928
 3911SOL    HW112632   4.540   1.740   5.862
 3911SOL    HW212633   4.673   1.647   5.881
 3912SOL     OW12634   4.779   1.005   5.295
 3912SOL    HW112635   4.771   1.093   5.341
 3912SOL    HW212636   4.805   1.020   5.199
 3913SOL     OW12637   2.560   6.676   6.699
 3913SOL    HW112638   2.539   6.662   6.796
 3913SOL    HW212639   2.519   6.602   6.645
 3914SOL     OW12640   3.260   0.940   0.811
 3914SOL    HW112641   3.283   1.028   0.854
 3914SOL    HW212642   3.163   0.938   0.789
 3915SOL     OW12643   4.694   5.062   1.716
 3915SOL    HW112644   4.619   5.113   1.759
 3915SOL    HW212645   4.657   5.004   1.643
 3916SOL     OW12646   1.284   0.107   4.164
 3916SOL    HW112647   1.185   0.096   4.156
 3916SOL    HW212648   1.314   0.185   4.110
 3917SOL     OW12649   6.052   5.995   0.224
 3917SOL    HW112650   6.107   6.066   0.267
 3917SOL    HW212651   6.106   5.948   0.154
 3918SOL     OW12652   5.175   5.899   1.418
 3918SOL    HW112653   5.146   5.993   1.434
 3918SOL    HW212654   5.146   5.841   1.494
 3919SOL     OW12655   3.194   6.606   6.934
 3919SOL    HW112656   3.186   6.507   6.944
 3919SOL    HW212657   3.277   6.637   6.981
 3920SOL     OW12658   3.510   3.241   0.882
 3920SOL    HW112659   3.449   3.200   0.950
 3920SOL    HW212660   3.532   3.335   0.908
 3921SOL     OW12661   0.419   3.550   1.343
 3921SOL    HW112662   0.374   3.482   1.286
 3921SOL    HW212663   0.419   3.519   1.438
 3922SOL     OW12664   6.667   3.398   1.944
 3922SOL    HW112665   6.740   3.336   1.918
 3922SOL    HW212666   6.704   3.491   1.952
 3923SOL     OW12667   6.481   1.457   6.847
 3923SOL    HW112668   6.516   1.506   6.767
 3923SOL    HW212669   6.386   1.483   6.864
 3924SOL     OW12670   0.515   5.116   3.317
 3924SOL    HW112671   0.465   5.029   3.315
 3924SOL    HW212672   0.564   5.124   3.404
 3925SOL     OW12673   3.263   5.085   1.314
 3925SOL    HW112674   3.262   5.010   1.380
 3925SOL    HW212675   3.170   5.100   1.280
 3926SOL     OW12676   6.983   6.014   2.967
 3926SOL    HW112677   6.966   5.916   2.980
 3926SOL    HW212678   0.052   6.035   2.992
 3927SOL     OW12679   6.571   2.621   3.636
 3927SOL    HW112680   6.508   2.625   3.559
 3927SOL    HW212681   6.636   2.547   3.622
 3928SOL     OW12682   3.440   6.131   5.629
 3928SOL    HW112683   3.354   6.093   5.595
 3928SOL    HW212684   3.491   6.170   5.552
 3929SOL     OW12685   0.183   0.764   5.205
 3929SOL    HW112686   0.259   0.722   5.255
 3929SOL    HW212687   0.139   0.695   5.148
 3930SOL     OW12688   2.245   1.602   4.085
 3930SOL    HW112689   2.334   1.641   4.061
 3930SOL    HW212690   2.247   1.503   4.069
 3931SOL     OW12691   1.664   1.172   1.856
 3931SOL    HW112692   1.589   1.109   1.875
 3931SOL    HW212693   1.640   1.231   1.779
 3932SOL     OW12694   1.710   4.580   3.352
 3932SOL    HW112695   1.670   4.604   3.441
 3932SOL    HW212696   1.801   4.541   3.366
 3933SOL     OW12697   2.497   6.056   6.894
 3933SOL    HW112698   2.543   6.025   6.977
 3933SOL    HW212699   2.566   6.092   6.830
 3934SOL     OW12700   6.861   1.305   0.508
 3934SOL    HW112701   6.923   1.362   0.563
 3934SOL    HW212702   6.892   1.303   0.413
 3935SOL     OW12703   2.615   6.616   0.241
 3935SOL    HW112704   2.658   6.537   0.198
 3935SOL    HW212705   2.675   6.696   0.232
 3936SOL     OW12706   0.634   4.991   5.535
 3936SOL    HW112707   0.558   4.988   5.599
 3936SOL    HW212708   0.677   4.900   5.531
 3937SOL     OW12709   6.861   1.449   3.534
 3937SOL    HW112710   6.812   1.536   3.535
 3937SOL    HW212711   6.886   1.424   3.628
 3938SOL     OW12712   0.290   2.247   4.052
 3938SOL    HW112713   0.358   2.301   4.101
 3938SOL    HW212714   0.335   2.191   3.983
 3939SOL     OW12715   2.314   1.835   2.771
 3939SOL    HW112716   2.390   1.785   2.729
 3939SOL    HW212717   2.245   1.770   2.802
 3940SOL     OW12718   4.599   5.346   1.208
 3940SOL    HW112719   4.664   5.283   1.166
 3940SOL    HW212720   4.570   5.310   1.297
 3941SOL     OW12721   4.517   2.873   6.262
 3941SOL    HW112722   4.538   2.871   6.164
 3941SOL    HW212723   4.522   2.966   6.296
 3942SOL     OW12724   0.454   6.967   6.679
 3942SOL    HW112725   0.393   0.019   6.696
 3942SOL    HW212726   0.446   6.901   6.754
 3943SOL     OW12727   6.944   3.619   3.286
 3943SOL    HW112728   0.016   3.639   3.285
 3943SOL    HW212729   6.894   3.700   3.317
 3944SOL     OW12730   4.706   2.798   4.974
 3944SOL    HW112731   4.664   2.782   5.064
 3944SOL    HW212732   4.800   2.764   4.976
 3945SOL     OW12733   0.076   1.612   0.905
 3945SOL    HW112734   0.091   1.566   0.993
 3945SOL    HW212735   0.015   1.690   0.918
 3946SOL     OW12736   5.443   5.651   5.636
 3946SOL    HW112737   5.461   5.716   5.563
 3946SOL    HW212738   5.394   5.571   5.599
 3947SOL     OW12739   5.601   5.782   0.772
 3947SOL    HW112740   5.549   5.773   0.687
 3947SOL    HW212741   5.698   5.772   0.754
 3948SOL     OW12742   1.285   6.072   1.793
 3948SOL    HW112743   1.382   6.057   1.812
 3948SOL    HW212744   1.266   6.050   1.698
 3949SOL     OW12745   4.862   0.334   3.348
 3949SOL    HW112746   4.910   0.316   3.434
 3949SOL    HW212747   4.886   0.425   3.315
 3950SOL     OW12748   1.974   4.287   1.479
 3950SOL    HW112749   1.902   4.325   1.537
 3950SOL    HW212750   1.983   4.343   1.396
 3951SOL     OW12751   5.823   6.423   0.683
 3951SOL    HW112752   5.905   6.472   0.655
 3951SOL    HW212753   5.744   6.459   0.634
 3952SOL     OW12754   6.362   3.225   2.836
 3952SOL    HW112755   6.375   3.184   2.926
 3952SOL    HW212756   6.374   3.155   2.766
 3953SOL     OW12757   3.848   4.583   1.649
 3953SOL    HW112758   3.816   4.570   1.556
 3953SOL    HW212759   3.941   4.548   1.658
 3954SOL     OW12760   4.707   4.903   5.131
 3954SOL    HW112761   4.730   4.810   5.158
 3954SOL    HW212762   4.607   4.912   5.124
 3955SOL     OW12763   3.209   5.796   6.811
 3955SOL    HW112764   3.138   5.863   6.792
 3955SOL    HW212765   3.180   5.738   6.888
 3956SOL     OW12766   6.972   0.966   3.718
 3956SOL    HW112767   6.876   0.993   3.718
 3956SOL    HW212768   0.003   1.043   3.686
 3957SOL     OW12769   4.780   6.351   4.037
 3957SOL    HW112770   4.849   6.284   4.063
 3957SOL    HW212771   4.702   6.344   4.099
 3958SOL     OW12772   5.928   1.122   4.870
 3958SOL    HW112773   5.877   1.053   4.921
 3958SOL    HW212774   6.009   1.080   4.830
 3959SOL     OW12775   4.449   6.546   0.487
 3959SOL    HW112776   4.500   6.515   0.407
 3959SOL    HW212777   4.363   6.496   0.493
 3960SOL     OW12778   4.654   1.792   6.675
 3960SOL    HW112779   4.615   1.701   6.690
 3960SOL    HW212780   4.589   1.849   6.624
 3961SOL     OW12781   5.262   1.993   2.468
 3961SOL    HW112782   5.179   2.049   2.464
 3961SOL    HW212783   5.322   2.018   2.392
 3962SOL     OW12784   2.456   3.968   0.264
 3962SOL    HW112785   2.502   3.911   0.332
 3962SOL    HW212786   2.362   3.985   0.294
 3963SOL     OW12787   4.714   4.882   4.160
 3963SOL    HW112788   4.680   4.968   4.124
 3963SOL    HW212789   4.640   4.815   4.163
 3964SOL     OW12790   4.228   4.992   3.946
 3964SOL    HW112791   4.172   5.075   3.941
 3964SOL    HW212792   4.251   4.963   3.853
 3965SOL     OW12793   4.805   3.005   5.544
 3965SOL    HW112794   4.805   3.084   5.605
 3965SOL    HW212795   4.746   2.934   5.582
 3966SOL     OW12796   5.233   6.038   0.049
 3966SOL    HW112797   5.172   6.010   7.001
 3966SOL    HW212798   5.243   6.138   0.047
 3967SOL     OW12799   1.954   3.246   2.294
 3967SOL    HW112800   2.021   3.284   2.357
 3967SOL    HW212801   1.864   3.283   2.313
 3968SOL     OW12802   5.146   0.571   1.508
 3968SOL    HW112803   5.134   0.551   1.411
 3968SOL    HW212804   5.079   0.640   1.537
 3969SOL     OW12805   1.614   4.128   2.397
 3969SOL    HW112806   1.684   4.084   2.340
 3969SOL    HW212807   1.530   4.074   2.392
 3970SOL     OW12808   6.296   6.360   3.934
 3970SOL    HW112809   6.381   6.307   3.930
 3970SOL    HW212810   6.290   6.406   4.023
 3971SOL     OW12811   3.094   5.400   2.346
 3971SOL    HW112812   3.086   5.351   2.433
 3971SOL    HW212813   3.046   5.349   2.275
 3972SOL     OW12814   1.715   4.267   1.059
 3972SOL    HW112815   1.735   4.192   0.996
 3972SOL    HW212816   1.793   4.281   1.120
 3973SOL     OW12817   1.762   5.302   6.973
 3973SOL    HW112818   1.848   5.307   7.024
 3973SOL    HW212819   1.751   5.209   6.937
 3974SOL     OW12820   2.032   0.413   4.477
 3974SOL    HW112821   2.016   0.511   4.480
 3974SOL    HW212822   2.127   0.393   4.502
 3975SOL     OW12823   5.605   1.150   5.056
 3975SOL    HW112824   5.547   1.231   5.056
 3975SOL    HW212825   5.548   1.069   5.071
 3976SOL     OW12826   1.947   6.131   1.647
 3976SOL    HW112827   1.992   6.047   1.619
 3976SOL    HW212828   1.900   6.172   1.569
 3977SOL     OW12829   2.559   3.929   5.570
 3977SOL    HW112830   2.476   3.980   5.592
 3977SOL    HW212831   2.614   3.916   5.653
 3978SOL     OW12832   6.026   5.075   4.193
 3978SOL    HW112833   5.935   5.105   4.222
 3978SOL    HW212834   6.048   4.988   4.238
 3979SOL     OW12835   2.690   6.796   0.672
 3979SOL    HW112836   2.596   6.778   0.642
 3979SOL    HW212837   2.740   6.710   0.677
 3980SOL     OW12838   5.844   5.867   0.329
 3980SOL    HW112839   5.923   5.914   0.289
 3980SOL    HW212840   5.760   5.917   0.305
 3981SOL     OW12841   2.470   0.943   0.468
 3981SOL    HW112842   2.569   0.962   0.468
 3981SOL    HW212843   2.455   0.844   0.471
 3982SOL     OW12844   2.375   6.993   3.645
 3982SOL    HW112845   2.427   7.005   3.729
 3982SOL    HW212846   2.310   0.042   3.635
 3983SOL     OW12847   5.179   4.818   3.931
 3983SOL    HW112848   5.135   4.824   3.842
 3983SOL    HW212849   5.249   4.889   3.938
 3984SOL     OW12850   6.532   1.367   3.447
 3984SOL    HW112851   6.627   1.363   3.418
 3984SOL    HW212852   6.473   1.332   3.374
 3985SOL     OW12853   3.065   4.433   6.802
 3985SOL    HW112854   3.092   4.345   6.762
 3985SOL    HW212855   2.981   4.464   6.759
 3986SOL     OW12856   5.289   2.290   3.134
 3986SOL    HW112857   5.190   2.301   3.144
 3986SOL    HW212858   5.319   2.207   3.182
 3987SOL     OW12859   3.675   5.336   3.743
 3987SOL    HW112860   3.620   5.261   3.707
 3987SOL    HW212861   3.623   5.421   3.738
 3988SOL     OW12862   3.398   4.083   6.850
 3988SOL    HW112863   3.321   4.093   6.914
 3988SOL    HW212864   3.365   4.039   6.766
 3989SOL     OW12865   6.401   2.542   0.207
 3989SOL    HW112866   6.413   2.594   0.291
 3989SOL    HW212867   6.456   2.583   0.134
 3990SOL     OW12868   4.681   2.137   2.543
 3990SOL    HW112869   4.757   2.162   2.483
 3990SOL    HW212870   4.595   2.158   2.497
 3991SOL     OW12871   5.646   1.147   2.857
 3991SOL    HW112872   5.734   1.194   2.862
 3991SOL    HW212873   5.578   1.209   2.817
 3992SOL     OW12874   3.530   1.885   6.920
 3992SOL    HW112875   3.486   1.963   6.965
 3992SOL    HW212876   3.595   1.919   6.851
 3993SOL     OW12877   1.314   2.006   3.123
 3993SOL    HW112878   1.283   1.913   3.103
 3993SOL    HW212879   1.237   2.062   3.150
 3994SOL     OW12880   1.985   0.471   5.453
 3994SOL    HW112881   1.929   0.412   5.510
 3994SOL    HW212882   2.061   0.507   5.507
 3995SOL     OW12883   2.800   3.426   6.319
 3995SOL    HW112884   2.751   3.343   6.343
 3995SOL    HW212885   2.889   3.427   6.365
 3996SOL     OW12886   1.146   0.486   4.386
 3996SOL    HW112887   1.192   0.417   4.442
 3996SOL    HW212888   1.187   0.487   4.295
 3997SOL     OW12889   5.392   1.656   3.848
 3997SOL    HW112890   5.384   1.564   3.808
 3997SOL    HW212891   5.447   1.713   3.787
 3998SOL     OW12892   4.348   1.488   3.947
 3998SOL    HW112893   4.345   1.458   3.852
 3998SOL    HW212894   4.376   1.584   3.951
 3999SOL     OW12895   5.741   3.796   4.247
 3999SOL    HW112896   5.716   3.869   4.182
 3999SOL    HW212897   5.811   3.830   4.310
 4000SOL     OW12898   2.990   6.174   3.153
 4000SOL    HW112899   2.959   6.139   3.065
 4000SOL    HW212900   3.070   6.123   3.184
 4001SOL     OW12901   2.381   2.199   3.639
 4001SOL    HW112902   2.365   2.131   3.568
 4001SOL    HW212903   2.294   2.240   3.667
 4002SOL     OW12904   3.025   3.868   0.411
 4002SOL    HW112905   3.025   3.938   0.340
 4002SOL    HW212906   3.095   3.891   0.479
 4003SOL     OW12907   3.347   6.620   4.437
 4003SOL    HW112908   3.371   6.619   4.340
 4003SOL    HW212909   3.389   6.699   4.481
 4004SOL     OW12910   5.242   1.918   4.589
 4004SOL    HW112911   5.171   1.911   4.519
 4004SOL    HW212912   5.234   1.842   4.653
 4005SOL     OW12913   5.410   4.537   6.791
 4005SOL    HW112914   5.368   4.569   6.706
 4005SOL    HW212915   5.378   4.593   6.867
 4006SOL     OW12916   4.712   5.150   2.655
 4006SOL    HW112917   4.736   5.163   2.751
 4006SOL    HW212918   4.729   5.234   2.604
 4007SOL     OW12919   0.156   2.083   0.842
 4007SOL    HW112920   0.165   2.169   0.892
 4007SOL    HW212921   0.160   2.006   0.906
 4008SOL     OW12922   2.926   1.965   3.909
 4008SOL    HW112923   2.870   1.931   3.833
 4008SOL    HW212924   2.984   2.039   3.876
 4009SOL     OW12925   3.987   3.474   1.507
 4009SOL    HW112926   4.028   3.386   1.534
 4009SOL    HW212927   3.944   3.464   1.417
 4010SOL     OW12928   2.517   3.010   1.097
 4010SOL    HW112929   2.593   2.948   1.119
 4010SOL    HW212930   2.549   3.080   1.034
 4011SOL     OW12931   0.518   0.930   2.067
 4011SOL    HW112932   0.538   0.833   2.082
 4011SOL    HW212933   0.489   0.943   1.972
 4012SOL     OW12934   5.368   4.953   2.029
 4012SOL    HW112935   5.274   4.948   1.995
 4012SOL    HW212936   5.417   5.025   1.978
 4013SOL     OW12937   2.939   1.494   5.611
 4013SOL    HW112938   2.858   1.453   5.569
 4013SOL    HW212939   3.008   1.424   5.626
 4014SOL     OW12940   5.074   6.660   2.298
 4014SOL    HW112941   5.112   6.588   2.356
 4014SOL    HW212942   5.147   6.698   2.241
 4015SOL     OW12943   5.165   4.834   6.244
 4015SOL    HW112944   5.081   4.781   6.252
 4015SOL    HW212945   5.181   4.856   6.148
 4016SOL     OW12946   2.903   5.740   5.932
 4016SOL    HW112947   2.870   5.694   5.850
 4016SOL    HW212948   2.990   5.785   5.913
 4017SOL     OW12949   0.458   5.742   0.452
 4017SOL    HW112950   0.384   5.788   0.501
 4017SOL    HW212951   0.500   5.674   0.512
 4018SOL     OW12952   4.306   6.330   2.882
 4018SOL    HW112953   4.225   6.283   2.846
 4018SOL    HW212954   4.373   6.263   2.913
 4019SOL     OW12955   5.669   3.575   2.649
 4019SOL    HW112956   5.652   3.636   2.572
 4019SOL    HW212957   5.637   3.483   2.627
 4020SOL     OW12958   4.632   1.601   5.514
 4020SOL    HW112959   4.550   1.558   5.554
 4020SOL    HW212960   4.656   1.681   5.567
 4021SOL     OW12961   4.066   5.097   6.403
 4021SOL    HW112962   3.984   5.126   6.354
 4021SOL    HW212963   4.101   5.013   6.362
 4022SOL     OW12964   4.547   0.742   6.426
 4022SOL    HW112965   4.574   0.673   6.360
 4022SOL    HW212966   4.598   0.728   6.512
 4023SOL     OW12967   6.198   1.498   4.469
 4023SOL    HW112968   6.175   1.523   4.563
 4023SOL    HW212969   6.116   1.462   4.424
 4024SOL     OW12970   3.491   6.709   3.281
 4024SOL    HW112971   3.578   6.662   3.292
 4024SOL    HW212972   3.446   6.717   3.369
 4025SOL     OW12973   0.730   5.305   3.119
 4025SOL    HW112974   0.769   5.356   3.196
 4025SOL    HW212975   0.690   5.220   3.152
 4026SOL     OW12976   5.131   5.760   4.405
 4026SOL    HW112977   5.183   5.684   4.443
 4026SOL    HW212978   5.176   5.793   4.322
 4027SOL     OW12979   3.738   4.599   1.365
 4027SOL    HW112980   3.794   4.682   1.362
 4027SOL    HW212981   3.642   4.624   1.375
 4028SOL     OW12982   1.657   2.603   4.289
 4028SOL    HW112983   1.599   2.534   4.245
 4028SOL    HW212984   1.638   2.606   4.387
 4029SOL     OW12985   2.944   4.063   5.919
 4029SOL    HW112986   3.039   4.051   5.948
 4029SOL    HW212987   2.939   4.136   5.851
 4030SOL     OW12988   0.805   1.893   5.799
 4030SOL    HW112989   0.771   1.927   5.712
 4030SOL    HW212990   0.885   1.834   5.783
 4031SOL     OW12991   4.815   5.625   3.555
 4031SOL    HW112992   4.787   5.707   3.505
 4031SOL    HW212993   4.734   5.577   3.589
 4032SOL     OW12994   6.321   6.412   3.630
 4032SOL    HW112995   6.366   6.418   3.720
 4032SOL    HW212996   6.238   6.467   3.631
 4033SOL     OW12997   3.323   2.902   4.063
 4033SOL    HW112998   3.368   2.824   4.020
 4033SOL    HW212999   3.388   2.951   4.121
 4034SOL     OW13000   5.811   1.408   4.538
 4034SOL    HW113001   5.752   1.447   4.609
 4034SOL    HW213002   5.795   1.310   4.531
 4035SOL     OW13003   0.329   4.197   0.404
 4035SOL    HW113004   0.291   4.185   0.312
 4035SOL    HW213005   0.429   4.189   0.400
 4036SOL     OW13006   6.041   6.484   2.550
 4036SOL    HW113007   6.022   6.480   2.648
 4036SOL    HW213008   5.966   6.531   2.504
 4037SOL     OW13009   1.328   2.979   6.332
 4037SOL    HW113010   1.243   2.933   6.307
 4037SOL    HW213011   1.377   2.924   6.400
 4038SOL     OW13012   4.911   4.814   2.551
 4038SOL    HW113013   4.977   4.886   2.569
 4038SOL    HW213014   4.827   4.854   2.515
 4039SOL     OW13015   5.080   5.512   0.208
 4039SOL    HW113016   5.056   5.511   0.111
 4039SOL    HW213017   5.173   5.475   0.219
 4040SOL     OW13018   2.879   7.009   0.592
 4040SOL    HW113019   2.803   6.944   0.602
 4040SOL    HW213020   2.879   0.047   0.670
 4041SOL     OW13021   0.862   6.187   2.330
 4041SOL    HW113022   0.844   6.248   2.253
 4041SOL    HW213023   0.778   6.170   2.380
 4042SOL     OW13024   6.167   5.437   2.598
 4042SOL    HW113025   6.217   5.408   2.516
 4042SOL    HW213026   6.208   5.394   2.679
 4043SOL     OW13027   5.420   2.047   3.097
 4043SOL    HW113028   5.519   2.053   3.082
 4043SOL    HW213029   5.371   2.087   3.020
 4044SOL     OW13030   5.396   0.207   3.551
 4044SOL    HW113031   5.437   0.129   3.599
 4044SOL    HW213032   5.372   0.278   3.617
 4045SOL     OW13033   2.785   3.890   6.572
 4045SOL    HW113034   2.849   3.941   6.515
 4045SOL    HW213035   2.698   3.879   6.523
 4046SOL     OW13036   1.029   1.809   1.902
 4046SOL    HW113037   1.096   1.752   1.950
 4046SOL    HW213038   1.001   1.885   1.961
 4047SOL     OW13039   2.730   3.901   1.434
 4047SOL    HW113040   2.684   3.865   1.515
 4047SOL    HW213041   2.732   3.831   1.363
 4048SOL     OW13042   5.623   0.730   1.259
 4048SOL    HW113043   5.660   0.647   1.300
 4048SOL    HW213044   5.698   0.792   1.236
 4049SOL     OW13045   6.403   6.211   6.301
 4049SOL    HW113046   6.409   6.301   6.258
 4049SOL    HW213047   6.438   6.217   6.395
 4050SOL     OW13048   1.629   6.379   0.206
 4050SOL    HW113049   1.695   6.369   0.131
 4050SOL    HW213050   1.590   6.290   0.228
 4051SOL     OW13051   2.860   4.309   0.961
 4051SOL    HW113052   2.772   4.357   0.957
 4051SOL    HW213053   2.849   4.216   0.925
 4052SOL     OW13054   0.570   0.501   0.734
 4052SOL    HW113055   0.529   0.590   0.713
 4052SOL    HW213056   0.603   0.458   0.650
 4053SOL     OW13057   2.931   4.839   3.921
 4053SOL    HW113058   2.899   4.810   4.010
 4053SOL    HW213059   3.022   4.881   3.930
 4054SOL     OW13060   2.700   2.604   0.353
 4054SOL    HW113061   2.640   2.632   0.428
 4054SOL    HW213062   2.655   2.531   0.300
 4055SOL     OW13063   2.562   2.514   6.313
 4055SOL    HW113064   2.483   2.527   6.373
 4055SOL    HW213065   2.551   2.429   6.261
 4056SOL     OW13066   3.987   3.554   6.950
 4056SOL    HW113067   4.047   3.588   7.022
 4056SOL    HW213068   3.937   3.631   6.910
 4057SOL     OW13069   5.014   3.085   0.268
 4057SOL    HW113070   4.965   3.007   0.228
 4057SOL    HW213071   5.050   3.143   0.194
 4058SOL     OW13072   2.373   1.286   5.009
 4058SOL    HW113073   2.331   1.288   4.918
 4058SOL    HW213074   2.456   1.341   5.009
 4059SOL     OW13075   1.923   2.418   3.961
 4059SOL    HW113076   1.901   2.496   3.903
 4059SOL    HW213077   1.902   2.440   4.056
 4060SOL     OW13078   3.968   5.140   4.179
 4060SOL    HW113079   4.054   5.102   4.212
 4060SOL    HW213080   3.985   5.229   4.138
 4061SOL     OW13081   3.545   4.439   1.704
 4061SOL    HW113082   3.626   4.387   1.680
 4061SOL    HW213083   3.571   4.520   1.757
 4062SOL     OW13084   3.557   1.497   2.496
 4062SOL    HW113085   3.483   1.448   2.451
 4062SOL    HW213086   3.594   1.440   2.570
 4063SOL     OW13087   3.145   6.435   5.687
 4063SOL    HW113088   3.121   6.375   5.611
 4063SOL    HW213089   3.203   6.509   5.654
 4064SOL     OW13090   1.199   0.685   2.622
 4064SOL    HW113091   1.164   0.750   2.554
 4064SOL    HW213092   1.297   0.670   2.606
 4065SOL     OW13093   0.533   6.423   1.191
 4065SOL    HW113094   0.572   6.470   1.112
 4065SOL    HW213095   0.589   6.344   1.214
 4066SOL     OW13096   5.494   4.456   1.845
 4066SOL    HW113097   5.417   4.457   1.781
 4066SOL    HW213098   5.572   4.503   1.805
 4067SOL     OW13099   5.340   1.802   3.189
 4067SOL    HW113100   5.289   1.755   3.117
 4067SOL    HW213101   5.357   1.897   3.162
 4068SOL     OW13102   4.864   0.978   5.012
 4068SOL    HW113103   4.869   1.070   4.973
 4068SOL    HW213104   4.795   0.925   4.962
 4069SOL     OW13105   5.308   4.717   1.084
 4069SOL    HW113106   5.371   4.778   1.035
 4069SOL    HW213107   5.360   4.648   1.134
 4070SOL     OW13108   1.944   3.739   2.854
 4070SOL    HW113109   1.980   3.830   2.835
 4070SOL    HW213110   1.933   3.689   2.768
 4071SOL     OW13111   1.072   0.634   5.064
 4071SOL    HW113112   1.127   0.687   5.129
 4071SOL    HW213113   1.034   0.695   4.995
 4072SOL     OW13114   1.888   6.888   4.306
 4072SOL    HW113115   1.811   6.836   4.343
 4072SOL    HW213116   1.942   6.925   4.381
 4073SOL     OW13117   2.732   5.946   6.019
 4073SOL    HW113118   2.650   5.919   6.070
 4073SOL    HW213119   2.780   5.864   5.988
 4074SOL     OW13120   0.542   2.211   1.801
 4074SOL    HW113121   0.628   2.166   1.777
 4074SOL    HW213122   0.506   2.258   1.720
 4075SOL     OW13123   4.010   1.613   2.507
 4075SOL    HW113124   4.058   1.686   2.459
 4075SOL    HW213125   3.975   1.648   2.594
 4076SOL     OW13126   2.161   3.648   5.218
 4076SOL    HW113127   2.231   3.643   5.289
 4076SOL    HW213128   2.159   3.740   5.179
 4077SOL     OW13129   3.461   0.360   0.518
 4077SOL    HW113130   3.463   0.427   0.593
 4077SOL    HW213131   3.514   0.279   0.545
 4078SOL     OW13132   6.393   4.225   1.652
 4078SOL    HW113133   6.322   4.293   1.632
 4078SOL    HW213134   6.462   4.266   1.712
 4079SOL     OW13135   1.197   1.475   3.342
 4079SOL    HW113136   1.278   1.427   3.306
 4079SOL    HW213137   1.197   1.569   3.309
 4080SOL     OW13138   3.216   3.424   0.826
 4080SOL    HW113139   3.172   3.504   0.867
 4080SOL    HW213140   3.157   3.344   0.835
 4081SOL     OW13141   2.367   1.586   5.360
 4081SOL    HW113142   2.325   1.647   5.427
 4081SOL    HW213143   2.296   1.549   5.300
 4082SOL     OW13144   0.748   2.730   5.610
 4082SOL    HW113145   0.701   2.658   5.560
 4082SOL    HW213146   0.837   2.696   5.642
 4083SOL     OW13147   6.059   4.340   3.595
 4083SOL    HW113148   5.975   4.291   3.571
 4083SOL    HW213149   6.137   4.297   3.549
 4084SOL     OW13150   4.590   2.279   3.121
 4084SOL    HW113151   4.587   2.368   3.075
 4084SOL    HW213152   4.526   2.280   3.199
 4085SOL     OW13153   3.275   5.530   1.614
 4085SOL    HW113154   3.359   5.562   1.658
 4085SOL    HW213155   3.196   5.565   1.664
 4086SOL     OW13156   6.545   5.472   6.165
 4086SOL    HW113157   6.545   5.399   6.097
 4086SOL    HW213158   6.590   5.553   6.127
 4087SOL     OW13159   2.547   0.066   2.391
 4087SOL    HW113160   2.530   0.094   2.297
 4087SOL    HW213161   2.489   7.013   2.413
 4088SOL     OW13162   6.698   1.076   5.572
 4088SOL    HW113163   6.600   1.061   5.581
 4088SOL    HW213164   6.730   1.038   5.485
 4089SOL     OW13165   0.106   6.211   4.166
 4089SOL    HW113166   0.077   6.296   4.211
 4089SOL    HW213167   0.072   6.210   4.072
 4090SOL     OW13168   1.959   6.587   4.790
 4090SOL    HW113169   1.991   6.536   4.710
 4090SOL    HW213170   1.860   6.578   4.797
 4091SOL     OW13171   1.528   5.143   1.289
 4091SOL    HW113172   1.613   5.169   1.334
 4091SOL    HW213173   1.467   5.223   1.285
 4092SOL     OW13174   4.842   3.269   4.787
 4092SOL    HW113175   4.872   3.360   4.815
 4092SOL    HW213176   4.742   3.267   4.781
 4093SOL     OW13177   5.789   5.373   3.014
 4093SOL    HW113178   5.802   5.274   3.001
 4093SOL    HW213179   5.725   5.389   3.089
 4094SOL     OW13180   0.312   5.017   6.954
 4094SOL    HW113181   0.404   4.988   6.929
 4094SOL    HW213182   0.280   4.963   0.006
 4095SOL     OW13183   0.260   4.470   0.253
 4095SOL    HW113184   0.331   4.445   0.319
 4095SOL    HW213185   0.223   4.387   0.212
 4096SOL     OW13186   1.831   1.743   6.608
 4096SOL    HW113187   1.732   1.727   6.605
 4096SOL    HW213188   1.875   1.668   6.659
 4097SOL     OW13189   0.186   3.955   5.212
 4097SOL    HW113190   0.257   3.886   5.218
 4097SOL    HW213191   0.168   3.976   5.115
 4098SOL     OW13192   2.181   4.840   2.809
 4098SOL    HW113193   2.265   4.830   2.756
 4098SOL    HW213194   2.119   4.904   2.763
 4099SOL     OW13195   4.419   4.061   6.221
 4099SOL    HW113196   4.515   4.034   6.219
 4099SOL    HW213197   4.403   4.121   6.299
 4100SOL     OW13198   1.301   0.919   3.667
 4100SOL    HW113199   1.351   0.971   3.735
 4100SOL    HW213200   1.364   0.860   3.617
 4101SOL     OW13201   6.218   0.403   6.784
 4101SOL    HW113202   6.282   0.341   6.740
 4101SOL    HW213203   6.256   0.495   6.785
 4102SOL     OW13204   1.574   0.503   6.926
 4102SOL    HW113205   1.567   0.572   6.998
 4102SOL    HW213206   1.595   0.414   6.967
 4103SOL     OW13207   1.104   6.887   2.118
 4103SOL    HW113208   1.107   6.939   2.033
 4103SOL    HW213209   1.166   6.809   2.112
 4104SOL     OW13210   7.002   6.239   2.719
 4104SOL    HW113211   6.953   6.159   2.683
 4104SOL    HW213212   7.015   6.306   2.646
 4105SOL     OW13213   4.637   1.198   1.274
 4105SOL    HW113214   4.725   1.151   1.273
 4105SOL    HW213215   4.596   1.190   1.365
 4106SOL     OW13216   0.341   1.472   3.605
 4106SOL    HW113217   0.331   1.524   3.519
 4106SOL    HW213218   0.260   1.488   3.662
 4107SOL     OW13219   0.404   5.838   6.185
 4107SOL    HW113220   0.461   5.764   6.149
 4107SOL    HW213221   0.418   5.921   6.130
 4108SOL     OW13222   0.320   5.295   4.003
 4108SOL    HW113223   0.361   5.321   4.091
 4108SOL    HW213224   0.238   5.349   3.988
 4109SOL     OW13225   6.305   5.729   3.117
 4109SOL    HW113226   6.354   5.816   3.128
 4109SOL    HW213227   6.252   5.732   3.032
 4110SOL     OW13228   4.519   3.275   0.444
 4110SOL    HW113229   4.506   3.203   0.376
 4110SOL    HW213230   4.614   3.275   0.476
 4111SOL     OW13231   6.407   4.272   5.332
 4111SOL    HW113232   6.316   4.274   5.290
 4111SOL    HW213233   6.411   4.339   5.407
 4112SOL     OW13234   4.636   7.021   4.797
 4112SOL    HW113235   4.704   0.061   4.829
 4112SOL    HW213236   4.651   7.002   4.700
 4113SOL     OW13237   4.558   4.505   4.722
 4113SOL    HW113238   4.525   4.493   4.815
 4113SOL    HW213239   4.485   4.480   4.657
 4114SOL     OW13240   6.434   1.767   3.635
 4114SOL    HW113241   6.430   1.856   3.680
 4114SOL    HW213242   6.457   1.696   3.702
 4115SOL     OW13243   2.764   5.399   3.497
 4115SOL    HW113244   2.757   5.339   3.576
 4115SOL    HW213245   2.683   5.389   3.440
 4116SOL     OW13246   5.470   2.708   3.189
 4116SOL    HW113247   5.477   2.608   3.183
 4116SOL    HW213248   5.414   2.742   3.113
 4117SOL     OW13249   1.794   2.526   2.403
 4117SOL    HW113250   1.710   2.523   2.456
 4117SOL    HW213251   1.818   2.434   2.372
 4118SOL     OW13252   6.642   6.301   6.504
 4118SOL    HW113253   6.577   6.266   6.570
 4118SOL    HW213254   6.735   6.277   6.532
 4119SOL     OW13255   2.392   0.661   3.510
 4119SOL    HW113256   2.305   0.708   3.526
 4119SOL    HW213257   2.450   0.718   3.452
 4120SOL     OW13258   2.459   1.400   6.752
 4120SOL    HW113259   2.386   1.396   6.821
 4120SOL    HW213260   2.474   1.495   6.725
 4121SOL     OW13261   0.305   6.924   2.613
 4121SOL    HW113262   0.315   7.018   2.647
 4121SOL    HW213263   0.255   6.870   2.681
 4122SOL     OW13264   6.917   5.684   4.674
 4122SOL    HW113265   6.870   5.692   4.585
 4122SOL    HW213266   7.015   5.679   4.659
 4123SOL     OW13267   4.346   5.095   3.343
 4123SOL    HW113268   4.434   5.141   3.331
 4123SOL    HW213269   4.274   5.163   3.352
 4124SOL     OW13270   6.677   6.202   0.667
 4124SOL    HW113271   6.731   6.261   0.607
 4124SOL    HW213272   6.663   6.114   0.621
 4125SOL     OW13273   5.135   2.241   2.471
 4125SOL    HW113274   5.195   2.305   2.423
 4125SOL    HW213275   5.040   2.264   2.451
 4126SOL     OW13276   0.960   2.826   2.165
 4126SOL    HW113277   0.892   2.754   2.152
 4126SOL    HW213278   1.052   2.787   2.155
 4127SOL     OW13279   3.799   2.170   4.038
 4127SOL    HW113280   3.849   2.205   4.117
 4127SOL    HW213281   3.705   2.148   4.064
 4128SOL     OW13282   0.717   3.030   1.440
 4128SOL    HW113283   0.720   2.990   1.348
 4128SOL    HW213284   0.679   3.122   1.435
 4129SOL     OW13285   3.488   2.709   0.646
 4129SOL    HW113286   3.465   2.805   0.664
 4129SOL    HW213287   3.452   2.682   0.557
 4130SOL     OW13288   6.143   2.765   1.526
 4130SOL    HW113289   6.156   2.667   1.540
 4130SOL    HW213290   6.046   2.785   1.511
 4131SOL     OW13291   5.273   0.673   2.109
 4131SOL    HW113292   5.346   0.664   2.177
 4131SOL    HW213293   5.303   0.735   2.036
 4132SOL     OW13294   6.702   4.515   4.342
 4132SOL    HW113295   6.692   4.423   4.304
 4132SOL    HW213296   6.749   4.573   4.276
 4133SOL     OW13297   5.556   6.688   1.684
 4133SOL    HW113298   5.633   6.629   1.708
 4133SOL    HW213299   5.540   6.684   1.585
 4134SOL     OW13300   2.521   3.137   1.392
 4134SOL    HW113301   2.486   3.045   1.377
 4134SOL    HW213302   2.584   3.161   1.319
 4135SOL     OW13303   0.250   2.072   2.946
 4135SOL    HW113304   0.226   2.082   2.849
 4135SOL    HW213305   0.222   1.981   2.978
 4136SOL     OW13306   0.701   4.192   1.634
 4136SOL    HW113307   0.725   4.213   1.729
 4136SOL    HW213308   0.601   4.189   1.624
 4137SOL     OW13309   1.602   2.773   0.696
 4137SOL    HW113310   1.520   2.744   0.745
 4137SOL    HW213311   1.577   2.837   0.624
 4138SOL     OW13312   4.546   5.838   0.804
 4138SOL    HW113313   4.637   5.801   0.788
 4138SOL    HW213314   4.552   5.935   0.825
 4139SOL     OW13315   1.596   1.804   2.786
 4139SOL    HW113316   1.617   1.787   2.882
 4139SOL    HW213317   1.590   1.717   2.737
 4140SOL     OW13318   2.616   2.362   4.331
 4140SOL    HW113319   2.704   2.386   4.290
 4140SOL    HW213320   2.630   2.294   4.403
 4141SOL     OW13321   3.955   6.389   6.498
 4141SOL    HW113322   3.984   6.465   6.556
 4141SOL    HW213323   3.954   6.418   6.402
 4142SOL     OW13324   6.843   3.963   2.576
 4142SOL    HW113325   6.798   4.017   2.648
 4142SOL    HW213326   6.820   3.866   2.589
 4143SOL     OW13327   5.608   3.618   1.064
 4143SOL    HW113328   5.628   3.628   0.967
 4143SOL    HW213329   5.638   3.700   1.113
 4144SOL     OW13330   5.598   1.688   0.558
 4144SOL    HW113331   5.498   1.685   0.556
 4144SOL    HW213332   5.628   1.743   0.636
 4145SOL     OW13333   0.839   6.192   0.332
 4145SOL    HW113334   0.841   6.104   0.380
 4145SOL    HW213335   0.932   6.229   0.326
 4146SOL     OW13336   5.464   6.638   3.301
 4146SOL    HW113337   5.475   6.697   3.381
 4146SOL    HW213338   5.542   6.650   3.240
 4147SOL     OW13339   5.221   4.629   5.822
 4147SOL    HW113340   5.124   4.631   5.846
 4147SOL    HW213341   5.268   4.706   5.864
 4148SOL     OW13342   3.009   0.531   4.873
 4148SOL    HW113343   2.937   0.467   4.845
 4148SOL    HW213344   3.091   0.515   4.818
 4149SOL     OW13345   1.769   3.191   0.990
 4149SOL    HW113346   1.743   3.231   0.902
 4149SOL    HW213347   1.782   3.092   0.980
 4150SOL     OW13348   6.384   3.131   6.505
 4150SOL    HW113349   6.320   3.065   6.465
 4150SOL    HW213350   6.475   3.090   6.509
 4151SOL     OW13351   2.104   6.947   4.763
 4151SOL    HW113352   2.037   7.017   4.789
 4151SOL    HW213353   2.106   6.876   4.834
 4152SOL     OW13354   3.799   5.323   1.680
 4152SOL    HW113355   3.717   5.368   1.645
 4152SOL    HW213356   3.838   5.264   1.609
 4153SOL     OW13357   6.659   4.944   1.587
 4153SOL    HW113358   6.672   4.854   1.628
 4153SOL    HW213359   6.703   4.947   1.498
 4154SOL     OW13360   6.821   5.936   3.826
 4154SOL    HW113361   6.753   5.900   3.890
 4154SOL    HW213362   6.780   6.009   3.771
 4155SOL     OW13363   0.456   2.326   1.566
 4155SOL    HW113364   0.387   2.394   1.590
 4155SOL    HW213365   0.418   2.264   1.497
 4156SOL     OW13366   6.663   4.825   5.087
 4156SOL    HW113367   6.608   4.791   5.011
 4156SOL    HW213368   6.727   4.893   5.054
 4157SOL     OW13369   6.977   6.652   2.226
 4157SOL    HW113370   6.896   6.692   2.184
 4157SOL    HW213371   7.019   6.719   2.287
 4158SOL     OW13372   1.945   2.371   1.498
 4158SOL    HW113373   1.939   2.430   1.579
 4158SOL    HW213374   1.855   2.335   1.476
 4159SOL     OW13375   2.828   1.989   2.934
 4159SOL    HW113376   2.740   1.961   2.972
 4159SOL    HW213377   2.820   2.078   2.891
 4160SOL     OW13378   6.672   6.784   6.732
 4160SOL    HW113379   6.674   6.884   6.731
 4160SOL    HW213380   6.764   6.748   6.719
 4161SOL     OW13381   2.076   1.894   0.955
 4161SOL    HW113382   2.027   1.886   1.042
 4161SOL    HW213383   2.010   1.888   0.880
 4162SOL     OW13384   6.527   6.064   0.916
 4162SOL    HW113385   6.510   6.024   0.826
 4162SOL    HW213386   6.626   6.073   0.930
 4163SOL     OW13387   4.551   6.937   1.904
 4163SOL    HW113388   4.478   6.992   1.862
 4163SOL    HW213389   4.569   6.857   1.848
 4164SOL     OW13390   6.966   6.312   5.511
 4164SOL    HW113391   6.980   6.242   5.442
 4164SOL    HW213392   6.913   6.388   5.472
 4165SOL     OW13393   4.054   0.847   5.733
 4165SOL    HW113394   4.002   0.799   5.662
 4165SOL    HW213395   4.073   0.941   5.703
 4166SOL     OW13396   5.548   0.746   2.749
 4166SOL    HW113397   5.507   0.663   2.712
 4166SOL    HW213398   5.540   0.820   2.682
 4167SOL     OW13399   2.751   4.949   5.569
 4167SOL    HW113400   2.725   4.853   5.583
 4167SOL    HW213401   2.834   4.970   5.620
 4168SOL     OW13402   6.905   4.800   0.193
 4168SOL    HW113403   6.925   4.798   0.291
 4168SOL    HW213404   6.882   4.894   0.167
 4169SOL     OW13405   5.274   4.459   5.101
 4169SOL    HW113406   5.222   4.407   5.168
 4169SOL    HW213407   5.329   4.397   5.046
 4170SOL     OW13408   4.991   3.154   4.557
 4170SOL    HW113409   4.965   3.166   4.462
 4170SOL    HW213410   4.929   3.206   4.616
 4171SOL     OW13411   1.293   4.459   1.383
 4171SOL    HW113412   1.355   4.387   1.350
 4171SOL    HW213413   1.227   4.482   1.311
 4172SOL     OW13414   3.825   3.369   0.949
 4172SOL    HW113415   3.754   3.418   1.001
 4172SOL    HW213416   3.794   3.355   0.855
 4173SOL     OW13417   3.965   2.864   5.622
 4173SOL    HW113418   4.029   2.873   5.545
 4173SOL    HW213419   3.892   2.801   5.596
 4174SOL     OW13420   4.257   0.641   3.796
 4174SOL    HW113421   4.206   0.640   3.882
 4174SOL    HW213422   4.323   0.716   3.798
 4175SOL     OW13423   2.089   4.354   6.113
 4175SOL    HW113424   2.111   4.438   6.162
 4175SOL    HW213425   2.080   4.374   6.016
 4176SOL     OW13426   4.904   6.405   0.099
 4176SOL    HW113427   4.944   6.399   0.190
 4176SOL    HW213428   4.974   6.383   0.031
 4177SOL     OW13429   5.356   4.935   4.944
 4177SOL    HW113430   5.353   4.841   4.909
 4177SOL    HW213431   5.299   4.994   4.886
 4178SOL     OW13432   4.457   6.524   2.990
 4178SOL    HW113433   4.408   6.470   2.921
 4178SOL    HW213434   4.428   6.619   2.984
 4179SOL     OW13435   5.437   3.704   3.708
 4179SOL    HW113436   5.535   3.695   3.689
 4179SOL    HW213437   5.389   3.727   3.623
 4180SOL     OW13438   5.790   3.291   0.849
 4180SOL    HW113439   5.793   3.191   0.842
 4180SOL    HW213440   5.782   3.318   0.945
 4181SOL     OW13441   5.443   0.147   5.800
 4181SOL    HW113442   5.462   0.205   5.720
 4181SOL    HW213443   5.455   0.202   5.883
 4182SOL     OW13444   0.198   5.646   3.748
 4182SOL    HW113445   0.265   5.644   3.822
 4182SOL    HW213446   0.144   5.730   3.754
 4183SOL     OW13447   1.871   1.397   0.964
 4183SOL    HW113448   1.788   1.448   0.940
 4183SOL    HW213449   1.847   1.303   0.988
 4184SOL     OW13450   3.780   0.547   2.048
 4184SOL    HW113451   3.846   0.575   2.118
 4184SOL    HW213452   3.748   0.454   2.069
 4185SOL     OW13453   0.440   4.408   3.145
 4185SOL    HW113454   0.391   4.495   3.151
 4185SOL    HW213455   0.402   4.344   3.213
 4186SOL     OW13456   2.731   5.578   6.828
 4186SOL    HW113457   2.633   5.590   6.845
 4186SOL    HW213458   2.750   5.484   6.801
 4187SOL     OW13459   1.997   3.862   6.866
 4187SOL    HW113460   2.025   3.804   6.789
 4187SOL    HW213461   2.073   3.919   6.895
 4188SOL     OW13462   5.588   0.584   4.926
 4188SOL    HW113463   5.632   0.496   4.908
 4188SOL    HW213464   5.489   0.571   4.930
 4189SOL     OW13465   4.084   5.233   3.719
 4189SOL    HW113466   4.031   5.166   3.771
 4189SOL    HW213467   4.054   5.234   3.624
 4190SOL     OW13468   0.637   6.532   0.984
 4190SOL    HW113469   0.591   6.596   0.924
 4190SOL    HW213470   0.731   6.563   1.000
 4191SOL     OW13471   5.243   3.974   6.552
 4191SOL    HW113472   5.338   3.945   6.539
 4191SOL    HW213473   5.242   4.066   6.590
 4192SOL     OW13474   0.682   1.695   2.075
 4192SOL    HW113475   0.595   1.648   2.089
 4192SOL    HW213476   0.704   1.698   1.978
 4193SOL     OW13477   5.548   0.381   0.162
 4193SOL    HW113478   5.479   0.354   0.094
 4193SOL    HW213479   5.624   0.317   0.159
 4194SOL     OW13480   4.530   0.642   4.964
 4194SOL    HW113481   4.442   0.682   4.990
 4194SOL    HW213482   4.515   0.564   4.904
 4195SOL     OW13483   4.423   6.646   0.851
 4195SOL    HW113484   4.415   6.723   0.914
 4195SOL    HW213485   4.439   6.679   0.758
 4196SOL     OW13486   0.269   2.813   3.795
 4196SOL    HW113487   0.241   2.894   3.743
 4196SOL    HW213488   0.302   2.743   3.733
 4197SOL     OW13489   4.206   5.760   5.376
 4197SOL    HW113490   4.222   5.859   5.372
 4197SOL    HW213491   4.204   5.731   5.472
 4198SOL     OW13492   6.454   1.004   2.437
 4198SOL    HW113493   6.453   1.046   2.346
 4198SOL    HW213494   6.460   1.075   2.507
 4199SOL     OW13495   1.090   3.359   5.948
 4199SOL    HW113496   1.141   3.340   6.032
 4199SOL    HW213497   1.123   3.301   5.874
 4200SOL     OW13498   3.087   0.423   5.694
 4200SOL    HW113499   3.148   0.502   5.694
 4200SOL    HW213500   3.115   0.359   5.766
 4201SOL     OW13501   6.267   6.872   3.436
 4201SOL    HW113502   6.217   6.833   3.359
 4201SOL    HW213503   6.252   6.971   3.439
 4202SOL     OW13504   3.777   5.595   6.604
 4202SOL    HW113505   3.714   5.642   6.541
 4202SOL    HW213506   3.766   5.496   6.594
 4203SOL     OW13507   5.062   4.917   0.554
 4203SOL    HW113508   5.048   4.942   0.649
 4203SOL    HW213509   5.070   4.818   0.546
 4204SOL     OW13510   3.860   3.361   5.512
 4204SOL    HW113511   3.770   3.389   5.479
 4204SOL    HW213512   3.898   3.433   5.570
 4205SOL     OW13513   3.584   5.136   5.038
 4205SOL    HW113514   3.623   5.214   4.988
 4205SOL    HW213515   3.494   5.161   5.074
 4206SOL     OW13516   0.230   1.645   5.055
 4206SOL    HW113517   0.157   1.578   5.067
 4206SOL    HW213518   0.313   1.612   5.099
 4207SOL     OW13519   2.587   2.578   1.467
 4207SOL    HW113520   2.556   2.627   1.548
 4207SOL    HW213521   2.684   2.595   1.452
 4208SOL     OW13522   0.986   3.881   5.622
 4208SOL    HW113523   0.937   3.802   5.586
 4208SOL    HW213524   0.979   3.881   5.722
 4209SOL     OW13525   6.449   5.951   2.945
 4209SOL    HW113526   6.505   6.034   2.944
 4209SOL    HW213527   6.393   5.947   2.863
 4210SOL     OW13528   3.926   3.056   3.335
 4210SOL    HW113529   3.875   3.053   3.249
 4210SOL    HW213530   4.017   3.094   3.318
 4211SOL     OW13531   3.738   1.921   5.285
 4211SOL    HW113532   3.762   2.005   5.333
 4211SOL    HW213533   3.660   1.939   5.224
 4212SOL     OW13534   6.698   1.802   3.898
 4212SOL    HW113535   6.708   1.901   3.887
 4212SOL    HW213536   6.710   1.778   3.994
 4213SOL     OW13537   2.410   0.335   3.265
 4213SOL    HW113538   2.391   0.416   3.210
 4213SOL    HW213539   2.484   0.282   3.222
 4214SOL     OW13540   0.403   5.749   4.852
 4214SOL    HW113541   0.420   5.838   4.810
 4214SOL    HW213542   0.487   5.696   4.855
 4215SOL     OW13543   5.178   0.024   5.385
 4215SOL    HW113544   5.228   0.111   5.381
 4215SOL    HW213545   5.223   6.983   5.326
 4216SOL     OW13546   1.660   0.619   2.367
 4216SOL    HW113547   1.570   0.635   2.329
 4216SOL    HW213548   1.653   0.558   2.446
 4217SOL     OW13549   1.154   0.607   1.942
 4217SOL    HW113550   1.185   0.522   1.901
 4217SOL    HW213551   1.100   0.659   1.875
 4218SOL     OW13552   3.348   0.788   1.033
 4218SOL    HW113553   3.304   0.830   0.954
 4218SOL    HW213554   3.413   0.853   1.073
 4219SOL     OW13555   4.349   6.324   4.356
 4219SOL    HW113556   4.414   6.310   4.281
 4219SOL    HW213557   4.354   6.418   4.389
 4220SOL     OW13558   5.840   2.819   2.125
 4220SOL    HW113559   5.842   2.721   2.143
 4220SOL    HW213560   5.896   2.839   2.044
 4221SOL     OW13561   6.565   4.383   6.771
 4221SOL    HW113562   6.636   4.388   6.701
 4221SOL    HW213563   6.491   4.446   6.747
 4222SOL     OW13564   6.178   1.536   3.749
 4222SOL    HW113565   6.240   1.525   3.671
 4222SOL    HW213566   6.155   1.447   3.787
 4223SOL     OW13567   3.877   3.700   1.126
 4223SOL    HW113568   3.860   3.620   1.183
 4223SOL    HW213569   3.818   3.697   1.045
 4224SOL     OW13570   5.305   4.670   4.880
 4224SOL    HW113571   5.225   4.669   4.819
 4224SOL    HW213572   5.289   4.607   4.956
 4225SOL     OW13573   1.640   2.049   5.725
 4225SOL    HW113574   1.568   2.073   5.791
 4225SOL    HW213575   1.718   2.110   5.740
 4226SOL     OW13576   1.102   6.184   3.686
 4226SOL    HW113577   1.096   6.153   3.591
 4226SOL    HW213578   1.134   6.278   3.689
 4227SOL     OW13579   5.194   5.738   1.843
 4227SOL    HW113580   5.289   5.718   1.820
 4227SOL    HW213581   5.142   5.652   1.848
 4228SOL     OW13582   0.746   6.215   5.247
 4228SOL    HW113583   0.806   6.136   5.233
 4228SOL    HW213584   0.665   6.206   5.190
 4229SOL     OW13585   4.617   5.635   5.627
 4229SOL    HW113586   4.671   5.704   5.676
 4229SOL    HW213587   4.536   5.679   5.587
 4230SOL     OW13588   0.860   6.648   3.199
 4230SOL    HW113589   0.826   6.556   3.219
 4230SOL    HW213590   0.784   6.707   3.172
 4231SOL     OW13591   4.732   0.345   5.417
 4231SOL    HW113592   4.682   0.391   5.344
 4231SOL    HW213593   4.802   0.286   5.378
 4232SOL     OW13594   2.138   5.467   3.551
 4232SOL    HW113595   2.138   5.392   3.617
 4232SOL    HW213596   2.082   5.442   3.472
 4233SOL     OW13597   0.288   6.994   5.086
 4233SOL    HW113598   0.339   0.045   5.125
 4233SOL    HW213599   0.248   7.021   4.998
 4234SOL     OW13600   2.437   5.040   5.111
 4234SOL    HW113601   2.441   4.945   5.140
 4234SOL    HW213602   2.356   5.056   5.056
 4235SOL     OW13603   6.654   5.013   5.681
 4235SOL    HW113604   6.582   5.045   5.742
 4235SOL    HW213605   6.701   4.935   5.723
 4236SOL     OW13606   0.187   4.396   1.817
 4236SOL    HW113607   0.161   4.349   1.733
 4236SOL    HW213608   0.255   4.342   1.867
 4237SOL     OW13609   6.672   4.048   4.072
 4237SOL    HW113610   6.716   4.079   3.988
 4237SOL    HW213611   6.676   3.949   4.078
 4238SOL     OW13612   1.059   0.795   3.199
 4238SOL    HW113613   1.088   0.811   3.105
 4238SOL    HW213614   0.963   0.823   3.209
 4239SOL     OW13615   4.303   0.915   2.289
 4239SOL    HW113616   4.244   0.874   2.358
 4239SOL    HW213617   4.251   0.979   2.233
 4240SOL     OW13618   2.480   5.070   0.313
 4240SOL    HW113619   2.539   5.148   0.295
 4240SOL    HW213620   2.537   4.989   0.331
 4241SOL     OW13621   5.057   1.105   7.006
 4241SOL    HW113622   5.091   1.182   0.034
 4241SOL    HW213623   5.114   1.025   7.024
 4242SOL     OW13624   2.469   1.833   4.379
 4242SOL    HW113625   2.436   1.927   4.394
 4242SOL    HW213626   2.567   1.829   4.397
 4243SOL     OW13627   4.976   1.688   2.765
 4243SOL    HW113628   4.902   1.734   2.814
 4243SOL    HW213629   4.993   1.736   2.679
 4244SOL     OW13630   3.498   4.396   1.202
 4244SOL    HW113631   3.534   4.304   1.216
 4244SOL    HW213632   3.529   4.430   1.113
 4245SOL     OW13633   6.493   2.267   6.885
 4245SOL    HW113634   6.416   2.204   6.877
 4245SOL    HW213635   6.555   2.253   6.808
 4246SOL     OW13636   6.444   3.954   3.375
 4246SOL    HW113637   6.416   3.859   3.388
 4246SOL    HW213638   6.464   3.971   3.279
 4247SOL     OW13639   1.485   6.623   3.279
 4247SOL    HW113640   1.464   6.590   3.187
 4247SOL    HW213641   1.581   6.603   3.301
 4248SOL     OW13642   2.563   1.781   4.801
 4248SOL    HW113643   2.512   1.833   4.870
 4248SOL    HW213644   2.622   1.715   4.847
 4249SOL     OW13645   6.480   3.147   5.049
 4249SOL    HW113646   6.523   3.217   4.992
 4249SOL    HW213647   6.398   3.185   5.091
 4250SOL     OW13648   0.385   4.730   3.061
 4250SOL    HW113649   0.345   4.713   3.151
 4250SOL    HW213650   0.335   4.805   3.016
 4251SOL     OW13651   5.808   5.159   0.588
 4251SOL    HW113652   5.824   5.249   0.629
 4251SOL    HW213653   5.880   5.140   0.521
 4252SOL     OW13654   6.395   6.641   5.749
 4252SOL    HW113655   6.374   6.736   5.770
 4252SOL    HW213656   6.380   6.624   5.652
 4253SOL     OW13657   2.825   0.316   1.761
 4253SOL    HW113658   2.909   0.363   1.785
 4253SOL    HW213659   2.829   0.221   1.794
 4254SOL     OW13660   1.150   2.542   1.530
 4254SOL    HW113661   1.152   2.500   1.621
 4254SOL    HW213662   1.103   2.630   1.535
 4255SOL     OW13663   5.753   2.760   3.183
 4255SOL    HW113664   5.656   2.740   3.169
 4255SOL    HW213665   5.800   2.761   3.094
 4256SOL     OW13666   1.293   6.555   0.625
 4256SOL    HW113667   1.341   6.631   0.670
 4256SOL    HW213668   1.309   6.470   0.675
 4257SOL     OW13669   3.828   0.665   5.022
 4257SOL    HW113670   3.801   0.588   4.964
 4257SOL    HW213671   3.746   0.718   5.046
 4258SOL     OW13672   5.789   6.512   1.703
 4258SOL    HW113673   5.707   6.454   1.697
 4258SOL    HW213674   5.865   6.467   1.657
 4259SOL     OW13675   2.998   0.492   6.363
 4259SOL    HW113676   2.941   0.559   6.316
 4259SOL    HW213677   3.094   0.513   6.348
 4260SOL     OW13678   5.361   6.484   4.621
 4260SOL    HW113679   5.334   6.518   4.711
 4260SOL    HW213680   5.329   6.390   4.610
 4261SOL     OW13681   1.711   0.708   1.650
 4261SOL    HW113682   1.649   0.734   1.575
 4261SOL    HW213683   1.803   0.739   1.628
 4262SOL     OW13684   1.112   4.748   5.292
 4262SOL    HW113685   1.094   4.652   5.268
 4262SOL    HW213686   1.192   4.780   5.241
 4263SOL     OW13687   2.568   6.685   3.489
 4263SOL    HW113688   2.666   6.668   3.491
 4263SOL    HW213689   2.551   6.781   3.468
 4264SOL     OW13690   6.738   1.806   2.314
 4264SOL    HW113691   6.642   1.777   2.321
 4264SOL    HW213692   6.797   1.726   2.319
 4265SOL     OW13693   5.587   1.518   6.846
 4265SOL    HW113694   5.534   1.554   6.923
 4265SOL    HW213695   5.560   1.422   6.830
 4266SOL     OW13696   1.891   5.474   0.917
 4266SOL    HW113697   1.882   5.573   0.924
 4266SOL    HW213698   1.944   5.451   0.835
 4267SOL     OW13699   2.135   3.834   4.844
 4267SOL    HW113700   2.096   3.756   4.892
 4267SOL    HW213701   2.203   3.879   4.902
 4268SOL     OW13702   1.875   0.007   6.721
 4268SOL    HW113703   1.930   0.029   6.802
 4268SOL    HW213704   1.934   6.992   6.651
 4269SOL     OW13705   2.042   1.407   0.342
 4269SOL    HW113706   2.091   1.371   0.421
 4269SOL    HW213707   1.997   1.332   0.293
 4270SOL     OW13708   3.025   3.885   3.894
 4270SOL    HW113709   3.066   3.835   3.818
 4270SOL    HW213710   2.925   3.877   3.890
 4271SOL     OW13711   0.257   0.972   6.299
 4271SOL    HW113712   0.160   0.957   6.318
 4271SOL    HW213713   0.300   1.014   6.379
 4272SOL     OW13714   0.519   4.661   4.839
 4272SOL    HW113715   0.535   4.565   4.860
 4272SOL    HW213716   0.429   4.688   4.873
 4273SOL     OW13717   4.739   6.665   4.469
 4273SOL    HW113718   4.793   6.744   4.439
 4273SOL    HW213719   4.654   6.660   4.417
 4274SOL     OW13720   1.029   0.514   2.857
 4274SOL    HW113721   1.129   0.520   2.852
 4274SOL    HW213722   0.990   0.539   2.769
 4275SOL     OW13723   6.652   1.583   5.527
 4275SOL    HW113724   6.557   1.606   5.551
 4275SOL    HW213725   6.677   1.496   5.571
 4276SOL     OW13726   1.630   4.543   3.601
 4276SOL    HW113727   1.547   4.507   3.557
 4276SOL    HW213728   1.626   4.524   3.699
 4277SOL     OW13729   6.487   4.685   4.389
 4277SOL    HW113730   6.516   4.747   4.315
 4277SOL    HW213731   6.552   4.610   4.395
 4278SOL     OW13732   0.006   0.580   5.106
 4278SOL    HW113733   0.062   0.499   5.089
 4278SOL    HW213734   6.947   0.553   5.150
 4279SOL     OW13735   3.122   6.284   5.463
 4279SOL    HW113736   3.156   6.198   5.500
 4279SOL    HW213737   3.097   6.272   5.367
 4280SOL     OW13738   5.284   1.419   5.288
 4280SOL    HW113739   5.260   1.322   5.278
 4280SOL    HW213740   5.374   1.435   5.248
 4281SOL     OW13741   2.487   4.934   4.602
 4281SOL    HW113742   2.402   4.977   4.572
 4281SOL    HW213743   2.511   4.969   4.693
 4282SOL     OW13744   2.917   2.562   0.539
 4282SOL    HW113745   2.872   2.536   0.625
 4282SOL    HW213746   2.848   2.572   0.467
 4283SOL     OW13747   1.598   0.911   3.778
 4283SOL    HW113748   1.577   0.994   3.725
 4283SOL    HW213749   1.665   0.932   3.848
 4284SOL     OW13750   5.106   5.809   2.121
 4284SOL    HW113751   5.109   5.751   2.202
 4284SOL    HW213752   5.107   5.752   2.039
 4285SOL     OW13753   0.227   0.175   6.243
 4285SOL    HW113754   0.289   0.146   6.316
 4285SOL    HW213755   0.280   0.198   6.162
 4286SOL     OW13756   5.294   5.376   6.459
 4286SOL    HW113757   5.332   5.285   6.440
 4286SOL    HW213758   5.194   5.371   6.454
 4287SOL     OW13759   5.585   0.881   6.381
 4287SOL    HW113760   5.649   0.937   6.329
 4287SOL    HW213761   5.573   0.793   6.335
 4288SOL     OW13762   0.575   5.994   2.998
 4288SOL    HW113763   0.542   6.030   3.085
 4288SOL    HW213764   0.564   5.894   2.996
 4289SOL     OW13765   6.221   3.118   1.072
 4289SOL    HW113766   6.147   3.055   1.096
 4289SOL    HW213767   6.299   3.102   1.131
 4290SOL     OW13768   2.547   6.329   1.474
 4290SOL    HW113769   2.461   6.297   1.514
 4290SOL    HW213770   2.617   6.332   1.545
 4291SOL     OW13771   4.310   3.636   1.751
 4291SOL    HW113772   4.374   3.710   1.731
 4291SOL    HW213773   4.218   3.662   1.720
 4292SOL     OW13774   6.735   4.533   5.940
 4292SOL    HW113775   6.820   4.481   5.933
 4292SOL    HW213776   6.672   4.487   6.002
 4293SOL     OW13777   0.072   3.139   0.232
 4293SOL    HW113778   0.081   3.211   0.164
 4293SOL    HW213779   0.164   3.111   0.263
 4294SOL     OW13780   3.964   2.992   0.546
 4294SOL    HW113781   3.944   3.042   0.462
 4294SOL    HW213782   4.034   2.923   0.528
 4295SOL     OW13783   3.414   6.012   4.875
 4295SOL    HW113784   3.503   5.969   4.859
 4295SOL    HW213785   3.369   6.031   4.788
 4296SOL     OW13786   3.224   1.260   0.032
 4296SOL    HW113787   3.299   1.286   0.093
 4296SOL    HW213788   3.143   1.315   0.052
 4297SOL     OW13789   5.343   0.445   5.716
 4297SOL    HW113790   5.328   0.448   5.617
 4297SOL    HW213791   5.424   0.499   5.739
 4298SOL     OW13792   2.811   5.274   6.756
 4298SOL    HW113793   2.867   5.231   6.826
 4298SOL    HW213794   2.862   5.279   6.670
 4299SOL     OW13795   0.778   2.770   6.747
 4299SOL    HW113796   0.681   2.765   6.771
 4299SOL    HW213797   0.809   2.865   6.752
 4300SOL     OW13798   3.487   1.277   6.558
 4300SOL    HW113799   3.539   1.236   6.484
 4300SOL    HW213800   3.467   1.373   6.536
 4301SOL     OW13801   2.386   1.436   0.359
 4301SOL    HW113802   2.460   1.416   0.294
 4301SOL    HW213803   2.361   1.533   0.352
 4302SOL     OW13804   0.676   6.458   5.892
 4302SOL    HW113805   0.773   6.481   5.900
 4302SOL    HW213806   0.654   6.439   5.797
 4303SOL     OW13807   5.739   4.790   4.120
 4303SOL    HW113808   5.835   4.818   4.129
 4303SOL    HW213809   5.680   4.857   4.165
 4304SOL     OW13810   3.379   3.740   4.422
 4304SOL    HW113811   3.402   3.643   4.407
 4304SOL    HW213812   3.451   3.797   4.384
 4305SOL     OW13813   6.511   1.609   3.857
 4305SOL    HW113814   6.519   1.531   3.919
 4305SOL    HW213815   6.588   1.672   3.872
 4306SOL     OW13816   6.350   3.860   6.397
 4306SOL    HW113817   6.324   3.908   6.481
 4306SOL    HW213818   6.278   3.795   6.372
 4307SOL     OW13819   4.939   4.375   6.530
 4307SOL    HW113820   4.861   4.311   6.532
 4307SOL    HW213821   5.019   4.329   6.491
 4308SOL     OW13822   5.375   5.584   6.003
 4308SOL    HW113823   5.464   5.602   5.962
 4308SOL    HW213824   5.386   5.567   6.101
 4309SOL     OW13825   0.970   0.286   0.405
 4309SOL    HW113826   0.927   0.211   0.456
 4309SOL    HW213827   0.902   0.357   0.388
 4310SOL     OW13828   2.088   2.489   2.940
 4310SOL    HW113829   2.096   2.478   2.841
 4310SOL    HW213830   2.130   2.576   2.967
 4311SOL     OW13831   0.919   5.788   2.873
 4311SOL    HW113832   0.943   5.691   2.867
 4311SOL    HW213833   1.002   5.841   2.893
 4312SOL     OW13834   1.707   5.490   1.451
 4312SOL    HW113835   1.661   5.539   1.377
 4312SOL    HW213836   1.735   5.555   1.522
 4313SOL     OW13837   5.176   1.667   1.951
 4313SOL    HW113838   5.213   1.748   1.905
 4313SOL    HW213839   5.091   1.640   1.906
 4314SOL     OW13840   5.557   2.192   3.949
 4314SOL    HW113841   5.535   2.286   3.976
 4314SOL    HW213842   5.636   2.160   4.001
 4315SOL     OW13843   2.235   1.028   2.151
 4315SOL    HW113844   2.136   1.034   2.165
 4315SOL    HW213845   2.273   1.121   2.147
 4316SOL     OW13846   5.208   0.226   1.224
 4316SOL    HW113847   5.186   0.324   1.216
 4316SOL    HW213848   5.188   0.181   1.137
 4317SOL     OW13849   3.553   1.151   4.668
 4317SOL    HW113850   3.592   1.091   4.598
 4317SOL    HW213851   3.613   1.229   4.683
 4318SOL     OW13852   1.066   3.314   3.225
 4318SOL    HW113853   1.130   3.380   3.263
 4318SOL    HW213854   1.012   3.357   3.153
 4319SOL     OW13855   2.115   2.583   0.408
 4319SOL    HW113856   2.174   2.525   0.352
 4319SOL    HW213857   2.074   2.528   0.481
 4320SOL     OW13858   1.092   6.012   1.971
 4320SOL    HW113859   1.169   6.020   1.907
 4320SOL    HW213860   1.123   6.038   2.063
 4321SOL     OW13861   6.769   0.271   4.410
 4321SOL    HW113862   6.723   0.332   4.346
 4321SOL    HW213863   6.852   0.315   4.444
 4322SOL     OW13864   6.139   1.632   6.563
 4322SOL    HW113865   6.197   1.575   6.505
 4322SOL    HW213866   6.049   1.588   6.573
 4323SOL     OW13867   5.580   4.185   1.841
 4323SOL    HW113868   5.540   4.129   1.914
 4323SOL    HW213869   5.529   4.271   1.833
 4324SOL     OW13870   5.748   4.649   6.637
 4324SOL    HW113871   5.732   4.739   6.597
 4324SOL    HW213872   5.711   4.647   6.730
 4325SOL     OW13873   1.094   0.544   0.174
 4325SOL    HW113874   1.132   0.498   0.255
 4325SOL    HW213875   1.159   0.536   0.098
 4326SOL     OW13876   6.200   2.735   4.908
 4326SOL    HW113877   6.198   2.779   4.998
 4326SOL    HW213878   6.197   2.806   4.837
 4327SOL     OW13879   6.042   5.173   2.332
 4327SOL    HW113880   6.046   5.117   2.415
 4327SOL    HW213881   5.953   5.161   2.288
 4328SOL     OW13882   4.949   4.098   6.141
 4328SOL    HW113883   4.976   4.008   6.176
 4328SOL    HW213884   4.962   4.100   6.042
 4329SOL     OW13885   3.697   1.901   5.985
 4329SOL    HW113886   3.739   1.818   5.946
 4329SOL    HW213887   3.664   1.881   6.077
 4330SOL     OW13888   3.272   0.752   4.817
 4330SOL    HW113889   3.188   0.774   4.867
 4330SOL    HW213890   3.347   0.810   4.851
 4331SOL     OW13891   5.047   3.177   1.250
 4331SOL    HW113892   5.040   3.168   1.151
 4331SOL    HW213893   5.047   3.274   1.275
 4332SOL     OW13894   5.588   4.314   2.704
 4332SOL    HW113895   5.601   4.321   2.803
 4332SOL    HW213896   5.544   4.397   2.669
 4333SOL     OW13897   4.322   1.591   5.389
 4333SOL    HW113898   4.333   1.557   5.295
 4333SOL    HW213899   4.289   1.685   5.387
 4334SOL     OW13900   2.406   2.196   2.430
 4334SOL    HW113901   2.451   2.244   2.355
 4334SOL    HW213902   2.406   2.098   2.412
 4335SOL     OW13903   3.283   4.044   3.667
 4335SOL    HW113904   3.186   4.063   3.681
 4335SOL    HW213905   3.338   4.099   3.730
 4336SOL     OW13906   0.987   6.465   5.793
 4336SOL    HW113907   0.952   6.413   5.715
 4336SOL    HW213908   1.081   6.493   5.776
 4337SOL     OW13909   1.473   4.649   0.327
 4337SOL    HW113910   1.490   4.553   0.346
 4337SOL    HW213911   1.554   4.702   0.350
 4338SOL     OW13912   4.905   6.129   4.122
 4338SOL    HW113913   4.872   6.046   4.077
 4338SOL    HW213914   4.868   6.134   4.215
 4339SOL     OW13915   5.869   3.665   5.147
 4339SOL    HW113916   5.871   3.574   5.106
 4339SOL    HW213917   5.947   3.718   5.114
 4340SOL     OW13918   6.108   4.225   2.754
 4340SOL    HW113919   6.032   4.278   2.716
 4340SOL    HW213920   6.074   4.139   2.792
 4341SOL     OW13921   1.192   5.291   1.872
 4341SOL    HW113922   1.238   5.217   1.922
 4341SOL    HW213923   1.215   5.379   1.914
 4342SOL     OW13924   0.121   3.383   4.064
 4342SOL    HW113925   0.077   3.294   4.075
 4342SOL    HW213926   0.086   3.446   4.133
 4343SOL     OW13927   2.206   6.728   6.396
 4343SOL    HW113928   2.160   6.779   6.323
 4343SOL    HW213929   2.208   6.631   6.372
 4344SOL     OW13930   2.010   5.547   2.958
 4344SOL    HW113931   2.087   5.491   2.928
 4344SOL    HW213932   2.013   5.635   2.911
 4345SOL     OW13933   1.709   2.714   5.720
 4345SOL    HW113934   1.795   2.705   5.670
 4345SOL    HW213935   1.662   2.625   5.721
 4346SOL     OW13936   2.065   3.268   1.664
 4346SOL    HW113937   2.066   3.365   1.689
 4346SOL    HW213938   2.145   3.223   1.703
 4347SOL     OW13939   6.130   1.086   2.335
 4347SOL    HW113940   6.095   1.130   2.418
 4347SOL    HW213941   6.183   1.005   2.360
 4348SOL     OW13942   0.405   2.897   2.334
 4348SOL    HW113943   0.451   2.819   2.376
 4348SOL    HW213944   0.378   2.963   2.405
 4349SOL     OW13945   6.788   1.394   3.294
 4349SOL    HW113946   6.835   1.330   3.232
 4349SOL    HW213947   6.832   1.391   3.384
 4350SOL     OW13948   4.926   2.238   4.689
 4350SOL    HW113949   5.019   2.272   4.672
 4350SOL    HW213950   4.879   2.299   4.752
 4351SOL     OW13951   2.107   6.284   0.668
 4351SOL    HW113952   2.106   6.202   0.725
 4351SOL    HW213953   2.088   6.364   0.724
 4352SOL     OW13954   1.302   2.497   2.147
 4352SOL    HW113955   1.356   2.452   2.076
 4352SOL    HW213956   1.205   2.477   2.133
 4353SOL     OW13957   3.265   4.529   0.782
 4353SOL    HW113958   3.204   4.451   0.767
 4353SOL    HW213959   3.255   4.562   0.876
 4354SOL     OW13960   1.895   6.411   5.750
 4354SOL    HW113961   1.877   6.322   5.708
 4354SOL    HW213962   1.897   6.401   5.850
 4355SOL     OW13963   3.549   0.217   1.825
 4355SOL    HW113964   3.617   0.253   1.760
 4355SOL    HW213965   3.568   0.254   1.916
 4356SOL     OW13966   4.642   4.478   1.810
 4356SOL    HW113967   4.736   4.486   1.842
 4356SOL    HW213968   4.600   4.396   1.850
 4357SOL     OW13969   6.467   0.150   6.904
 4357SOL    HW113970   6.448   0.222   6.971
 4357SOL    HW213971   6.412   0.070   6.926
 4358SOL     OW13972   6.719   5.882   0.351
 4358SOL    HW113973   6.731   5.797   0.300
 4358SOL    HW213974   6.795   5.893   0.415
 4359SOL     OW13975   1.495   2.131   5.483
 4359SOL    HW113976   1.489   2.222   5.442
 4359SOL    HW213977   1.542   2.136   5.570
 4360SOL     OW13978   1.265   3.366   2.762
 4360SOL    HW113979   1.316   3.396   2.682
 4360SOL    HW213980   1.323   3.307   2.819
 4361SOL     OW13981   2.809   2.617   1.713
 4361SOL    HW113982   2.720   2.649   1.746
 4361SOL    HW213983   2.848   2.553   1.779
 4362SOL     OW13984   6.261   4.000   4.303
 4362SOL    HW113985   6.300   4.091   4.319
 4362SOL    HW213986   6.291   3.937   4.375
 4363SOL     OW13987   5.388   2.541   6.343
 4363SOL    HW113988   5.366   2.450   6.378
 4363SOL    HW213989   5.477   2.539   6.298
 4364SOL     OW13990   3.276   3.725   5.214
 4364SOL    HW113991   3.224   3.782   5.278
 4364SOL    HW213992   3.275   3.767   5.123
 4365SOL     OW13993   2.789   1.540   1.668
 4365SOL    HW113994   2.844   1.607   1.720
 4365SOL    HW213995   2.715   1.507   1.726
 4366SOL     OW13996   5.204   6.792   6.851
 4366SOL    HW113997   5.170   6.819   6.941
 4366SOL    HW213998   5.249   6.870   6.808
 4367SOL     OW13999   1.737   5.127   5.471
 4367SOL    HW114000   1.709   5.046   5.523
 4367SOL    HW214001   1.701   5.209   5.515
 4368SOL     OW14002   4.304   5.175   1.274
 4368SOL    HW114003   4.346   5.215   1.356
 4368SOL    HW214004   4.284   5.246   1.208
 4369SOL     OW14005   4.019   5.174   2.805
 4369SOL    HW114006   3.986   5.255   2.757
 4369SOL    HW214007   3.972   5.167   2.893
 4370SOL     OW14008   5.070   4.531   2.891
 4370SOL    HW114009   4.979   4.573   2.892
 4370SOL    HW214010   5.097   4.513   2.796
 4371SOL     OW14011   6.263   0.704   1.649
 4371SOL    HW114012   6.358   0.691   1.623
 4371SOL    HW214013   6.244   0.653   1.733
 4372SOL     OW14014   4.326   1.124   3.161
 4372SOL    HW114015   4.421   1.154   3.163
 4372SOL    HW214016   4.297   1.098   3.254
 4373SOL     OW14017   6.957   2.909   0.162
 4373SOL    HW114018   7.020   2.979   0.196
 4373SOL    HW214019   6.863   2.939   0.178
 4374SOL     OW14020   0.885   1.826   1.673
 4374SOL    HW114021   0.939   1.856   1.593
 4374SOL    HW214022   0.943   1.829   1.754
 4375SOL     OW14023   3.234   0.481   3.971
 4375SOL    HW114024   3.258   0.390   3.937
 4375SOL    HW214025   3.137   0.485   3.994
 4376SOL     OW14026   0.115   0.464   2.911
 4376SOL    HW114027   0.046   0.393   2.920
 4376SOL    HW214028   0.096   0.520   2.830
 4377SOL     OW14029   6.058   4.009   0.307
 4377SOL    HW114030   6.075   4.103   0.279
 4377SOL    HW214031   6.108   3.989   0.391
 4378SOL     OW14032   1.658   1.545   2.753
 4378SOL    HW114033   1.641   1.461   2.804
 4378SOL    HW214034   1.755   1.551   2.729
 4379SOL     OW14035   2.328   1.371   3.755
 4379SOL    HW114036   2.253   1.382   3.820
 4379SOL    HW214037   2.386   1.452   3.756
 4380SOL     OW14038   1.147   0.136   1.177
 4380SOL    HW114039   1.202   0.107   1.255
 4380SOL    HW214040   1.194   0.209   1.128
 4381SOL     OW14041   0.955   6.341   4.397
 4381SOL    HW114042   1.037   6.391   4.425
 4381SOL    HW214043   0.978   6.246   4.380
 4382SOL     OW14044   6.805   3.317   6.124
 4382SOL    HW114045   6.791   3.292   6.220
 4382SOL    HW214046   6.900   3.300   6.099
 4383SOL     OW14047   6.780   3.824   6.179
 4383SOL    HW114048   6.719   3.897   6.149
 4383SOL    HW214049   6.735   3.768   6.248
 4384SOL     OW14050   5.945   0.539   3.913
 4384SOL    HW114051   6.039   0.510   3.894
 4384SOL    HW214052   5.914   0.600   3.840
 4385SOL     OW14053   4.443   2.508   5.518
 4385SOL    HW114054   4.464   2.419   5.559
 4385SOL    HW214055   4.454   2.580   5.586
 4386SOL     OW14056   1.583   3.924   5.329
 4386SOL    HW114057   1.500   3.929   5.385
 4386SOL    HW214058   1.663   3.924   5.389
 4387SOL     OW14059   6.776   2.798   2.074
 4387SOL    HW114060   6.707   2.728   2.055
 4387SOL    HW214061   6.752   2.882   2.027
 4388SOL     OW14062   4.147   2.502   6.087
 4388SOL    HW114063   4.214   2.436   6.053
 4388SOL    HW214064   4.186   2.551   6.165
 4389SOL     OW14065   6.728   3.507   0.494
 4389SOL    HW114066   6.759   3.501   0.588
 4389SOL    HW214067   6.659   3.437   0.476
 4390SOL     OW14068   4.743   0.076   1.343
 4390SOL    HW114069   4.693   0.157   1.373
 4390SOL    HW214070   4.742   0.007   1.416
 4391SOL     OW14071   3.045   4.874   6.810
 4391SOL    HW114072   2.972   4.856   6.744
 4391SOL    HW214073   3.048   4.800   6.877
 4392SOL     OW14074   0.783   2.077   4.716
 4392SOL    HW114075   0.723   2.002   4.691
 4392SOL    HW214076   0.729   2.159   4.735
 4393SOL     OW14077   6.407   0.506   2.132
 4393SOL    HW114078   6.500   0.542   2.123
 4393SOL    HW214079   6.406   0.410   2.105
 4394SOL     OW14080   0.521   6.404   1.624
 4394SOL    HW114081   0.503   6.485   1.679
 4394SOL    HW214082   0.436   6.375   1.580
 4395SOL     OW14083   2.013   0.227   1.407
 4395SOL    HW114084   2.073   0.281   1.465
 4395SOL    HW214085   1.959   0.164   1.463
 4396SOL     OW14086   1.642   1.501   4.186
 4396SOL    HW114087   1.653   1.513   4.087
 4396SOL    HW214088   1.617   1.589   4.227
 4397SOL     OW14089   1.920   2.942   4.514
 4397SOL    HW114090   1.953   3.009   4.448
 4397SOL    HW214091   1.941   2.973   4.606
 4398SOL     OW14092   1.671   3.336   6.443
 4398SOL    HW114093   1.662   3.255   6.384
 4398SOL    HW214094   1.694   3.415   6.387
 4399SOL     OW14095   2.709   6.829   1.937
 4399SOL    HW114096   2.790   6.795   1.889
 4399SOL    HW214097   2.695   6.776   2.020
 4400SOL     OW14098   2.062   6.643   3.677
 4400SOL    HW114099   2.075   6.554   3.635
 4400SOL    HW214100   1.979   6.685   3.641
 4401SOL     OW14101   3.998   6.341   5.039
 4401SOL    HW114102   3.980   6.339   4.940
 4401SOL    HW214103   3.918   6.306   5.088
 4402SOL     OW14104   0.537   0.149   3.083
 4402SOL    HW114105   0.543   0.234   3.134
 4402SOL    HW214106   0.559   0.166   2.987
 4403SOL     OW14107   1.381   6.325   0.768
 4403SOL    HW114108   1.446   6.263   0.812
 4403SOL    HW214109   1.400   6.329   0.670
 4404SOL     OW14110   1.249   6.243   5.233
 4404SOL    HW114111   1.227   6.145   5.232
 4404SOL    HW214112   1.164   6.296   5.230
 4405SOL     OW14113   1.991   5.004   2.660
 4405SOL    HW114114   1.992   5.091   2.711
 4405SOL    HW214115   1.907   4.998   2.606
 4406SOL     OW14116   6.751   3.452   0.765
 4406SOL    HW114117   6.781   3.476   0.858
 4406SOL    HW214118   6.706   3.362   0.767
 4407SOL     OW14119   0.276   5.218   1.127
 4407SOL    HW114120   0.343   5.275   1.079
 4407SOL    HW214121   0.314   5.191   1.216
 4408SOL     OW14122   2.393   6.344   6.834
 4408SOL    HW114123   2.423   6.350   6.739
 4408SOL    HW214124   2.395   6.249   6.863
 4409SOL     OW14125   4.603   1.217   1.586
 4409SOL    HW114126   4.601   1.117   1.577
 4409SOL    HW214127   4.674   1.243   1.652
 4410SOL     OW14128   6.466   5.773   0.229
 4410SOL    HW114129   6.511   5.862   0.222
 4410SOL    HW214130   6.465   5.744   0.324
 4411SOL     OW14131   3.320   4.539   5.347
 4411SOL    HW114132   3.257   4.555   5.423
 4411SOL    HW214133   3.406   4.587   5.364
 4412SOL     OW14134   5.502   6.792   4.072
 4412SOL    HW114135   5.488   6.730   4.149
 4412SOL    HW214136   5.426   6.784   4.008
 4413SOL     OW14137   5.186   5.871   3.927
 4413SOL    HW114138   5.280   5.875   3.893
 4413SOL    HW214139   5.129   5.819   3.863
 4414SOL     OW14140   4.309   5.746   1.222
 4414SOL    HW114141   4.333   5.780   1.131
 4414SOL    HW214142   4.387   5.696   1.260
 4415SOL     OW14143   3.977   3.731   0.721
 4415SOL    HW114144   4.033   3.688   0.792
 4415SOL    HW214145   3.888   3.754   0.758
 4416SOL     OW14146   3.878   1.215   4.131
 4416SOL    HW114147   3.873   1.151   4.207
 4416SOL    HW214148   3.898   1.166   4.047
 4417SOL     OW14149   5.979   2.862   3.987
 4417SOL    HW114150   6.048   2.894   4.051
 4417SOL    HW214151   6.004   2.890   3.894
 4418SOL     OW14152   6.272   1.812   2.285
 4418SOL    HW114153   6.256   1.736   2.222
 4418SOL    HW214154   6.189   1.829   2.339
 4419SOL     OW14155   6.839   0.114   6.025
 4419SOL    HW114156   6.751   0.160   6.029
 4419SOL    HW214157   6.890   0.134   6.109
 4420SOL     OW14158   3.358   1.520   1.149
 4420SOL    HW114159   3.304   1.565   1.078
 4420SOL    HW214160   3.413   1.447   1.108
 4421SOL     OW14161   1.656   1.985   5.329
 4421SOL    HW114162   1.747   2.009   5.363
 4421SOL    HW214163   1.587   2.025   5.389
 4422SOL     OW14164   0.973   4.786   6.956
 4422SOL    HW114165   1.014   4.695   6.966
 4422SOL    HW214166   0.977   4.813   6.860
 4423SOL     OW14167   6.692   4.502   6.315
 4423SOL    HW114168   6.690   4.505   6.415
 4423SOL    HW214169   6.637   4.425   6.283
 4424SOL     OW14170   5.643   6.119   4.760
 4424SOL    HW114171   5.568   6.097   4.823
 4424SOL    HW214172   5.720   6.058   4.778
 4425SOL     OW14173   1.785   5.218   1.384
 4425SOL    HW114174   1.885   5.221   1.380
 4425SOL    HW214175   1.748   5.309   1.365
 4426SOL     OW14176   0.908   1.323   3.923
 4426SOL    HW114177   0.981   1.258   3.943
 4426SOL    HW214178   0.947   1.413   3.905
 4427SOL     OW14179   4.236   6.215   2.536
 4427SOL    HW114180   4.219   6.308   2.567
 4427SOL    HW214181   4.243   6.154   2.615
 4428SOL     OW14182   5.036   0.928   4.515
 4428SOL    HW114183   5.132   0.899   4.510
 4428SOL    HW214184   5.031   1.028   4.514
 4429SOL     OW14185   2.682   6.530   2.649
 4429SOL    HW114186   2.676   6.627   2.628
 4429SOL    HW214187   2.767   6.512   2.699
 4430SOL     OW14188   5.427   4.560   4.301
 4430SOL    HW114189   5.469   4.651   4.306
 4430SOL    HW214190   5.354   4.560   4.233
 4431SOL     OW14191   2.604   0.789   3.374
 4431SOL    HW114192   2.594   0.819   3.279
 4431SOL    HW214193   2.701   0.782   3.396
 4432SOL     OW14194   1.943   3.156   6.678
 4432SOL    HW114195   1.916   3.074   6.629
 4432SOL    HW214196   1.971   3.226   6.613
 4433SOL     OW14197   0.338   2.722   4.550
 4433SOL    HW114198   0.331   2.781   4.469
 4433SOL    HW214199   0.418   2.749   4.603
 4434SOL     OW14200   5.574   1.839   2.709
 4434SOL    HW114201   5.542   1.933   2.717
 4434SOL    HW214202   5.599   1.819   2.614
 4435SOL     OW14203   3.781   3.704   1.524
 4435SOL    HW114204   3.826   3.614   1.524
 4435SOL    HW214205   3.839   3.770   1.477
 4436SOL     OW14206   3.810   1.307   1.362
 4436SOL    HW114207   3.750   1.322   1.284
 4436SOL    HW214208   3.808   1.210   1.387
 4437SOL     OW14209   0.920   3.464   2.671
 4437SOL    HW114210   0.949   3.372   2.645
 4437SOL    HW214211   0.843   3.492   2.614
 4438SOL     OW14212   4.773   6.683   5.796
 4438SOL    HW114213   4.831   6.750   5.749
 4438SOL    HW214214   4.827   6.635   5.864
 4439SOL     OW14215   0.514   4.765   2.734
 4439SOL    HW114216   0.453   4.719   2.669
 4439SOL    HW214217   0.537   4.702   2.809
 4440SOL     OW14218   2.258   4.470   0.771
 4440SOL    HW114219   2.236   4.553   0.718
 4440SOL    HW214220   2.300   4.496   0.858
 4441SOL     OW14221   0.040   1.180   0.838
 4441SOL    HW114222   0.080   1.207   0.926
 4441SOL    HW214223   0.089   1.100   0.803
 4442SOL     OW14224   1.313   5.436   5.446
 4442SOL    HW114225   1.250   5.427   5.370
 4442SOL    HW214226   1.279   5.385   5.525
 4443SOL     OW14227   0.911   4.158   6.004
 4443SOL    HW114228   0.980   4.086   6.012
 4443SOL    HW214229   0.953   4.242   5.970
 4444SOL     OW14230   4.632   4.005   0.387
 4444SOL    HW114231   4.711   3.994   0.448
 4444SOL    HW214232   4.587   4.092   0.407
 4445SOL     OW14233   1.358   6.176   0.078
 4445SOL    HW114234   1.415   6.117   0.136
 4445SOL    HW214235   1.311   6.242   0.136
 4446SOL     OW14236   5.439   1.679   7.021
 4446SOL    HW114237   5.376   1.701   0.070
 4446SOL    HW214238   5.505   1.754   7.010
 4447SOL     OW14239   6.159   3.910   4.762
 4447SOL    HW114240   6.149   3.811   4.775
 4447SOL    HW214241   6.068   3.953   4.762
 4448SOL     OW14242   2.990   0.042   1.141
 4448SOL    HW114243   2.922   0.101   1.185
 4448SOL    HW214244   2.960   0.022   1.047
 4449SOL     OW14245   4.149   0.900   6.640
 4449SOL    HW114246   4.229   0.907   6.580
 4449SOL    HW214247   4.177   0.918   6.734
 4450SOL     OW14248   3.118   1.272   6.583
 4450SOL    HW114249   3.139   1.204   6.654
 4450SOL    HW214250   3.023   1.263   6.554
 4451SOL     OW14251   4.525   5.085   4.668
 4451SOL    HW114252   4.501   5.119   4.758
 4451SOL    HW214253   4.617   5.045   4.671
 4452SOL     OW14254   6.282   5.797   4.498
 4452SOL    HW114255   6.303   5.841   4.411
 4452SOL    HW214256   6.337   5.838   4.571
 4453SOL     OW14257   1.421   3.016   1.715
 4453SOL    HW114258   1.407   3.099   1.662
 4453SOL    HW214259   1.356   3.013   1.791
 4454SOL     OW14260   0.900   1.267   0.147
 4454SOL    HW114261   0.927   1.174   0.120
 4454SOL    HW214262   0.864   1.266   0.240
 4455SOL     OW14263   5.433   5.707   5.215
 4455SOL    HW114264   5.336   5.689   5.202
 4455SOL    HW214265   5.467   5.656   5.295
 4456SOL     OW14266   2.329   5.834   3.475
 4456SOL    HW114267   2.375   5.798   3.395
 4456SOL    HW214268   2.393   5.840   3.552
 4457SOL     OW14269   2.062   1.952   4.204
 4457SOL    HW114270   2.048   2.029   4.266
 4457SOL    HW214271   2.077   1.869   4.258
 4458SOL     OW14272   2.412   3.624   1.549
 4458SOL    HW114273   2.337   3.670   1.596
 4458SOL    HW214274   2.379   3.537   1.512
 4459SOL     OW14275   2.509   1.726   4.110
 4459SOL    HW114276   2.605   1.750   4.095
 4459SOL    HW214277   2.474   1.777   4.188
 4460SOL     OW14278   0.697   2.870   6.006
 4460SOL    HW114279   0.735   2.962   6.001
 4460SOL    HW214280   0.708   2.835   6.099
 4461SOL     OW14281   1.786   1.145   0.877
 4461SOL    HW114282   1.784   1.141   0.777
 4461SOL    HW214283   1.736   1.067   0.914
 4462SOL     OW14284   6.474   4.156   2.373
 4462SOL    HW114285   6.568   4.127   2.355
 4462SOL    HW214286   6.421   4.150   2.289
 4463SOL     OW14287   5.233   1.835   1.452
 4463SOL    HW114288   5.311   1.827   1.514
 4463SOL    HW214289   5.150   1.809   1.501
 4464SOL     OW14290   0.696   5.536   0.195
 4464SOL    HW114291   0.721   5.588   0.113
 4464SOL    HW214292   0.710   5.593   0.276
 4465SOL     OW14293   2.714   5.279   0.291
 4465SOL    HW114294   2.766   5.265   0.375
 4465SOL    HW214295   2.777   5.290   0.214
 4466SOL     OW14296   1.621   1.944   2.540
 4466SOL    HW114297   1.651   1.897   2.623
 4466SOL    HW214298   1.677   2.026   2.527
 4467SOL     OW14299   2.420   5.509   3.502
 4467SOL    HW114300   2.320   5.521   3.509
 4467SOL    HW214301   2.456   5.578   3.440
 4468SOL     OW14302   1.103   4.560   1.214
 4468SOL    HW114303   1.106   4.626   1.139
 4468SOL    HW214304   1.091   4.468   1.177
 4469SOL     OW14305   2.953   0.906   1.496
 4469SOL    HW114306   2.882   0.872   1.434
 4469SOL    HW214307   2.943   0.861   1.585
 4470SOL     OW14308   0.409   1.578   2.155
 4470SOL    HW114309   0.401   1.616   2.063
 4470SOL    HW214310   0.376   1.645   2.222
 4471SOL     OW14311   2.157   2.519   6.794
 4471SOL    HW114312   2.075   2.463   6.800
 4471SOL    HW214313   2.234   2.472   6.837
 4472SOL     OW14314   1.237   1.801   0.396
 4472SOL    HW114315   1.161   1.783   0.457
 4472SOL    HW214316   1.317   1.831   0.448
 4473SOL     OW14317   5.888   3.106   3.575
 4473SOL    HW114318   5.826   3.180   3.549
 4473SOL    HW214319   5.838   3.040   3.632
 4474SOL     OW14320   2.807   0.172   2.445
 4474SOL    HW114321   2.716   0.150   2.412
 4474SOL    HW214322   2.861   0.089   2.456
 4475SOL     OW14323   0.943   3.752   1.992
 4475SOL    HW114324   1.039   3.745   2.021
 4475SOL    HW214325   0.932   3.832   1.933
 4476SOL     OW14326   6.109   1.006   4.706
 4476SOL    HW114327   6.203   1.032   4.683
 4476SOL    HW214328   6.106   0.909   4.731
 4477SOL     OW14329   1.964   0.527   5.163
 4477SOL    HW114330   1.894   0.488   5.223
 4477SOL    HW214331   2.031   0.578   5.217
 4478SOL     OW14332   1.127   0.397   1.578
 4478SOL    HW114333   1.213   0.395   1.629
 4478SOL    HW214334   1.076   0.313   1.596
 4479SOL     OW14335   0.961   1.562   1.075
 4479SOL    HW114336   0.933   1.471   1.048
 4479SOL    HW214337   1.032   1.595   1.012
 4480SOL     OW14338   0.742   4.343   5.063
 4480SOL    HW114339   0.668   4.377   5.005
 4480SOL    HW214340   0.750   4.400   5.144
 4481SOL     OW14341   2.570   5.260   5.050
 4481SOL    HW114342   2.537   5.340   5.099
 4481SOL    HW214343   2.507   5.183   5.065
 4482SOL     OW14344   2.497   3.167   5.851
 4482SOL    HW114345   2.510   3.182   5.753
 4482SOL    HW214346   2.423   3.100   5.865
 4483SOL     OW14347   0.514   2.606   2.157
 4483SOL    HW114348   0.610   2.603   2.127
 4483SOL    HW214349   0.458   2.553   2.094
 4484SOL     OW14350   2.385   2.817   0.122
 4484SOL    HW114351   2.300   2.769   0.144
 4484SOL    HW214352   2.375   2.914   0.143
 4485SOL     OW14353   4.620   2.805   5.254
 4485SOL    HW114354   4.564   2.724   5.235
 4485SOL    HW214355   4.566   2.870   5.307
 4486SOL     OW14356   5.957   5.004   5.006
 4486SOL    HW114357   5.918   5.083   5.053
 4486SOL    HW214358   6.057   5.004   5.017
 4487SOL     OW14359   2.435   2.654   6.944
 4487SOL    HW114360   2.416   2.716   7.021
 4487SOL    HW214361   2.424   2.704   6.858
 4488SOL     OW14362   1.144   3.700   4.310
 4488SOL    HW114363   1.180   3.687   4.403
 4488SOL    HW214364   1.178   3.626   4.251
 4489SOL     OW14365   5.127   5.657   5.176
 4489SOL    HW114366   5.120   5.744   5.225
 4489SOL    HW214367   5.060   5.655   5.102
 4490SOL     OW14368   5.048   2.422   1.233
 4490SOL    HW114369   4.976   2.489   1.254
 4490SOL    HW214370   5.120   2.467   1.181
 4491SOL     OW14371   0.714   3.328   3.150
 4491SOL    HW114372   0.732   3.288   3.240
 4491SOL    HW214373   0.640   3.278   3.105
 4492SOL     OW14374   5.893   2.352   2.210
 4492SOL    HW114375   5.819   2.371   2.276
 4492SOL    HW214376   5.918   2.436   2.163
 4493SOL     OW14377   6.012   6.782   4.570
 4493SOL    HW114378   5.944   6.708   4.568
 4493SOL    HW214379   6.050   6.790   4.662
 4494SOL     OW14380   1.080   0.481   6.134
 4494SOL    HW114381   1.073   0.471   6.233
 4494SOL    HW214382   1.013   0.547   6.102
 4495SOL     OW14383   4.140   0.244   2.943
 4495SOL    HW114384   4.081   0.163   2.937
 4495SOL    HW214385   4.227   0.224   2.898
 4496SOL     OW14386   5.072   6.355   0.295
 4496SOL    HW114387   5.021   6.381   0.378
 4496SOL    HW214388   5.165   6.329   0.321
 4497SOL     OW14389   3.911   2.575   6.789
 4497SOL    HW114390   3.831   2.562   6.848
 4497SOL    HW214391   3.990   2.598   6.845
 4498SOL     OW14392   6.844   4.902   6.375
 4498SOL    HW114393   6.882   4.994   6.390
 4498SOL    HW214394   6.811   4.895   6.281
 4499SOL     OW14395   5.869   2.076   3.599
 4499SOL    HW114396   5.773   2.054   3.617
 4499SOL    HW214397   5.874   2.161   3.546
 4500SOL     OW14398   3.758   4.448   6.825
 4500SOL    HW114399   3.827   4.421   6.758
 4500SOL    HW214400   3.801   4.502   6.897
 4501SOL     OW14401   5.594   2.367   2.832
 4501SOL    HW114402   5.542   2.285   2.805
 4501SOL    HW214403   5.644   2.402   2.754
 4502SOL     OW14404   1.103   3.894   6.738
 4502SOL    HW114405   1.081   3.946   6.820
 4502SOL    HW214406   1.178   3.939   6.689
 4503SOL     OW14407   3.064   0.228   2.079
 4503SOL    HW114408   3.064   0.144   2.133
 4503SOL    HW214409   2.979   0.278   2.097
 4504SOL     OW14410   6.411   2.472   4.252
 4504SOL    HW114411   6.404   2.552   4.192
 4504SOL    HW214412   6.502   2.432   4.243
 4505SOL     OW14413   6.884   4.198   2.154
 4505SOL    HW114414   6.953   4.228   2.220
 4505SOL    HW214415   6.892   4.254   2.071
 4506SOL     OW14416   5.374   2.697   3.542
 4506SOL    HW114417   5.384   2.729   3.448
 4506SOL    HW214418   5.281   2.715   3.574
 4507SOL     OW14419   0.048   3.131   4.166
 4507SOL    HW114420   0.097   3.090   4.090
 4507SOL    HW214421   0.057   3.074   4.247
 4508SOL     OW14422   1.591   4.397   0.230
 4508SOL    HW114423   1.570   4.410   0.133
 4508SOL    HW214424   1.670   4.452   0.256
 4509SOL     OW14425   4.585   2.545   3.023
 4509SOL    HW114426   4.661   2.575   3.081
 4509SOL    HW214427   4.573   2.610   2.948
 4510SOL     OW14428   4.836   1.352   4.483
 4510SOL    HW114429   4.763   1.405   4.440
 4510SOL    HW214430   4.921   1.364   4.432
 4511SOL     OW14431   6.385   3.681   0.824
 4511SOL    HW114432   6.469   3.678   0.878
 4511SOL    HW214433   6.387   3.761   0.764
 4512SOL     OW14434   3.508   1.617   5.639
 4512SOL    HW114435   3.541   1.671   5.562
 4512SOL    HW214436   3.415   1.645   5.662
 4513SOL     OW14437   0.686   5.996   6.460
 4513SOL    HW114438   0.695   6.091   6.490
 4513SOL    HW214439   0.597   5.960   6.489
 4514SOL     OW14440   3.425   2.935   0.363
 4514SOL    HW114441   3.379   2.945   0.274
 4514SOL    HW214442   3.474   2.847   0.365
 4515SOL     OW14443   5.434   1.492   4.838
 4515SOL    HW114444   5.372   1.447   4.902
 4515SOL    HW214445   5.525   1.453   4.846
 4516SOL     OW14446   2.272   0.702   5.674
 4516SOL    HW114447   2.249   0.604   5.679
 4516SOL    HW214448   2.203   0.748   5.618
 4517SOL     OW14449   4.330   6.420   6.611
 4517SOL    HW114450   4.257   6.366   6.651
 4517SOL    HW214451   4.312   6.435   6.514
 4518SOL     OW14452   1.071   6.738   1.312
 4518SOL    HW114453   0.974   6.728   1.288
 4518SOL    HW214454   1.114   6.648   1.314
 4519SOL     OW14455   4.956   6.484   6.692
 4519SOL    HW114456   5.007   6.406   6.655
 4519SOL    HW214457   4.864   6.485   6.652
 4520SOL     OW14458   4.320   5.594   5.645
 4520SOL    HW114459   4.401   5.580   5.701
 4520SOL    HW214460   4.247   5.634   5.701
 4521SOL     OW14461   5.082   2.351   4.968
 4521SOL    HW114462   5.098   2.274   5.030
 4521SOL    HW214463   5.107   2.324   4.875
 4522SOL     OW14464   6.059   4.106   3.092
 4522SOL    HW114465   6.082   4.022   3.142
 4522SOL    HW214466   5.961   4.107   3.074
 4523SOL     OW14467   1.752   3.889   6.987
 4523SOL    HW114468   1.845   3.893   6.950
 4523SOL    HW214469   1.714   3.798   6.971
 4524SOL     OW14470   6.755   3.337   2.227
 4524SOL    HW114471   6.715   3.292   2.147
 4524SOL    HW214472   6.849   3.365   2.207
 4525SOL     OW14473   3.198   2.243   5.547
 4525SOL    HW114474   3.224   2.198   5.632
 4525SOL    HW214475   3.140   2.182   5.493
 4526SOL     OW14476   0.172   0.963   6.845
 4526SOL    HW114477   0.267   0.931   6.834
 4526SOL    HW214478   0.156   0.986   6.941
 4527SOL     OW14479   6.594   0.438   2.698
 4527SOL    HW114480   6.510   0.438   2.643
 4527SOL    HW214481   6.571   0.433   2.795
 4528SOL     OW14482   4.268   0.623   6.287
 4528SOL    HW114483   4.293   0.603   6.382
 4528SOL    HW214484   4.233   0.717   6.282
 4529SOL     OW14485   3.166   1.293   5.695
 4529SOL    HW114486   3.220   1.313   5.777
 4529SOL    HW214487   3.098   1.223   5.716
 4530SOL     OW14488   2.634   5.422   4.069
 4530SOL    HW114489   2.702   5.427   4.142
 4530SOL    HW214490   2.669   5.363   3.995
 4531SOL     OW14491   0.781   3.863   6.465
 4531SOL    HW114492   0.849   3.936   6.459
 4531SOL    HW214493   0.795   3.798   6.391
 4532SOL     OW14494   5.018   0.802   3.150
 4532SOL    HW114495   5.116   0.822   3.148
 4532SOL    HW214496   4.996   0.732   3.082
 4533SOL     OW14497   1.740   1.443   3.199
 4533SOL    HW114498   1.655   1.397   3.173
 4533SOL    HW214499   1.718   1.527   3.248
 4534SOL     OW14500   4.341   2.292   5.309
 4534SOL    HW114501   4.277   2.231   5.354
 4534SOL    HW214502   4.403   2.240   5.250
 4535SOL     OW14503   3.533   1.148   1.042
 4535SOL    HW114504   3.543   1.066   1.099
 4535SOL    HW214505   3.604   1.214   1.065
 4536SOL     OW14506   2.705   1.361   5.462
 4536SOL    HW114507   2.688   1.429   5.391
 4536SOL    HW214508   2.714   1.271   5.421
 4537SOL     OW14509   3.937   3.715   2.673
 4537SOL    HW114510   3.852   3.667   2.652
 4537SOL    HW214511   3.926   3.813   2.657
 4538SOL     OW14512   2.206   1.877   2.406
 4538SOL    HW114513   2.229   1.783   2.430
 4538SOL    HW214514   2.133   1.910   2.467
 4539SOL     OW14515   2.114   5.589   4.381
 4539SOL    HW114516   2.201   5.571   4.334
 4539SOL    HW214517   2.115   5.543   4.470
 4540SOL     OW14518   0.978   1.300   1.015
 4540SOL    HW114519   0.982   1.301   0.915
 4540SOL    HW214520   1.005   1.210   1.049
 4541SOL     OW14521   4.769   1.468   6.819
 4541SOL    HW114522   4.776   1.440   6.914
 4541SOL    HW214523   4.674   1.489   6.796
 4542SOL     OW14524   0.219   1.906   1.301
 4542SOL    HW114525   0.254   1.817   1.326
 4542SOL    HW214526   0.163   1.943   1.375
 4543SOL     OW14527   4.267   2.232   0.789
 4543SOL    HW114528   4.234   2.146   0.827
 4543SOL    HW214529   4.344   2.214   0.728
 4544SOL     OW14530   4.101   4.782   0.830
 4544SOL    HW114531   4.055   4.719   0.892
 4544SOL    HW214532   4.033   4.837   0.782
 4545SOL     OW14533   0.370   3.729   5.465
 4545SOL    HW114534   0.304   3.796   5.498
 4545SOL    HW214535   0.394   3.666   5.539
 4546SOL     OW14536   3.149   6.840   5.438
 4546SOL    HW114537   3.204   6.904   5.491
 4546SOL    HW214538   3.107   6.889   5.361
 4547SOL     OW14539   6.341   0.630   0.062
 4547SOL    HW114540   6.304   0.691   7.017
 4547SOL    HW214541   6.305   0.657   0.151
 4548SOL     OW14542   2.444   2.185   3.111
 4548SOL    HW114543   2.353   2.193   3.071
 4548SOL    HW214544   2.467   2.271   3.157
 4549SOL     OW14545   5.198   4.187   2.304
 4549SOL    HW114546   5.166   4.184   2.398
 4549SOL    HW214547   5.227   4.096   2.275
 4550SOL     OW14548   0.927   4.183   3.913
 4550SOL    HW114549   0.998   4.250   3.938
 4550SOL    HW214550   0.845   4.232   3.883
 4551SOL     OW14551   0.930   3.688   5.394
 4551SOL    HW114552   0.941   3.596   5.356
 4551SOL    HW214553   0.898   3.750   5.322
 4552SOL     OW14554   6.023   2.381   1.716
 4552SOL    HW114555   5.937   2.431   1.727
 4552SOL    HW214556   6.006   2.283   1.723
 4553SOL     OW14557   5.201   4.217   6.972
 4553SOL    HW114558   5.284   4.234   6.920
 4553SOL    HW214559   5.175   4.299   7.022
 4554SOL     OW14560   0.553   6.930   1.637
 4554SOL    HW114561   0.648   6.935   1.608
 4554SOL    HW214562   0.527   6.834   1.651
 4555SOL     OW14563   0.979   1.226   6.416
 4555SOL    HW114564   1.028   1.228   6.328
 4555SOL    HW214565   0.998   1.310   6.466
 4556SOL     OW14566   6.184   3.288   5.246
 4556SOL    HW114567   6.158   3.335   5.330
 4556SOL    HW214568   6.160   3.191   5.253
 4557SOL     OW14569   5.706   5.259   4.662
 4557SOL    HW114570   5.716   5.334   4.596
 4557SOL    HW214571   5.797   5.223   4.684
 4558SOL     OW14572   6.623   3.416   5.092
 4558SOL    HW114573   6.671   3.504   5.098
 4558SOL    HW214574   6.666   3.350   5.154
 4559SOL     OW14575   0.693   3.589   2.495
 4559SOL    HW114576   0.725   3.684   2.499
 4559SOL    HW214577   0.689   3.560   2.399
 4560SOL     OW14578   6.226   4.608   2.392
 4560SOL    HW114579   6.182   4.607   2.303
 4560SOL    HW214580   6.157   4.591   2.463
 4561SOL     OW14581   3.408   1.639   4.032
 4561SOL    HW114582   3.384   1.705   4.103
 4561SOL    HW214583   3.424   1.550   4.074
 4562SOL     OW14584   2.175   6.493   0.288
 4562SOL    HW114585   2.119   6.541   0.220
 4562SOL    HW214586   2.208   6.559   0.356
 4563SOL     OW14587   6.975   3.240   1.134
 4563SOL    HW114588   6.935   3.148   1.144
 4563SOL    HW214589   0.044   3.231   1.104
 4564SOL     OW14590   6.897   4.546   2.412
 4564SOL    HW114591   6.879   4.562   2.509
 4564SOL    HW214592   6.989   4.579   2.389
 4565SOL     OW14593   1.426   1.682   4.876
 4565SOL    HW114594   1.494   1.610   4.885
 4565SOL    HW214595   1.375   1.669   4.790
 4566SOL     OW14596   0.533   3.655   1.107
 4566SOL    HW114597   0.492   3.642   1.197
 4566SOL    HW214598   0.494   3.590   1.042
 4567SOL     OW14599   0.093   0.343   0.036
 4567SOL    HW114600   0.098   0.349   6.961
 4567SOL    HW214601   0.008   0.296   0.061
 4568SOL     OW14602   1.041   4.628   4.903
 4568SOL    HW114603   0.997   4.582   4.826
 4568SOL    HW214604   0.981   4.700   4.938
 4569SOL     OW14605   3.031   0.807   2.586
 4569SOL    HW114606   2.948   0.796   2.532
 4569SOL    HW214607   3.083   0.722   2.587
 4570SOL     OW14608   6.178   6.594   2.164
 4570SOL    HW114609   6.084   6.622   2.147
 4570SOL    HW214610   6.181   6.530   2.240
 4571SOL     OW14611   4.634   3.088   6.936
 4571SOL    HW114612   4.565   3.024   6.969
 4571SOL    HW214613   4.593   3.149   6.868
 4572SOL     OW14614   2.297   1.953   6.637
 4572SOL    HW114615   2.328   1.863   6.668
 4572SOL    HW214616   2.216   1.942   6.579
 4573SOL     OW14617   0.812   0.077   0.518
 4573SOL    HW114618   0.794   0.040   0.609
 4573SOL    HW214619   0.836   0.003   0.455
 4574SOL     OW14620   6.140   4.302   6.668
 4574SOL    HW114621   6.117   4.283   6.764
 4574SOL    HW214622   6.057   4.301   6.613
 4575SOL     OW14623   5.986   0.734   4.703
 4575SOL    HW114624   5.906   0.734   4.643
 4575SOL    HW214625   5.957   0.710   4.796
 4576SOL     OW14626   2.589   4.720   5.464
 4576SOL    HW114627   2.647   4.639   5.459
 4576SOL    HW214628   2.582   4.761   5.373
 4577SOL     OW14629   1.403   2.414   2.964
 4577SOL    HW114630   1.307   2.437   2.979
 4577SOL    HW214631   1.454   2.497   2.940
 4578SOL     OW14632   0.819   1.008   3.775
 4578SOL    HW114633   0.823   1.059   3.860
 4578SOL    HW214634   0.896   1.033   3.717
 4579SOL     OW14635   5.043   1.151   1.422
 4579SOL    HW114636   4.965   1.101   1.384
 4579SOL    HW214637   5.128   1.117   1.382
 4580SOL     OW14638   5.461   4.250   0.776
 4580SOL    HW114639   5.368   4.238   0.810
 4580SOL    HW214640   5.458   4.273   0.679
 4581SOL     OW14641   2.929   6.371   2.379
 4581SOL    HW114642   2.963   6.383   2.286
 4581SOL    HW214643   2.989   6.419   2.443
 4582SOL     OW14644   4.547   0.832   3.119
 4582SOL    HW114645   4.541   0.734   3.140
 4582SOL    HW214646   4.455   0.871   3.118
 4583SOL     OW14647   2.073   1.105   6.520
 4583SOL    HW114648   2.113   1.024   6.564
 4583SOL    HW214649   1.977   1.087   6.499
 4584SOL     OW14650   1.845   6.305   6.085
 4584SOL    HW114651   1.757   6.266   6.056
 4584SOL    HW214652   1.919   6.244   6.055
 4585SOL     OW14653   1.780   3.892   3.491
 4585SOL    HW114654   1.728   3.969   3.453
 4585SOL    HW214655   1.718   3.816   3.510
 4586SOL     OW14656   5.273   3.946   0.822
 4586SOL    HW114657   5.244   3.855   0.851
 4586SOL    HW214658   5.373   3.948   0.814
 4587SOL     OW14659   3.587   3.154   4.501
 4587SOL    HW114660   3.580   3.057   4.476
 4587SOL    HW214661   3.624   3.206   4.425
 4588SOL     OW14662   3.229   3.361   5.668
 4588SOL    HW114663   3.329   3.354   5.672
 4588SOL    HW214664   3.197   3.417   5.744
 4589SOL     OW14665   5.629   6.272   1.750
 4589SOL    HW114666   5.558   6.225   1.803
 4589SOL    HW214667   5.606   6.269   1.653
 4590SOL     OW14668   3.432   6.546   1.928
 4590SOL    HW114669   3.396   6.482   1.859
 4590SOL    HW214670   3.475   6.624   1.882
 4591SOL     OW14671   1.818   0.848   4.694
 4591SOL    HW114672   1.847   0.941   4.670
 4591SOL    HW214673   1.886   0.807   4.753
 4592SOL     OW14674   2.515   2.040   3.815
 4592SOL    HW114675   2.515   2.046   3.915
 4592SOL    HW214676   2.467   2.118   3.777
 4593SOL     OW14677   6.584   5.650   2.734
 4593SOL    HW114678   6.666   5.624   2.682
 4593SOL    HW214679   6.612   5.693   2.820
 4594SOL     OW14680   3.225   0.180   3.136
 4594SOL    HW114681   3.291   0.117   3.096
 4594SOL    HW214682   3.272   0.245   3.195
 4595SOL     OW14683   4.781   2.648   5.744
 4595SOL    HW114684   4.717   2.711   5.701
 4595SOL    HW214685   4.751   2.627   5.837
 4596SOL     OW14686   6.943   0.726   2.132
 4596SOL    HW114687   0.005   0.709   2.087
 4596SOL    HW214688   6.905   0.640   2.166
 4597SOL     OW14689   3.019   5.500   6.857
 4597SOL    HW114690   2.944   5.560   6.830
 4597SOL    HW214691   3.068   5.470   6.775
 4598SOL     OW14692   2.138   5.721   1.008
 4598SOL    HW114693   2.208   5.735   0.937
 4598SOL    HW214694   2.048   5.712   0.965
 4599SOL     OW14695   1.783   3.665   2.296
 4599SOL    HW114696   1.762   3.732   2.225
 4599SOL    HW214697   1.836   3.710   2.369
 4600SOL     OW14698   0.173   7.015   5.916
 4600SOL    HW114699   0.166   7.015   5.816
 4600SOL    HW214700   0.152   6.923   5.951
 4601SOL     OW14701   0.462   1.523   5.222
 4601SOL    HW114702   0.419   1.440   5.260
 4601SOL    HW214703   0.537   1.551   5.281
 4602SOL     OW14704   3.033   6.888   6.308
 4602SOL    HW114705   3.006   6.796   6.281
 4602SOL    HW214706   3.127   6.887   6.342
 4603SOL     OW14707   3.724   6.103   0.977
 4603SOL    HW114708   3.727   6.044   1.057
 4603SOL    HW214709   3.635   6.093   0.931
 4604SOL     OW14710   4.909   6.613   6.023
 4604SOL    HW114711   4.998   6.650   6.051
 4604SOL    HW214712   4.872   6.557   6.097
 4605SOL     OW14713   2.437   0.233   1.920
 4605SOL    HW114714   2.355   0.289   1.929
 4605SOL    HW214715   2.455   0.215   1.824
 4606SOL     OW14716   6.812   0.189   2.425
 4606SOL    HW114717   6.836   0.222   2.517
 4606SOL    HW214718   6.895   0.162   2.377
 4607SOL     OW14719   2.115   3.703   3.062
 4607SOL    HW114720   2.134   3.788   3.109
 4607SOL    HW214721   2.044   3.718   2.993
 4608SOL     OW14722   0.412   3.623   3.660
 4608SOL    HW114723   0.427   3.657   3.568
 4608SOL    HW214724   0.479   3.551   3.680
 4609SOL     OW14725   5.244   5.199   6.899
 4609SOL    HW114726   5.188   5.238   6.972
 4609SOL    HW214727   5.194   5.126   6.853
 4610SOL     OW14728   4.747   2.240   6.594
 4610SOL    HW114729   4.650   2.258   6.578
 4610SOL    HW214730   4.778   2.166   6.535
 4611SOL     OW14731   0.206   0.805   5.614
 4611SOL    HW114732   0.291   0.837   5.572
 4611SOL    HW214733   0.228   0.738   5.684
 4612SOL     OW14734   2.391   6.585   1.634
 4612SOL    HW114735   2.329   6.603   1.710
 4612SOL    HW214736   2.405   6.669   1.582
 4613SOL     OW14737   1.467   5.716   2.491
 4613SOL    HW114738   1.441   5.738   2.585
 4613SOL    HW214739   1.566   5.726   2.481
 4614SOL     OW14740   6.174   3.200   3.778
 4614SOL    HW114741   6.145   3.225   3.871
 4614SOL    HW214742   6.160   3.277   3.717
 4615SOL     OW14743   1.382   0.744   1.692
 4615SOL    HW114744   1.422   0.689   1.618
 4615SOL    HW214745   1.400   0.699   1.779
 4616SOL     OW14746   5.999   2.484   4.304
 4616SOL    HW114747   6.063   2.429   4.358
 4616SOL    HW214748   6.031   2.579   4.300
 4617SOL     OW14749   1.551   2.154   2.223
 4617SOL    HW114750   1.519   2.210   2.299
 4617SOL    HW214751   1.577   2.063   2.257
 4618SOL     OW14752   2.722   3.501   5.554
 4618SOL    HW114753   2.817   3.472   5.563
 4618SOL    HW214754   2.712   3.560   5.475
 4619SOL     OW14755   3.196   6.630   3.689
 4619SOL    HW114756   3.113   6.676   3.657
 4619SOL    HW214757   3.203   6.639   3.789
 4620SOL     OW14758   0.436   5.276   1.362
 4620SOL    HW114759   0.499   5.354   1.367
 4620SOL    HW214760   0.485   5.196   1.328
 4621SOL     OW14761   5.201   0.402   2.142
 4621SOL    HW114762   5.227   0.499   2.142
 4621SOL    HW214763   5.106   0.393   2.114
 4622SOL     OW14764   4.473   4.712   1.168
 4622SOL    HW114765   4.505   4.804   1.144
 4622SOL    HW214766   4.398   4.720   1.234
 4623SOL     OW14767   4.055   5.732   0.802
 4623SOL    HW114768   4.013   5.658   0.854
 4623SOL    HW214769   4.004   5.747   0.717
 4624SOL     OW14770   3.297   1.277   3.211
 4624SOL    HW114771   3.257   1.272   3.120
 4624SOL    HW214772   3.227   1.253   3.279
 4625SOL     OW14773   2.468   6.061   1.687
 4625SOL    HW114774   2.439   6.156   1.676
 4625SOL    HW214775   2.476   6.018   1.597
 4626SOL     OW14776   4.045   3.876   1.518
 4626SOL    HW114777   4.021   3.804   1.583
 4626SOL    HW214778   4.088   3.835   1.437
 4627SOL     OW14779   0.414   6.170   5.163
 4627SOL    HW114780   0.366   6.211   5.240
 4627SOL    HW214781   0.392   6.220   5.079
 4628SOL     OW14782   4.965   4.573   3.512
 4628SOL    HW114783   4.998   4.657   3.470
 4628SOL    HW214784   4.900   4.596   3.585
 4629SOL     OW14785   2.922   5.233   6.516
 4629SOL    HW114786   2.862   5.281   6.453
 4629SOL    HW214787   3.017   5.239   6.483
 4630SOL     OW14788   2.012   5.533   2.561
 4630SOL    HW114789   2.050   5.466   2.624
 4630SOL    HW214790   2.029   5.625   2.596
 4631SOL     OW14791   0.950   0.009   3.783
 4631SOL    HW114792   0.947   6.948   3.833
 4631SOL    HW214793   0.858   0.035   3.756
 4632SOL     OW14794   2.404   5.604   2.881
 4632SOL    HW114795   2.502   5.624   2.884
 4632SOL    HW214796   2.357   5.658   2.950
 4633SOL     OW14797   5.067   1.359   4.355
 4633SOL    HW114798   5.100   1.397   4.269
 4633SOL    HW214799   5.145   1.329   4.410
 4634SOL     OW14800   2.921   3.799   4.928
 4634SOL    HW114801   2.872   3.807   5.015
 4634SOL    HW214802   2.965   3.709   4.922
 4635SOL     OW14803   4.187   4.395   1.356
 4635SOL    HW114804   4.184   4.494   1.349
 4635SOL    HW214805   4.282   4.363   1.346
 4636SOL     OW14806   2.009   5.076   0.981
 4636SOL    HW114807   1.915   5.090   0.952
 4636SOL    HW214808   2.011   5.024   1.067
 4637SOL     OW14809   0.977   6.496   0.104
 4637SOL    HW114810   1.004   6.566   0.038
 4637SOL    HW214811   0.979   6.407   0.061
 4638SOL     OW14812   3.664   5.314   6.926
 4638SOL    HW114813   3.578   5.316   6.876
 4638SOL    HW214814   3.702   5.221   6.925
 4639SOL     OW14815   2.740   2.647   6.504
 4639SOL    HW114816   2.720   2.602   6.590
 4639SOL    HW214817   2.684   2.607   6.431
 4640SOL     OW14818   5.973   2.805   4.372
 4640SOL    HW114819   6.071   2.798   4.353
 4640SOL    HW214820   5.946   2.901   4.371
 4641SOL     OW14821   2.057   6.945   3.601
 4641SOL    HW114822   1.977   6.920   3.547
 4641SOL    HW214823   2.032   7.014   3.669
 4642SOL     OW14824   1.641   0.785   3.336
 4642SOL    HW114825   1.708   0.711   3.338
 4642SOL    HW214826   1.683   0.867   3.297
 4643SOL     OW14827   6.315   2.111   0.522
 4643SOL    HW114828   6.315   2.203   0.560
 4643SOL    HW214829   6.323   2.044   0.596
 4644SOL     OW14830   6.512   0.824   5.965
 4644SOL    HW114831   6.482   0.908   5.922
 4644SOL    HW214832   6.612   0.818   5.963
 4645SOL     OW14833   1.318   0.842   4.313
 4645SOL    HW114834   1.248   0.871   4.378
 4645SOL    HW214835   1.389   0.912   4.308
 4646SOL     OW14836   2.555   5.161   4.445
 4646SOL    HW114837   2.533   5.066   4.464
 4646SOL    HW214838   2.483   5.201   4.388
 4647SOL     OW14839   1.232   0.473   3.098
 4647SOL    HW114840   1.203   0.397   3.039
 4647SOL    HW214841   1.230   0.558   3.047
 4648SOL     OW14842   2.580   0.753   4.140
 4648SOL    HW114843   2.638   0.755   4.058
 4648SOL    HW214844   2.612   0.821   4.206
 4649SOL     OW14845   5.558   1.044   1.235
 4649SOL    HW114846   5.543   0.946   1.228
 4649SOL    HW214847   5.651   1.066   1.204
 4650SOL     OW14848   4.318   5.957   1.562
 4650SOL    HW114849   4.372   5.873   1.557
 4650SOL    HW214850   4.371   6.033   1.525
 4651SOL     OW14851   6.056   3.799   6.737
 4651SOL    HW114852   5.988   3.763   6.673
 4651SOL    HW214853   6.020   3.882   6.780
 4652SOL     OW14854   6.369   6.278   4.684
 4652SOL    HW114855   6.384   6.363   4.633
 4652SOL    HW214856   6.396   6.290   4.779
 4653SOL     OW14857   5.083   5.142   0.431
 4653SOL    HW114858   5.068   5.060   0.486
 4653SOL    HW214859   5.145   5.122   0.356
 4654SOL     OW14860   6.787   6.745   5.726
 4654SOL    HW114861   6.829   6.662   5.763
 4654SOL    HW214862   6.690   6.746   5.750
 4655SOL     OW14863   4.822   3.770   2.004
 4655SOL    HW114864   4.805   3.730   1.914
 4655SOL    HW214865   4.865   3.702   2.063
 4656SOL     OW14866   1.037   0.645   1.710
 4656SOL    HW114867   1.101   0.577   1.674
 4656SOL    HW214868   1.019   0.714   1.641
 4657SOL     OW14869   5.838   5.952   1.884
 4657SOL    HW114870   5.844   6.049   1.860
 4657SOL    HW214871   5.930   5.917   1.903
 4658SOL     OW14872   2.677   2.767   5.514
 4658SOL    HW114873   2.640   2.739   5.602
 4658SOL    HW214874   2.776   2.758   5.515
 4659SOL     OW14875   3.256   4.443   1.261
 4659SOL    HW114876   3.231   4.427   1.356
 4659SOL    HW214877   3.351   4.416   1.246
 4660SOL     OW14878   1.540   0.114   3.902
 4660SOL    HW114879   1.448   0.090   3.871
 4660SOL    HW214880   1.534   0.184   3.973
 4661SOL     OW14881   2.808   4.644   5.857
 4661SOL    HW114882   2.761   4.730   5.874
 4661SOL    HW214883   2.837   4.639   5.762
 4662SOL     OW14884   2.817   0.355   4.812
 4662SOL    HW114885   2.834   0.320   4.720
 4662SOL    HW214886   2.796   0.279   4.874
 4663SOL     OW14887   0.516   6.845   0.241
 4663SOL    HW114888   0.564   6.818   0.324
 4663SOL    HW214889   0.420   6.819   0.248
 4664SOL     OW14890   0.007   0.540   0.640
 4664SOL    HW114891   7.008   0.606   0.711
 4664SOL    HW214892   0.019   0.450   0.680
 4665SOL     OW14893   2.339   0.491   6.344
 4665SOL    HW114894   2.380   0.555   6.279
 4665SOL    HW214895   2.338   0.399   6.304
 4666SOL     OW14896   2.137   2.336   6.464
 4666SOL    HW114897   2.219   2.373   6.421
 4666SOL    HW214898   2.160   2.299   6.554
 4667SOL     OW14899   6.712   4.051   2.323
 4667SOL    HW114900   6.776   4.106   2.270
 4667SOL    HW214901   6.751   4.030   2.413
 4668SOL     OW14902   4.139   1.951   4.753
 4668SOL    HW114903   4.235   1.929   4.733
 4668SOL    HW214904   4.096   1.874   4.800
 4669SOL     OW14905   5.690   0.048   0.021
 4669SOL    HW114906   5.683   0.043   6.947
 4669SOL    HW214907   5.637   6.999   0.062
 4670SOL     OW14908   1.160   3.443   0.176
 4670SOL    HW114909   1.221   3.392   0.115
 4670SOL    HW214910   1.073   3.394   0.185
 4671SOL     OW14911   0.682   3.252   0.355
 4671SOL    HW114912   0.636   3.243   0.267
 4671SOL    HW214913   0.769   3.203   0.353
 4672SOL     OW14914   4.390   4.419   5.948
 4672SOL    HW114915   4.322   4.437   6.019
 4672SOL    HW214916   4.466   4.367   5.988
 4673SOL     OW14917   5.391   0.258   6.992
 4673SOL    HW114918   5.430   0.178   6.945
 4673SOL    HW214919   5.345   0.316   6.925
 4674SOL     OW14920   6.109   1.712   0.145
 4674SOL    HW114921   6.131   1.733   0.240
 4674SOL    HW214922   6.172   1.760   0.084
 4675SOL     OW14923   3.926   0.059   6.736
 4675SOL    HW114924   3.874   0.078   6.820
 4675SOL    HW214925   3.936   6.985   6.726
 4676SOL     OW14926   0.244   6.759   4.386
 4676SOL    HW114927   0.182   6.703   4.441
 4676SOL    HW214928   0.282   6.703   4.312
 4677SOL     OW14929   3.082   0.668   0.063
 4677SOL    HW114930   3.101   0.571   0.050
 4677SOL    HW214931   3.015   0.680   0.136
 4678SOL     OW14932   1.903   5.353   2.396
 4678SOL    HW114933   1.944   5.424   2.452
 4678SOL    HW214934   1.966   5.327   2.323
 4679SOL     OW14935   3.418   1.484   6.326
 4679SOL    HW114936   3.471   1.415   6.277
 4679SOL    HW214937   3.338   1.509   6.273
 4680SOL     OW14938   2.240   6.329   1.227
 4680SOL    HW114939   2.282   6.406   1.180
 4680SOL    HW214940   2.224   6.352   1.323
 4681SOL     OW14941   6.247   6.546   4.164
 4681SOL    HW114942   6.315   6.507   4.226
 4681SOL    HW214943   6.188   6.608   4.215
 4682SOL     OW14944   4.277   5.507   6.977
 4682SOL    HW114945   4.298   5.561   0.033
 4682SOL    HW214946   4.334   5.425   6.976
 4683SOL     OW14947   5.381   4.744   2.476
 4683SOL    HW114948   5.288   4.725   2.506
 4683SOL    HW214949   5.381   4.765   2.379
 4684SOL     OW14950   0.639   2.265   4.820
 4684SOL    HW114951   0.704   2.314   4.878
 4684SOL    HW214952   0.547   2.272   4.858
 4685SOL     OW14953   6.680   5.455   4.308
 4685SOL    HW114954   6.779   5.458   4.319
 4685SOL    HW214955   6.641   5.392   4.376
 4686SOL     OW14956   5.172   5.669   0.463
 4686SOL    HW114957   5.209   5.733   0.396
 4686SOL    HW214958   5.140   5.587   0.416
 4687SOL     OW14959   6.710   4.012   4.978
 4687SOL    HW114960   6.766   3.962   5.044
 4687SOL    HW214961   6.755   4.098   4.954
 4688SOL     OW14962   0.315   3.127   6.529
 4688SOL    HW114963   0.412   3.138   6.507
 4688SOL    HW214964   0.262   3.125   6.444
 4689SOL     OW14965   5.900   0.308   6.043
 4689SOL    HW114966   5.845   0.286   6.124
 4689SOL    HW214967   5.873   0.248   5.968
 4690SOL     OW14968   1.109   0.853   6.662
 4690SOL    HW114969   1.040   0.910   6.707
 4690SOL    HW214970   1.168   0.910   6.605
 4691SOL     OW14971   2.677   3.679   1.660
 4691SOL    HW114972   2.599   3.618   1.641
 4691SOL    HW214973   2.642   3.771   1.680
 4692SOL     OW14974   6.786   5.174   2.877
 4692SOL    HW114975   6.841   5.134   2.950
 4692SOL    HW214976   6.741   5.101   2.826
 4693SOL     OW14977   0.313   1.077   4.897
 4693SOL    HW114978   0.370   1.081   4.979
 4693SOL    HW214979   0.221   1.047   4.922
 4694SOL     OW14980   3.174   0.550   0.329
 4694SOL    HW114981   3.119   0.475   0.367
 4694SOL    HW214982   3.215   0.520   0.243
 4695SOL     OW14983   3.594   3.299   1.808
 4695SOL    HW114984   3.535   3.224   1.837
 4695SOL    HW214985   3.688   3.266   1.800
 4696SOL     OW14986   1.069   4.398   5.952
 4696SOL    HW114987   0.990   4.453   5.925
 4696SOL    HW214988   1.135   4.395   5.877
 4697SOL     OW14989   1.822   3.778   0.867
 4697SOL    HW114990   1.825   3.735   0.957
 4697SOL    HW214991   1.885   3.732   0.805
 4698SOL     OW14992   4.790   4.593   2.678
 4698SOL    HW114993   4.819   4.673   2.626
 4698SOL    HW214994   4.694   4.573   2.657
 4699SOL     OW14995   0.807   0.036   2.373
 4699SOL    HW114996   0.798   0.132   2.346
 4699SOL    HW214997   0.717   7.022   2.388
 4700SOL     OW14998   5.554   1.744   1.723
 4700SOL    HW114999   5.469   1.794   1.739
 4700SOL    HW215000   5.586   1.705   1.809
 4701SOL     OW15001   1.106   1.460   0.221
 4701SOL    HW115002   1.045   1.397   0.173
 4701SOL    HW215003   1.193   1.466   0.172
 4702SOL     OW15004   4.346   4.250   6.398
 4702SOL    HW115005   4.335   4.267   6.496
 4702SOL    HW215006   4.313   4.329   6.347
 4703SOL     OW15007   0.563   2.028   2.499
 4703SOL    HW115008   0.521   2.044   2.410
 4703SOL    HW215009   0.566   2.113   2.551
 4704SOL     OW15010   0.029   6.085   0.885
 4704SOL    HW115011   0.127   6.091   0.866
 4704SOL    HW215012   0.012   6.009   0.947
 4705SOL     OW15013   3.231   3.034   3.088
 4705SOL    HW115014   3.169   2.972   3.040
 4705SOL    HW215015   3.318   2.989   3.105
 4706SOL     OW15016   4.007   5.740   6.538
 4706SOL    HW115017   3.970   5.806   6.472
 4706SOL    HW215018   3.946   5.661   6.543
 4707SOL     OW15019   2.324   5.744   0.803
 4707SOL    HW115020   2.299   5.802   0.726
 4707SOL    HW215021   2.410   5.777   0.844
 4708SOL     OW15022   2.519   2.666   0.573
 4708SOL    HW115023   2.551   2.664   0.667
 4708SOL    HW215024   2.447   2.734   0.563
 4709SOL     OW15025   3.985   5.154   5.041
 4709SOL    HW115026   3.940   5.243   5.046
 4709SOL    HW215027   3.929   5.091   4.988
 4710SOL     OW15028   4.383   0.937   6.505
 4710SOL    HW115029   4.350   0.989   6.426
 4710SOL    HW215030   4.457   0.877   6.476
 4711SOL     OW15031   4.362   0.177   2.798
 4711SOL    HW115032   4.460   0.196   2.806
 4711SOL    HW215033   4.349   0.088   2.754
 4712SOL     OW15034   2.221   4.656   1.004
 4712SOL    HW115035   2.257   4.660   1.097
 4712SOL    HW215036   2.251   4.736   0.953
 4713SOL     OW15037   3.259   4.638   1.066
 4713SOL    HW115038   3.267   4.569   1.138
 4713SOL    HW215039   3.167   4.677   1.066
 4714SOL     OW15040   1.903   2.386   0.034
 4714SOL    HW115041   1.948   2.319   7.000
 4714SOL    HW215042   1.855   2.338   0.107
 4715SOL     OW15043   6.544   3.674   2.495
 4715SOL    HW115044   6.502   3.765   2.491
 4715SOL    HW215045   6.639   3.680   2.465
 4716SOL     OW15046   3.761   5.075   6.516
 4716SOL    HW115047   3.761   5.014   6.595
 4716SOL    HW215048   3.770   5.021   6.432
 4717SOL     OW15049   1.283   5.911   2.161
 4717SOL    HW115050   1.199   5.857   2.168
 4717SOL    HW215051   1.354   5.856   2.118
 4718SOL     OW15052   5.213   1.785   6.499
 4718SOL    HW115053   5.223   1.840   6.582
 4718SOL    HW215054   5.124   1.740   6.499
 4719SOL     OW15055   4.931   3.343   2.778
 4719SOL    HW115056   4.907   3.439   2.796
 4719SOL    HW215057   4.914   3.323   2.681
 4720SOL     OW15058   2.377   6.565   5.460
 4720SOL    HW115059   2.411   6.501   5.391
 4720SOL    HW215060   2.295   6.611   5.425
 4721SOL     OW15061   0.721   2.261   2.035
 4721SOL    HW115062   0.637   2.265   1.980
 4721SOL    HW215063   0.737   2.167   2.064
 4722SOL     OW15064   1.902   6.054   6.811
 4722SOL    HW115065   1.918   5.968   6.762
 4722SOL    HW215066   1.821   6.045   6.869
 4723SOL     OW15067   2.101   5.858   5.987
 4723SOL    HW115068   2.171   5.791   5.963
 4723SOL    HW215069   2.014   5.810   6.002
 4724SOL     OW15070   4.169   6.464   2.652
 4724SOL    HW115071   4.207   6.556   2.645
 4724SOL    HW215072   4.129   6.452   2.743
 4725SOL     OW15073   4.889   6.128   3.200
 4725SOL    HW115074   4.846   6.218   3.193
 4725SOL    HW215075   4.819   6.057   3.195
 4726SOL     OW15076   0.997   3.539   6.439
 4726SOL    HW115077   1.069   3.602   6.469
 4726SOL    HW215078   0.927   3.589   6.389
 4727SOL     OW15079   0.216   5.718   6.784
 4727SOL    HW115080   0.128   5.675   6.803
 4727SOL    HW215081   0.204   5.790   6.715
 4728SOL     OW15082   5.273   1.459   0.742
 4728SOL    HW115083   5.324   1.443   0.826
 4728SOL    HW215084   5.175   1.466   0.762
 4729SOL     OW15085   1.977   1.106   2.877
 4729SOL    HW115086   1.994   1.201   2.853
 4729SOL    HW215087   1.880   1.093   2.898
 4730SOL     OW15088   2.014   6.130   5.904
 4730SOL    HW115089   2.030   6.043   5.952
 4730SOL    HW215090   2.049   6.123   5.810
 4731SOL     OW15091   5.529   0.215   5.516
 4731SOL    HW115092   5.460   0.228   5.445
 4731SOL    HW215093   5.582   0.299   5.528
 4732SOL     OW15094   0.056   3.213   6.943
 4732SOL    HW115095   0.012   3.125   6.959
 4732SOL    HW215096   7.018   3.274   6.895
 4733SOL     OW15097   1.171   4.037   3.665
 4733SOL    HW115098   1.119   4.023   3.749
 4733SOL    HW215099   1.183   3.949   3.619
 4734SOL     OW15100   5.433   2.637   6.915
 4734SOL    HW115101   5.463   2.717   6.969
 4734SOL    HW215102   5.423   2.664   6.819
 4735SOL     OW15103   1.290   4.898   3.465
 4735SOL    HW115104   1.388   4.881   3.475
 4735SOL    HW215105   1.261   4.873   3.372
 4736SOL     OW15106   0.365   1.086   6.520
 4736SOL    HW115107   0.439   1.053   6.579
 4736SOL    HW215108   0.365   1.186   6.520
 4737SOL     OW15109   2.400   4.960   2.414
 4737SOL    HW115110   2.436   5.052   2.427
 4737SOL    HW215111   2.312   4.965   2.367
 4738SOL     OW15112   0.412   6.251   1.913
 4738SOL    HW115113   0.402   6.350   1.900
 4738SOL    HW215114   0.332   6.204   1.876
 4739SOL     OW15115   4.572   0.268   2.106
 4739SOL    HW115116   4.511   0.189   2.115
 4739SOL    HW215117   4.608   0.294   2.195
 4740SOL     OW15118   0.541   1.350   2.268
 4740SOL    HW115119   0.627   1.372   2.314
 4740SOL    HW215120   0.484   1.433   2.263
 4741SOL     OW15121   3.782   2.265   1.117
 4741SOL    HW115122   3.871   2.300   1.147
 4741SOL    HW215123   3.776   2.167   1.139
 4742SOL     OW15124   1.894   6.713   0.128
 4742SOL    HW115125   1.830   6.781   0.163
 4742SOL    HW215126   1.952   6.755   0.058
 4743SOL     OW15127   2.034   3.622   2.571
 4743SOL    HW115128   1.934   3.610   2.572
 4743SOL    HW215129   2.073   3.561   2.502
 4744SOL     OW15130   2.044   5.392   0.686
 4744SOL    HW115131   2.130   5.357   0.722
 4744SOL    HW215132   2.052   5.405   0.587
 4745SOL     OW15133   2.722   3.629   0.207
 4745SOL    HW115134   2.714   3.688   0.126
 4745SOL    HW215135   2.810   3.581   0.203
 4746SOL     OW15136   4.325   5.611   3.889
 4746SOL    HW115137   4.364   5.703   3.890
 4746SOL    HW215138   4.374   5.554   3.956
 4747SOL     OW15139   1.208   3.138   0.420
 4747SOL    HW115140   1.255   3.221   0.451
 4747SOL    HW215141   1.259   3.057   0.450
 4748SOL     OW15142   1.689   6.449   1.968
 4748SOL    HW115143   1.688   6.548   1.954
 4748SOL    HW215144   1.595   6.416   1.974
 4749SOL     OW15145   2.332   6.999   0.068
 4749SOL    HW115146   2.261   7.009   7.025
 4749SOL    HW215147   2.404   6.938   0.032
 4750SOL     OW15148   6.406   4.002   5.358
 4750SOL    HW115149   6.409   4.102   5.350
 4750SOL    HW215150   6.421   3.961   5.267
 4751SOL     OW15151   5.285   2.135   2.872
 4751SOL    HW115152   5.250   2.222   2.839
 4751SOL    HW215153   5.213   2.085   2.920
 4752SOL     OW15154   4.365   1.176   0.391
 4752SOL    HW115155   4.308   1.218   0.462
 4752SOL    HW215156   4.461   1.184   0.417
 4753SOL     OW15157   1.287   6.788   4.428
 4753SOL    HW115158   1.345   6.865   4.456
 4753SOL    HW215159   1.301   6.769   4.331
 4754SOL     OW15160   4.637   3.838   5.868
 4754SOL    HW115161   4.551   3.837   5.918
 4754SOL    HW215162   4.681   3.748   5.877
 4755SOL     OW15163   2.004   0.804   1.051
 4755SOL    HW115164   2.063   0.829   0.974
 4755SOL    HW215165   1.998   0.881   1.115
 4756SOL     OW15166   6.883   4.186   6.673
 4756SOL    HW115167   6.936   4.231   6.745
 4756SOL    HW215168   6.944   4.144   6.607
 4757SOL     OW15169   1.380   2.623   1.738
 4757SOL    HW115170   1.412   2.529   1.729
 4757SOL    HW215171   1.291   2.624   1.784
 4758SOL     OW15172   1.384   0.084   3.468
 4758SOL    HW115173   1.411   0.180   3.476
 4758SOL    HW215174   1.287   0.074   3.494
 4759SOL     OW15175   0.571   5.282   0.314
 4759SOL    HW115176   0.477   5.273   0.347
 4759SOL    HW215177   0.581   5.366   0.262
 4760SOL     OW15178   1.183   6.881   0.872
 4760SOL    HW115179   1.187   6.963   0.815
 4760SOL    HW215180   1.255   6.818   0.844
 4761SOL     OW15181   7.005   0.269   0.778
 4761SOL    HW115182   6.969   0.176   0.782
 4761SOL    HW215183   7.012   0.306   0.871
 4762SOL     OW15184   1.442   5.767   1.990
 4762SOL    HW115185   1.492   5.851   1.969
 4762SOL    HW215186   1.380   5.745   1.915
 4763SOL     OW15187   4.702   5.948   2.292
 4763SOL    HW115188   4.638   5.986   2.358
 4763SOL    HW215189   4.760   6.022   2.256
 4764SOL     OW15190   4.900   3.630   5.320
 4764SOL    HW115191   4.847   3.673   5.394
 4764SOL    HW215192   4.843   3.623   5.238
 4765SOL     OW15193   3.256   0.965   5.611
 4765SOL    HW115194   3.274   0.927   5.520
 4765SOL    HW215195   3.328   1.029   5.636
 4766SOL     OW15196   6.100   0.108   4.034
 4766SOL    HW115197   6.099   0.015   3.998
 4766SOL    HW215198   6.016   0.124   4.087
 4767SOL     OW15199   2.536   5.524   4.931
 4767SOL    HW115200   2.553   5.513   5.029
 4767SOL    HW215201   2.587   5.454   4.881
 4768SOL     OW15202   4.468   3.419   6.388
 4768SOL    HW115203   4.532   3.373   6.449
 4768SOL    HW215204   4.424   3.352   6.328
 4769SOL     OW15205   2.824   6.071   0.568
 4769SOL    HW115206   2.907   6.114   0.605
 4769SOL    HW215207   2.759   6.142   0.542
 4770SOL     OW15208   6.656   1.986   5.566
 4770SOL    HW115209   6.681   2.082   5.578
 4770SOL    HW215210   6.738   1.932   5.548
 4771SOL     OW15211   2.336   6.899   5.027
 4771SOL    HW115212   2.237   6.886   5.032
 4771SOL    HW215213   2.370   6.930   5.116
 4772SOL     OW15214   2.938   4.757   0.759
 4772SOL    HW115215   2.899   4.774   0.850
 4772SOL    HW215216   3.035   4.782   0.759
 4773SOL     OW15217   1.645   5.764   4.424
 4773SOL    HW115218   1.666   5.666   4.427
 4773SOL    HW215219   1.623   5.790   4.329
 4774SOL     OW15220   1.601   4.340   0.608
 4774SOL    HW115221   1.612   4.308   0.514
 4774SOL    HW215222   1.635   4.270   0.671
 4775SOL     OW15223   5.131   6.738   4.604
 4775SOL    HW115224   5.109   6.657   4.658
 4775SOL    HW215225   5.210   6.720   4.546
 4776SOL     OW15226   1.279   0.791   5.218
 4776SOL    HW115227   1.339   0.774   5.296
 4776SOL    HW215228   1.287   0.886   5.189
 4777SOL     OW15229   1.333   5.502   0.342
 4777SOL    HW115230   1.373   5.414   0.367
 4777SOL    HW215231   1.308   5.500   0.245
 4778SOL     OW15232   0.761   2.546   4.916
 4778SOL    HW115233   0.751   2.628   4.859
 4778SOL    HW215234   0.834   2.489   4.879
 4779SOL     OW15235   6.080   0.429   4.156
 4779SOL    HW115236   6.066   0.472   4.245
 4779SOL    HW215237   6.003   0.451   4.096
 4780SOL     OW15238   5.689   2.783   5.667
 4780SOL    HW115239   5.781   2.763   5.701
 4780SOL    HW215240   5.692   2.790   5.567
 4781SOL     OW15241   2.646   5.842   2.232
 4781SOL    HW115242   2.575   5.905   2.263
 4781SOL    HW215243   2.718   5.836   2.300
 4782SOL     OW15244   5.945   5.455   5.646
 4782SOL    HW115245   6.029   5.433   5.695
 4782SOL    HW215246   5.873   5.476   5.712
 4783SOL     OW15247   5.789   3.944   0.302
 4783SOL    HW115248   5.763   3.889   0.223
 4783SOL    HW215249   5.886   3.967   0.296
 4784SOL     OW15250   6.192   2.077   6.360
 4784SOL    HW115251   6.121   2.108   6.297
 4784SOL    HW215252   6.152   2.062   6.451
 4785SOL     OW15253   0.173   6.652   3.133
 4785SOL    HW115254   0.174   6.563   3.088
 4785SOL    HW215255   0.265   6.676   3.163
 4786SOL     OW15256   2.789   0.376   0.968
 4786SOL    HW115257   2.875   0.413   1.003
 4786SOL    HW215258   2.714   0.402   1.028
 4787SOL     OW15259   4.502   2.324   4.158
 4787SOL    HW115260   4.410   2.298   4.128
 4787SOL    HW215261   4.526   2.413   4.118
 4788SOL     OW15262   6.062   5.608   6.811
 4788SOL    HW115263   5.978   5.604   6.865
 4788SOL    HW215264   6.042   5.592   6.715
 4789SOL     OW15265   5.108   1.989   2.022
 4789SOL    HW115266   5.020   2.002   2.068
 4789SOL    HW215267   5.106   2.033   1.933
 4790SOL     OW15268   5.289   1.488   5.577
 4790SOL    HW115269   5.246   1.471   5.488
 4790SOL    HW215270   5.276   1.584   5.602
 4791SOL     OW15271   0.469   2.773   0.687
 4791SOL    HW115272   0.513   2.738   0.769
 4791SOL    HW215273   0.520   2.852   0.653
 4792SOL     OW15274   1.601   4.838   4.932
 4792SOL    HW115275   1.544   4.774   4.880
 4792SOL    HW215276   1.545   4.911   4.969
 4793SOL     OW15277   1.524   4.147   6.046
 4793SOL    HW115278   1.542   4.245   6.033
 4793SOL    HW215279   1.482   4.110   5.963
 4794SOL     OW15280   4.636   0.278   4.014
 4794SOL    HW115281   4.685   0.271   3.927
 4794SOL    HW215282   4.697   0.255   4.089
 4795SOL     OW15283   0.316   1.770   4.162
 4795SOL    HW115284   0.369   1.691   4.132
 4795SOL    HW215285   0.231   1.739   4.204
 4796SOL     OW15286   3.773   1.165   5.993
 4796SOL    HW115287   3.803   1.224   5.918
 4796SOL    HW215288   3.766   1.071   5.960
 4797SOL     OW15289   0.173   5.710   4.620
 4797SOL    HW115290   0.209   5.789   4.569
 4797SOL    HW215291   0.232   5.692   4.699
 4798SOL     OW15292   5.587   4.894   6.277
 4798SOL    HW115293   5.661   4.954   6.306
 4798SOL    HW215294   5.622   4.829   6.209
 4799SOL     OW15295   3.026   2.244   6.931
 4799SOL    HW115296   3.115   2.281   6.957
 4799SOL    HW215297   3.034   2.196   6.843
 4800SOL     OW15298   1.958   4.269   0.438
 4800SOL    HW115299   2.055   4.292   0.445
 4800SOL    HW215300   1.904   4.353   0.435
 4801SOL     OW15301   4.521   2.557   1.084
 4801SOL    HW115302   4.508   2.634   1.147
 4801SOL    HW215303   4.434   2.535   1.041
 4802SOL     OW15304   7.022   6.286   1.997
 4802SOL    HW115305   0.059   6.359   2.023
 4802SOL    HW215306   0.036   6.232   1.923
 4803SOL     OW15307   5.737   4.946   0.414
 4803SOL    HW115308   5.746   5.030   0.468
 4803SOL    HW215309   5.641   4.917   0.415
 4804SOL     OW15310   5.090   1.747   0.128
 4804SOL    HW115311   5.045   1.664   0.161
 4804SOL    HW215312   5.106   1.740   0.030
 4805SOL     OW15313   6.725   1.756   1.947
 4805SOL    HW115314   6.790   1.713   2.010
 4805SOL    HW215315   6.632   1.724   1.968
 4806SOL     OW15316   1.318   3.657   3.094
 4806SOL    HW115317   1.235   3.668   3.039
 4806SOL    HW215318   1.384   3.728   3.070
 4807SOL     OW15319   1.416   3.601   6.459
 4807SOL    HW115320   1.413   3.562   6.551
 4807SOL    HW215321   1.325   3.634   6.434
 4808SOL     OW15322   4.188   5.959   0.920
 4808SOL    HW115323   4.113   6.015   0.954
 4808SOL    HW215324   4.154   5.868   0.896
 4809SOL     OW15325   3.615   4.874   1.584
 4809SOL    HW115326   3.562   4.949   1.624
 4809SOL    HW215327   3.553   4.802   1.553
 4810SOL     OW15328   0.657   3.931   4.547
 4810SOL    HW115329   0.698   3.853   4.593
 4810SOL    HW215330   0.578   3.964   4.599
 4811SOL     OW15331   3.951   3.698   4.592
 4811SOL    HW115332   4.003   3.620   4.559
 4811SOL    HW215333   3.992   3.782   4.558
 4812SOL     OW15334   0.819   6.979   1.583
 4812SOL    HW115335   0.839   6.939   1.673
 4812SOL    HW215336   0.842   0.051   1.584
 4813SOL     OW15337   5.663   1.848   6.977
 4813SOL    HW115338   5.684   1.822   6.883
 4813SOL    HW215339   5.734   1.813   0.013
 4814SOL     OW15340   0.152   3.543   2.423
 4814SOL    HW115341   0.163   3.514   2.518
 4814SOL    HW215342   0.089   3.620   2.419
 4815SOL     OW15343   5.042   5.352   3.054
 4815SOL    HW115344   5.087   5.419   2.994
 4815SOL    HW215345   4.952   5.386   3.080
 4816SOL     OW15346   1.938   0.073   1.609
 4816SOL    HW115347   1.946   0.144   1.679
 4816SOL    HW215348   1.946   7.008   1.650
 4817SOL     OW15349   3.952   0.517   1.750
 4817SOL    HW115350   3.898   0.587   1.795
 4817SOL    HW215351   4.049   0.542   1.754
 4818SOL     OW15352   2.303   0.349   4.091
 4818SOL    HW115353   2.240   0.274   4.070
 4818SOL    HW215354   2.381   0.345   4.028
 4819SOL     OW15355   3.171   2.426   1.141
 4819SOL    HW115356   3.202   2.510   1.098
 4819SOL    HW215357   3.179   2.350   1.077
 4820SOL     OW15358   0.217   3.209   1.052
 4820SOL    HW115359   0.287   3.153   1.096
 4820SOL    HW215360   0.220   3.195   0.953
 4821SOL     OW15361   6.278   5.630   1.775
 4821SOL    HW115362   6.332   5.574   1.838
 4821SOL    HW215363   6.185   5.595   1.772
 4822SOL     OW15364   1.393   3.524   3.519
 4822SOL    HW115365   1.469   3.585   3.498
 4822SOL    HW215366   1.336   3.511   3.438
 4823SOL     OW15367   0.553   0.223   3.924
 4823SOL    HW115368   0.547   0.155   3.997
 4823SOL    HW215369   0.541   0.179   3.836
 4824SOL     OW15370   5.107   1.995   3.261
 4824SOL    HW115371   5.038   1.938   3.307
 4824SOL    HW215372   5.161   2.044   3.329
 4825SOL     OW15373   1.472   3.018   4.473
 4825SOL    HW115374   1.507   3.085   4.539
 4825SOL    HW215375   1.541   2.947   4.459
 4826SOL     OW15376   0.297   6.536   0.844
 4826SOL    HW115377   0.387   6.555   0.804
 4826SOL    HW215378   0.226   6.562   0.779
 4827SOL     OW15379   5.160   0.866   1.652
 4827SOL    HW115380   5.101   0.797   1.696
 4827SOL    HW215381   5.119   0.956   1.665
 4828SOL     OW15382   5.777   4.183   1.618
 4828SOL    HW115383   5.758   4.131   1.701
 4828SOL    HW215384   5.855   4.244   1.633
 4829SOL     OW15385   3.700   6.931   5.976
 4829SOL    HW115386   3.688   6.834   5.957
 4829SOL    HW215387   3.618   6.967   6.020
 4830SOL     OW15388   4.875   5.987   3.777
 4830SOL    HW115389   4.907   5.892   3.781
 4830SOL    HW215390   4.952   6.049   3.789
 4831SOL     OW15391   6.813   4.854   5.360
 4831SOL    HW115392   6.738   4.914   5.387
 4831SOL    HW215393   6.815   4.846   5.260
 4832SOL     OW15394   3.202   2.380   6.269
 4832SOL    HW115395   3.163   2.466   6.237
 4832SOL    HW215396   3.136   2.306   6.255
 4833SOL     OW15397   4.410   1.656   2.899
 4833SOL    HW115398   4.450   1.615   2.817
 4833SOL    HW215399   4.431   1.600   2.979
 4834SOL     OW15400   3.796   0.241   0.832
 4834SOL    HW115401   3.709   0.206   0.866
 4834SOL    HW215402   3.842   0.171   0.778
 4835SOL     OW15403   1.686   6.949   6.179
 4835SOL    HW115404   1.629   6.870   6.198
 4835SOL    HW215405   1.732   6.979   6.264
 4836SOL     OW15406   4.177   1.736   3.551
 4836SOL    HW115407   4.138   1.645   3.558
 4836SOL    HW215408   4.228   1.756   3.634
 4837SOL     OW15409   3.236   2.873   1.871
 4837SOL    HW115410   3.312   2.813   1.847
 4837SOL    HW215411   3.164   2.864   1.802
 4838SOL     OW15412   3.048   4.884   2.364
 4838SOL    HW115413   2.984   4.843   2.299
 4838SOL    HW215414   3.015   4.869   2.457
 4839SOL     OW15415   0.559   4.440   5.558
 4839SOL    HW115416   0.592   4.380   5.632
 4839SOL    HW215417   0.537   4.529   5.596
 4840SOL     OW15418   6.248   6.447   6.654
 4840SOL    HW115419   6.329   6.441   6.595
 4840SOL    HW215420   6.278   6.456   6.750
 4841SOL     OW15421   3.509   5.623   1.743
 4841SOL    HW115422   3.605   5.644   1.726
 4841SOL    HW215423   3.491   5.628   1.841
 4842SOL     OW15424   3.340   5.272   1.550
 4842SOL    HW115425   3.285   5.353   1.571
 4842SOL    HW215426   3.292   5.215   1.484
 4843SOL     OW15427   6.143   3.953   0.564
 4843SOL    HW115428   6.232   3.913   0.586
 4843SOL    HW215429   6.121   4.024   0.631
 4844SOL     OW15430   6.982   3.838   6.882
 4844SOL    HW115431   6.889   3.829   6.846
 4844SOL    HW215432   6.980   3.885   6.970
 4845SOL     OW15433   6.976   5.174   4.423
 4845SOL    HW115434   6.985   5.265   4.382
 4845SOL    HW215435   0.028   5.117   4.394
 4846SOL     OW15436   0.254   3.643   0.865
 4846SOL    HW115437   0.311   3.713   0.822
 4846SOL    HW215438   0.265   3.557   0.817
 4847SOL     OW15439   3.975   1.713   5.622
 4847SOL    HW115440   3.899   1.706   5.686
 4847SOL    HW215441   4.001   1.808   5.610
 4848SOL     OW15442   1.649   1.507   4.828
 4848SOL    HW115443   1.670   1.426   4.883
 4848SOL    HW215444   1.708   1.508   4.747
 4849SOL     OW15445   1.789   6.632   0.406
 4849SOL    HW115446   1.730   6.704   0.371
 4849SOL    HW215447   1.778   6.550   0.351
 4850SOL     OW15448   3.774   0.711   1.852
 4850SOL    HW115449   3.677   0.722   1.829
 4850SOL    HW215450   3.783   0.641   1.923
 4851SOL     OW15451   3.783   6.194   5.111
 4851SOL    HW115452   3.692   6.232   5.094
 4851SOL    HW215453   3.780   6.133   5.189
 4852SOL     OW15454   1.400   0.465   6.506
 4852SOL    HW115455   1.457   0.523   6.565
 4852SOL    HW215456   1.424   0.482   6.410
 4853SOL     OW15457   3.553   1.710   2.312
 4853SOL    HW115458   3.499   1.669   2.238
 4853SOL    HW215459   3.565   1.644   2.386
 4854SOL     OW15460   4.623   6.140   2.525
 4854SOL    HW115461   4.602   6.215   2.588
 4854SOL    HW215462   4.550   6.132   2.457
 4855SOL     OW15463   5.752   2.127   2.094
 4855SOL    HW115464   5.809   2.057   2.053
 4855SOL    HW215465   5.804   2.212   2.102
 4856SOL     OW15466   2.308   4.592   3.003
 4856SOL    HW115467   2.217   4.606   2.963
 4856SOL    HW215468   2.370   4.559   2.932
 4857SOL     OW15469   1.340   1.800   6.026
 4857SOL    HW115470   1.348   1.785   5.927
 4857SOL    HW215471   1.349   1.898   6.046
 4858SOL     OW15472   1.981   0.926   4.095
 4858SOL    HW115473   2.065   0.908   4.044
 4858SOL    HW215474   2.003   0.953   4.188
 4859SOL     OW15475   1.346   6.054   4.069
 4859SOL    HW115476   1.359   6.049   3.970
 4859SOL    HW215477   1.398   6.132   4.106
 4860SOL     OW15478   3.870   5.287   2.217
 4860SOL    HW115479   3.949   5.267   2.274
 4860SOL    HW215480   3.790   5.305   2.275
 4861SOL     OW15481   5.503   5.149   0.395
 4861SOL    HW115482   5.451   5.191   0.320
 4861SOL    HW215483   5.473   5.055   0.407
 4862SOL     OW15484   1.859   5.218   4.064
 4862SOL    HW115485   1.881   5.221   4.162
 4862SOL    HW215486   1.910   5.289   4.016
 4863SOL     OW15487   5.815   4.679   0.246
 4863SOL    HW115488   5.800   4.740   0.324
 4863SOL    HW215489   5.735   4.682   0.186
 4864SOL     OW15490   3.521   1.404   4.140
 4864SOL    HW115491   3.602   1.421   4.085
 4864SOL    HW215492   3.488   1.311   4.122
 4865SOL     OW15493   1.980   0.187   4.896
 4865SOL    HW115494   2.075   0.215   4.880
 4865SOL    HW215495   1.920   0.267   4.892
 4866SOL     OW15496   6.663   3.947   1.239
 4866SOL    HW115497   6.648   4.016   1.310
 4866SOL    HW215498   6.643   3.986   1.149
 4867SOL     OW15499   4.700   5.677   2.169
 4867SOL    HW115500   4.723   5.599   2.227
 4867SOL    HW215501   4.684   5.758   2.225
 4868SOL     OW15502   6.667   4.799   2.490
 4868SOL    HW115503   6.604   4.771   2.417
 4868SOL    HW215504   6.681   4.724   2.553
 4869SOL     OW15505   1.550   1.667   0.742
 4869SOL    HW115506   1.564   1.766   0.740
 4869SOL    HW215507   1.538   1.636   0.836
 4870SOL     OW15508   0.317   6.264   1.503
 4870SOL    HW115509   0.218   6.260   1.485
 4870SOL    HW215510   0.344   6.186   1.559
 4871SOL     OW15511   0.964   0.688   4.450
 4871SOL    HW115512   1.036   0.619   4.443
 4871SOL    HW215513   0.972   0.754   4.375
 4872SOL     OW15514   6.525   6.871   3.330
 4872SOL    HW115515   6.489   6.860   3.237
 4872SOL    HW215516   6.452   6.900   3.391
 4873SOL     OW15517   6.674   5.977   4.523
 4873SOL    HW115518   6.745   6.033   4.483
 4873SOL    HW215519   6.696   5.880   4.510
 4874SOL     OW15520   5.206   3.145   2.363
 4874SOL    HW115521   5.303   3.140   2.389
 4874SOL    HW215522   5.158   3.204   2.427
 4875SOL     OW15523   5.473   0.158   6.727
 4875SOL    HW115524   5.530   0.076   6.729
 4875SOL    HW215525   5.401   0.148   6.659
 4876SOL     OW15526   6.977   1.324   3.808
 4876SOL    HW115527   0.006   1.266   3.869
 4876SOL    HW215528   0.003   1.407   3.786
 4877SOL     OW15529   0.588   2.260   5.500
 4877SOL    HW115530   0.546   2.251   5.410
 4877SOL    HW215531   0.522   2.298   5.564
 4878SOL     OW15532   0.041   1.576   2.315
 4878SOL    HW115533   0.130   1.588   2.358
 4878SOL    HW215534   7.011   1.514   2.370
 4879SOL     OW15535   4.475   2.361   1.848
 4879SOL    HW115536   4.383   2.395   1.829
 4879SOL    HW215537   4.491   2.277   1.796
 4880SOL     OW15538   6.457   3.486   0.184
 4880SOL    HW115539   6.415   3.431   0.112
 4880SOL    HW215540   6.430   3.450   0.273
 4881SOL     OW15541   1.702   1.708   6.909
 4881SOL    HW115542   1.687   1.679   6.814
 4881SOL    HW215543   1.614   1.721   6.954
 4882SOL     OW15544   3.929   1.989   5.620
 4882SOL    HW115545   3.890   1.974   5.711
 4882SOL    HW215546   3.875   2.058   5.571
 4883SOL     OW15547   5.150   4.180   0.913
 4883SOL    HW115548   5.180   4.094   0.872
 4883SOL    HW215549   5.085   4.225   0.852
 4884SOL     OW15550   3.807   5.117   1.049
 4884SOL    HW115551   3.763   5.029   1.034
 4884SOL    HW215552   3.896   5.102   1.093
 4885SOL     OW15553   2.237   4.483   1.802
 4885SOL    HW115554   2.176   4.550   1.759
 4885SOL    HW215555   2.299   4.530   1.864
 4886SOL     OW15556   3.484   0.033   1.616
 4886SOL    HW115557   3.423   0.054   1.692
 4886SOL    HW215558   3.441   0.062   1.530
 4887SOL     OW15559   0.610   6.193   1.504
 4887SOL    HW115560   0.559   6.124   1.554
 4887SOL    HW215561   0.607   6.280   1.554
 4888SOL     OW15562   2.777   0.316   2.708
 4888SOL    HW115563   2.821   0.272   2.629
 4888SOL    HW215564   2.832   0.300   2.790
 4889SOL     OW15565   6.390   1.770   5.281
 4889SOL    HW115566   6.424   1.726   5.198
 4889SOL    HW215567   6.358   1.701   5.345
 4890SOL     OW15568   0.751   1.545   5.663
 4890SOL    HW115569   0.774   1.566   5.758
 4890SOL    HW215570   0.806   1.603   5.602
 4891SOL     OW15571   3.150   5.010   0.192
 4891SOL    HW115572   3.120   5.036   0.100
 4891SOL    HW215573   3.182   4.916   0.191
 4892SOL     OW15574   5.462   5.731   2.250
 4892SOL    HW115575   5.494   5.794   2.179
 4892SOL    HW215576   5.448   5.780   2.335
 4893SOL     OW15577   6.230   3.559   2.113
 4893SOL    HW115578   6.235   3.591   2.018
 4893SOL    HW215579   6.321   3.530   2.144
 4894SOL     OW15580   3.695   0.181   2.725
 4894SOL    HW115581   3.735   0.264   2.763
 4894SOL    HW215582   3.627   0.206   2.656
 4895SOL     OW15583   0.686   4.712   3.458
 4895SOL    HW115584   0.611   4.738   3.398
 4895SOL    HW215585   0.684   4.768   3.541
 4896SOL     OW15586   2.430   4.803   2.663
 4896SOL    HW115587   2.515   4.769   2.702
 4896SOL    HW215588   2.444   4.827   2.567
 4897SOL     OW15589   1.938   5.765   5.556
 4897SOL    HW115590   1.923   5.675   5.515
 4897SOL    HW215591   1.860   5.824   5.535
 4898SOL     OW15592   4.315   1.199   4.846
 4898SOL    HW115593   4.405   1.167   4.815
 4898SOL    HW215594   4.243   1.149   4.796
 4899SOL     OW15595   6.169   4.932   3.126
 4899SOL    HW115596   6.149   4.905   3.032
 4899SOL    HW215597   6.210   4.854   3.175
 4900SOL     OW15598   4.018   5.902   5.955
 4900SOL    HW115599   3.952   5.854   5.897
 4900SOL    HW215600   4.006   5.872   6.050
 4901SOL     OW15601   2.183   1.354   5.985
 4901SOL    HW115602   2.266   1.397   5.949
 4901SOL    HW215603   2.106   1.372   5.924
 4902SOL     OW15604   1.047   1.097   5.455
 4902SOL    HW115605   1.133   1.119   5.501
 4902SOL    HW215606   1.033   0.998   5.456
 4903SOL     OW15607   4.415   5.625   0.920
 4903SOL    HW115608   4.454   5.698   0.865
 4903SOL    HW215609   4.354   5.569   0.863
 4904SOL     OW15610   2.077   0.847   5.544
 4904SOL    HW115611   2.083   0.885   5.452
 4904SOL    HW215612   1.995   0.882   5.590
 4905SOL     OW15613   1.945   0.879   3.686
 4905SOL    HW115614   1.875   0.809   3.701
 4905SOL    HW215615   1.904   0.970   3.696
 4906SOL     OW15616   4.842   3.136   5.816
 4906SOL    HW115617   4.906   3.209   5.840
 4906SOL    HW215618   4.749   3.165   5.840
 4907SOL     OW15619   4.863   1.042   1.204
 4907SOL    HW115620   4.839   1.099   1.125
 4907SOL    HW215621   4.958   1.013   1.198
 4908SOL     OW15622   5.012   6.690   0.262
 4908SOL    HW115623   4.961   6.683   0.177
 4908SOL    HW215624   4.961   6.645   0.336
 4909SOL     OW15625   6.755   5.001   3.670
 4909SOL    HW115626   6.692   5.078   3.665
 4909SOL    HW215627   6.750   4.959   3.761
 4910SOL     OW15628   5.690   0.804   4.282
 4910SOL    HW115629   5.774   0.831   4.234
 4910SOL    HW215630   5.611   0.846   4.237
 4911SOL     OW15631   1.716   3.524   3.217
 4911SOL    HW115632   1.709   3.524   3.118
 4911SOL    HW215633   1.784   3.457   3.247
 4912SOL     OW15634   5.231   1.779   5.653
 4912SOL    HW115635   5.233   1.854   5.719
 4912SOL    HW215636   5.137   1.747   5.642
 4913SOL     OW15637   4.770   3.772   5.539
 4913SOL    HW115638   4.788   3.825   5.622
 4913SOL    HW215639   4.717   3.691   5.562
 4914SOL     OW15640   4.258   6.966   5.411
 4914SOL    HW115641   4.338   7.025   5.402
 4914SOL    HW215642   4.249   6.908   5.331
 4915SOL     OW15643   2.912   6.460   5.466
 4915SOL    HW115644   2.991   6.400   5.473
 4915SOL    HW215645   2.828   6.405   5.470
 4916SOL     OW15646   0.539   0.960   3.971
 4916SOL    HW115647   0.545   0.867   3.932
 4916SOL    HW215648   0.468   0.962   4.041
 4917SOL     OW15649   3.914   5.801   0.575
 4917SOL    HW115650   3.992   5.864   0.572
 4917SOL    HW215651   3.876   5.791   0.483
 4918SOL     OW15652   5.914   6.333   2.129
 4918SOL    HW115653   5.845   6.377   2.187
 4918SOL    HW215654   5.999   6.321   2.181
 4919SOL     OW15655   3.748   2.964   2.613
 4919SOL    HW115656   3.790   2.973   2.523
 4919SOL    HW215657   3.648   2.971   2.604
 4920SOL     OW15658   5.597   0.124   5.123
 4920SOL    HW115659   5.685   0.076   5.121
 4920SOL    HW215660   5.555   0.120   5.032
 4921SOL     OW15661   1.825   4.989   0.266
 4921SOL    HW115662   1.793   4.933   0.190
 4921SOL    HW215663   1.788   4.955   0.352
 4922SOL     OW15664   3.254   2.123   4.826
 4922SOL    HW115665   3.222   2.166   4.910
 4922SOL    HW215666   3.327   2.179   4.786
 4923SOL     OW15667   2.344   1.547   2.998
 4923SOL    HW115668   2.296   1.634   3.009
 4923SOL    HW215669   2.392   1.546   2.910
 4924SOL     OW15670   2.455   1.922   5.017
 4924SOL    HW115671   2.388   1.862   5.062
 4924SOL    HW215672   2.410   1.969   4.941
 4925SOL     OW15673   4.786   0.249   3.068
 4925SOL    HW115674   4.793   0.270   3.166
 4925SOL    HW215675   4.784   0.150   3.055
 4926SOL     OW15676   5.565   2.104   1.601
 4926SOL    HW115677   5.504   2.068   1.530
 4926SOL    HW215678   5.652   2.055   1.598
 4927SOL     OW15679   2.898   3.101   5.757
 4927SOL    HW115680   2.979   3.065   5.802
 4927SOL    HW215681   2.837   3.143   5.825
 4928SOL     OW15682   1.413   0.984   6.936
 4928SOL    HW115683   1.344   0.962   7.005
 4928SOL    HW215684   1.501   1.000   6.980
 4929SOL     OW15685   6.748   0.303   3.591
 4929SOL    HW115686   6.706   0.271   3.676
 4929SOL    HW215687   6.773   0.224   3.534
 4930SOL     OW15688   5.958   0.405   2.843
 4930SOL    HW115689   5.944   0.461   2.925
 4930SOL    HW215690   5.884   0.421   2.778
 4931SOL     OW15691   6.526   6.350   1.536
 4931SOL    HW115692   6.602   6.337   1.472
 4931SOL    HW215693   6.504   6.447   1.542
 4932SOL     OW15694   4.032   3.911   3.414
 4932SOL    HW115695   4.116   3.963   3.401
 4932SOL    HW215696   3.954   3.966   3.385
 4933SOL     OW15697   2.242   6.653   2.958
 4933SOL    HW115698   2.302   6.590   2.909
 4933SOL    HW215699   2.163   6.676   2.901
 4934SOL     OW15700   3.906   6.401   2.420
 4934SOL    HW115701   3.985   6.355   2.379
 4934SOL    HW215702   3.860   6.457   2.351
 4935SOL     OW15703   1.724   1.992   6.800
 4935SOL    HW115704   1.651   1.991   6.732
 4935SOL    HW215705   1.724   1.906   6.850
 4936SOL     OW15706   2.553   4.797   0.962
 4936SOL    HW115707   2.567   4.775   0.866
 4936SOL    HW215708   2.597   4.728   1.019
 4937SOL     OW15709   5.224   3.039   5.171
 4937SOL    HW115710   5.140   3.051   5.223
 4937SOL    HW215711   5.214   3.082   5.081
 4938SOL     OW15712   3.199   5.421   5.928
 4938SOL    HW115713   3.167   5.442   6.021
 4938SOL    HW215714   3.280   5.363   5.933
 4939SOL     OW15715   5.445   2.340   4.883
 4939SOL    HW115716   5.503   2.262   4.907
 4939SOL    HW215717   5.472   2.420   4.937
 4940SOL     OW15718   0.924   0.882   5.042
 4940SOL    HW115719   0.910   0.980   5.036
 4940SOL    HW215720   0.868   0.844   5.116
 4941SOL     OW15721   3.591   1.752   6.181
 4941SOL    HW115722   3.505   1.799   6.195
 4941SOL    HW215723   3.575   1.667   6.130
 4942SOL     OW15724   4.869   3.372   5.439
 4942SOL    HW115725   4.793   3.389   5.502
 4942SOL    HW215726   4.883   3.452   5.380
 4943SOL     OW15727   3.948   2.339   0.122
 4943SOL    HW115728   4.011   2.272   0.161
 4943SOL    HW215729   3.991   2.429   0.124
 4944SOL     OW15730   2.215   3.961   3.090
 4944SOL    HW115731   2.165   3.987   3.007
 4944SOL    HW215732   2.301   4.012   3.094
 4945SOL     OW15733   1.062   1.040   3.660
 4945SOL    HW115734   1.064   1.117   3.596
 4945SOL    HW215735   1.153   0.999   3.665
 4946SOL     OW15736   0.919   2.740   1.303
 4946SOL    HW115737   0.961   2.688   1.229
 4946SOL    HW215738   0.864   2.815   1.265
 4947SOL     OW15739   1.226   6.211   0.947
 4947SOL    HW115740   1.281   6.258   0.878
 4947SOL    HW215741   1.182   6.131   0.906
 4948SOL     OW15742   2.801   0.713   2.402
 4948SOL    HW115743   2.808   0.734   2.304
 4948SOL    HW215744   2.806   0.614   2.416
 4949SOL     OW15745   4.512   0.835   5.570
 4949SOL    HW115746   4.565   0.829   5.655
 4949SOL    HW215747   4.424   0.790   5.583
 4950SOL     OW15748   2.785   5.677   3.755
 4950SOL    HW115749   2.756   5.611   3.685
 4950SOL    HW215750   2.858   5.734   3.718
 4951SOL     OW15751   4.949   1.588   4.706
 4951SOL    HW115752   4.934   1.551   4.614
 4951SOL    HW215753   5.032   1.643   4.706
 4952SOL     OW15754   0.582   6.599   5.011
 4952SOL    HW115755   0.605   6.623   4.917
 4952SOL    HW215756   0.510   6.659   5.044
 4953SOL     OW15757   2.427   5.681   2.062
 4953SOL    HW115758   2.411   5.707   1.967
 4953SOL    HW215759   2.478   5.753   2.108
 4954SOL     OW15760   4.433   4.591   0.171
 4954SOL    HW115761   4.435   4.536   0.088
 4954SOL    HW215762   4.429   4.688   0.147
 4955SOL     OW15763   1.998   5.625   6.776
 4955SOL    HW115764   2.046   5.670   6.852
 4955SOL    HW215765   2.064   5.573   6.722
 4956SOL     OW15766   4.058   0.529   5.143
 4956SOL    HW115767   3.978   0.579   5.109
 4956SOL    HW215768   4.052   0.434   5.115
 4957SOL     OW15769   0.018   1.433   4.150
 4957SOL    HW115770   0.025   1.525   4.111
 4957SOL    HW215771   0.070   1.430   4.236
 4958SOL     OW15772   0.355   6.528   6.302
 4958SOL    HW115773   0.392   6.583   6.227
 4958SOL    HW215774   0.269   6.486   6.273
 4959SOL     OW15775   0.831   0.729   6.344
 4959SOL    HW115776   0.854   0.709   6.249
 4959SOL    HW215777   0.822   0.827   6.357
 4960SOL     OW15778   3.468   6.633   4.194
 4960SOL    HW115779   3.518   6.714   4.161
 4960SOL    HW215780   3.534   6.564   4.224
 4961SOL     OW15781   5.723   1.415   4.863
 4961SOL    HW115782   5.788   1.488   4.841
 4961SOL    HW215783   5.768   1.326   4.853
 4962SOL     OW15784   5.632   2.867   1.796
 4962SOL    HW115785   5.615   2.933   1.869
 4962SOL    HW215786   5.545   2.826   1.767
 4963SOL     OW15787   6.688   5.925   1.313
 4963SOL    HW115788   6.667   5.882   1.225
 4963SOL    HW215789   6.608   5.922   1.372
 4964SOL     OW15790   3.644   5.888   2.654
 4964SOL    HW115791   3.615   5.980   2.677
 4964SOL    HW215792   3.659   5.880   2.556
 4965SOL     OW15793   0.522   6.758   4.697
 4965SOL    HW115794   0.434   6.804   4.700
 4965SOL    HW215795   0.595   6.825   4.682
 4966SOL     OW15796   2.227   5.893   4.464
 4966SOL    HW115797   2.305   5.866   4.520
 4966SOL    HW215798   2.254   5.896   4.368
 4967SOL     OW15799   4.098   2.970   6.755
 4967SOL    HW115800   4.035   2.901   6.790
 4967SOL    HW215801   4.074   3.060   6.791
 4968SOL     OW15802   5.261   3.357   3.357
 4968SOL    HW115803   5.270   3.405   3.270
 4968SOL    HW215804   5.340   3.297   3.370
 4969SOL     OW15805   1.751   0.845   2.627
 4969SOL    HW115806   1.814   0.792   2.684
 4969SOL    HW215807   1.801   0.914   2.575
 4970SOL     OW15808   1.118   2.269   4.980
 4970SOL    HW115809   1.132   2.245   5.076
 4970SOL    HW215810   1.152   2.361   4.963
 4971SOL     OW15811   6.268   5.932   3.642
 4971SOL    HW115812   6.260   6.014   3.584
 4971SOL    HW215813   6.222   5.949   3.729
 4972SOL     OW15814   2.582   3.238   0.427
 4972SOL    HW115815   2.556   3.266   0.335
 4972SOL    HW215816   2.591   3.319   0.485
 4973SOL     OW15817   6.545   6.480   1.805
 4973SOL    HW115818   6.460   6.478   1.857
 4973SOL    HW215819   6.530   6.443   1.713
 4974SOL     OW15820   6.059   5.247   1.624
 4974SOL    HW115821   6.089   5.170   1.681
 4974SOL    HW215822   6.137   5.279   1.569
 4975SOL     OW15823   6.128   6.216   1.032
 4975SOL    HW115824   6.186   6.288   0.994
 4975SOL    HW215825   6.156   6.128   0.995
 4976SOL     OW15826   3.152   0.641   3.722
 4976SOL    HW115827   3.095   0.561   3.705
 4976SOL    HW215828   3.247   0.613   3.733
 4977SOL     OW15829   5.030   3.650   0.700
 4977SOL    HW115830   5.111   3.675   0.645
 4977SOL    HW215831   5.008   3.554   0.683
 4978SOL     OW15832   6.495   3.926   5.614
 4978SOL    HW115833   6.475   3.935   5.517
 4978SOL    HW215834   6.586   3.963   5.633
 4979SOL     OW15835   6.488   2.543   5.155
 4979SOL    HW115836   6.521   2.528   5.061
 4979SOL    HW215837   6.494   2.640   5.178
 4980SOL     OW15838   4.111   6.540   2.921
 4980SOL    HW115839   4.144   6.451   2.953
 4980SOL    HW215840   4.139   6.611   2.986
 4981SOL     OW15841   4.352   6.317   5.466
 4981SOL    HW115842   4.365   6.414   5.487
 4981SOL    HW215843   4.277   6.307   5.400
 4982SOL     OW15844   2.051   1.901   6.794
 4982SOL    HW115845   2.010   1.863   6.711
 4982SOL    HW215846   2.137   1.947   6.770
 4983SOL     OW15847   5.132   3.346   4.072
 4983SOL    HW115848   5.223   3.312   4.095
 4983SOL    HW215849   5.139   3.436   4.030
 4984SOL     OW15850   5.400   3.689   4.704
 4984SOL    HW115851   5.432   3.611   4.651
 4984SOL    HW215852   5.304   3.676   4.729
 4985SOL     OW15853   6.065   5.725   3.777
 4985SOL    HW115854   6.084   5.693   3.684
 4985SOL    HW215855   6.125   5.678   3.841
 4986SOL     OW15856   6.145   4.467   2.948
 4986SOL    HW115857   6.145   4.425   3.039
 4986SOL    HW215858   6.168   4.398   2.880
 4987SOL     OW15859   0.713   2.500   1.112
 4987SOL    HW115860   0.769   2.423   1.141
 4987SOL    HW215861   0.678   2.482   1.020
 4988SOL     OW15862   6.986   1.703   4.057
 4988SOL    HW115863   6.975   1.733   3.962
 4988SOL    HW215864   6.896   1.684   4.097
 4989SOL     OW15865   5.613   1.515   1.594
 4989SOL    HW115866   5.594   1.605   1.632
 4989SOL    HW215867   5.527   1.463   1.586
 4990SOL     OW15868   0.788   2.554   6.249
 4990SOL    HW115869   0.715   2.580   6.186
 4990SOL    HW215870   0.778   2.606   6.334
 4991SOL     OW15871   0.528   3.297   4.181
 4991SOL    HW115872   0.479   3.210   4.170
 4991SOL    HW215873   0.625   3.283   4.162
 4992SOL     OW15874   4.144   0.346   4.524
 4992SOL    HW115875   4.061   0.332   4.470
 4992SOL    HW215876   4.213   0.390   4.466
 4993SOL     OW15877   2.625   4.690   3.788
 4993SOL    HW115878   2.709   4.675   3.736
 4993SOL    HW215879   2.552   4.632   3.751
 4994SOL     OW15880   1.483   0.046   2.634
 4994SOL    HW115881   1.421   6.993   2.630
 4994SOL    HW215882   1.437   0.123   2.678
 4995SOL     OW15883   6.908   2.830   6.330
 4995SOL    HW115884   6.810   2.847   6.321
 4995SOL    HW215885   6.934   2.749   6.278
 4996SOL     OW15886   0.480   0.960   1.706
 4996SOL    HW115887   0.487   0.861   1.691
 4996SOL    HW215888   0.546   1.007   1.647
 4997SOL     OW15889   0.062   2.481   3.007
 4997SOL    HW115890   0.111   2.500   3.092
 4997SOL    HW215891   0.032   2.385   3.007
 4998SOL     OW15892   2.131   4.544   5.267
 4998SOL    HW115893   2.187   4.574   5.344
 4998SOL    HW215894   2.059   4.611   5.249
 4999SOL     OW15895   4.884   5.788   1.381
 4999SOL    HW115896   4.918   5.805   1.288
 4999SOL    HW215897   4.928   5.707   1.418
 5000SOL     OW15898   0.940   0.481   4.674
 5000SOL    HW115899   0.907   0.572   4.648
 5000SOL    HW215900   0.942   0.422   4.593
 5001SOL     OW15901   2.078   4.056   6.225
 5001SOL    HW115902   2.104   4.051   6.128
 5001SOL    HW215903   1.983   4.087   6.232
 5002SOL     OW15904   1.258   2.566   3.183
 5002SOL    HW115905   1.300   2.656   3.192
 5002SOL    HW215906   1.226   2.554   3.089
 5003SOL     OW15907   0.447   6.695   3.272
 5003SOL    HW115908   0.531   6.687   3.218
 5003SOL    HW215909   0.441   6.787   3.310
 5004SOL     OW15910   2.807   5.546   5.644
 5004SOL    HW115911   2.860   5.564   5.562
 5004SOL    HW215912   2.730   5.611   5.649
 5005SOL     OW15913   3.623   2.026   0.806
 5005SOL    HW115914   3.649   1.982   0.720
 5005SOL    HW215915   3.665   1.977   0.883
 5006SOL     OW15916   5.749   6.871   5.573
 5006SOL    HW115917   5.764   6.939   5.502
 5006SOL    HW215918   5.654   6.877   5.605
 5007SOL     OW15919   2.965   0.250   5.971
 5007SOL    HW115920   3.059   0.274   5.944
 5007SOL    HW215921   2.923   0.329   6.017
 5008SOL     OW15922   5.959   0.841   3.190
 5008SOL    HW115923   6.001   0.816   3.103
 5008SOL    HW215924   6.029   0.883   3.249
 5009SOL     OW15925   1.531   6.014   1.901
 5009SOL    HW115926   1.619   6.007   1.853
 5009SOL    HW215927   1.547   6.051   1.993
 5010SOL     OW15928   3.270   4.047   3.998
 5010SOL    HW115929   3.293   4.080   4.089
 5010SOL    HW215930   3.174   4.018   3.996
 5011SOL     OW15931   2.003   3.305   2.032
 5011SOL    HW115932   1.947   3.317   2.114
 5011SOL    HW215933   2.066   3.382   2.022
 5012SOL     OW15934   6.450   2.855   5.960
 5012SOL    HW115935   6.496   2.938   5.931
 5012SOL    HW215936   6.370   2.838   5.903
 5013SOL     OW15937   4.486   0.627   6.010
 5013SOL    HW115938   4.387   0.613   6.022
 5013SOL    HW215939   4.533   0.604   6.095
 5014SOL     OW15940   6.309   5.998   1.055
 5014SOL    HW115941   6.392   6.044   1.025
 5014SOL    HW215942   6.302   6.003   1.155
 5015SOL     OW15943   4.597   1.634   3.683
 5015SOL    HW115944   4.553   1.551   3.647
 5015SOL    HW215945   4.686   1.610   3.722
 5016SOL     OW15946   2.175   1.344   2.848
 5016SOL    HW115947   2.106   1.371   2.915
 5016SOL    HW215948   2.246   1.291   2.894
 5017SOL     OW15949   2.354   2.460   0.631
 5017SOL    HW115950   2.353   2.370   0.587
 5017SOL    HW215951   2.342   2.532   0.562
 5018SOL     OW15952   0.361   4.074   2.575
 5018SOL    HW115953   0.293   4.087   2.648
 5018SOL    HW215954   0.336   3.995   2.519
 5019SOL     OW15955   2.209   4.091   0.313
 5019SOL    HW115956   2.174   4.092   0.219
 5019SOL    HW215957   2.200   4.182   0.352
 5020SOL     OW15958   6.035   5.711   5.880
 5020SOL    HW115959   6.021   5.765   5.796
 5020SOL    HW215960   6.075   5.768   5.951
 5021SOL     OW15961   1.102   4.469   6.217
 5021SOL    HW115962   1.017   4.436   6.259
 5021SOL    HW215963   1.103   4.447   6.120
 5022SOL     OW15964   2.187   6.686   0.511
 5022SOL    HW115965   2.095   6.684   0.550
 5022SOL    HW215966   2.200   6.771   0.461
 5023SOL     OW15967   6.192   2.485   0.933
 5023SOL    HW115968   6.175   2.583   0.937
 5023SOL    HW215969   6.241   2.456   1.015
 5024SOL     OW15970   6.910   3.852   2.958
 5024SOL    HW115971   6.833   3.853   3.023
 5024SOL    HW215972   6.876   3.832   2.866
 5025SOL     OW15973   4.444   1.754   2.596
 5025SOL    HW115974   4.363   1.793   2.552
 5025SOL    HW215975   4.457   1.798   2.685
 5026SOL     OW15976   6.284   5.807   5.600
 5026SOL    HW115977   6.290   5.727   5.660
 5026SOL    HW215978   6.354   5.873   5.627
 5027SOL     OW15979   0.769   7.018   3.093
 5027SOL    HW115980   0.694   0.052   3.064
 5027SOL    HW215981   0.746   6.923   3.073
 5028SOL     OW15982   0.393   5.848   2.031
 5028SOL    HW115983   0.366   5.782   2.101
 5028SOL    HW215984   0.360   5.818   1.942
 5029SOL     OW15985   7.013   2.445   2.475
 5029SOL    HW115986   0.018   2.495   2.394
 5029SOL    HW215987   6.949   2.502   2.527
 5030SOL     OW15988   0.168   6.926   0.066
 5030SOL    HW115989   0.073   6.940   0.038
 5030SOL    HW215990   0.189   6.828   0.064
 5031SOL     OW15991   5.958   1.019   4.438
 5031SOL    HW115992   6.031   1.006   4.372
 5031SOL    HW215993   5.994   1.007   4.531
 5032SOL     OW15994   1.221   4.916   0.776
 5032SOL    HW115995   1.315   4.935   0.803
 5032SOL    HW215996   1.158   4.948   0.847
 5033SOL     OW15997   2.889   5.327   5.377
 5033SOL    HW115998   2.801   5.284   5.395
 5033SOL    HW215999   2.960   5.257   5.370
 5034SOL     OW16000   6.216   3.071   1.845
 5034SOL    HW116001   6.122   3.073   1.811
 5034SOL    HW216002   6.239   3.160   1.884
 5035SOL     OW16003   5.329   5.008   0.809
 5035SOL    HW116004   5.392   5.080   0.781
 5035SOL    HW216005   5.353   4.923   0.763
 5036SOL     OW16006   1.370   5.939   6.329
 5036SOL    HW116007   1.457   5.891   6.339
 5036SOL    HW216008   1.295   5.873   6.327
 5037SOL     OW16009   4.012   1.896   3.332
 5037SOL    HW116010   4.092   1.880   3.390
 5037SOL    HW216011   3.999   1.819   3.270
 5038SOL     OW16012   1.302   5.941   5.858
 5038SOL    HW116013   1.282   6.036   5.835
 5038SOL    HW216014   1.219   5.895   5.888
 5039SOL     OW16015   2.276   3.170   5.324
 5039SOL    HW116016   2.238   3.108   5.393
 5039SOL    HW216017   2.342   3.120   5.268
 5040SOL     OW16018   2.553   3.280   6.751
 5040SOL    HW116019   2.629   3.293   6.687
 5040SOL    HW216020   2.554   3.353   6.819
 5041SOL     OW16021   0.756   4.362   1.447
 5041SOL    HW116022   0.724   4.282   1.498
 5041SOL    HW216023   0.839   4.340   1.397
 5042SOL     OW16024   6.681   2.892   6.853
 5042SOL    HW116025   6.691   2.836   6.771
 5042SOL    HW216026   6.645   2.982   6.827
 5043SOL     OW16027   3.934   1.776   4.916
 5043SOL    HW116028   3.973   1.684   4.911
 5043SOL    HW216029   3.857   1.777   4.980
 5044SOL     OW16030   6.221   6.181   3.547
 5044SOL    HW116031   6.261   6.263   3.590
 5044SOL    HW216032   6.124   6.176   3.570
 5045SOL     OW16033   6.017   3.052   0.402
 5045SOL    HW116034   6.070   2.968   0.415
 5045SOL    HW216035   6.067   3.129   0.440
 5046SOL     OW16036   3.875   2.896   5.055
 5046SOL    HW116037   3.941   2.824   5.034
 5046SOL    HW216038   3.819   2.869   5.132
 5047SOL     OW16039   5.531   0.979   2.578
 5047SOL    HW116040   5.513   1.074   2.602
 5047SOL    HW216041   5.604   0.975   2.509
 5048SOL     OW16042   6.736   2.574   2.307
 5048SOL    HW116043   6.640   2.600   2.298
 5048SOL    HW216044   6.755   2.497   2.246
 5049SOL     OW16045   0.941   1.639   2.499
 5049SOL    HW116046   0.950   1.725   2.549
 5049SOL    HW216047   1.007   1.637   2.424
 5050SOL     OW16048   6.771   1.266   2.083
 5050SOL    HW116049   6.841   1.215   2.133
 5050SOL    HW216050   6.816   1.324   2.014
 5051SOL     OW16051   2.731   4.153   1.348
 5051SOL    HW116052   2.734   4.076   1.412
 5051SOL    HW216053   2.773   4.126   1.262
 5052SOL     OW16054   3.543   4.236   0.673
 5052SOL    HW116055   3.570   4.258   0.579
 5052SOL    HW216056   3.443   4.235   0.679
 5053SOL     OW16057   2.053   4.102   2.093
 5053SOL    HW116058   2.076   4.172   2.025
 5053SOL    HW216059   1.954   4.103   2.109
 5054SOL     OW16060   3.676   5.650   5.328
 5054SOL    HW116061   3.577   5.647   5.314
 5054SOL    HW216062   3.722   5.644   5.239
 5055SOL     OW16063   0.527   1.899   4.648
 5055SOL    HW116064   0.451   1.951   4.686
 5055SOL    HW216065   0.552   1.825   4.711
 5056SOL     OW16066   0.029   3.958   6.613
 5056SOL    HW116067   0.006   3.905   6.695
 5056SOL    HW216068   0.032   3.898   6.533
 5057SOL     OW16069   0.977   5.610   3.195
 5057SOL    HW116070   1.051   5.575   3.137
 5057SOL    HW216071   0.947   5.699   3.162
 5058SOL     OW16072   3.692   3.877   6.819
 5058SOL    HW116073   3.762   3.818   6.858
 5058SOL    HW216074   3.716   3.973   6.832
 5059SOL     OW16075   4.425   2.383   4.600
 5059SOL    HW116076   4.406   2.402   4.697
 5059SOL    HW216077   4.340   2.358   4.554
 5060SOL     OW16078   6.884   3.206   5.501
 5060SOL    HW116079   6.973   3.167   5.478
 5060SOL    HW216080   6.871   3.204   5.600
 5061SOL     OW16081   3.087   3.705   4.273
 5061SOL    HW116082   3.118   3.757   4.352
 5061SOL    HW216083   3.126   3.744   4.190
 5062SOL     OW16084   5.065   1.421   2.285
 5062SOL    HW116085   5.080   1.392   2.190
 5062SOL    HW216086   4.996   1.493   2.287
 5063SOL     OW16087   1.710   6.437   1.630
 5063SOL    HW116088   1.679   6.410   1.720
 5063SOL    HW216089   1.632   6.467   1.575
 5064SOL     OW16090   4.565   5.218   0.795
 5064SOL    HW116091   4.510   5.301   0.796
 5064SOL    HW216092   4.521   5.148   0.738
 5065SOL     OW16093   1.508   0.506   3.176
 5065SOL    HW116094   1.413   0.505   3.144
 5065SOL    HW216095   1.534   0.599   3.202
 5066SOL     OW16096   2.257   4.543   2.245
 5066SOL    HW116097   2.351   4.571   2.263
 5066SOL    HW216098   2.198   4.570   2.322
 5067SOL     OW16099   4.327   2.059   1.982
 5067SOL    HW116100   4.257   1.995   1.951
 5067SOL    HW216101   4.302   2.152   1.953
 5068SOL     OW16102   3.717   5.986   0.675
 5068SOL    HW116103   3.654   5.949   0.744
 5068SOL    HW216104   3.772   5.913   0.637
 5069SOL     OW16105   2.139   3.724   6.351
 5069SOL    HW116106   2.047   3.686   6.343
 5069SOL    HW216107   2.197   3.684   6.280
 5070SOL     OW16108   5.726   2.994   3.796
 5070SOL    HW116109   5.785   2.952   3.865
 5070SOL    HW216110   5.657   2.927   3.767
 5071SOL     OW16111   3.744   1.395   3.973
 5071SOL    HW116112   3.809   1.445   3.917
 5071SOL    HW216113   3.789   1.364   4.057
 5072SOL     OW16114   1.639   0.962   1.026
 5072SOL    HW116115   1.603   1.013   1.104
 5072SOL    HW216116   1.616   0.865   1.037
 5073SOL     OW16117   2.455   6.273   2.318
 5073SOL    HW116118   2.553   6.261   2.336
 5073SOL    HW216119   2.438   6.367   2.289
 5074SOL     OW16120   3.245   1.538   1.897
 5074SOL    HW116121   3.299   1.614   1.932
 5074SOL    HW216122   3.192   1.569   1.818
 5075SOL     OW16123   0.994   2.996   6.951
 5075SOL    HW116124   1.045   3.007   0.010
 5075SOL    HW216125   1.045   3.035   6.875
 5076SOL     OW16126   5.219   0.413   6.839
 5076SOL    HW116127   5.170   0.490   6.797
 5076SOL    HW216128   5.160   0.333   6.839
 5077SOL     OW16129   1.685   3.812   4.857
 5077SOL    HW116130   1.590   3.796   4.829
 5077SOL    HW216131   1.694   3.904   4.895
 5078SOL     OW16132   0.632   1.292   4.341
 5078SOL    HW116133   0.725   1.311   4.371
 5078SOL    HW216134   0.626   1.301   4.242
 5079SOL     OW16135   1.959   1.921   5.787
 5079SOL    HW116136   1.937   2.018   5.772
 5079SOL    HW216137   1.911   1.865   5.719
 5080SOL     OW16138   6.096   5.626   5.453
 5080SOL    HW116139   6.075   5.539   5.497
 5080SOL    HW216140   6.135   5.689   5.520
 5081SOL     OW16141   2.853   5.380   5.113
 5081SOL    HW116142   2.770   5.323   5.110
 5081SOL    HW216143   2.888   5.382   5.207
 5082SOL     OW16144   4.663   6.551   6.960
 5082SOL    HW116145   4.657   6.594   0.024
 5082SOL    HW216146   4.583   6.494   6.944
 5083SOL     OW16147   3.077   0.927   1.907
 5083SOL    HW116148   3.125   0.959   1.989
 5083SOL    HW216149   2.982   0.960   1.909
 5084SOL     OW16150   1.028   5.035   5.015
 5084SOL    HW116151   0.960   4.970   5.050
 5084SOL    HW216152   1.048   5.013   4.919
 5085SOL     OW16153   1.487   2.794   5.904
 5085SOL    HW116154   1.467   2.891   5.919
 5085SOL    HW216155   1.552   2.785   5.828
 5086SOL     OW16156   0.133   4.369   2.666
 5086SOL    HW116157   0.103   4.436   2.734
 5086SOL    HW216158   0.095   4.280   2.687
 5087SOL     OW16159   6.889   5.352   2.635
 5087SOL    HW116160   6.817   5.288   2.658
 5087SOL    HW216161   6.915   5.342   2.539
 5088SOL     OW16162   4.517   5.773   2.895
 5088SOL    HW116163   4.582   5.849   2.889
 5088SOL    HW216164   4.447   5.795   2.963
 5089SOL     OW16165   5.973   4.400   4.319
 5089SOL    HW116166   6.069   4.428   4.327
 5089SOL    HW216167   5.914   4.470   4.360
 5090SOL     OW16168   1.985   0.446   3.500
 5090SOL    HW116169   2.013   0.356   3.468
 5090SOL    HW216170   1.886   0.454   3.495
 5091SOL     OW16171   6.552   0.177   0.212
 5091SOL    HW116172   6.493   0.254   0.187
 5091SOL    HW216173   6.556   0.170   0.312
 5092SOL     OW16174   4.065   3.475   4.488
 5092SOL    HW116175   4.106   3.442   4.403
 5092SOL    HW216176   4.105   3.427   4.566
 5093SOL     OW16177   2.559   1.280   2.607
 5093SOL    HW116178   2.627   1.235   2.666
 5093SOL    HW216179   2.525   1.214   2.540
 5094SOL     OW16180   3.004   5.980   6.667
 5094SOL    HW116181   2.954   5.917   6.607
 5094SOL    HW216182   3.090   6.006   6.624
 5095SOL     OW16183   0.630   1.406   3.640
 5095SOL    HW116184   0.544   1.444   3.673
 5095SOL    HW216185   0.706   1.447   3.689
 5096SOL     OW16186   5.763   4.218   6.360
 5096SOL    HW116187   5.778   4.119   6.364
 5096SOL    HW216188   5.667   4.238   6.384
 5097SOL     OW16189   6.584   6.931   0.121
 5097SOL    HW116190   6.519   6.918   0.046
 5097SOL    HW216191   6.558   7.011   0.175
 5098SOL     OW16192   3.940   2.352   1.773
 5098SOL    HW116193   3.966   2.444   1.744
 5098SOL    HW216194   3.842   2.350   1.794
 5099SOL     OW16195   0.307   6.058   1.148
 5099SOL    HW116196   0.395   6.070   1.194
 5099SOL    HW216197   0.286   6.140   1.094
 5100SOL     OW16198   4.374   5.547   2.907
 5100SOL    HW116199   4.428   5.479   2.957
 5100SOL    HW216200   4.429   5.630   2.896
 5101SOL     OW16201   3.997   0.565   4.786
 5101SOL    HW116202   3.988   0.664   4.798
 5101SOL    HW216203   4.043   0.547   4.699
 5102SOL     OW16204   4.902   5.569   3.953
 5102SOL    HW116205   4.818   5.622   3.962
 5102SOL    HW216206   4.892   5.481   4.000
 5103SOL     OW16207   0.663   0.509   4.952
 5103SOL    HW116208   0.685   0.414   4.933
 5103SOL    HW216209   0.628   0.553   4.869
 5104SOL     OW16210   3.579   5.898   1.939
 5104SOL    HW116211   3.608   5.803   1.940
 5104SOL    HW216212   3.519   5.913   1.860
 5105SOL     OW16213   3.080   2.977   0.396
 5105SOL    HW116214   3.121   2.993   0.306
 5105SOL    HW216215   2.980   2.980   0.389
 5106SOL     OW16216   3.793   1.796   0.932
 5106SOL    HW116217   3.819   1.720   0.992
 5106SOL    HW216218   3.733   1.762   0.859
 5107SOL     OW16219   5.625   3.159   1.217
 5107SOL    HW116220   5.677   3.073   1.223
 5107SOL    HW216221   5.561   3.165   1.293
 5108SOL     OW16222   4.811   4.007   5.704
 5108SOL    HW116223   4.879   4.047   5.765
 5108SOL    HW216224   4.737   3.968   5.758
 5109SOL     OW16225   1.360   2.704   0.834
 5109SOL    HW116226   1.283   2.642   0.847
 5109SOL    HW216227   1.326   2.798   0.821
 5110SOL     OW16228   0.124   6.933   6.463
 5110SOL    HW116229   0.102   6.960   6.557
 5110SOL    HW216230   0.042   6.942   6.406
 5111SOL     OW16231   1.055   6.686   4.557
 5111SOL    HW116232   1.104   6.753   4.501
 5111SOL    HW216233   0.959   6.684   4.529
 5112SOL     OW16234   0.133   0.363   2.518
 5112SOL    HW116235   0.119   0.320   2.429
 5112SOL    HW216236   0.221   0.412   2.518
 5113SOL     OW16237   1.643   5.331   0.663
 5113SOL    HW116238   1.725   5.274   0.669
 5113SOL    HW216239   1.571   5.295   0.722
 5114SOL     OW16240   3.729   7.025   0.438
 5114SOL    HW116241   3.637   7.006   0.405
 5114SOL    HW216242   3.795   6.971   0.386
 5115SOL     OW16243   1.819   3.569   1.734
 5115SOL    HW116244   1.881   3.550   1.810
 5115SOL    HW216245   1.871   3.581   1.650
 5116SOL     OW16246   2.624   5.891   0.115
 5116SOL    HW116247   2.663   5.857   0.201
 5116SOL    HW216248   2.689   5.874   0.041
 5117SOL     OW16249   0.916   3.482   4.287
 5117SOL    HW116250   1.000   3.479   4.232
 5117SOL    HW216251   0.840   3.513   4.231
 5118SOL     OW16252   5.934   6.886   0.228
 5118SOL    HW116253   5.898   6.958   0.288
 5118SOL    HW216254   6.008   6.838   0.275
 5119SOL     OW16255   5.023   1.416   0.835
 5119SOL    HW116256   5.057   1.493   0.888
 5119SOL    HW216257   4.931   1.436   0.802
 5120SOL     OW16258   4.960   0.170   5.104
 5120SOL    HW116259   4.938   0.167   5.201
 5120SOL    HW216260   5.050   0.128   5.089
 5121SOL     OW16261   3.594   3.456   0.201
 5121SOL    HW116262   3.642   3.435   0.116
 5121SOL    HW216263   3.503   3.492   0.180
 5122SOL     OW16264   3.554   5.358   2.905
 5122SOL    HW116265   3.593   5.418   2.836
 5122SOL    HW216266   3.612   5.357   2.986
 5123SOL     OW16267   5.759   2.426   2.620
 5123SOL    HW116268   5.800   2.481   2.547
 5123SOL    HW216269   5.801   2.335   2.620
 5124SOL     OW16270   1.956   6.258   2.988
 5124SOL    HW116271   1.951   6.205   2.904
 5124SOL    HW216272   2.025   6.218   3.049
 5125SOL     OW16273   0.431   1.911   3.261
 5125SOL    HW116274   0.363   1.972   3.220
 5125SOL    HW216275   0.479   1.861   3.188
 5126SOL     OW16276   1.457   6.406   6.836
 5126SOL    HW116277   1.447   6.329   6.773
 5126SOL    HW216278   1.553   6.434   6.840
 5127SOL     OW16279   1.691   5.563   0.349
 5127SOL    HW116280   1.751   5.484   0.337
 5127SOL    HW216281   1.627   5.546   0.424
 5128SOL     OW16282   0.008   6.040   0.602
 5128SOL    HW116283   0.003   6.038   0.702
 5128SOL    HW216284   6.982   6.119   0.568
 5129SOL     OW16285   4.856   6.311   1.769
 5129SOL    HW116286   4.870   6.256   1.687
 5129SOL    HW216287   4.879   6.406   1.750
 5130SOL     OW16288   6.998   4.684   2.942
 5130SOL    HW116289   0.061   4.645   2.969
 5130SOL    HW216290   6.943   4.701   3.023
 5131SOL     OW16291   1.360   3.251   4.221
 5131SOL    HW116292   1.405   3.184   4.280
 5131SOL    HW216293   1.422   3.279   4.149
 5132SOL     OW16294   4.292   3.193   6.326
 5132SOL    HW116295   4.293   3.096   6.299
 5132SOL    HW216296   4.198   3.222   6.341
 5133SOL     OW16297   3.117   4.872   0.543
 5133SOL    HW116298   3.158   4.910   0.626
 5133SOL    HW216299   3.020   4.898   0.539
 5134SOL     OW16300   0.527   2.832   1.534
 5134SOL    HW116301   0.608   2.888   1.517
 5134SOL    HW216302   0.526   2.804   1.630
 5135SOL     OW16303   6.331   1.994   5.895
 5135SOL    HW116304   6.402   1.925   5.901
 5135SOL    HW216305   6.245   1.957   5.932
 5136SOL     OW16306   5.052   0.788   5.002
 5136SOL    HW116307   5.027   0.696   5.034
 5136SOL    HW216308   4.970   0.845   5.001
 5137SOL     OW16309   5.948   3.139   6.274
 5137SOL    HW116310   5.894   3.058   6.295
 5137SOL    HW216311   5.902   3.220   6.311
 5138SOL     OW16312   3.718   2.944   6.511
 5138SOL    HW116313   3.757   2.922   6.601
 5138SOL    HW216314   3.682   3.037   6.512
 5139SOL     OW16315   1.291   6.967   3.909
 5139SOL    HW116316   1.265   6.920   3.994
 5139SOL    HW216317   1.257   0.036   3.912
 5140SOL     OW16318   2.660   1.676   6.881
 5140SOL    HW116319   2.605   1.637   6.954
 5140SOL    HW216320   2.724   1.607   6.847
 5141SOL     OW16321   5.994   3.368   1.181
 5141SOL    HW116322   6.043   3.281   1.182
 5141SOL    HW216323   5.899   3.352   1.155
 5142SOL     OW16324   5.900   1.927   4.022
 5142SOL    HW116325   5.935   1.907   3.930
 5142SOL    HW216326   5.972   1.914   4.089
 5143SOL     OW16327   0.653   4.156   4.067
 5143SOL    HW116328   0.742   4.119   4.091
 5143SOL    HW216329   0.597   4.085   4.024
 5144SOL     OW16330   1.779   6.554   6.183
 5144SOL    HW116331   1.701   6.605   6.146
 5144SOL    HW216332   1.784   6.464   6.139
 5145SOL     OW16333   2.753   5.289   6.307
 5145SOL    HW116334   2.784   5.325   6.218
 5145SOL    HW216335   2.737   5.191   6.300
 5146SOL     OW16336   4.611   3.790   6.602
 5146SOL    HW116337   4.692   3.784   6.544
 5146SOL    HW216338   4.538   3.734   6.562
 5147SOL     OW16339   6.878   4.088   1.722
 5147SOL    HW116340   6.837   4.052   1.639
 5147SOL    HW216341   6.970   4.122   1.702
 5148SOL     OW16342   0.788   6.133   1.083
 5148SOL    HW116343   0.822   6.041   1.062
 5148SOL    HW216344   0.764   6.180   0.998
 5149SOL     OW16345   5.897   0.188   3.726
 5149SOL    HW116346   5.827   0.177   3.796
 5149SOL    HW216347   5.972   0.243   3.762
 5150SOL     OW16348   1.950   5.654   3.974
 5150SOL    HW116349   1.869   5.620   4.020
 5150SOL    HW216350   1.936   5.750   3.949
 5151SOL     OW16351   5.536   1.019   6.934
 5151SOL    HW116352   5.606   0.966   6.886
 5151SOL    HW216353   5.511   1.099   6.878
 5152SOL     OW16354   2.415   5.081   6.509
 5152SOL    HW116355   2.412   5.168   6.461
 5152SOL    HW216356   2.509   5.060   6.535
 5153SOL     OW16357   2.182   1.349   6.523
 5153SOL    HW116358   2.139   1.260   6.537
 5153SOL    HW216359   2.148   1.389   6.437
 5154SOL     OW16360   1.970   3.387   6.503
 5154SOL    HW116361   2.054   3.376   6.452
 5154SOL    HW216362   1.903   3.438   6.448
 5155SOL     OW16363   4.551   6.730   2.176
 5155SOL    HW116364   4.623   6.798   2.160
 5155SOL    HW216365   4.477   6.746   2.111
 5156SOL     OW16366   6.864   2.367   6.376
 5156SOL    HW116367   6.812   2.365   6.291
 5156SOL    HW216368   6.892   2.274   6.401
 5157SOL     OW16369   4.878   3.020   3.368
 5157SOL    HW116370   4.975   3.029   3.388
 5157SOL    HW216371   4.856   3.071   3.285
 5158SOL     OW16372   3.005   2.175   1.492
 5158SOL    HW116373   2.994   2.188   1.591
 5158SOL    HW216374   2.949   2.243   1.443
 5159SOL     OW16375   1.071   3.833   5.037
 5159SOL    HW116376   1.096   3.884   4.955
 5159SOL    HW216377   0.972   3.838   5.050
 5160SOL     OW16378   1.551   4.105   4.668
 5160SOL    HW116379   1.642   4.105   4.627
 5160SOL    HW216380   1.515   4.012   4.672
 5161SOL     OW16381   1.325   4.502   4.970
 5161SOL    HW116382   1.328   4.583   5.028
 5161SOL    HW216383   1.251   4.441   5.000
 5162SOL     OW16384   0.158   5.304   4.285
 5162SOL    HW116385   0.166   5.205   4.292
 5162SOL    HW216386   0.248   5.344   4.272
 5163SOL     OW16387   4.293   4.731   1.386
 5163SOL    HW116388   4.278   4.806   1.451
 5163SOL    HW216389   4.363   4.669   1.423
 5164SOL     OW16390   5.507   2.381   6.067
 5164SOL    HW116391   5.454   2.442   6.008
 5164SOL    HW216392   5.562   2.435   6.130
 5165SOL     OW16393   5.886   4.563   4.730
 5165SOL    HW116394   5.787   4.560   4.746
 5165SOL    HW216395   5.925   4.641   4.779
 5166SOL     OW16396   1.902   5.379   1.904
 5166SOL    HW116397   1.823   5.437   1.882
 5166SOL    HW216398   1.875   5.283   1.898
 5167SOL     OW16399   6.210   6.888   5.460
 5167SOL    HW116400   6.235   6.961   5.523
 5167SOL    HW216401   6.276   6.814   5.467
 5168SOL     OW16402   4.891   2.601   3.697
 5168SOL    HW116403   4.987   2.629   3.700
 5168SOL    HW216404   4.833   2.678   3.723
 5169SOL     OW16405   3.550   3.237   6.439
 5169SOL    HW116406   3.599   3.230   6.353
 5169SOL    HW216407   3.468   3.293   6.427
 5170SOL     OW16408   6.671   4.069   6.141
 5170SOL    HW116409   6.712   4.133   6.076
 5170SOL    HW216410   6.666   4.112   6.231
 5171SOL     OW16411   2.438   4.461   4.646
 5171SOL    HW116412   2.427   4.453   4.745
 5171SOL    HW216413   2.512   4.524   4.625
 5172SOL     OW16414   1.319   3.266   1.287
 5172SOL    HW116415   1.283   3.175   1.308
 5172SOL    HW216416   1.398   3.258   1.226
 5173SOL     OW16417   5.969   4.289   6.174
 5173SOL    HW116418   6.047   4.260   6.228
 5173SOL    HW216419   5.884   4.272   6.224
 5174SOL     OW16420   1.914   4.630   4.450
 5174SOL    HW116421   1.908   4.712   4.393
 5174SOL    HW216422   1.977   4.564   4.408
 5175SOL     OW16423   2.174   4.610   6.810
 5175SOL    HW116424   2.171   4.710   6.809
 5175SOL    HW216425   2.252   4.579   6.756
 5176SOL     OW16426   3.982   3.043   0.818
 5176SOL    HW116427   3.969   3.051   0.720
 5176SOL    HW216428   3.960   2.950   0.848
 5177SOL     OW16429   4.898   0.053   5.648
 5177SOL    HW116430   4.994   0.069   5.671
 5177SOL    HW216431   4.840   0.094   5.718
 5178SOL     OW16432   2.390   2.256   1.185
 5178SOL    HW116433   2.414   2.217   1.096
 5178SOL    HW216434   2.411   2.189   1.257
 5179SOL     OW16435   4.941   6.105   5.328
 5179SOL    HW116436   4.923   6.044   5.251
 5179SOL    HW216437   4.856   6.123   5.377
 5180SOL     OW16438   3.208   2.511   6.751
 5180SOL    HW116439   3.196   2.445   6.676
 5180SOL    HW216440   3.128   2.571   6.755
 5181SOL     OW16441   4.111   1.199   3.039
 5181SOL    HW116442   4.191   1.164   3.087
 5181SOL    HW216443   4.038   1.130   3.043
 5182SOL     OW16444   5.470   4.891   1.665
 5182SOL    HW116445   5.389   4.915   1.611
 5182SOL    HW216446   5.515   4.812   1.623
 5183SOL     OW16447   4.607   6.674   1.740
 5183SOL    HW116448   4.601   6.609   1.664
 5183SOL    HW216449   4.562   6.635   1.820
 5184SOL     OW16450   0.965   1.852   3.789
 5184SOL    HW116451   0.868   1.862   3.768
 5184SOL    HW216452   1.018   1.844   3.705
 5185SOL     OW16453   4.433   0.564   3.158
 5185SOL    HW116454   4.362   0.632   3.139
 5185SOL    HW216455   4.486   0.548   3.075
 5186SOL     OW16456   6.612   4.497   0.955
 5186SOL    HW116457   6.547   4.491   0.880
 5186SOL    HW216458   6.627   4.407   0.994
 5187SOL     OW16459   6.599   0.936   3.963
 5187SOL    HW116460   6.524   0.870   3.961
 5187SOL    HW216461   6.678   0.899   3.915
 5188SOL     OW16462   0.450   5.260   0.701
 5188SOL    HW116463   0.474   5.165   0.679
 5188SOL    HW216464   0.461   5.275   0.799
 5189SOL     OW16465   4.701   5.112   0.049
 5189SOL    HW116466   4.613   5.159   0.054
 5189SOL    HW216467   4.689   5.024   0.004
 5190SOL     OW16468   1.307   2.208   4.481
 5190SOL    HW116469   1.392   2.158   4.499
 5190SOL    HW216470   1.323   2.306   4.489
 5191SOL     OW16471   3.537   0.887   1.453
 5191SOL    HW116472   3.537   0.970   1.508
 5191SOL    HW216473   3.443   0.859   1.434
 5192SOL     OW16474   4.752   5.792   2.517
 5192SOL    HW116475   4.782   5.865   2.577
 5192SOL    HW216476   4.728   5.829   2.427
 5193SOL     OW16477   4.504   4.423   3.611
 5193SOL    HW116478   4.580   4.375   3.656
 5193SOL    HW216479   4.525   4.436   3.514
 5194SOL     OW16480   5.121   0.069   5.792
 5194SOL    HW116481   5.210   0.094   5.753
 5194SOL    HW216482   5.115   0.105   5.885
 5195SOL     OW16483   6.324   6.823   4.544
 5195SOL    HW116484   6.244   6.866   4.585
 5195SOL    HW216485   6.342   6.866   4.455
 5196SOL     OW16486   0.858   3.966   1.603
 5196SOL    HW116487   0.806   4.051   1.594
 5196SOL    HW216488   0.949   3.986   1.639
 5197SOL     OW16489   1.756   6.027   3.990
 5197SOL    HW116490   1.783   6.087   3.915
 5197SOL    HW216491   1.818   6.039   4.067
 5198SOL     OW16492   2.771   6.937   5.048
 5198SOL    HW116493   2.747   6.845   5.080
 5198SOL    HW216494   2.861   6.962   5.085
 5199SOL     OW16495   2.419   5.431   1.201
 5199SOL    HW116496   2.423   5.403   1.105
 5199SOL    HW216497   2.478   5.510   1.214
 5200SOL     OW16498   0.895   2.117   4.958
 5200SOL    HW116499   0.966   2.186   4.944
 5200SOL    HW216500   0.875   2.072   4.871
 5201SOL     OW16501   5.724   5.191   4.295
 5201SOL    HW116502   5.725   5.230   4.387
 5201SOL    HW216503   5.664   5.245   4.236
 5202SOL     OW16504   5.321   3.045   6.973
 5202SOL    HW116505   5.301   3.066   6.878
 5202SOL    HW216506   5.295   3.124   0.005
 5203SOL     OW16507   1.542   0.319   5.898
 5203SOL    HW116508   1.565   0.283   5.989
 5203SOL    HW216509   1.446   0.346   5.896
 5204SOL     OW16510   3.278   6.630   6.596
 5204SOL    HW116511   3.352   6.698   6.598
 5204SOL    HW216512   3.250   6.609   6.690
 5205SOL     OW16513   6.465   5.713   0.767
 5205SOL    HW116514   6.432   5.717   0.861
 5205SOL    HW216515   6.546   5.654   0.763
 5206SOL     OW16516   1.046   4.482   5.248
 5206SOL    HW116517   0.947   4.478   5.229
 5206SOL    HW216518   1.092   4.411   5.195
 5207SOL     OW16519   6.975   0.107   4.121
 5207SOL    HW116520   0.009   0.044   4.170
 5207SOL    HW216521   6.947   0.182   4.181
 5208SOL     OW16522   4.622   2.660   0.179
 5208SOL    HW116523   4.629   2.594   0.255
 5208SOL    HW216524   4.630   2.612   0.092
 5209SOL     OW16525   4.526   7.002   3.326
 5209SOL    HW116526   4.582   7.001   3.243
 5209SOL    HW216527   4.509   0.071   3.353
 5210SOL     OW16528   5.163   4.349   1.304
 5210SOL    HW116529   5.094   4.399   1.252
 5210SOL    HW216530   5.236   4.320   1.243
 5211SOL     OW16531   4.746   2.485   4.263
 5211SOL    HW116532   4.689   2.521   4.337
 5211SOL    HW216533   4.695   2.414   4.213
 5212SOL     OW16534   1.456   2.200   0.719
 5212SOL    HW116535   1.435   2.242   0.807
 5212SOL    HW216536   1.393   2.235   0.650
 5213SOL     OW16537   4.015   3.928   2.112
 5213SOL    HW116538   4.102   3.976   2.105
 5213SOL    HW216539   3.963   3.942   2.028
 5214SOL     OW16540   5.350   4.470   6.223
 5214SOL    HW116541   5.323   4.414   6.145
 5214SOL    HW216542   5.419   4.536   6.195
 5215SOL     OW16543   0.052   3.324   4.407
 5215SOL    HW116544   0.146   3.355   4.388
 5215SOL    HW216545   0.006   3.303   4.321
 5216SOL     OW16546   5.049   5.313   0.811
 5216SOL    HW116547   5.098   5.321   0.724
 5216SOL    HW216548   5.113   5.286   0.883
 5217SOL     OW16549   3.524   5.386   4.034
 5217SOL    HW116550   3.532   5.383   3.934
 5217SOL    HW216551   3.438   5.343   4.062
 5218SOL     OW16552   0.391   1.485   0.726
 5218SOL    HW116553   0.337   1.443   0.653
 5218SOL    HW216554   0.373   1.584   0.728
 5219SOL     OW16555   3.500   1.628   4.582
 5219SOL    HW116556   3.536   1.618   4.675
 5219SOL    HW216557   3.407   1.664   4.586
 5220SOL     OW16558   1.703   5.470   3.394
 5220SOL    HW116559   1.634   5.458   3.465
 5220SOL    HW216560   1.672   5.426   3.310
 5221SOL     OW16561   6.762   0.380   1.453
 5221SOL    HW116562   6.834   0.323   1.414
 5221SOL    HW216563   6.757   0.467   1.405
 5222SOL     OW16564   4.383   4.863   1.803
 5222SOL    HW116565   4.475   4.827   1.820
 5222SOL    HW216566   4.316   4.804   1.849
 5223SOL     OW16567   0.293   2.435   0.885
 5223SOL    HW116568   0.382   2.433   0.931
 5223SOL    HW216569   0.228   2.484   0.943
 5224SOL     OW16570   0.852   1.695   4.925
 5224SOL    HW116571   0.910   1.716   5.004
 5224SOL    HW216572   0.901   1.719   4.841
 5225SOL     OW16573   6.673   1.103   4.620
 5225SOL    HW116574   6.734   1.133   4.546
 5225SOL    HW216575   6.578   1.120   4.594
 5226SOL     OW16576   0.425   5.694   3.568
 5226SOL    HW116577   0.361   5.679   3.644
 5226SOL    HW216578   0.437   5.609   3.518
 5227SOL     OW16579   6.999   3.687   6.054
 5227SOL    HW116580   6.961   3.626   5.985
 5227SOL    HW216581   6.925   3.737   6.099
 5228SOL     OW16582   1.016   2.898   6.508
 5228SOL    HW116583   1.020   2.863   6.414
 5228SOL    HW216584   1.085   2.852   6.564
 5229SOL     OW16585   3.523   6.044   0.040
 5229SOL    HW116586   3.436   6.021   7.023
 5229SOL    HW216587   3.598   6.000   7.016
 5230SOL     OW16588   6.668   6.975   2.371
 5230SOL    HW116589   6.587   6.990   2.428
 5230SOL    HW216590   6.727   0.029   2.376
 5231SOL     OW16591   5.383   1.514   3.470
 5231SOL    HW116592   5.398   1.462   3.386
 5231SOL    HW216593   5.325   1.593   3.450
 5232SOL     OW16594   1.790   4.168   5.887
 5232SOL    HW116595   1.713   4.105   5.895
 5232SOL    HW216596   1.781   4.222   5.803
 5233SOL     OW16597   3.310   1.424   2.393
 5233SOL    HW116598   3.256   1.486   2.336
 5233SOL    HW216599   3.251   1.385   2.464
 5234SOL     OW16600   2.118   3.163   0.392
 5234SOL    HW116601   2.102   3.077   0.344
 5234SOL    HW216602   2.111   3.239   0.328
 5235SOL     OW16603   2.113   2.284   0.226
 5235SOL    HW116604   2.096   2.329   0.139
 5235SOL    HW216605   2.195   2.324   0.269
 5236SOL     OW16606   3.244   4.838   1.991
 5236SOL    HW116607   3.149   4.812   1.975
 5236SOL    HW216608   3.271   4.810   2.083
 5237SOL     OW16609   1.992   1.996   4.933
 5237SOL    HW116610   2.009   1.905   4.897
 5237SOL    HW216611   1.995   1.994   5.033
 5238SOL     OW16612   0.818   4.601   2.731
 5238SOL    HW116613   0.867   4.661   2.669
 5238SOL    HW216614   0.751   4.655   2.783
 5239SOL     OW16615   3.356   4.137   1.023
 5239SOL    HW116616   3.352   4.102   0.929
 5239SOL    HW216617   3.275   4.194   1.041
 5240SOL     OW16618   2.525   2.757   5.833
 5240SOL    HW116619   2.455   2.734   5.901
 5240SOL    HW216620   2.504   2.847   5.794
 5241SOL     OW16621   1.633   6.220   2.258
 5241SOL    HW116622   1.683   6.147   2.210
 5241SOL    HW216623   1.662   6.222   2.354
 5242SOL     OW16624   4.932   0.729   1.537
 5242SOL    HW116625   4.916   0.637   1.503
 5242SOL    HW216626   4.869   0.793   1.493
 5243SOL     OW16627   2.451   6.342   1.743
 5243SOL    HW116628   2.395   6.422   1.722
 5243SOL    HW216629   2.505   6.359   1.825
 5244SOL     OW16630   5.016   3.349   0.616
 5244SOL    HW116631   4.965   3.355   0.702
 5244SOL    HW216632   5.114   3.352   0.636
 5245SOL     OW16633   3.854   4.217   0.204
 5245SOL    HW116634   3.793   4.296   0.216
 5245SOL    HW216635   3.933   4.227   0.265
 5246SOL     OW16636   6.736   2.333   2.180
 5246SOL    HW116637   6.658   2.317   2.119
 5246SOL    HW216638   6.765   2.246   2.220
 5247SOL     OW16639   3.779   1.354   5.443
 5247SOL    HW116640   3.697   1.348   5.387
 5247SOL    HW216641   3.842   1.421   5.403
 5248SOL     OW16642   6.928   2.257   2.978
 5248SOL    HW116643   6.949   2.228   3.072
 5248SOL    HW216644   6.922   2.176   2.919
 5249SOL     OW16645   1.424   5.171   6.782
 5249SOL    HW116646   1.367   5.107   6.833
 5249SOL    HW216647   1.385   5.262   6.786
 5250SOL     OW16648   1.676   5.603   0.681
 5250SOL    HW116649   1.646   5.508   0.673
 5250SOL    HW216650   1.766   5.606   0.726
 5251SOL     OW16651   0.783   4.694   1.120
 5251SOL    HW116652   0.852   4.690   1.048
 5251SOL    HW216653   0.817   4.750   1.196
 5252SOL     OW16654   3.089   0.071   2.361
 5252SOL    HW116655   3.187   0.082   2.374
 5252SOL    HW216656   3.066   6.999   2.360
 5253SOL     OW16657   5.953   4.143   4.761
 5253SOL    HW116658   5.928   4.120   4.855
 5253SOL    HW216659   5.887   4.208   4.723
 5254SOL     OW16660   5.473   0.472   3.331
 5254SOL    HW116661   5.456   0.508   3.423
 5254SOL    HW216662   5.405   0.402   3.310
 5255SOL     OW16663   5.216   2.357   4.693
 5255SOL    HW116664   5.305   2.391   4.726
 5255SOL    HW216665   5.213   2.363   4.593
 5256SOL     OW16666   4.921   1.328   3.194
 5256SOL    HW116667   4.858   1.371   3.130
 5256SOL    HW216668   5.011   1.371   3.186
 5257SOL     OW16669   4.778   0.212   0.453
 5257SOL    HW116670   4.871   0.201   0.488
 5257SOL    HW216671   4.758   0.309   0.444
 5258SOL     OW16672   5.774   2.016   2.769
 5258SOL    HW116673   5.750   2.064   2.854
 5258SOL    HW216674   5.711   1.940   2.755
 5259SOL     OW16675   5.083   5.706   2.825
 5259SOL    HW116676   5.020   5.782   2.812
 5259SOL    HW216677   5.168   5.723   2.774
 5260SOL     OW16678   3.350   5.266   0.169
 5260SOL    HW116679   3.360   5.177   0.124
 5260SOL    HW216680   3.292   5.255   0.250
 5261SOL     OW16681   0.269   4.761   0.755
 5261SOL    HW116682   0.237   4.810   0.836
 5261SOL    HW216683   0.193   4.746   0.692
 5262SOL     OW16684   2.761   0.669   3.083
 5262SOL    HW116685   2.731   0.764   3.073
 5262SOL    HW216686   2.744   0.620   2.998
 5263SOL     OW16687   2.009   1.284   3.317
 5263SOL    HW116688   1.915   1.312   3.297
 5263SOL    HW216689   2.072   1.355   3.286
 5264SOL     OW16690   6.571   1.950   2.137
 5264SOL    HW116691   6.623   1.916   2.215
 5264SOL    HW216692   6.523   1.874   2.093
 5265SOL     OW16693   5.767   2.829   4.557
 5265SOL    HW116694   5.696   2.896   4.579
 5265SOL    HW216695   5.857   2.870   4.572
 5266SOL     OW16696   2.354   6.566   1.125
 5266SOL    HW116697   2.282   6.631   1.150
 5266SOL    HW216698   2.400   6.597   1.042
 5267SOL     OW16699   4.598   2.169   4.647
 5267SOL    HW116700   4.542   2.243   4.610
 5267SOL    HW216701   4.683   2.162   4.595
 5268SOL     OW16702   5.350   0.641   6.580
 5268SOL    HW116703   5.449   0.628   6.571
 5268SOL    HW216704   5.332   0.713   6.647
 5269SOL     OW16705   0.789   6.777   2.254
 5269SOL    HW116706   0.846   6.762   2.173
 5269SOL    HW216707   0.832   6.845   2.312
 5270SOL     OW16708   5.338   1.721   0.641
 5270SOL    HW116709   5.274   1.798   0.636
 5270SOL    HW216710   5.287   1.637   0.665
 5271SOL     OW16711   6.504   5.057   4.739
 5271SOL    HW116712   6.536   4.964   4.724
 5271SOL    HW216713   6.572   5.109   4.790
 5272SOL     OW16714   4.014   6.173   1.002
 5272SOL    HW116715   3.923   6.174   0.960
 5272SOL    HW216716   4.076   6.230   0.948
 5273SOL     OW16717   0.879   3.056   2.752
 5273SOL    HW116718   0.943   3.123   2.713
 5273SOL    HW216719   0.824   3.016   2.678
 5274SOL     OW16720   4.598   6.614   2.714
 5274SOL    HW116721   4.664   6.677   2.672
 5274SOL    HW216722   4.604   6.622   2.813
 5275SOL     OW16723   2.664   0.710   1.264
 5275SOL    HW116724   2.702   0.684   1.353
 5275SOL    HW216725   2.645   0.808   1.263
 5276SOL     OW16726   2.428   0.494   2.366
 5276SOL    HW116727   2.475   0.495   2.278
 5276SOL    HW216728   2.474   0.431   2.428
 5277SOL     OW16729   3.204   1.036   2.573
 5277SOL    HW116730   3.137   0.968   2.601
 5277SOL    HW216731   3.292   0.991   2.558
 5278SOL     OW16732   4.720   4.508   3.338
 5278SOL    HW116733   4.818   4.505   3.356
 5278SOL    HW216734   4.684   4.597   3.365
 5279SOL     OW16735   2.741   5.359   0.890
 5279SOL    HW116736   2.841   5.362   0.900
 5279SOL    HW216737   2.715   5.398   0.802
 5280SOL     OW16738   2.897   6.285   5.041
 5280SOL    HW116739   2.897   6.320   4.948
 5280SOL    HW216740   2.843   6.202   5.046
 5281SOL     OW16741   6.997   1.668   2.808
 5281SOL    HW116742   0.020   1.581   2.819
 5281SOL    HW216743   0.006   1.716   2.728
 5282SOL     OW16744   2.139   1.817   3.923
 5282SOL    HW116745   2.183   1.742   3.972
 5282SOL    HW216746   2.196   1.899   3.930
 5283SOL     OW16747   5.509   6.145   1.227
 5283SOL    HW116748   5.419   6.102   1.228
 5283SOL    HW216749   5.578   6.077   1.204
 5284SOL     OW16750   5.612   4.612   2.996
 5284SOL    HW116751   5.642   4.700   2.958
 5284SOL    HW216752   5.604   4.620   3.096
 5285SOL     OW16753   3.219   4.905   3.955
 5285SOL    HW116754   3.261   4.902   4.045
 5285SOL    HW216755   3.291   4.912   3.885
 5286SOL     OW16756   2.291   4.446   1.282
 5286SOL    HW116757   2.313   4.542   1.266
 5286SOL    HW216758   2.318   4.420   1.374
 5287SOL     OW16759   2.663   1.477   0.501
 5287SOL    HW116760   2.709   1.545   0.558
 5287SOL    HW216761   2.582   1.444   0.549
 5288SOL     OW16762   3.410   0.438   1.378
 5288SOL    HW116763   3.427   0.477   1.288
 5288SOL    HW216764   3.331   0.483   1.419
 5289SOL     OW16765   1.020   5.252   0.368
 5289SOL    HW116766   1.115   5.271   0.391
 5289SOL    HW216767   1.009   5.154   0.353
 5290SOL     OW16768   3.608   5.847   6.753
 5290SOL    HW116769   3.691   5.847   6.698
 5290SOL    HW216770   3.530   5.873   6.696
 5291SOL     OW16771   2.114   5.255   5.864
 5291SOL    HW116772   2.210   5.284   5.859
 5291SOL    HW216773   2.096   5.189   5.791
 5292SOL     OW16774   5.278   3.174   6.722
 5292SOL    HW116775   5.183   3.200   6.706
 5292SOL    HW216776   5.314   3.127   6.640
 5293SOL     OW16777   0.677   1.146   4.764
 5293SOL    HW116778   0.696   1.194   4.849
 5293SOL    HW216779   0.585   1.168   4.732
 5294SOL     OW16780   5.780   2.839   6.171
 5294SOL    HW116781   5.758   2.886   6.257
 5294SOL    HW216782   5.710   2.860   6.103
 5295SOL     OW16783   5.196   1.277   2.661
 5295SOL    HW116784   5.294   1.285   2.682
 5295SOL    HW216785   5.144   1.329   2.728
 5296SOL     OW16786   1.864   4.495   0.152
 5296SOL    HW116787   1.878   4.560   0.077
 5296SOL    HW216788   1.863   4.402   0.116
 5297SOL     OW16789   1.895   1.850   0.781
 5297SOL    HW116790   1.913   1.888   0.690
 5297SOL    HW216791   1.931   1.757   0.786
 5298SOL     OW16792   6.445   4.908   1.975
 5298SOL    HW116793   6.396   4.868   1.897
 5298SOL    HW216794   6.539   4.874   1.975
 5299SOL     OW16795   2.496   0.347   1.413
 5299SOL    HW116796   2.564   0.412   1.448
 5299SOL    HW216797   2.542   0.279   1.356
 5300SOL     OW16798   0.093   5.819   3.225
 5300SOL    HW116799   0.163   5.748   3.234
 5300SOL    HW216800   0.051   5.837   3.314
 5301SOL     OW16801   4.238   1.670   6.937
 5301SOL    HW116802   4.208   1.594   6.995
 5301SOL    HW216803   4.328   1.701   6.967
 5302SOL     OW16804   0.034   4.280   3.373
 5302SOL    HW116805   0.011   4.353   3.437
 5302SOL    HW216806   0.034   4.316   3.280
 5303SOL     OW16807   0.012   4.759   3.800
 5303SOL    HW116808   7.011   4.826   3.730
 5303SOL    HW216809   7.022   4.667   3.765
 5304SOL     OW16810   4.832   1.983   5.837
 5304SOL    HW116811   4.906   1.997   5.771
 5304SOL    HW216812   4.866   1.928   5.914
 5305SOL     OW16813   2.246   0.594   3.948
 5305SOL    HW116814   2.211   0.579   3.856
 5305SOL    HW216815   2.238   0.510   4.001
 5306SOL     OW16816   2.301   6.677   5.707
 5306SOL    HW116817   2.348   6.761   5.735
 5306SOL    HW216818   2.344   6.641   5.624
 5307SOL     OW16819   4.229   6.457   6.357
 5307SOL    HW116820   4.284   6.417   6.284
 5307SOL    HW216821   4.142   6.488   6.321
 5308SOL     OW16822   6.880   0.506   3.742
 5308SOL    HW116823   6.937   0.563   3.683
 5308SOL    HW216824   6.838   0.433   3.688
 5309SOL     OW16825   3.705   4.145   3.849
 5309SOL    HW116826   3.690   4.192   3.762
 5309SOL    HW216827   3.630   4.081   3.867
 5310SOL     OW16828   5.319   2.563   1.531
 5310SOL    HW116829   5.236   2.618   1.523
 5310SOL    HW216830   5.362   2.556   1.441
 5311SOL     OW16831   2.733   5.212   7.004
 5311SOL    HW116832   2.815   5.254   0.017
 5311SOL    HW216833   2.669   5.283   6.975
 5312SOL     OW16834   1.147   4.434   2.699
 5312SOL    HW116835   1.193   4.449   2.611
 5312SOL    HW216836   1.165   4.510   2.760
 5313SOL     OW16837   0.974   5.949   6.677
 5313SOL    HW116838   0.937   6.037   6.648
 5313SOL    HW216839   0.955   5.880   6.606
 5314SOL     OW16840   4.683   5.360   6.790
 5314SOL    HW116841   4.652   5.403   6.705
 5314SOL    HW216842   4.605   5.349   6.852
 5315SOL     OW16843   5.626   3.905   1.640
 5315SOL    HW116844   5.636   3.996   1.599
 5315SOL    HW216845   5.580   3.913   1.728
 5316SOL     OW16846   7.000   5.043   4.676
 5316SOL    HW116847   0.023   4.961   4.645
 5316SOL    HW216848   7.009   5.115   4.607
 5317SOL     OW16849   5.393   0.532   2.622
 5317SOL    HW116850   5.327   0.600   2.652
 5317SOL    HW216851   5.350   0.470   2.556
 5318SOL     OW16852   0.077   2.823   4.634
 5318SOL    HW116853   0.172   2.802   4.610
 5318SOL    HW216854   0.021   2.741   4.624
 5319SOL     OW16855   5.901   0.243   0.103
 5319SOL    HW116856   5.825   0.184   0.078
 5319SOL    HW216857   5.926   0.301   0.025
 5320SOL     OW16858   5.336   3.423   6.611
 5320SOL    HW116859   5.331   3.329   6.646
 5320SOL    HW216860   5.294   3.485   6.677
 5321SOL     OW16861   1.830   5.510   5.439
 5321SOL    HW116862   1.871   5.423   5.413
 5321SOL    HW216863   1.730   5.500   5.444
 5322SOL     OW16864   4.227   5.841   6.395
 5322SOL    HW116865   4.162   5.791   6.453
 5322SOL    HW216866   4.229   5.937   6.422
 5323SOL     OW16867   3.883   1.602   0.193
 5323SOL    HW116868   3.860   1.695   0.168
 5323SOL    HW216869   3.853   1.583   0.287
 5324SOL     OW16870   4.480   3.038   1.554
 5324SOL    HW116871   4.492   2.939   1.557
 5324SOL    HW216872   4.483   3.075   1.647
 5325SOL     OW16873   5.055   6.262   1.932
 5325SOL    HW116874   5.044   6.336   1.999
 5325SOL    HW216875   4.974   6.256   1.875
 5326SOL     OW16876   6.767   5.886   2.120
 5326SOL    HW116877   6.774   5.986   2.111
 5326SOL    HW216878   6.848   5.852   2.169
 5327SOL     OW16879   6.682   6.890   4.502
 5327SOL    HW116880   6.642   6.919   4.590
 5327SOL    HW216881   6.643   6.946   4.428
 5328SOL     OW16882   3.978   3.734   6.723
 5328SOL    HW116883   4.036   3.809   6.754
 5328SOL    HW216884   4.005   3.707   6.630
 5329SOL     OW16885   0.654   4.541   0.815
 5329SOL    HW116886   0.633   4.450   0.851
 5329SOL    HW216887   0.753   4.548   0.801
 5330SOL     OW16888   3.734   3.932   1.229
 5330SOL    HW116889   3.782   3.844   1.222
 5330SOL    HW216890   3.640   3.922   1.197
 5331SOL     OW16891   4.287   2.186   0.407
 5331SOL    HW116892   4.273   2.087   0.414
 5331SOL    HW216893   4.379   2.209   0.436
 5332SOL     OW16894   6.136   5.415   0.533
 5332SOL    HW116895   6.136   5.443   0.629
 5332SOL    HW216896   6.186   5.329   0.523
 5333SOL     OW16897   1.453   1.458   3.731
 5333SOL    HW116898   1.426   1.546   3.692
 5333SOL    HW216899   1.381   1.391   3.714
 5334SOL     OW16900   4.556   4.363   3.215
 5334SOL    HW116901   4.554   4.281   3.272
 5334SOL    HW216902   4.618   4.430   3.255
 5335SOL     OW16903   0.171   4.690   1.428
 5335SOL    HW116904   0.250   4.721   1.480
 5335SOL    HW216905   0.184   4.594   1.402
 5336SOL     OW16906   1.933   2.184   4.294
 5336SOL    HW116907   2.015   2.200   4.348
 5336SOL    HW216908   1.905   2.269   4.249
 5337SOL     OW16909   6.575   4.122   1.463
 5337SOL    HW116910   6.632   4.062   1.519
 5337SOL    HW216911   6.493   4.147   1.514
 5338SOL     OW16912   6.264   2.954   0.160
 5338SOL    HW116913   6.203   2.878   0.182
 5338SOL    HW216914   6.328   2.968   0.236
 5339SOL     OW16915   6.109   2.280   3.015
 5339SOL    HW116916   6.192   2.242   3.055
 5339SOL    HW216917   6.056   2.207   2.972
 5340SOL     OW16918   5.526   2.860   2.361
 5340SOL    HW116919   5.482   2.788   2.306
 5340SOL    HW216920   5.455   2.916   2.404
 5341SOL     OW16921   4.643   4.750   3.458
 5341SOL    HW116922   4.558   4.802   3.471
 5341SOL    HW216923   4.685   4.731   3.546
 5342SOL     OW16924   6.055   0.089   5.390
 5342SOL    HW116925   6.103   0.002   5.397
 5342SOL    HW216926   6.017   0.114   5.479
 5343SOL     OW16927   3.943   3.739   5.589
 5343SOL    HW116928   3.918   3.801   5.664
 5343SOL    HW216929   4.020   3.777   5.539
 5344SOL     OW16930   0.390   1.550   6.699
 5344SOL    HW116931   0.295   1.539   6.728
 5344SOL    HW216932   0.410   1.648   6.687
 5345SOL     OW16933   5.470   1.242   6.753
 5345SOL    HW116934   5.482   1.262   6.656
 5345SOL    HW216935   5.376   1.212   6.770
 5346SOL     OW16936   2.917   5.280   3.726
 5346SOL    HW116937   2.886   5.189   3.753
 5346SOL    HW216938   3.002   5.272   3.674
 5347SOL     OW16939   6.325   2.089   4.409
 5347SOL    HW116940   6.294   1.994   4.403
 5347SOL    HW216941   6.406   2.101   4.351
 5348SOL     OW16942   5.271   2.113   4.337
 5348SOL    HW116943   5.257   2.210   4.359
 5348SOL    HW216944   5.353   2.104   4.281
 5349SOL     OW16945   0.950   2.861   1.801
 5349SOL    HW116946   0.949   2.940   1.863
 5349SOL    HW216947   0.952   2.892   1.707
 5350SOL     OW16948   2.213   6.376   5.607
 5350SOL    HW116949   2.302   6.422   5.605
 5350SOL    HW216950   2.156   6.411   5.533
 5351SOL     OW16951   0.475   5.422   1.728
 5351SOL    HW116952   0.534   5.418   1.808
 5351SOL    HW216953   0.442   5.331   1.705
 5352SOL     OW16954   2.170   3.666   4.101
 5352SOL    HW116955   2.161   3.756   4.143
 5352SOL    HW216956   2.215   3.675   4.012
 5353SOL     OW16957   4.459   5.445   3.161
 5353SOL    HW116958   4.412   5.491   3.237
 5353SOL    HW216959   4.512   5.368   3.196
 5354SOL     OW16960   4.209   5.598   0.374
 5354SOL    HW116961   4.133   5.533   0.365
 5354SOL    HW216962   4.220   5.622   0.471
 5355SOL     OW16963   5.697   5.005   5.198
 5355SOL    HW116964   5.641   5.088   5.197
 5355SOL    HW216965   5.663   4.941   5.128
 5356SOL     OW16966   0.562   4.887   1.222
 5356SOL    HW116967   0.463   4.895   1.213
 5356SOL    HW216968   0.586   4.795   1.252
 5357SOL     OW16969   4.929   4.950   1.734
 5357SOL    HW116970   4.841   4.999   1.729
 5357SOL    HW216971   4.986   4.976   1.656
 5358SOL     OW16972   4.295   1.341   6.847
 5358SOL    HW116973   4.290   1.371   6.943
 5358SOL    HW216974   4.204   1.347   6.806
 5359SOL     OW16975   1.391   2.002   0.099
 5359SOL    HW116976   1.429   1.913   0.075
 5359SOL    HW216977   1.406   2.020   0.196
 5360SOL     OW16978   5.741   4.457   3.808
 5360SOL    HW116979   5.786   4.507   3.734
 5360SOL    HW216980   5.657   4.414   3.773
 5361SOL     OW16981   3.589   6.313   2.436
 5361SOL    HW116982   3.503   6.350   2.401
 5361SOL    HW216983   3.661   6.383   2.430
 5362SOL     OW16984   5.392   6.810   2.475
 5362SOL    HW116985   5.416   6.887   2.416
 5362SOL    HW216986   5.350   6.844   2.559
 5363SOL     OW16987   5.528   5.510   4.985
 5363SOL    HW116988   5.529   5.519   5.084
 5363SOL    HW216989   5.460   5.442   4.958
 5364SOL     OW16990   4.843   0.818   2.707
 5364SOL    HW116991   4.892   0.793   2.790
 5364SOL    HW216992   4.774   0.888   2.728
 5365SOL     OW16993   3.026   3.269   4.182
 5365SOL    HW116994   2.954   3.338   4.186
 5365SOL    HW216995   3.037   3.237   4.088
 5366SOL     OW16996   6.535   6.616   1.543
 5366SOL    HW116997   6.466   6.672   1.498
 5366SOL    HW216998   6.622   6.666   1.545
 5367SOL     OW16999   0.026   6.431   1.106
 5367SOL    HW117000   0.038   6.396   1.013
 5367SOL    HW217001   7.022   6.527   1.101
 5368SOL     OW17002   6.664   5.542   3.379
 5368SOL    HW117003   6.574   5.562   3.341
 5368SOL    HW217004   6.725   5.512   3.306
 5369SOL     OW17005   2.880   5.708   2.090
 5369SOL    HW117006   2.855   5.612   2.089
 5369SOL    HW217007   2.834   5.756   2.015
 5370SOL     OW17008   3.272   3.942   1.569
 5370SOL    HW117009   3.345   3.895   1.520
 5370SOL    HW217010   3.272   3.913   1.665
 5371SOL     OW17011   6.844   5.151   5.497
 5371SOL    HW117012   6.917   5.084   5.481
 5371SOL    HW217013   6.806   5.137   5.588
 5372SOL     OW17014   0.684   0.569   2.333
 5372SOL    HW117015   0.604   0.626   2.318
 5372SOL    HW217016   0.759   0.625   2.369
 5373SOL     OW17017   3.954   7.016   6.040
 5373SOL    HW117018   3.970   0.089   6.029
 5373SOL    HW217019   3.871   6.991   5.990
 5374SOL     OW17020   2.680   5.438   1.497
 5374SOL    HW117021   2.659   5.380   1.418
 5374SOL    HW217022   2.598   5.450   1.552
 5375SOL     OW17023   0.844   6.061   4.578
 5375SOL    HW117024   0.926   6.090   4.528
 5375SOL    HW217025   0.849   6.095   4.672
 5376SOL     OW17026   1.031   1.434   0.468
 5376SOL    HW117027   1.070   1.454   0.379
 5376SOL    HW217028   0.939   1.396   0.457
 5377SOL     OW17029   2.367   0.562   3.091
 5377SOL    HW117030   2.416   0.648   3.074
 5377SOL    HW217031   2.277   0.582   3.129
 5378SOL     OW17032   5.811   0.726   1.503
 5378SOL    HW117033   5.808   0.824   1.522
 5378SOL    HW217034   5.820   0.675   1.588
 5379SOL     OW17035   0.641   3.168   6.044
 5379SOL    HW117036   0.706   3.240   6.068
 5379SOL    HW217037   0.656   3.140   5.950
 5380SOL     OW17038   4.839   0.477   1.416
 5380SOL    HW117039   4.835   0.388   1.463
 5380SOL    HW217040   4.859   0.462   1.319
 5381SOL     OW17041   4.833   6.409   3.216
 5381SOL    HW117042   4.895   6.417   3.137
 5381SOL    HW217043   4.835   6.494   3.268
 5382SOL     OW17044   4.287   1.914   2.199
 5382SOL    HW117045   4.316   1.973   2.124
 5382SOL    HW217046   4.308   1.819   2.176
 5383SOL     OW17047   2.021   3.130   4.331
 5383SOL    HW117048   2.069   3.214   4.306
 5383SOL    HW217049   1.949   3.112   4.264
 5384SOL     OW17050   4.638   5.896   5.390
 5384SOL    HW117051   4.583   5.885   5.473
 5384SOL    HW217052   4.716   5.834   5.392
 5385SOL     OW17053   5.931   2.599   5.514
 5385SOL    HW117054   5.989   2.576   5.592
 5385SOL    HW217055   5.939   2.528   5.444
 5386SOL     OW17056   6.781   4.357   3.856
 5386SOL    HW117057   6.695   4.369   3.905
 5386SOL    HW217058   6.810   4.261   3.862
 5387SOL     OW17059   2.085   1.377   2.593
 5387SOL    HW117060   2.153   1.344   2.528
 5387SOL    HW217061   2.108   1.344   2.684
 5388SOL     OW17062   1.085   6.973   2.370
 5388SOL    HW117063   1.020   0.023   2.363
 5388SOL    HW217064   1.065   6.906   2.299
 5389SOL     OW17065   4.889   1.910   4.118
 5389SOL    HW117066   4.794   1.898   4.090
 5389SOL    HW217067   4.929   1.986   4.067
 5390SOL     OW17068   6.513   3.319   3.681
 5390SOL    HW117069   6.457   3.240   3.656
 5390SOL    HW217070   6.589   3.288   3.738
 5391SOL     OW17071   2.145   2.713   0.177
 5391SOL    HW117072   2.081   2.672   0.113
 5391SOL    HW217073   2.113   2.698   0.271
 5392SOL     OW17074   5.225   1.732   3.431
 5392SOL    HW117075   5.159   1.796   3.470
 5392SOL    HW217076   5.254   1.765   3.341
 5393SOL     OW17077   3.654   1.385   5.714
 5393SOL    HW117078   3.715   1.377   5.635
 5393SOL    HW217079   3.580   1.449   5.692
 5394SOL     OW17080   1.935   0.286   0.739
 5394SOL    HW117081   2.023   0.254   0.704
 5394SOL    HW217082   1.944   0.381   0.770
 5395SOL     OW17083   5.254   2.580   1.115
 5395SOL    HW117084   5.227   2.515   1.044
 5395SOL    HW217085   5.326   2.640   1.081
 5396SOL     OW17086   6.135   5.373   3.027
 5396SOL    HW117087   6.050   5.338   2.989
 5396SOL    HW217088   6.210   5.352   2.965
 5397SOL     OW17089   6.416   1.249   3.259
 5397SOL    HW117090   6.374   1.311   3.193
 5397SOL    HW217091   6.414   1.156   3.224
 5398SOL     OW17092   4.938   1.890   3.452
 5398SOL    HW117093   4.885   1.945   3.388
 5398SOL    HW217094   4.902   1.902   3.544
 5399SOL     OW17095   2.080   6.941   5.421
 5399SOL    HW117096   2.077   6.905   5.514
 5399SOL    HW217097   2.006   7.008   5.409
 5400SOL     OW17098   3.520   3.349   1.294
 5400SOL    HW117099   3.572   3.377   1.375
 5400SOL    HW217100   3.468   3.266   1.315
 5401SOL     OW17101   5.777   4.262   2.018
 5401SOL    HW117102   5.724   4.245   1.935
 5401SOL    HW217103   5.805   4.358   2.021
 5402SOL     OW17104   1.835   0.043   0.797
 5402SOL    HW117105   1.879   0.133   0.797
 5402SOL    HW217106   1.753   0.046   0.739
 5403SOL     OW17107   4.783   3.236   0.521
 5403SOL    HW117108   4.791   3.154   0.463
 5403SOL    HW217109   4.866   3.245   0.576
 5404SOL     OW17110   6.153   0.766   1.068
 5404SOL    HW117111   6.239   0.718   1.083
 5404SOL    HW217112   6.138   0.831   1.143
 5405SOL     OW17113   5.301   5.637   6.862
 5405SOL    HW117114   5.357   5.677   6.934
 5405SOL    HW217115   5.355   5.572   6.809
 5406SOL     OW17116   2.545   0.370   3.941
 5406SOL    HW117117   2.591   0.446   3.894
 5406SOL    HW217118   2.606   0.332   4.010
 5407SOL     OW17119   2.163   0.412   1.564
 5407SOL    HW117120   2.184   0.473   1.641
 5407SOL    HW217121   2.222   0.436   1.487
 5408SOL     OW17122   2.658   2.464   4.633
 5408SOL    HW117123   2.690   2.456   4.539
 5408SOL    HW217124   2.730   2.434   4.696
 5409SOL     OW17125   1.172   2.779   1.122
 5409SOL    HW117126   1.157   2.693   1.171
 5409SOL    HW217127   1.120   2.778   1.036
 5410SOL     OW17128   0.811   2.156   0.949
 5410SOL    HW117129   0.907   2.160   0.921
 5410SOL    HW217130   0.755   2.127   0.871
 5411SOL     OW17131   4.029   4.964   6.869
 5411SOL    HW117132   4.057   5.028   6.797
 5411SOL    HW217133   4.106   4.903   6.890
 5412SOL     OW17134   0.393   2.269   5.678
 5412SOL    HW117135   0.308   2.311   5.709
 5412SOL    HW217136   0.469   2.299   5.736
 5413SOL     OW17137   6.801   6.843   4.971
 5413SOL    HW117138   6.735   6.915   4.994
 5413SOL    HW217139   6.771   6.757   5.012
 5414SOL     OW17140   6.562   4.327   5.751
 5414SOL    HW117141   6.542   4.358   5.844
 5414SOL    HW217142   6.482   4.342   5.693
 5415SOL     OW17143   3.726   0.558   0.541
 5415SOL    HW117144   3.804   0.620   0.534
 5415SOL    HW217145   3.759   0.463   0.533
 5416SOL     OW17146   3.441   4.957   5.366
 5416SOL    HW117147   3.455   4.902   5.449
 5416SOL    HW217148   3.529   4.970   5.320
 5417SOL     OW17149   4.441   6.160   3.676
 5417SOL    HW117150   4.506   6.229   3.643
 5417SOL    HW217151   4.489   6.074   3.694
 5418SOL     OW17152   6.391   4.245   4.373
 5418SOL    HW117153   6.380   4.243   4.472
 5418SOL    HW217154   6.320   4.303   4.333
 5419SOL     OW17155   3.843   6.812   6.733
 5419SOL    HW117156   3.786   6.735   6.761
 5419SOL    HW217157   3.905   6.783   6.660
 5420SOL     OW17158   1.476   1.033   1.232
 5420SOL    HW117159   1.422   0.979   1.168
 5420SOL    HW217160   1.421   1.053   1.313
 5421SOL     OW17161   3.486   4.993   2.330
 5421SOL    HW117162   3.443   4.938   2.401
 5421SOL    HW217163   3.417   5.024   2.265
 5422SOL     OW17164   2.224   6.400   3.803
 5422SOL    HW117165   2.317   6.435   3.807
 5422SOL    HW217166   2.198   6.384   3.708
 5423SOL     OW17167   6.288   6.575   2.549
 5423SOL    HW117168   6.306   6.673   2.556
 5423SOL    HW217169   6.190   6.560   2.533
 5424SOL     OW17170   4.561   4.108   5.300
 5424SOL    HW117171   4.574   4.122   5.398
 5424SOL    HW217172   4.568   4.196   5.252
 5425SOL     OW17173   0.035   3.543   6.303
 5425SOL    HW117174   0.042   3.526   6.205
 5425SOL    HW217175   0.065   3.461   6.353
 5426SOL     OW17176   5.843   5.249   2.676
 5426SOL    HW117177   5.763   5.268   2.732
 5426SOL    HW217178   5.874   5.333   2.631
 5427SOL     OW17179   4.691   2.525   6.513
 5427SOL    HW117180   4.736   2.439   6.539
 5427SOL    HW217181   4.756   2.582   6.463
 5428SOL     OW17182   6.822   5.401   3.197
 5428SOL    HW117183   6.877   5.418   3.115
 5428SOL    HW217184   6.863   5.327   3.250
 5429SOL     OW17185   2.739   0.226   3.774
 5429SOL    HW117186   2.719   0.189   3.683
 5429SOL    HW217187   2.724   0.325   3.774
 5430SOL     OW17188   2.422   3.661   6.656
 5430SOL    HW117189   2.428   3.666   6.756
 5430SOL    HW217190   2.499   3.609   6.620
 5431SOL     OW17191   3.259   5.078   5.703
 5431SOL    HW117192   3.303   5.000   5.659
 5431SOL    HW217193   3.219   5.138   5.634
 5432SOL     OW17194   5.505   5.585   0.924
 5432SOL    HW117195   5.558   5.656   0.878
 5432SOL    HW217196   5.432   5.553   0.863
 5433SOL     OW17197   1.485   6.756   1.104
 5433SOL    HW117198   1.534   6.807   1.033
 5433SOL    HW217199   1.465   6.817   1.181
 5434SOL     OW17200   5.222   0.843   4.786
 5434SOL    HW117201   5.144   0.831   4.848
 5434SOL    HW217202   5.260   0.935   4.797
 5435SOL     OW17203   6.619   4.011   0.978
 5435SOL    HW117204   6.653   4.054   0.895
 5435SOL    HW217205   6.613   3.912   0.965
 5436SOL     OW17206   1.307   4.530   3.081
 5436SOL    HW117207   1.312   4.591   3.002
 5436SOL    HW217208   1.228   4.469   3.071
 5437SOL     OW17209   3.810   5.714   0.290
 5437SOL    HW117210   3.719   5.744   0.263
 5437SOL    HW217211   3.878   5.776   0.251
 5438SOL     OW17212   4.553   4.446   2.601
 5438SOL    HW117213   4.517   4.390   2.676
 5438SOL    HW217214   4.582   4.387   2.526
 5439SOL     OW17215   0.973   4.616   1.542
 5439SOL    HW117216   1.003   4.524   1.517
 5439SOL    HW217217   0.878   4.613   1.572
 5440SOL     OW17218   5.258   6.242   3.379
 5440SOL    HW117219   5.341   6.298   3.373
 5440SOL    HW217220   5.248   6.189   3.294
 5441SOL     OW17221   4.447   2.103   3.795
 5441SOL    HW117222   4.516   2.048   3.747
 5441SOL    HW217223   4.362   2.101   3.744
 5442SOL     OW17224   5.257   7.000   4.650
 5442SOL    HW117225   5.209   0.060   4.672
 5442SOL    HW217226   5.190   6.927   4.637
 5443SOL     OW17227   4.882   0.136   4.515
 5443SOL    HW117228   4.976   0.141   4.481
 5443SOL    HW217229   4.829   0.214   4.481
 5444SOL     OW17230   0.312   0.971   4.166
 5444SOL    HW117231   0.346   0.878   4.183
 5444SOL    HW217232   0.337   1.030   4.243
 5445SOL     OW17233   5.267   5.495   5.496
 5445SOL    HW117234   5.187   5.458   5.542
 5445SOL    HW217235   5.248   5.589   5.468
 5446SOL     OW17236   0.847   4.475   5.678
 5446SOL    HW117237   0.885   4.383   5.668
 5446SOL    HW217238   0.764   4.472   5.734
 5447SOL     OW17239   0.967   1.394   0.726
 5447SOL    HW117240   0.993   1.412   0.631
 5447SOL    HW217241   0.972   1.479   0.779
 5448SOL     OW17242   4.189   5.580   3.646
 5448SOL    HW117243   4.225   5.596   3.737
 5448SOL    HW217244   4.096   5.543   3.653
 5449SOL     OW17245   3.234   1.816   2.318
 5449SOL    HW117246   3.272   1.852   2.403
 5449SOL    HW217247   3.304   1.817   2.247
 5450SOL     OW17248   4.032   5.657   1.561
 5450SOL    HW117249   4.020   5.682   1.465
 5450SOL    HW217250   4.045   5.740   1.616
 5451SOL     OW17251   1.180   0.234   2.943
 5451SOL    HW117252   1.145   0.246   2.850
 5451SOL    HW217253   1.120   0.172   2.994
 5452SOL     OW17254   1.896   4.861   2.398
 5452SOL    HW117255   1.846   4.901   2.322
 5452SOL    HW217256   1.896   4.761   2.391
 5453SOL     OW17257   5.902   4.172   3.411
 5453SOL    HW117258   5.897   4.084   3.459
 5453SOL    HW217259   5.894   4.156   3.313
 5454SOL     OW17260   6.256   5.348   3.656
 5454SOL    HW117261   6.168   5.395   3.645
 5454SOL    HW217262   6.329   5.407   3.622
 5455SOL     OW17263   0.549   1.791   3.006
 5455SOL    HW117264   0.613   1.715   3.016
 5455SOL    HW217265   0.547   1.821   2.911
 5456SOL     OW17266   5.131   0.957   6.360
 5456SOL    HW117267   5.215   1.010   6.363
 5456SOL    HW217268   5.077   0.983   6.280
 5457SOL     OW17269   6.024   2.166   0.500
 5457SOL    HW117270   6.120   2.147   0.521
 5457SOL    HW217271   5.970   2.084   0.516
 5458SOL     OW17272   6.184   4.672   0.982
 5458SOL    HW117273   6.159   4.579   1.009
 5458SOL    HW217274   6.272   4.696   1.023
 5459SOL     OW17275   2.219   4.467   5.781
 5459SOL    HW117276   2.307   4.453   5.826
 5459SOL    HW217277   2.219   4.423   5.691
 5460SOL     OW17278   1.607   0.248   0.182
 5460SOL    HW117279   1.664   0.189   0.126
 5460SOL    HW217280   1.665   0.309   0.236
 5461SOL     OW17281   6.864   1.197   6.634
 5461SOL    HW117282   6.848   1.172   6.729
 5461SOL    HW217283   6.947   1.152   6.601
 5462SOL     OW17284   5.284   5.914   6.710
 5462SOL    HW117285   5.194   5.917   6.753
 5462SOL    HW217286   5.336   5.838   6.748
 5463SOL     OW17287   6.998   2.702   0.327
 5463SOL    HW117288   7.017   2.747   0.414
 5463SOL    HW217289   6.974   2.772   0.259
 5464SOL     OW17290   6.344   6.444   5.249
 5464SOL    HW117291   6.347   6.510   5.173
 5464SOL    HW217292   6.304   6.358   5.216
 5465SOL     OW17293   7.006   6.488   3.395
 5465SOL    HW117294   0.078   6.478   3.374
 5465SOL    HW217295   6.977   6.582   3.377
 5466SOL     OW17296   6.264   2.898   5.156
 5466SOL    HW117297   6.204   2.977   5.139
 5466SOL    HW217298   6.224   2.841   5.227
 5467SOL     OW17299   5.464   3.892   3.327
 5467SOL    HW117300   5.456   3.933   3.236
 5467SOL    HW217301   5.467   3.964   3.396
 5468SOL     OW17302   6.853   1.460   2.442
 5468SOL    HW117303   6.843   1.370   2.400
 5468SOL    HW217304   6.848   1.451   2.542
 5469SOL     OW17305   2.219   0.833   5.213
 5469SOL    HW117306   2.308   0.866   5.180
 5469SOL    HW217307   2.218   0.733   5.213
 5470SOL     OW17308   4.175   5.332   4.579
 5470SOL    HW117309   4.240   5.365   4.647
 5470SOL    HW217310   4.210   5.249   4.537
 5471SOL     OW17311   4.886   0.171   2.631
 5471SOL    HW117312   4.865   0.130   2.719
 5471SOL    HW217313   4.905   0.269   2.642
 5472SOL     OW17314   3.169   1.469   6.186
 5472SOL    HW117315   3.095   1.472   6.120
 5472SOL    HW217316   3.132   1.452   6.277
 5473SOL     OW17317   2.119   4.671   1.610
 5473SOL    HW117318   2.029   4.713   1.615
 5473SOL    HW217319   2.161   4.692   1.522
 5474SOL     OW17320   0.498   5.484   3.410
 5474SOL    HW117321   0.576   5.440   3.456
 5474SOL    HW217322   0.444   5.414   3.362
 5475SOL     OW17323   0.248   1.902   6.753
 5475SOL    HW117324   0.331   1.884   6.806
 5475SOL    HW217325   0.236   2.001   6.743
 5476SOL     OW17326   2.720   6.340   6.014
 5476SOL    HW117327   2.643   6.382   6.061
 5476SOL    HW217328   2.756   6.402   5.945
 5477SOL     OW17329   2.053   5.262   4.346
 5477SOL    HW117330   2.031   5.165   4.340
 5477SOL    HW217331   2.015   5.300   4.431
 5478SOL     OW17332   5.999   4.641   6.400
 5478SOL    HW117333   6.065   4.591   6.344
 5478SOL    HW217334   5.947   4.578   6.457
 5479SOL     OW17335   4.294   1.996   4.336
 5479SOL    HW117336   4.379   2.039   4.306
 5479SOL    HW217337   4.310   1.899   4.353
 5480SOL     OW17338   6.461   4.108   5.025
 5480SOL    HW117339   6.480   4.206   5.032
 5480SOL    HW217340   6.545   4.060   5.002
 5481SOL     OW17341   4.179   0.866   6.258
 5481SOL    HW117342   4.226   0.952   6.281
 5481SOL    HW217343   4.165   0.862   6.159
 5482SOL     OW17344   3.661   3.360   1.528
 5482SOL    HW117345   3.751   3.317   1.533
 5482SOL    HW217346   3.624   3.371   1.620
 5483SOL     OW17347   6.420   3.359   5.817
 5483SOL    HW117348   6.343   3.416   5.847
 5483SOL    HW217349   6.506   3.407   5.835
 5484SOL     OW17350   6.879   6.597   4.109
 5484SOL    HW117351   6.810   6.580   4.179
 5484SOL    HW217352   6.965   6.555   4.136
 5485SOL     OW17353   3.769   0.003   4.974
 5485SOL    HW117354   3.747   0.009   5.072
 5485SOL    HW217355   3.780   6.933   4.948
 5486SOL     OW17356   1.504   0.709   3.566
 5486SOL    HW117357   1.549   0.742   3.649
 5486SOL    HW217358   1.537   0.760   3.487
 5487SOL     OW17359   6.252   4.457   0.401
 5487SOL    HW117360   6.286   4.532   0.344
 5487SOL    HW217361   6.270   4.478   0.497
 5488SOL     OW17362   4.904   2.326   6.823
 5488SOL    HW117363   4.874   2.279   6.740
 5488SOL    HW217364   5.003   2.332   6.824
 5489SOL     OW17365   1.725   4.456   2.587
 5489SOL    HW117366   1.640   4.473   2.638
 5489SOL    HW217367   1.791   4.528   2.608
 5490SOL     OW17368   3.817   0.730   0.118
 5490SOL    HW117369   3.878   0.702   0.191
 5490SOL    HW217370   3.732   0.676   0.123
 5491SOL     OW17371   1.758   4.718   0.359
 5491SOL    HW117372   1.831   4.650   0.359
 5491SOL    HW217373   1.740   4.748   0.453
 5492SOL     OW17374   1.234   1.808   6.416
 5492SOL    HW117375   1.190   1.819   6.505
 5492SOL    HW217376   1.171   1.835   6.343
 5493SOL     OW17377   3.825   3.221   5.888
 5493SOL    HW117378   3.850   3.251   5.796
 5493SOL    HW217379   3.744   3.271   5.919
 5494SOL     OW17380   6.875   3.484   1.009
 5494SOL    HW117381   6.922   3.567   1.041
 5494SOL    HW217382   6.912   3.405   1.057
 5495SOL     OW17383   3.760   3.804   1.805
 5495SOL    HW117384   3.792   3.774   1.715
 5495SOL    HW217385   3.662   3.789   1.812
 5496SOL     OW17386   3.471   5.930   1.662
 5496SOL    HW117387   3.462   6.023   1.626
 5496SOL    HW217388   3.536   5.879   1.606
 5497SOL     OW17389   0.664   1.534   3.008
 5497SOL    HW117390   0.680   1.457   3.070
 5497SOL    HW217391   0.576   1.522   2.961
 5498SOL     OW17392   4.595   0.846   5.858
 5498SOL    HW117393   4.517   0.907   5.844
 5498SOL    HW217394   4.566   0.766   5.910
 5499SOL     OW17395   0.250   0.744   3.791
 5499SOL    HW117396   0.252   0.783   3.699
 5499SOL    HW217397   0.221   0.814   3.856
 5500SOL     OW17398   2.251   5.174   0.428
 5500SOL    HW117399   2.180   5.109   0.455
 5500SOL    HW217400   2.319   5.128   0.371
 5501SOL     OW17401   2.817   0.374   2.133
 5501SOL    HW117402   2.749   0.365   2.206
 5501SOL    HW217403   2.770   0.383   2.045
 5502SOL     OW17404   5.611   4.099   5.759
 5502SOL    HW117405   5.568   4.138   5.678
 5502SOL    HW217406   5.641   4.173   5.820
 5503SOL     OW17407   1.209   4.421   3.453
 5503SOL    HW117408   1.134   4.484   3.434
 5503SOL    HW217409   1.294   4.459   3.416
 5504SOL     OW17410   3.607   0.729   4.638
 5504SOL    HW117411   3.647   0.638   4.645
 5504SOL    HW217412   3.619   0.778   4.725
 5505SOL     OW17413   2.452   5.939   4.900
 5505SOL    HW117414   2.470   5.956   4.997
 5505SOL    HW217415   2.353   5.927   4.886
 5506SOL     OW17416   6.636   0.681   4.890
 5506SOL    HW117417   6.624   0.593   4.844
 5506SOL    HW217418   6.672   0.748   4.825
 5507SOL     OW17419   2.073   6.424   2.827
 5507SOL    HW117420   1.994   6.436   2.767
 5507SOL    HW217421   2.042   6.392   2.917
 5508SOL     OW17422   2.258   0.806   6.429
 5508SOL    HW117423   2.259   0.859   6.344
 5508SOL    HW217424   2.335   0.833   6.487
 5509SOL     OW17425   5.708   6.248   0.288
 5509SOL    HW117426   5.731   6.256   0.191
 5509SOL    HW217427   5.617   6.208   0.298
 5510SOL     OW17428   3.993   6.551   6.273
 5510SOL    HW117429   3.951   6.486   6.208
 5510SOL    HW217430   4.051   6.615   6.223
 5511SOL     OW17431   0.911   0.506   2.616
 5511SOL    HW117432   0.836   0.454   2.657
 5511SOL    HW217433   0.874   0.590   2.575
 5512SOL     OW17434   6.702   2.041   0.696
 5512SOL    HW117435   6.782   2.001   0.739
 5512SOL    HW217436   6.637   1.969   0.673
 5513SOL     OW17437   4.596   4.732   4.540
 5513SOL    HW117438   4.607   4.683   4.626
 5513SOL    HW217439   4.503   4.768   4.534
 5514SOL     OW17440   5.797   5.090   3.040
 5514SOL    HW117441   5.802   4.991   3.023
 5514SOL    HW217442   5.850   5.112   3.123
 5515SOL     OW17443   6.980   2.977   1.630
 5515SOL    HW117444   0.030   3.041   1.639
 5515SOL    HW217445   6.987   2.907   1.701
 5516SOL     OW17446   1.451   2.869   6.935
 5516SOL    HW117447   1.447   2.947   6.872
 5516SOL    HW217448   1.541   2.826   6.930
 5517SOL     OW17449   3.347   2.447   1.758
 5517SOL    HW117450   3.342   2.352   1.728
 5517SOL    HW217451   3.403   2.453   1.840
 5518SOL     OW17452   5.443   5.133   6.390
 5518SOL    HW117453   5.453   5.059   6.323
 5518SOL    HW217454   5.442   5.095   6.482
 5519SOL     OW17455   5.173   3.912   2.981
 5519SOL    HW117456   5.151   3.824   2.940
 5519SOL    HW217457   5.175   3.983   2.911
 5520SOL     OW17458   1.602   4.429   2.889
 5520SOL    HW117459   1.695   4.416   2.924
 5520SOL    HW217460   1.541   4.454   2.964
 5521SOL     OW17461   4.979   5.992   1.968
 5521SOL    HW117462   5.033   5.937   2.032
 5521SOL    HW217463   5.028   6.077   1.947
 5522SOL     OW17464   2.643   3.429   1.465
 5522SOL    HW117465   2.582   3.352   1.444
 5522SOL    HW217466   2.651   3.440   1.564
 5523SOL     OW17467   3.415   6.488   3.142
 5523SOL    HW117468   3.449   6.557   3.205
 5523SOL    HW217469   3.327   6.454   3.173
 5524SOL     OW17470   0.635   5.606   4.925
 5524SOL    HW117471   0.732   5.616   4.904
 5524SOL    HW217472   0.624   5.544   5.002
 5525SOL     OW17473   6.615   4.966   6.929
 5525SOL    HW117474   6.707   4.990   6.961
 5525SOL    HW217475   6.587   4.879   6.969
 5526SOL     OW17476   6.081   3.317   4.021
 5526SOL    HW117477   6.101   3.410   3.990
 5526SOL    HW217478   6.142   3.292   4.096
 5527SOL     OW17479   0.782   2.539   2.053
 5527SOL    HW117480   0.747   2.447   2.035
 5527SOL    HW217481   0.780   2.593   1.968
 5528SOL     OW17482   0.188   2.823   5.522
 5528SOL    HW117483   0.093   2.799   5.542
 5528SOL    HW217484   0.237   2.838   5.608
 5529SOL     OW17485   2.260   0.342   4.894
 5529SOL    HW117486   2.242   0.390   4.981
 5529SOL    HW217487   2.351   0.301   4.898
 5530SOL     OW17488   0.138   2.506   1.544
 5530SOL    HW117489   0.135   2.478   1.448
 5530SOL    HW217490   0.224   2.555   1.561
 5531SOL     OW17491   4.184   3.417   4.750
 5531SOL    HW117492   4.128   3.368   4.816
 5531SOL    HW217493   4.281   3.397   4.765
 5532SOL     OW17494   1.415   0.893   0.664
 5532SOL    HW117495   1.485   0.825   0.643
 5532SOL    HW217496   1.325   0.856   0.643
 5533SOL     OW17497   2.598   0.988   3.188
 5533SOL    HW117498   2.598   1.080   3.227
 5533SOL    HW217499   2.673   0.979   3.123
 5534SOL     OW17500   0.879   3.134   6.581
 5534SOL    HW117501   0.815   3.109   6.654
 5534SOL    HW217502   0.930   3.052   6.553
 5535SOL     OW17503   6.736   2.938   3.084
 5535SOL    HW117504   6.808   2.916   3.150
 5535SOL    HW217505   6.656   2.881   3.101
 5536SOL     OW17506   2.314   0.792   4.127
 5536SOL    HW117507   2.412   0.791   4.105
 5536SOL    HW217508   2.266   0.727   4.068
 5537SOL     OW17509   3.815   0.417   4.896
 5537SOL    HW117510   3.886   0.465   4.846
 5537SOL    HW217511   3.857   0.348   4.955
 5538SOL     OW17512   4.374   0.631   5.406
 5538SOL    HW117513   4.308   0.563   5.373
 5538SOL    HW217514   4.341   0.669   5.492
 5539SOL     OW17515   0.676   1.688   1.793
 5539SOL    HW117516   0.681   1.589   1.785
 5539SOL    HW217517   0.734   1.731   1.723
 5540SOL     OW17518   5.211   3.055   1.440
 5540SOL    HW117519   5.171   3.072   1.530
 5540SOL    HW217520   5.151   3.091   1.369
 5541SOL     OW17521   5.112   3.305   5.565
 5541SOL    HW117522   5.109   3.206   5.578
 5541SOL    HW217523   5.021   3.338   5.540
 5542SOL     OW17524   5.729   5.435   5.821
 5542SOL    HW117525   5.688   5.361   5.769
 5542SOL    HW217526   5.667   5.514   5.822
 5543SOL     OW17527   2.537   5.395   7.009
 5543SOL    HW117528   2.528   5.482   6.961
 5543SOL    HW217529   2.462   5.385   0.049
 5544SOL     OW17530   5.505   4.984   5.585
 5544SOL    HW117531   5.595   4.986   5.543
 5544SOL    HW217532   5.438   5.025   5.523
 5545SOL     OW17533   4.488   1.222   2.470
 5545SOL    HW117534   4.447   1.148   2.523
 5545SOL    HW217535   4.557   1.268   2.526
 5546SOL     OW17536   1.076   7.012   4.436
 5546SOL    HW117537   1.003   6.973   4.380
 5546SOL    HW217538   1.163   7.002   4.388
 5547SOL     OW17539   3.517   0.976   5.371
 5547SOL    HW117540   3.488   1.064   5.333
 5547SOL    HW217541   3.568   0.925   5.301
 5548SOL     OW17542   6.288   4.185   6.107
 5548SOL    HW117543   6.346   4.106   6.126
 5548SOL    HW217544   6.214   4.190   6.173
 5549SOL     OW17545   4.169   3.298   1.582
 5549SOL    HW117546   4.179   3.200   1.561
 5549SOL    HW217547   4.237   3.324   1.651
 5550SOL     OW17548   2.566   4.640   3.161
 5550SOL    HW117549   2.484   4.632   3.103
 5550SOL    HW217550   2.647   4.625   3.106
 5551SOL     OW17551   1.242   6.619   2.562
 5551SOL    HW117552   1.221   6.582   2.653
 5551SOL    HW217553   1.304   6.557   2.515
 5552SOL     OW17554   5.887   0.571   6.119
 5552SOL    HW117555   5.864   0.477   6.097
 5552SOL    HW217556   5.874   0.587   6.217
 5553SOL     OW17557   4.280   6.696   6.594
 5553SOL    HW117558   4.365   6.743   6.572
 5553SOL    HW217559   4.295   6.598   6.597
 5554SOL     OW17560   5.202   3.537   2.020
 5554SOL    HW117561   5.182   3.448   1.980
 5554SOL    HW217562   5.227   3.601   1.947
 5555SOL     OW17563   1.016   3.283   2.131
 5555SOL    HW117564   1.050   3.352   2.195
 5555SOL    HW217565   0.991   3.326   2.044
 5556SOL     OW17566   6.241   0.604   3.807
 5556SOL    HW117567   6.273   0.511   3.826
 5556SOL    HW217568   6.246   0.621   3.709
 5557SOL     OW17569   4.241   5.376   1.859
 5557SOL    HW117570   4.142   5.390   1.861
 5557SOL    HW217571   4.261   5.279   1.848
 5558SOL     OW17572   3.731   3.536   6.779
 5558SOL    HW117573   3.788   3.617   6.766
 5558SOL    HW217574   3.686   3.513   6.693
 5559SOL     OW17575   1.660   0.442   2.128
 5559SOL    HW117576   1.696   0.475   2.040
 5559SOL    HW217577   1.694   0.499   2.202
 5560SOL     OW17578   0.219   5.696   1.428
 5560SOL    HW117579   0.303   5.695   1.483
 5560SOL    HW217580   0.195   5.602   1.403
 5561SOL     OW17581   2.916   0.530   4.383
 5561SOL    HW117582   2.859   0.584   4.445
 5561SOL    HW217583   2.978   0.590   4.333
 5562SOL     OW17584   4.530   3.556   0.464
 5562SOL    HW117585   4.520   3.473   0.409
 5562SOL    HW217586   4.470   3.551   0.543
 5563SOL     OW17587   2.620   5.120   2.872
 5563SOL    HW117588   2.568   5.163   2.946
 5563SOL    HW217589   2.562   5.111   2.791
 5564SOL     OW17590   4.501   7.014   6.043
 5564SOL    HW117591   4.402   0.003   6.051
 5564SOL    HW217592   4.535   6.968   6.125
 5565SOL     OW17593   3.745   2.426   6.206
 5565SOL    HW117594   3.817   2.457   6.268
 5565SOL    HW217595   3.680   2.501   6.190
 5566SOL     OW17596   2.218   4.487   0.055
 5566SOL    HW117597   2.185   4.507   6.988
 5566SOL    HW217598   2.316   4.470   0.053
 5567SOL     OW17599   0.188   4.070   1.574
 5567SOL    HW117600   0.159   4.165   1.561
 5567SOL    HW217601   0.150   4.013   1.502
 5568SOL     OW17602   4.634   1.111   3.424
 5568SOL    HW117603   4.662   1.207   3.426
 5568SOL    HW217604   4.666   1.069   3.339
 5569SOL     OW17605   2.144   2.134   2.277
 5569SOL    HW117606   2.224   2.191   2.292
 5569SOL    HW217607   2.135   2.068   2.352
 5570SOL     OW17608   6.167   3.431   3.626
 5570SOL    HW117609   6.236   3.471   3.686
 5570SOL    HW217610   6.189   3.451   3.531
 5571SOL     OW17611   6.517   5.786   2.283
 5571SOL    HW117612   6.460   5.849   2.230
 5571SOL    HW217613   6.613   5.802   2.262
 5572SOL     OW17614   1.221   4.480   4.654
 5572SOL    HW117615   1.123   4.467   4.670
 5572SOL    HW217616   1.262   4.520   4.736
 5573SOL     OW17617   1.387   5.878   5.619
 5573SOL    HW117618   1.414   5.952   5.558
 5573SOL    HW217619   1.340   5.915   5.699
 5574SOL     OW17620   0.258   2.773   0.989
 5574SOL    HW117621   0.273   2.710   0.913
 5574SOL    HW217622   0.171   2.820   0.976
 5575SOL     OW17623   6.645   0.850   0.704
 5575SOL    HW117624   6.553   0.883   0.724
 5575SOL    HW217625   6.710   0.926   0.708
 5576SOL     OW17626   1.236   4.453   2.438
 5576SOL    HW117627   1.323   4.406   2.421
 5576SOL    HW217628   1.164   4.410   2.383
 5577SOL     OW17629   2.535   2.342   6.619
 5577SOL    HW117630   2.470   2.274   6.654
 5577SOL    HW217631   2.486   2.410   6.564
 5578SOL     OW17632   3.488   4.131   2.373
 5578SOL    HW117633   3.422   4.197   2.408
 5578SOL    HW217634   3.574   4.140   2.424
 5579SOL     OW17635   0.542   4.050   0.612
 5579SOL    HW117636   0.554   3.978   0.544
 5579SOL    HW217637   0.516   4.136   0.567
 5580SOL     OW17638   4.675   1.861   5.666
 5580SOL    HW117639   4.734   1.914   5.725
 5580SOL    HW217640   4.591   1.912   5.647
 5581SOL     OW17641   1.497   0.680   1.978
 5581SOL    HW117642   1.588   0.650   1.951
 5581SOL    HW217643   1.499   0.776   2.005
 5582SOL     OW17644   2.920   4.261   6.356
 5582SOL    HW117645   2.965   4.307   6.434
 5582SOL    HW217646   2.821   4.267   6.367
 5583SOL     OW17647   4.354   1.061   2.672
 5583SOL    HW117648   4.415   1.111   2.735
 5583SOL    HW217649   4.265   1.049   2.716
 5584SOL     OW17650   6.972   4.020   4.375
 5584SOL    HW117651   6.962   3.948   4.306
 5584SOL    HW217652   6.954   4.109   4.333
 5585SOL     OW17653   5.758   5.739   3.136
 5585SOL    HW117654   5.741   5.666   3.069
 5585SOL    HW217655   5.846   5.723   3.180
 5586SOL     OW17656   6.937   4.001   5.932
 5586SOL    HW117657   6.857   3.943   5.941
 5586SOL    HW217658   6.998   3.987   6.011
 5587SOL     OW17659   4.387   6.928   0.262
 5587SOL    HW117660   4.314   6.979   0.310
 5587SOL    HW217661   4.476   6.967   0.287
 5588SOL     OW17662   2.049   5.695   3.323
 5588SOL    HW117663   2.051   5.747   3.408
 5588SOL    HW217664   1.960   5.706   3.279
 5589SOL     OW17665   5.974   3.935   5.871
 5589SOL    HW117666   5.990   3.964   5.776
 5589SOL    HW217667   6.053   3.882   5.904
 5590SOL     OW17668   0.009   6.226   3.908
 5590SOL    HW117669   0.079   6.179   3.854
 5590SOL    HW217670   6.985   6.290   3.849
 5591SOL     OW17671   6.776   1.996   1.853
 5591SOL    HW117672   6.846   2.034   1.913
 5591SOL    HW217673   6.751   1.904   1.885
 5592SOL     OW17674   2.117   5.751   3.643
 5592SOL    HW117675   2.192   5.787   3.588
 5592SOL    HW217676   2.086   5.664   3.604
 5593SOL     OW17677   0.411   3.007   7.020
 5593SOL    HW117678   0.405   3.064   6.939
 5593SOL    HW217679   0.348   2.929   7.012
 5594SOL     OW17680   5.324   0.800   5.480
 5594SOL    HW117681   5.285   0.776   5.569
 5594SOL    HW217682   5.327   0.718   5.422
 5595SOL     OW17683   1.080   1.833   5.020
 5595SOL    HW117684   1.180   1.830   5.014
 5595SOL    HW217685   1.046   1.916   4.977
 5596SOL     OW17686   4.128   0.568   2.840
 5596SOL    HW117687   4.118   0.468   2.840
 5596SOL    HW217688   4.188   0.596   2.764
 5597SOL     OW17689   4.658   2.734   4.722
 5597SOL    HW117690   4.660   2.773   4.814
 5597SOL    HW217691   4.703   2.796   4.658
 5598SOL     OW17692   5.186   3.828   4.339
 5598SOL    HW117693   5.124   3.818   4.417
 5598SOL    HW217694   5.280   3.820   4.370
 5599SOL     OW17695   1.288   1.720   4.201
 5599SOL    HW117696   1.201   1.699   4.246
 5599SOL    HW217697   1.302   1.659   4.124
 5600SOL     OW17698   1.031   1.013   1.861
 5600SOL    HW117699   0.947   0.965   1.886
 5600SOL    HW217700   1.085   1.033   1.943
 5601SOL     OW17701   2.452   0.850   4.781
 5601SOL    HW117702   2.360   0.816   4.795
 5601SOL    HW217703   2.500   0.857   4.869
 5602SOL     OW17704   6.123   1.871   1.481
 5602SOL    HW117705   6.194   1.808   1.515
 5602SOL    HW217706   6.040   1.819   1.461
 5603SOL     OW17707   5.502   1.683   6.654
 5603SOL    HW117708   5.502   1.608   6.719
 5603SOL    HW217709   5.571   1.751   6.680
 5604SOL     OW17710   6.365   2.003   4.672
 5604SOL    HW117711   6.371   2.047   4.582
 5604SOL    HW217712   6.299   2.052   4.729
 5605SOL     OW17713   0.437   0.488   5.132
 5605SOL    HW117714   0.444   0.540   5.218
 5605SOL    HW217715   0.528   0.482   5.091
 5606SOL     OW17716   4.922   6.678   6.961
 5606SOL    HW117717   4.955   6.686   6.867
 5606SOL    HW217718   4.876   6.590   6.972
 5607SOL     OW17719   5.157   0.691   2.638
 5607SOL    HW117720   5.163   0.790   2.631
 5607SOL    HW217721   5.103   0.656   2.561
 5608SOL     OW17722   4.938   0.032   4.789
 5608SOL    HW117723   4.936   0.100   4.716
 5608SOL    HW217724   4.988   0.069   4.867
 5609SOL     OW17725   3.023   6.278   1.161
 5609SOL    HW117726   2.986   6.202   1.215
 5609SOL    HW217727   3.064   6.346   1.222
 5610SOL     OW17728   4.260   6.320   0.450
 5610SOL    HW117729   4.324   6.256   0.408
 5610SOL    HW217730   4.275   6.322   0.549
 5611SOL     OW17731   1.157   5.371   2.623
 5611SOL    HW117732   1.078   5.363   2.562
 5611SOL    HW217733   1.230   5.422   2.578
 5612SOL     OW17734   3.705   2.038   6.749
 5612SOL    HW117735   3.787   2.003   6.704
 5612SOL    HW217736   3.729   2.070   6.840
 5613SOL     OW17737   5.674   4.000   4.077
 5613SOL    HW117738   5.625   4.081   4.108
 5613SOL    HW217739   5.642   3.975   3.986
 5614SOL     OW17740   4.520   2.604   4.044
 5614SOL    HW117741   4.605   2.651   4.070
 5614SOL    HW217742   4.442   2.664   4.060
 5615SOL     OW17743   0.574   1.367   5.010
 5615SOL    HW117744   0.489   1.418   5.019
 5615SOL    HW217745   0.556   1.269   5.018
 5616SOL     OW17746   2.679   1.957   5.175
 5616SOL    HW117747   2.598   1.941   5.119
 5616SOL    HW217748   2.692   2.056   5.188
 5617SOL     OW17749   3.235   0.379   6.166
 5617SOL    HW117750   3.315   0.412   6.215
 5617SOL    HW217751   3.205   0.292   6.204
 5618SOL     OW17752   0.119   4.111   3.849
 5618SOL    HW117753   0.141   4.062   3.765
 5618SOL    HW217754   0.168   4.069   3.925
 5619SOL     OW17755   2.747   3.911   5.808
 5619SOL    HW117756   2.732   3.813   5.822
 5619SOL    HW217757   2.824   3.942   5.864
 5620SOL     OW17758   3.891   2.806   0.855
 5620SOL    HW117759   3.967   2.742   0.841
 5620SOL    HW217760   3.815   2.759   0.900
 5621SOL     OW17761   1.317   2.359   6.390
 5621SOL    HW117762   1.274   2.436   6.437
 5621SOL    HW217763   1.267   2.275   6.412
 5622SOL     OW17764   4.795   0.183   6.250
 5622SOL    HW117765   4.753   0.095   6.271
 5622SOL    HW217766   4.894   0.171   6.242
 5623SOL     OW17767   2.241   6.172   5.122
 5623SOL    HW117768   2.215   6.256   5.169
 5623SOL    HW217769   2.164   6.138   5.068
 5624SOL     OW17770   1.088   4.180   3.418
 5624SOL    HW117771   1.122   4.131   3.498
 5624SOL    HW217772   1.133   4.269   3.411
 5625SOL     OW17773   6.524   1.683   4.608
 5625SOL    HW117774   6.553   1.592   4.579
 5625SOL    HW217775   6.440   1.677   4.661
 5626SOL     OW17776   2.765   6.554   3.782
 5626SOL    HW117777   2.773   6.653   3.799
 5626SOL    HW217778   2.684   6.536   3.728
 5627SOL     OW17779   0.878   5.802   6.445
 5627SOL    HW117780   0.797   5.860   6.445
 5627SOL    HW217781   0.927   5.812   6.359
 5628SOL     OW17782   1.335   2.603   6.893
 5628SOL    HW117783   1.389   2.687   6.910
 5628SOL    HW217784   1.245   2.613   6.934
 5629SOL     OW17785   3.126   4.050   2.339
 5629SOL    HW117786   3.192   3.993   2.388
 5629SOL    HW217787   3.042   4.058   2.392
 5630SOL     OW17788   1.936   4.597   1.022
 5630SOL    HW117789   1.941   4.501   0.995
 5630SOL    HW217790   2.029   4.636   1.024
 5631SOL     OW17791   4.268   1.885   0.432
 5631SOL    HW117792   4.206   1.841   0.497
 5631SOL    HW217793   4.359   1.844   0.440
 5632SOL     OW17794   3.577   2.673   6.184
 5632SOL    HW117795   3.667   2.712   6.199
 5632SOL    HW217796   3.545   2.630   6.269
 5633SOL     OW17797   6.875   3.169   4.543
 5633SOL    HW117798   6.952   3.211   4.495
 5633SOL    HW217799   6.835   3.098   4.485
 5634SOL     OW17800   2.079   5.437   4.610
 5634SOL    HW117801   2.020   5.359   4.628
 5634SOL    HW217802   2.154   5.439   4.676
 5635SOL     OW17803   1.945   3.889   5.465
 5635SOL    HW117804   1.986   3.962   5.410
 5635SOL    HW217805   1.936   3.806   5.409
 5636SOL     OW17806   3.717   6.649   3.736
 5636SOL    HW117807   3.800   6.666   3.788
 5636SOL    HW217808   3.718   6.704   3.652
 5637SOL     OW17809   4.554   6.893   3.681
 5637SOL    HW117810   4.558   6.824   3.608
 5637SOL    HW217811   4.614   6.969   3.658
 5638SOL     OW17812   6.037   4.038   1.399
 5638SOL    HW117813   6.124   4.024   1.351
 5638SOL    HW217814   6.045   4.004   1.493
 5639SOL     OW17815   0.801   0.517   0.426
 5639SOL    HW117816   0.739   0.476   0.492
 5639SOL    HW217817   0.748   0.564   0.355
 5640SOL     OW17818   2.747   0.531   3.800
 5640SOL    HW117819   2.732   0.535   3.701
 5640SOL    HW217820   2.773   0.621   3.834
 5641SOL     OW17821   0.662   5.011   5.199
 5641SOL    HW117822   0.646   4.961   5.114
 5641SOL    HW217823   0.750   4.982   5.239
 5642SOL     OW17824   2.118   6.986   5.937
 5642SOL    HW117825   2.150   0.051   5.962
 5642SOL    HW217826   2.018   6.987   5.927
 5643SOL     OW17827   4.449   1.257   5.080
 5643SOL    HW117828   4.407   1.246   4.990
 5643SOL    HW217829   4.442   1.171   5.131
 5644SOL     OW17830   3.176   7.008   4.948
 5644SOL    HW117831   3.156   6.966   4.859
 5644SOL    HW217832   3.271   0.014   4.949
 5645SOL     OW17833   6.516   4.318   3.974
 5645SOL    HW117834   6.549   4.274   4.057
 5645SOL    HW217835   6.451   4.257   3.928
 5646SOL     OW17836   1.746   5.518   2.964
 5646SOL    HW117837   1.843   5.505   2.942
 5646SOL    HW217838   1.691   5.502   2.881
 5647SOL     OW17839   5.191   0.103   0.967
 5647SOL    HW117840   5.173   0.010   1.000
 5647SOL    HW217841   5.107   0.142   0.930
 5648SOL     OW17842   1.830   5.976   2.892
 5648SOL    HW117843   1.818   5.992   2.990
 5648SOL    HW217844   1.845   6.063   2.845
 5649SOL     OW17845   0.984   6.778   3.833
 5649SOL    HW117846   1.080   6.757   3.816
 5649SOL    HW217847   0.927   6.709   3.789
 5650SOL     OW17848   0.988   4.882   1.631
 5650SOL    HW117849   1.003   4.943   1.552
 5650SOL    HW217850   0.979   4.788   1.599
 5651SOL     OW17851   1.307   0.938   0.339
 5651SOL    HW117852   1.317   0.910   0.435
 5651SOL    HW217853   1.316   0.858   0.279
 5652SOL     OW17854   6.845   5.821   0.788
 5652SOL    HW117855   6.877   5.777   0.872
 5652SOL    HW217856   6.820   5.916   0.808
 5653SOL     OW17857   0.198   6.093   0.018
 5653SOL    HW117858   0.101   6.098   7.023
 5653SOL    HW217859   0.228   5.997   0.016
 5654SOL     OW17860   1.300   5.575   4.430
 5654SOL    HW117861   1.207   5.610   4.445
 5654SOL    HW217862   1.312   5.490   4.480
 5655SOL     OW17863   0.122   2.850   3.447
 5655SOL    HW117864   0.136   2.942   3.485
 5655SOL    HW217865   0.210   2.811   3.420
 5656SOL     OW17866   6.727   4.148   6.398
 5656SOL    HW117867   6.736   4.092   6.480
 5656SOL    HW217868   6.806   4.209   6.390
 5657SOL     OW17869   4.655   4.358   5.200
 5657SOL    HW117870   4.689   4.380   5.291
 5657SOL    HW217871   4.729   4.369   5.133
 5658SOL     OW17872   2.709   3.636   5.814
 5658SOL    HW117873   2.686   3.589   5.729
 5658SOL    HW217874   2.772   3.579   5.868
 5659SOL     OW17875   3.707   3.898   5.833
 5659SOL    HW117876   3.793   3.855   5.860
 5659SOL    HW217877   3.639   3.883   5.904
 5660SOL     OW17878   4.125   6.320   6.104
 5660SOL    HW117879   4.110   6.248   6.037
 5660SOL    HW217880   4.140   6.407   6.057
 5661SOL     OW17881   1.573   5.523   4.711
 5661SOL    HW117882   1.666   5.531   4.747
 5661SOL    HW217883   1.530   5.442   4.751
 5662SOL     OW17884   2.586   0.333   2.518
 5662SOL    HW117885   2.555   0.238   2.512
 5662SOL    HW217886   2.683   0.335   2.541
 5663SOL     OW17887   2.495   2.184   0.931
 5663SOL    HW117888   2.571   2.126   0.960
 5663SOL    HW217889   2.531   2.264   0.883
 5664SOL     OW17890   6.219   3.326   4.256
 5664SOL    HW117891   6.299   3.334   4.316
 5664SOL    HW217892   6.136   3.328   4.311
 5665SOL     OW17893   0.953   5.854   0.136
 5665SOL    HW117894   0.950   5.935   0.078
 5665SOL    HW217895   1.014   5.871   0.214
 5666SOL     OW17896   5.999   0.838   3.525
 5666SOL    HW117897   6.027   0.816   3.432
 5666SOL    HW217898   6.077   0.826   3.587
 5667SOL     OW17899   0.934   5.283   5.089
 5667SOL    HW117900   0.990   5.338   5.151
 5667SOL    HW217901   0.963   5.188   5.095
 5668SOL     OW17902   6.025   2.823   2.948
 5668SOL    HW117903   5.992   2.770   2.870
 5668SOL    HW217904   6.018   2.768   3.031
 5669SOL     OW17905   6.838   5.213   0.629
 5669SOL    HW117906   6.900   5.142   0.662
 5669SOL    HW217907   6.763   5.170   0.579
 5670SOL     OW17908   1.572   2.883   3.833
 5670SOL    HW117909   1.625   2.959   3.869
 5670SOL    HW217910   1.483   2.916   3.802
 5671SOL     OW17911   6.349   5.378   5.468
 5671SOL    HW117912   6.295   5.337   5.395
 5671SOL    HW217913   6.328   5.331   5.554
 5672SOL     OW17914   5.050   4.265   5.265
 5672SOL    HW117915   5.014   4.219   5.347
 5672SOL    HW217916   5.096   4.198   5.207
 5673SOL     OW17917   1.212   6.222   1.222
 5673SOL    HW117918   1.221   6.214   1.122
 5673SOL    HW217919   1.173   6.137   1.258
 5674SOL     OW17920   2.227   4.920   4.753
 5674SOL    HW117921   2.220   4.957   4.660
 5674SOL    HW217922   2.198   4.824   4.752
 5675SOL     OW17923   4.677   2.307   0.257
 5675SOL    HW117924   4.756   2.336   0.203
 5675SOL    HW217925   4.629   2.234   0.209
 5676SOL     OW17926   2.819   1.663   2.305
 5676SOL    HW117927   2.859   1.748   2.271
 5676SOL    HW217928   2.780   1.612   2.229
 5677SOL     OW17929   0.312   0.738   0.035
 5677SOL    HW117930   0.333   0.640   0.041
 5677SOL    HW217931   0.247   0.763   0.107
 5678SOL     OW17932   4.508   1.025   2.133
 5678SOL    HW117933   4.430   0.980   2.177
 5678SOL    HW217934   4.590   1.012   2.189
 5679SOL     OW17935   5.322   1.714   4.131
 5679SOL    HW117936   5.370   1.658   4.063
 5679SOL    HW217937   5.371   1.800   4.144
 5680SOL     OW17938   1.819   4.850   6.753
 5680SOL    HW117939   1.739   4.799   6.722
 5680SOL    HW217940   1.791   4.942   6.781
 5681SOL     OW17941   0.375   3.826   2.143
 5681SOL    HW117942   0.359   3.821   2.242
 5681SOL    HW217943   0.359   3.736   2.103
 5682SOL     OW17944   2.323   5.495   4.029
 5682SOL    HW117945   2.327   5.513   4.127
 5682SOL    HW217946   2.414   5.469   3.996
 5683SOL     OW17947   3.897   2.657   6.047
 5683SOL    HW117948   3.992   2.687   6.057
 5683SOL    HW217949   3.880   2.579   6.108
 5684SOL     OW17950   1.809   3.776   6.238
 5684SOL    HW117951   1.809   3.838   6.317
 5684SOL    HW217952   1.804   3.831   6.154
 5685SOL     OW17953   2.240   2.078   2.808
 5685SOL    HW117954   2.270   1.987   2.779
 5685SOL    HW217955   2.222   2.135   2.728
 5686SOL     OW17956   3.186   1.330   4.720
 5686SOL    HW117957   3.088   1.326   4.740
 5686SOL    HW217958   3.221   1.421   4.743
 5687SOL     OW17959   1.068   6.118   6.286
 5687SOL    HW117960   1.111   6.161   6.366
 5687SOL    HW217961   1.025   6.189   6.230
 5688SOL     OW17962   2.008   2.940   3.058
 5688SOL    HW117963   1.950   2.895   2.990
 5688SOL    HW217964   2.083   2.988   3.012
 5689SOL     OW17965   2.649   0.484   1.865
 5689SOL    HW117966   2.613   0.536   1.788
 5689SOL    HW217967   2.715   0.416   1.833
 5690SOL     OW17968   1.522   5.145   6.528
 5690SOL    HW117969   1.522   5.045   6.520
 5690SOL    HW217970   1.493   5.171   6.621
 5691SOL     OW17971   3.769   1.136   2.646
 5691SOL    HW117972   3.738   1.218   2.694
 5691SOL    HW217973   3.847   1.158   2.588
 5692SOL     OW17974   4.945   4.516   1.196
 5692SOL    HW117975   4.857   4.552   1.227
 5692SOL    HW217976   4.950   4.522   1.096
 5693SOL     OW17977   4.583   0.327   1.450
 5693SOL    HW117978   4.609   0.416   1.413
 5693SOL    HW217979   4.484   0.325   1.463
 5694SOL     OW17980   0.319   0.112   2.366
 5694SOL    HW117981   0.332   0.095   2.463
 5694SOL    HW217982   0.399   0.081   2.315
 5695SOL     OW17983   1.162   1.293   2.834
 5695SOL    HW117984   1.123   1.384   2.848
 5695SOL    HW217985   1.095   1.235   2.787
 5696SOL     OW17986   1.304   0.200   3.817
 5696SOL    HW117987   1.221   0.206   3.763
 5696SOL    HW217988   1.365   0.276   3.793
 5697SOL     OW17989   6.021   1.951   2.411
 5697SOL    HW117990   6.049   1.970   2.504
 5697SOL    HW217991   6.045   2.028   2.352
 5698SOL     OW17992   1.467   3.861   4.496
 5698SOL    HW117993   1.419   3.871   4.409
 5698SOL    HW217994   1.555   3.817   4.480
 5699SOL     OW17995   2.018   2.850   2.658
 5699SOL    HW117996   1.952   2.824   2.729
 5699SOL    HW217997   2.026   2.775   2.592
 5700SOL     OW17998   6.750   0.046   3.492
 5700SOL    HW117999   6.849   0.035   3.491
 5700SOL    HW218000   6.707   6.992   3.449
 5701SOL     OW18001   6.806   0.626   1.300
 5701SOL    HW118002   6.778   0.716   1.330
 5701SOL    HW218003   6.786   0.615   1.202
 5702SOL     OW18004   1.600   6.524   4.353
 5702SOL    HW118005   1.505   6.516   4.322
 5702SOL    HW218006   1.660   6.473   4.290
 5703SOL     OW18007   6.619   4.100   6.817
 5703SOL    HW118008   6.710   4.079   6.783
 5703SOL    HW218009   6.588   4.188   6.780
 5704SOL     OW18010   4.849   3.857   3.208
 5704SOL    HW118011   4.934   3.907   3.221
 5704SOL    HW218012   4.868   3.770   3.163
 5705SOL     OW18013   5.596   5.898   6.481
 5705SOL    HW118014   5.602   5.817   6.540
 5705SOL    HW218015   5.578   5.979   6.538
 5706SOL     OW18016   5.095   2.682   1.781
 5706SOL    HW118017   5.064   2.592   1.750
 5706SOL    HW218018   5.018   2.733   1.818
 5707SOL     OW18019   6.211   0.178   0.673
 5707SOL    HW118020   6.132   0.238   0.685
 5707SOL    HW218021   6.289   0.232   0.641
 5708SOL     OW18022   5.028   6.359   2.621
 5708SOL    HW118023   4.953   6.392   2.564
 5708SOL    HW218024   5.056   6.432   2.684
 5709SOL     OW18025   0.744   0.936   2.623
 5709SOL    HW118026   0.733   1.035   2.614
 5709SOL    HW218027   0.792   0.916   2.709
 5710SOL     OW18028   3.049   1.909   0.497
 5710SOL    HW118029   3.032   1.820   0.540
 5710SOL    HW218030   3.144   1.935   0.511
 5711SOL     OW18031   4.930   0.305   1.908
 5711SOL    HW118032   4.843   0.285   1.861
 5711SOL    HW218033   4.987   0.361   1.848
 5712SOL     OW18034   6.626   6.663   0.177
 5712SOL    HW118035   6.611   6.755   0.142
 5712SOL    HW218036   6.724   6.645   0.182
 5713SOL     OW18037   3.516   4.729   1.157
 5713SOL    HW118038   3.528   4.827   1.140
 5713SOL    HW218039   3.429   4.699   1.116
 5714SOL     OW18040   6.905   6.313   0.556
 5714SOL    HW118041   6.846   6.393   0.551
 5714SOL    HW218042   6.976   6.319   0.487
 5715SOL     OW18043   6.796   0.667   2.575
 5715SOL    HW118044   6.754   0.585   2.612
 5715SOL    HW218045   6.738   0.706   2.503
 5716SOL     OW18046   1.184   5.727   6.402
 5716SOL    HW118047   1.154   5.773   6.485
 5716SOL    HW218048   1.258   5.664   6.424
 5717SOL     OW18049   2.252   5.327   1.828
 5717SOL    HW118050   2.187   5.337   1.904
 5717SOL    HW218051   2.201   5.309   1.743
 5718SOL     OW18052   0.860   3.589   0.105
 5718SOL    HW118053   0.789   3.611   0.038
 5718SOL    HW218054   0.891   3.673   0.150
 5719SOL     OW18055   2.832   3.598   0.693
 5719SOL    HW118056   2.806   3.676   0.750
 5719SOL    HW218057   2.810   3.513   0.742
 5720SOL     OW18058   1.677   6.594   4.781
 5720SOL    HW118059   1.583   6.597   4.745
 5720SOL    HW218060   1.676   6.620   4.878
 5721SOL     OW18061   5.936   4.250   0.728
 5721SOL    HW118062   5.865   4.235   0.659
 5721SOL    HW218063   5.962   4.347   0.728
 5722SOL     OW18064   6.927   2.436   5.229
 5722SOL    HW118065   6.937   2.535   5.239
 5722SOL    HW218066   6.996   2.390   5.286
 5723SOL     OW18067   4.286   3.841   0.046
 5723SOL    HW118068   4.243   3.771   0.103
 5723SOL    HW218069   4.356   3.799   7.014
 5724SOL     OW18070   6.027   2.962   3.373
 5724SOL    HW118071   6.007   2.864   3.384
 5724SOL    HW218072   5.990   3.013   3.450
 5725SOL     OW18073   6.816   5.049   4.246
 5725SOL    HW118074   6.799   4.961   4.292
 5725SOL    HW218075   6.880   5.103   4.301
 5726SOL     OW18076   6.027   5.139   3.936
 5726SOL    HW118077   6.125   5.130   3.919
 5726SOL    HW218078   6.006   5.109   4.029
 5727SOL     OW18079   0.058   2.494   4.829
 5727SOL    HW118080   0.080   2.570   4.891
 5727SOL    HW218081   0.143   2.451   4.798
 5728SOL     OW18082   5.477   6.014   5.232
 5728SOL    HW118083   5.514   6.095   5.275
 5728SOL    HW218084   5.546   5.974   5.171
 5729SOL     OW18085   1.161   2.308   6.183
 5729SOL    HW118086   1.089   2.250   6.223
 5729SOL    HW218087   1.237   2.315   6.248
 5730SOL     OW18088   6.470   4.243   6.360
 5730SOL    HW118089   6.562   4.203   6.369
 5730SOL    HW218090   6.405   4.190   6.413
 5731SOL     OW18091   6.868   6.990   2.163
 5731SOL    HW118092   6.777   6.956   2.185
 5731SOL    HW218093   6.914   7.018   2.247
 5732SOL     OW18094   1.315   6.890   3.262
 5732SOL    HW118095   1.308   6.816   3.329
 5732SOL    HW218096   1.250   6.962   3.285
 5733SOL     OW18097   4.061   6.684   5.157
 5733SOL    HW118098   4.067   6.778   5.122
 5733SOL    HW218099   4.062   6.686   5.257
 5734SOL     OW18100   1.311   6.802   4.956
 5734SOL    HW118101   1.242   6.743   4.913
 5734SOL    HW218102   1.265   6.872   5.011
 5735SOL     OW18103   3.052   1.367   1.166
 5735SOL    HW118104   2.965   1.347   1.212
 5735SOL    HW218105   3.126   1.323   1.216
 5736SOL     OW18106   0.229   4.175   0.143
 5736SOL    HW118107   0.151   4.115   0.158
 5736SOL    HW218108   0.234   4.199   0.047
 5737SOL     OW18109   5.645   6.524   6.624
 5737SOL    HW118110   5.714   6.484   6.563
 5737SOL    HW218111   5.554   6.503   6.590
 5738SOL     OW18112   1.353   3.410   6.671
 5738SOL    HW118113   1.451   3.402   6.692
 5738SOL    HW218114   1.329   3.345   6.600
 5739SOL     OW18115   1.659   1.214   6.525
 5739SOL    HW118116   1.609   1.160   6.593
 5739SOL    HW218117   1.717   1.154   6.470
 5740SOL     OW18118   4.582   5.867   0.229
 5740SOL    HW118119   4.541   5.943   0.177
 5740SOL    HW218120   4.644   5.904   0.298
 5741SOL     OW18121   6.728   5.721   4.451
 5741SOL    HW118122   6.812   5.736   4.399
 5741SOL    HW218123   6.668   5.659   4.401
 5742SOL     OW18124   5.181   6.445   2.418
 5742SOL    HW118125   5.131   6.432   2.504
 5742SOL    HW218126   5.152   6.377   2.351
 5743SOL     OW18127   2.621   0.095   4.649
 5743SOL    HW118128   2.625   0.025   4.721
 5743SOL    HW218129   2.594   0.053   4.563
 5744SOL     OW18130   4.956   0.841   0.499
 5744SOL    HW118131   4.941   0.788   0.415
 5744SOL    HW218132   4.870   0.849   0.549
 5745SOL     OW18133   2.250   1.838   4.656
 5745SOL    HW118134   2.269   1.925   4.611
 5745SOL    HW218135   2.323   1.773   4.636
 5746SOL     OW18136   4.884   0.815   0.119
 5746SOL    HW118137   4.816   0.817   0.045
 5746SOL    HW218138   4.930   0.903   0.124
 5747SOL     OW18139   0.215   5.413   3.048
 5747SOL    HW118140   0.269   5.440   2.968
 5747SOL    HW218141   0.118   5.420   3.026
 5748SOL     OW18142   1.948   4.875   1.931
 5748SOL    HW118143   1.888   4.795   1.918
 5748SOL    HW218144   2.039   4.844   1.959
 5749SOL     OW18145   1.983   1.322   4.404
 5749SOL    HW118146   2.071   1.275   4.393
 5749SOL    HW218147   1.961   1.370   4.319
 5750SOL     OW18148   5.934   5.145   4.753
 5750SOL    HW118149   5.901   5.105   4.838
 5750SOL    HW218150   6.010   5.207   4.772
 5751SOL     OW18151   2.154   2.908   5.169
 5751SOL    HW118152   2.237   2.933   5.119
 5751SOL    HW218153   2.163   2.937   5.265
 5752SOL     OW18154   6.436   0.569   5.996
 5752SOL    HW118155   6.420   0.510   5.917
 5752SOL    HW218156   6.469   0.658   5.965
 5753SOL     OW18157   3.515   3.222   6.803
 5753SOL    HW118158   3.455   3.294   6.838
 5753SOL    HW218159   3.536   3.240   6.707
 5754SOL     OW18160   5.856   5.448   2.307
 5754SOL    HW118161   5.924   5.487   2.245
 5754SOL    HW218162   5.852   5.349   2.294
 5755SOL     OW18163   2.901   3.641   6.562
 5755SOL    HW118164   2.998   3.660   6.548
 5755SOL    HW218165   2.853   3.725   6.585
 5756SOL     OW18166   6.770   4.830   3.458
 5756SOL    HW118167   6.737   4.895   3.527
 5756SOL    HW218168   6.692   4.779   3.421
 5757SOL     OW18169   6.286   6.088   1.308
 5757SOL    HW118170   6.186   6.087   1.302
 5757SOL    HW218171   6.317   6.181   1.330
 5758SOL     OW18172   2.807   2.240   4.738
 5758SOL    HW118173   2.778   2.175   4.809
 5758SOL    HW218174   2.901   2.219   4.711
 5759SOL     OW18175   5.102   2.408   6.248
 5759SOL    HW118176   5.071   2.502   6.235
 5759SOL    HW218177   5.178   2.406   6.312
 5760SOL     OW18178   1.620   6.018   2.467
 5760SOL    HW118179   1.646   6.085   2.536
 5760SOL    HW218180   1.659   5.929   2.490
 5761SOL     OW18181   5.799   0.143   4.825
 5761SOL    HW118182   5.828   0.080   4.753
 5761SOL    HW218183   5.868   0.145   4.898
 5762SOL     OW18184   5.682   6.859   0.511
 5762SOL    HW118185   5.703   6.835   0.606
 5762SOL    HW218186   5.730   6.943   0.486
 5763SOL     OW18187   0.924   6.522   0.386
 5763SOL    HW118188   0.940   6.615   0.420
 5763SOL    HW218189   0.957   6.516   0.291
 5764SOL     OW18190   5.981   4.564   5.326
 5764SOL    HW118191   6.034   4.599   5.403
 5764SOL    HW218192   6.037   4.564   5.243
 5765SOL     OW18193   6.324   4.105   6.554
 5765SOL    HW118194   6.273   4.151   6.626
 5765SOL    HW218195   6.416   4.084   6.586
 5766SOL     OW18196   3.377   1.240   1.943
 5766SOL    HW118197   3.328   1.321   1.912
 5766SOL    HW218198   3.433   1.263   2.023
 5767SOL     OW18199   1.095   5.959   0.846
 5767SOL    HW118200   1.035   6.025   0.800
 5767SOL    HW218201   1.057   5.936   0.936
 5768SOL     OW18202   6.974   0.710   3.232
 5768SOL    HW118203   6.905   0.640   3.214
 5768SOL    HW218204   6.970   0.780   3.160
 5769SOL     OW18205   2.678   6.283   3.099
 5769SOL    HW118206   2.705   6.373   3.063
 5769SOL    HW218207   2.695   6.280   3.197
 5770SOL     OW18208   0.001   6.791   1.110
 5770SOL    HW118209   0.083   6.782   1.165
 5770SOL    HW218210   0.025   6.787   1.013
 5771SOL     OW18211   1.389   0.557   1.194
 5771SOL    HW118212   1.465   0.492   1.197
 5771SOL    HW218213   1.303   0.508   1.208
 5772SOL     OW18214   5.842   2.524   0.791
 5772SOL    HW118215   5.889   2.577   0.720
 5772SOL    HW218216   5.772   2.466   0.748
 5773SOL     OW18217   5.727   6.904   3.917
 5773SOL    HW118218   5.808   6.853   3.947
 5773SOL    HW218219   5.650   6.880   3.976
 5774SOL     OW18220   2.402   4.444   3.309
 5774SOL    HW118221   2.323   4.505   3.314
 5774SOL    HW218222   2.476   4.490   3.260
 5775SOL     OW18223   7.013   0.228   0.466
 5775SOL    HW118224   7.020   0.230   0.565
 5775SOL    HW218225   6.961   0.148   0.437
 5776SOL     OW18226   5.280   0.695   6.265
 5776SOL    HW118227   5.374   0.663   6.271
 5776SOL    HW218228   5.254   0.740   6.350
 5777SOL     OW18229   6.313   0.637   4.219
 5777SOL    HW118230   6.268   0.549   4.200
 5777SOL    HW218231   6.288   0.669   4.310
 5778SOL     OW18232   1.686   0.126   2.470
 5778SOL    HW118233   1.632   0.059   2.521
 5778SOL    HW218234   1.700   0.207   2.527
 5779SOL     OW18235   3.828   1.044   1.472
 5779SOL    HW118236   3.756   0.975   1.475
 5779SOL    HW218237   3.908   1.007   1.424
 5780SOL     OW18238   6.500   4.405   1.851
 5780SOL    HW118239   6.533   4.386   1.944
 5780SOL    HW218240   6.571   4.452   1.800
 5781SOL     OW18241   1.723   4.089   4.937
 5781SOL    HW118242   1.713   4.111   5.034
 5781SOL    HW218243   1.662   4.149   4.884
 5782SOL     OW18244   1.961   1.180   1.465
 5782SOL    HW118245   2.035   1.248   1.470
 5782SOL    HW218246   1.879   1.224   1.429
 5783SOL     OW18247   1.364   0.227   0.679
 5783SOL    HW118248   1.401   0.208   0.588
 5783SOL    HW218249   1.268   0.198   0.683
 5784SOL     OW18250   0.674   6.279   6.876
 5784SOL    HW118251   0.647   6.373   6.855
 5784SOL    HW218252   0.593   6.220   6.873
 5785SOL     OW18253   1.320   0.831   1.124
 5785SOL    HW118254   1.272   0.857   1.040
 5785SOL    HW218255   1.327   0.731   1.128
 5786SOL     OW18256   1.579   3.427   1.539
 5786SOL    HW118257   1.634   3.443   1.621
 5786SOL    HW218258   1.635   3.381   1.470
 5787SOL     OW18259   6.209   2.656   4.647
 5787SOL    HW118260   6.251   2.654   4.738
 5787SOL    HW218261   6.122   2.608   4.649
 5788SOL     OW18262   3.396   0.829   2.074
 5788SOL    HW118263   3.340   0.751   2.103
 5788SOL    HW218264   3.352   0.914   2.104
 5789SOL     OW18265   3.737   3.743   0.197
 5789SOL    HW118266   3.741   3.653   0.241
 5789SOL    HW218267   3.648   3.755   0.153
 5790SOL     OW18268   5.784   5.573   4.798
 5790SOL    HW118269   5.698   5.534   4.829
 5790SOL    HW218270   5.774   5.606   4.704
 5791SOL     OW18271   3.681   1.390   2.714
 5791SOL    HW118272   3.766   1.443   2.718
 5791SOL    HW218273   3.640   1.387   2.805
 5792SOL     OW18274   4.888   3.648   2.824
 5792SOL    HW118275   4.879   3.742   2.790
 5792SOL    HW218276   4.866   3.647   2.922
 5793SOL     OW18277   5.997   2.529   5.262
 5793SOL    HW118278   5.999   2.627   5.243
 5793SOL    HW218279   5.981   2.479   5.178
 5794SOL     OW18280   2.609   6.839   5.669
 5794SOL    HW118281   2.535   6.881   5.721
 5794SOL    HW218282   2.695   6.846   5.720
 5795SOL     OW18283   0.725   4.998   1.653
 5795SOL    HW118284   0.825   5.002   1.653
 5795SOL    HW218285   0.695   4.908   1.620
 5796SOL     OW18286   4.295   1.367   6.051
 5796SOL    HW118287   4.196   1.381   6.044
 5796SOL    HW218288   4.321   1.360   6.148
 5797SOL     OW18289   4.823   1.958   6.792
 5797SOL    HW118290   4.772   1.881   6.755
 5797SOL    HW218291   4.766   2.040   6.791
 5798SOL     OW18292   1.188   3.617   5.192
 5798SOL    HW118293   1.157   3.696   5.140
 5798SOL    HW218294   1.185   3.535   5.134
 5799SOL     OW18295   1.674   6.697   3.028
 5799SOL    HW118296   1.672   6.640   2.946
 5799SOL    HW218297   1.583   6.735   3.045
 5800SOL     OW18298   0.130   6.828   0.860
 5800SOL    HW118299   0.153   6.822   0.763
 5800SOL    HW218300   0.174   6.908   0.900
 5801SOL     OW18301   2.165   2.834   2.085
 5801SOL    HW118302   2.201   2.822   2.177
 5801SOL    HW218303   2.225   2.789   2.019
 5802SOL     OW18304   6.752   1.667   2.905
 5802SOL    HW118305   6.691   1.619   2.842
 5802SOL    HW218306   6.847   1.655   2.875
 5803SOL     OW18307   1.085   5.551   4.704
 5803SOL    HW118308   1.041   5.599   4.627
 5803SOL    HW218309   1.152   5.612   4.747
 5804SOL     OW18310   5.776   6.526   3.567
 5804SOL    HW118311   5.838   6.467   3.514
 5804SOL    HW218312   5.785   6.505   3.664
 5805SOL     OW18313   2.318   3.326   0.783
 5805SOL    HW118314   2.274   3.401   0.732
 5805SOL    HW218315   2.336   3.356   0.876
 5806SOL     OW18316   0.536   2.907   3.298
 5806SOL    HW118317   0.606   2.884   3.230
 5806SOL    HW218318   0.449   2.923   3.252
 5807SOL     OW18319   1.067   6.237   0.028
 5807SOL    HW118320   1.161   6.205   0.020
 5807SOL    HW218321   1.007   6.182   6.995
 5808SOL     OW18322   6.003   0.587   4.378
 5808SOL    HW118323   5.936   0.649   4.418
 5808SOL    HW218324   6.091   0.597   4.425
 5809SOL     OW18325   0.276   2.547   5.997
 5809SOL    HW118326   0.246   2.452   6.009
 5809SOL    HW218327   0.304   2.584   6.086
 5810SOL     OW18328   4.095   6.772   4.616
 5810SOL    HW118329   4.071   6.865   4.645
 5810SOL    HW218330   4.044   6.750   4.532
 5811SOL     OW18331   3.220   3.220   6.011
 5811SOL    HW118332   3.295   3.182   6.065
 5811SOL    HW218333   3.153   3.148   5.991
 5812SOL     OW18334   5.772   2.994   0.876
 5812SOL    HW118335   5.769   2.937   0.958
 5812SOL    HW218336   5.837   2.955   0.810
 5813SOL     OW18337   4.604   6.109   0.848
 5813SOL    HW118338   4.604   6.200   0.805
 5813SOL    HW218339   4.695   6.089   0.883
 5814SOL     OW18340   5.856   1.745   2.405
 5814SOL    HW118341   5.758   1.765   2.396
 5814SOL    HW218342   5.907   1.831   2.412
 5815SOL     OW18343   6.759   1.055   4.307
 5815SOL    HW118344   6.688   0.996   4.269
 5815SOL    HW218345   6.809   1.004   4.378
 5816SOL     OW18346   0.072   4.037   2.960
 5816SOL    HW118347   7.019   3.975   2.953
 5816SOL    HW218348   0.144   3.993   3.014
 5817SOL     OW18349   5.650   4.201   4.413
 5817SOL    HW118350   5.750   4.188   4.412
 5817SOL    HW218351   5.618   4.216   4.319
 5818SOL     OW18352   1.765   0.064   4.743
 5818SOL    HW118353   1.767   0.138   4.676
 5818SOL    HW218354   1.803   0.096   4.830
 5819SOL     OW18355   4.250   4.792   6.882
 5819SOL    HW118356   4.333   4.848   6.883
 5819SOL    HW218357   4.250   4.734   6.800
 5820SOL     OW18358   5.938   5.014   2.542
 5820SOL    HW118359   5.883   4.930   2.548
 5820SOL    HW218360   5.884   5.091   2.574
 5821SOL     OW18361   6.379   0.647   1.208
 5821SOL    HW118362   6.402   0.552   1.228
 5821SOL    HW218363   6.310   0.679   1.273
 5822SOL     OW18364   1.450   2.560   2.489
 5822SOL    HW118365   1.504   2.642   2.472
 5822SOL    HW218366   1.354   2.579   2.468
 5823SOL     OW18367   2.110   6.376   3.541
 5823SOL    HW118368   2.196   6.349   3.499
 5823SOL    HW218369   2.036   6.364   3.475
 5824SOL     OW18370   1.194   0.539   2.365
 5824SOL    HW118371   1.287   0.571   2.350
 5824SOL    HW218372   1.172   0.546   2.463
 5825SOL     OW18373   6.375   0.363   4.067
 5825SOL    HW118374   6.279   0.357   4.041
 5825SOL    HW218375   6.428   0.404   3.992
 5826SOL     OW18376   0.283   6.709   5.085
 5826SOL    HW118377   0.212   6.651   5.047
 5826SOL    HW218378   0.260   6.805   5.070
 5827SOL     OW18379   2.022   4.336   5.087
 5827SOL    HW118380   2.072   4.411   5.130
 5827SOL    HW218381   1.990   4.365   4.996
 5828SOL     OW18382   4.721   0.055   4.226
 5828SOL    HW118383   4.699   0.007   4.142
 5828SOL    HW218384   4.657   0.029   4.298
 5829SOL     OW18385   2.465   0.746   3.782
 5829SOL    HW118386   2.384   0.714   3.830
 5829SOL    HW218387   2.459   0.719   3.685
 5830SOL     OW18388   3.818   5.683   5.070
 5830SOL    HW118389   3.909   5.694   5.110
 5830SOL    HW218390   3.789   5.770   5.028
 5831SOL     OW18391   1.586   1.088   5.147
 5831SOL    HW118392   1.495   1.123   5.124
 5831SOL    HW218393   1.586   0.988   5.140
 5832SOL     OW18394   3.491   5.010   1.173
 5832SOL    HW118395   3.430   4.993   1.251
 5832SOL    HW218396   3.578   5.045   1.207
 5833SOL     OW18397   4.043   3.500   5.665
 5833SOL    HW118398   4.058   3.598   5.649
 5833SOL    HW218399   4.113   3.465   5.727
 5834SOL     OW18400   6.426   4.595   0.239
 5834SOL    HW118401   6.458   4.508   0.202
 5834SOL    HW218402   6.405   4.658   0.163
 5835SOL     OW18403   5.755   0.988   2.405
 5835SOL    HW118404   5.798   1.027   2.486
 5835SOL    HW218405   5.797   0.899   2.385
 5836SOL     OW18406   4.742   6.920   1.608
 5836SOL    HW118407   4.682   6.842   1.624
 5836SOL    HW218408   4.831   6.903   1.649
 5837SOL     OW18409   3.432   4.121   0.356
 5837SOL    HW118410   3.338   4.152   0.348
 5837SOL    HW218411   3.451   4.093   0.450
 5838SOL     OW18412   2.764   2.072   1.330
 5838SOL    HW118413   2.702   2.150   1.336
 5838SOL    HW218414   2.846   2.099   1.279
 5839SOL     OW18415   1.604   2.405   1.696
 5839SOL    HW118416   1.641   2.437   1.783
 5839SOL    HW218417   1.615   2.306   1.689
 5840SOL     OW18418   0.618   2.974   2.208
 5840SOL    HW118419   0.623   3.069   2.241
 5840SOL    HW218420   0.536   2.931   2.244
 5841SOL     OW18421   4.499   1.550   0.259
 5841SOL    HW118422   4.525   1.471   0.204
 5841SOL    HW218423   4.407   1.536   0.296
 5842SOL     OW18424   2.959   1.383   0.744
 5842SOL    HW118425   2.895   1.307   0.755
 5842SOL    HW218426   3.046   1.361   0.789
 5843SOL     OW18427   1.670   3.277   1.327
 5843SOL    HW118428   1.628   3.230   1.250
 5843SOL    HW218429   1.768   3.261   1.327
 5844SOL     OW18430   0.871   0.492   5.143
 5844SOL    HW118431   0.944   0.555   5.116
 5844SOL    HW218432   0.786   0.519   5.098
 5845SOL     OW18433   0.862   5.960   1.852
 5845SOL    HW118434   0.796   5.982   1.924
 5845SOL    HW218435   0.955   5.970   1.889
 5846SOL     OW18436   6.309   3.771   5.972
 5846SOL    HW118437   6.349   3.691   6.016
 5846SOL    HW218438   6.346   3.854   6.015
 5847SOL     OW18439   2.711   2.993   0.678
 5847SOL    HW118440   2.691   2.902   0.644
 5847SOL    HW218441   2.758   3.046   0.607
 5848SOL     OW18442   1.610   6.163   3.669
 5848SOL    HW118443   1.588   6.068   3.692
 5848SOL    HW218444   1.686   6.195   3.725
 5849SOL     OW18445   2.141   6.119   5.646
 5849SOL    HW118446   2.178   6.208   5.622
 5849SOL    HW218447   2.069   6.094   5.581
 5850SOL     OW18448   1.607   2.099   1.666
 5850SOL    HW118449   1.688   2.100   1.606
 5850SOL    HW218450   1.528   2.068   1.614
 5851SOL     OW18451   5.550   3.243   4.734
 5851SOL    HW118452   5.464   3.294   4.729
 5851SOL    HW218453   5.603   3.275   4.812
 5852SOL     OW18454   4.855   5.272   3.345
 5852SOL    HW118455   4.806   5.266   3.258
 5852SOL    HW218456   4.910   5.189   3.358
 5853SOL     OW18457   3.723   4.988   5.855
 5853SOL    HW118458   3.661   4.998   5.777
 5853SOL    HW218459   3.808   5.038   5.836
 5854SOL     OW18460   2.697   4.878   5.987
 5854SOL    HW118461   2.777   4.935   6.003
 5854SOL    HW218462   2.629   4.894   6.059
 5855SOL     OW18463   2.044   2.578   3.652
 5855SOL    HW118464   2.068   2.637   3.729
 5855SOL    HW218465   1.945   2.566   3.649
 5856SOL     OW18466   1.901   7.000   2.779
 5856SOL    HW118467   1.865   6.912   2.811
 5856SOL    HW218468   1.844   0.049   2.814
 5857SOL     OW18469   0.495   3.962   6.390
 5857SOL    HW118470   0.549   3.886   6.353
 5857SOL    HW218471   0.555   4.038   6.413
 5858SOL     OW18472   1.936   1.945   3.053
 5858SOL    HW118473   1.875   2.024   3.053
 5858SOL    HW218474   1.883   1.861   3.056
 5859SOL     OW18475   6.154   0.265   2.687
 5859SOL    HW118476   6.087   0.320   2.737
 5859SOL    HW218477   6.117   0.241   2.597
 5860SOL     OW18478   0.119   3.210   3.744
 5860SOL    HW118479   0.138   3.307   3.754
 5860SOL    HW218480   0.040   3.184   3.800
 5861SOL     OW18481   6.052   1.384   4.925
 5861SOL    HW118482   6.016   1.428   5.008
 5861SOL    HW218483   5.992   1.309   4.899
 5862SOL     OW18484   6.980   5.433   2.949
 5862SOL    HW118485   6.950   5.356   2.892
 5862SOL    HW218486   6.972   5.518   2.897
 5863SOL     OW18487   3.447   0.088   4.939
 5863SOL    HW118488   3.412   0.175   4.974
 5863SOL    HW218489   3.512   0.106   4.865
 5864SOL     OW18490   3.194   4.018   3.171
 5864SOL    HW118491   3.149   3.938   3.130
 5864SOL    HW218492   3.221   4.081   3.099
 5865SOL     OW18493   6.113   0.819   5.535
 5865SOL    HW118494   6.118   0.720   5.521
 5865SOL    HW218495   6.046   0.859   5.472
 5866SOL     OW18496   4.167   3.264   1.901
 5866SOL    HW118497   4.257   3.254   1.859
 5866SOL    HW218498   4.169   3.338   1.968
 5867SOL     OW18499   2.488   2.139   1.411
 5867SOL    HW118500   2.526   2.086   1.486
 5867SOL    HW218501   2.467   2.231   1.442
 5868SOL     OW18502   0.382   1.593   6.318
 5868SOL    HW118503   0.294   1.623   6.356
 5868SOL    HW218504   0.375   1.496   6.292
 5869SOL     OW18505   0.986   4.684   4.148
 5869SOL    HW118506   0.970   4.586   4.138
 5869SOL    HW218507   1.007   4.724   4.059
 5870SOL     OW18508   4.473   4.766   5.287
 5870SOL    HW118509   4.395   4.747   5.346
 5870SOL    HW218510   4.454   4.849   5.234
 5871SOL     OW18511   3.094   3.181   3.487
 5871SOL    HW118512   3.157   3.258   3.495
 5871SOL    HW218513   3.053   3.180   3.396
 5872SOL     OW18514   4.489   6.494   2.393
 5872SOL    HW118515   4.539   6.579   2.408
 5872SOL    HW218516   4.464   6.453   2.481
 5873SOL     OW18517   3.539   4.943   3.322
 5873SOL    HW118518   3.530   4.913   3.227
 5873SOL    HW218519   3.633   4.930   3.352
 5874SOL     OW18520   2.106   3.811   5.669
 5874SOL    HW118521   2.066   3.845   5.584
 5874SOL    HW218522   2.187   3.865   5.692
 5875SOL     OW18523   3.435   1.693   0.264
 5875SOL    HW118524   3.480   1.649   0.187
 5875SOL    HW218525   3.472   1.785   0.277
 5876SOL     OW18526   4.016   3.050   1.929
 5876SOL    HW118527   4.067   3.135   1.937
 5876SOL    HW218528   3.994   3.016   2.020
 5877SOL     OW18529   6.000   6.083   1.223
 5877SOL    HW118530   5.933   6.032   1.169
 5877SOL    HW218531   6.071   6.120   1.163
 5878SOL     OW18532   1.728   4.899   2.628
 5878SOL    HW118533   1.713   4.996   2.612
 5878SOL    HW218534   1.722   4.849   2.541
 5879SOL     OW18535   6.150   3.875   0.071
 5879SOL    HW118536   6.123   3.889   0.166
 5879SOL    HW218537   6.108   3.791   0.037
 5880SOL     OW18538   2.838   6.504   1.359
 5880SOL    HW118539   2.845   6.537   1.453
 5880SOL    HW218540   2.743   6.510   1.329
 5881SOL     OW18541   0.684   4.680   3.747
 5881SOL    HW118542   0.596   4.652   3.786
 5881SOL    HW218543   0.717   4.762   3.794
 5882SOL     OW18544   5.249   0.685   1.036
 5882SOL    HW118545   5.212   0.747   0.967
 5882SOL    HW218546   5.345   0.665   1.015
 5883SOL     OW18547   6.623   2.700   6.612
 5883SOL    HW118548   6.719   2.727   6.615
 5883SOL    HW218549   6.615   2.602   6.629
 5884SOL     OW18550   1.142   1.073   3.274
 5884SOL    HW118551   1.104   0.980   3.281
 5884SOL    HW218552   1.082   1.128   3.216
 5885SOL     OW18553   6.638   6.736   1.239
 5885SOL    HW118554   6.723   6.684   1.243
 5885SOL    HW218555   6.651   6.826   1.283
 5886SOL     OW18556   0.421   2.732   5.341
 5886SOL    HW118557   0.431   2.823   5.381
 5886SOL    HW218558   0.490   2.670   5.379
 5887SOL     OW18559   3.668   0.779   4.078
 5887SOL    HW118560   3.601   0.704   4.078
 5887SOL    HW218561   3.620   0.867   4.074
 5888SOL     OW18562   1.660   6.356   2.983
 5888SOL    HW118563   1.576   6.392   3.023
 5888SOL    HW218564   1.641   6.319   2.893
 5889SOL     OW18565   2.193   0.420   1.015
 5889SOL    HW118566   2.232   0.480   1.085
 5889SOL    HW218567   2.264   0.395   0.949
 5890SOL     OW18568   1.405   6.300   5.023
 5890SOL    HW118569   1.333   6.296   5.092
 5890SOL    HW218570   1.367   6.278   4.933
 5891SOL     OW18571   4.084   3.271   6.857
 5891SOL    HW118572   4.172   3.282   6.811
 5891SOL    HW218573   4.031   3.354   6.847
 5892SOL     OW18574   1.172   5.943   1.269
 5892SOL    HW118575   1.130   5.928   1.358
 5892SOL    HW218576   1.272   5.942   1.279
 5893SOL     OW18577   1.382   2.939   3.441
 5893SOL    HW118578   1.450   3.011   3.431
 5893SOL    HW218579   1.335   2.950   3.529
 5894SOL     OW18580   1.919   4.499   3.744
 5894SOL    HW118581   1.915   4.479   3.842
 5894SOL    HW218582   1.925   4.598   3.730
 5895SOL     OW18583   5.370   2.803   4.811
 5895SOL    HW118584   5.462   2.774   4.783
 5895SOL    HW218585   5.368   2.815   4.910
 5896SOL     OW18586   3.918   2.552   6.405
 5896SOL    HW118587   4.008   2.511   6.397
 5896SOL    HW218588   3.869   2.511   6.482
 5897SOL     OW18589   3.804   0.317   1.294
 5897SOL    HW118590   3.798   0.218   1.301
 5897SOL    HW218591   3.745   0.359   1.363
 5898SOL     OW18592   1.079   6.970   1.439
 5898SOL    HW118593   0.991   7.005   1.471
 5898SOL    HW218594   1.067   6.879   1.399
 5899SOL     OW18595   5.891   0.096   5.160
 5899SOL    HW118596   5.933   0.097   5.251
 5899SOL    HW218597   5.956   0.128   5.092
 5900SOL     OW18598   4.932   4.867   3.020
 5900SOL    HW118599   5.004   4.851   2.953
 5900SOL    HW218600   4.848   4.822   2.990
 5901SOL     OW18601   2.011   6.495   6.675
 5901SOL    HW118602   1.984   6.412   6.626
 5901SOL    HW218603   2.021   6.571   6.610
 5902SOL     OW18604   6.938   2.393   0.914
 5902SOL    HW118605   6.845   2.358   0.926
 5902SOL    HW218606   7.003   2.320   0.932
 5903SOL     OW18607   5.942   4.479   0.091
 5903SOL    HW118608   5.931   4.562   0.146
 5903SOL    HW218609   5.882   4.485   0.011
 5904SOL     OW18610   0.331   3.543   2.196
 5904SOL    HW118611   0.305   3.457   2.152
 5904SOL    HW218612   0.281   3.554   2.282
 5905SOL     OW18613   6.831   6.548   2.903
 5905SOL    HW118614   6.869   6.464   2.941
 5905SOL    HW218615   6.890   6.580   2.828
 5906SOL     OW18616   5.417   0.881   4.183
 5906SOL    HW118617   5.343   0.944   4.158
 5906SOL    HW218618   5.430   0.815   4.109
 5907SOL     OW18619   1.347   6.521   1.072
 5907SOL    HW118620   1.357   6.505   0.973
 5907SOL    HW218621   1.397   6.604   1.097
 5908SOL     OW18622   0.704   2.015   5.570
 5908SOL    HW118623   0.649   2.099   5.569
 5908SOL    HW218624   0.678   1.957   5.493
 5909SOL     OW18625   0.899   6.081   6.905
 5909SOL    HW118626   0.809   6.120   6.923
 5909SOL    HW218627   0.892   6.013   6.833
 5910SOL     OW18628   1.049   2.739   3.298
 5910SOL    HW118629   1.057   2.650   3.253
 5910SOL    HW218630   1.085   2.810   3.236
 5911SOL     OW18631   6.899   5.694   6.217
 5911SOL    HW118632   6.990   5.731   6.234
 5911SOL    HW218633   6.841   5.710   6.297
 5912SOL     OW18634   6.227   1.639   5.490
 5912SOL    HW118635   6.269   1.591   5.567
 5912SOL    HW218636   6.176   1.718   5.523
 5913SOL     OW18637   5.651   2.698   0.232
 5913SOL    HW118638   5.589   2.753   0.176
 5913SOL    HW218639   5.700   2.758   0.295
 5914SOL     OW18640   0.772   6.857   6.305
 5914SOL    HW118641   0.783   6.758   6.293
 5914SOL    HW218642   0.694   6.888   6.250
 5915SOL     OW18643   3.063   6.695   0.195
 5915SOL    HW118644   3.163   6.698   0.198
 5915SOL    HW218645   3.034   6.609   0.154
 5916SOL     OW18646   0.996   6.512   1.640
 5916SOL    HW118647   1.049   6.429   1.620
 5916SOL    HW218648   1.048   6.570   1.702
 5917SOL     OW18649   3.148   3.745   6.462
 5917SOL    HW118650   3.227   3.706   6.414
 5917SOL    HW218651   3.076   3.766   6.395
 5918SOL     OW18652   2.448   5.922   5.781
 5918SOL    HW118653   2.353   5.910   5.751
 5918SOL    HW218654   2.452   5.997   5.847
 5919SOL     OW18655   3.083   3.522   3.416
 5919SOL    HW118656   3.173   3.483   3.432
 5919SOL    HW218657   3.025   3.456   3.369
 5920SOL     OW18658   5.537   1.165   5.979
 5920SOL    HW118659   5.615   1.109   6.007
 5920SOL    HW218660   5.567   1.257   5.957
 5921SOL     OW18661   3.804   4.592   0.025
 5921SOL    HW118662   3.896   4.630   0.036
 5921SOL    HW218663   3.736   4.663   0.038
 5922SOL     OW18664   6.457   3.989   3.687
 5922SOL    HW118665   6.392   4.045   3.739
 5922SOL    HW218666   6.528   4.048   3.648
 5923SOL     OW18667   6.128   0.930   1.282
 5923SOL    HW118668   6.134   0.878   1.367
 5923SOL    HW218669   6.214   0.978   1.266
 5924SOL     OW18670   5.211   6.737   2.917
 5924SOL    HW118671   5.261   6.659   2.954
 5924SOL    HW218672   5.275   6.800   2.873
 5925SOL     OW18673   3.935   5.842   1.300
 5925SOL    HW118674   3.992   5.781   1.244
 5925SOL    HW218675   3.989   5.921   1.328
 5926SOL     OW18676   4.238   4.855   3.429
 5926SOL    HW118677   4.184   4.812   3.357
 5926SOL    HW218678   4.282   4.937   3.391
 5927SOL     OW18679   1.771   4.088   2.158
 5927SOL    HW118680   1.715   4.143   2.095
 5927SOL    HW218681   1.759   3.991   2.136
 5928SOL     OW18682   4.386   0.329   1.201
 5928SOL    HW118683   4.291   0.341   1.174
 5928SOL    HW218684   4.391   0.265   1.278
 5929SOL     OW18685   6.648   0.359   5.608
 5929SOL    HW118686   6.566   0.354   5.551
 5929SOL    HW218687   6.729   0.366   5.549
 5930SOL     OW18688   1.456   2.879   1.077
 5930SOL    HW118689   1.505   2.826   1.007
 5930SOL    HW218690   1.368   2.836   1.096
 5931SOL     OW18691   5.932   6.202   2.715
 5931SOL    HW118692   5.885   6.249   2.640
 5931SOL    HW218693   5.908   6.105   2.715
 5932SOL     OW18694   3.327   0.082   6.517
 5932SOL    HW118695   3.388   0.153   6.552
 5932SOL    HW218696   3.243   0.080   6.572
 5933SOL     OW18697   6.983   5.687   4.388
 5933SOL    HW118698   0.041   5.739   4.371
 5933SOL    HW218699   6.990   5.598   4.343
 5934SOL     OW18700   3.576   3.861   5.594
 5934SOL    HW118701   3.615   3.886   5.682
 5934SOL    HW218702   3.582   3.762   5.580
 5935SOL     OW18703   0.263   5.971   5.441
 5935SOL    HW118704   0.193   5.900   5.437
 5935SOL    HW218705   0.353   5.928   5.447
 5936SOL     OW18706   3.023   3.029   2.489
 5936SOL    HW118707   3.050   3.061   2.398
 5936SOL    HW218708   2.933   2.986   2.484
 5937SOL     OW18709   7.017   2.282   2.131
 5937SOL    HW118710   6.962   2.266   2.212
 5937SOL    HW218711   0.013   2.380   2.124
 5938SOL     OW18712   5.974   5.427   4.928
 5938SOL    HW118713   5.939   5.368   5.001
 5938SOL    HW218714   5.897   5.468   4.879
 5939SOL     OW18715   3.618   6.388   4.169
 5939SOL    HW118716   3.612   6.369   4.071
 5939SOL    HW218717   3.630   6.303   4.220
 5940SOL     OW18718   4.672   5.236   3.115
 5940SOL    HW118719   4.688   5.252   3.018
 5940SOL    HW218720   4.661   5.138   3.131
 5941SOL     OW18721   6.131   2.572   2.463
 5941SOL    HW118722   6.172   2.622   2.387
 5941SOL    HW218723   6.163   2.477   2.462
 5942SOL     OW18724   6.105   3.120   5.601
 5942SOL    HW118725   6.054   3.197   5.641
 5942SOL    HW218726   6.084   3.114   5.503
 5943SOL     OW18727   4.456   3.820   0.460
 5943SOL    HW118728   4.497   3.729   0.469
 5943SOL    HW218729   4.523   3.883   0.419
 5944SOL     OW18730   0.665   2.684   0.002
 5944SOL    HW118731   0.676   2.782   0.017
 5944SOL    HW218732   0.734   2.634   0.054
 5945SOL     OW18733   0.809   6.137   4.833
 5945SOL    HW118734   0.759   6.094   4.908
 5945SOL    HW218735   0.894   6.178   4.868
 5946SOL     OW18736   3.540   4.654   6.686
 5946SOL    HW118737   3.506   4.723   6.750
 5946SOL    HW218738   3.630   4.623   6.716
 5947SOL     OW18739   3.246   3.065   4.556
 5947SOL    HW118740   3.230   3.055   4.458
 5947SOL    HW218741   3.298   2.987   4.590
 5948SOL     OW18742   4.774   4.244   2.150
 5948SOL    HW118743   4.763   4.145   2.160
 5948SOL    HW218744   4.697   4.281   2.097
 5949SOL     OW18745   5.714   5.392   1.287
 5949SOL    HW118746   5.777   5.363   1.216
 5949SOL    HW218747   5.742   5.354   1.375
 5950SOL     OW18748   5.223   2.485   5.403
 5950SOL    HW118749   5.311   2.454   5.367
 5950SOL    HW218750   5.207   2.580   5.376
 5951SOL     OW18751   0.685   5.404   5.111
 5951SOL    HW118752   0.781   5.376   5.103
 5951SOL    HW218753   0.671   5.451   5.198
 5952SOL     OW18754   4.106   5.175   2.326
 5952SOL    HW118755   4.054   5.095   2.295
 5952SOL    HW218756   4.155   5.152   2.409
 5953SOL     OW18757   6.311   2.968   4.779
 5953SOL    HW118758   6.386   2.937   4.838
 5953SOL    HW218759   6.347   3.028   4.707
 5954SOL     OW18760   0.310   5.323   5.556
 5954SOL    HW118761   0.355   5.261   5.492
 5954SOL    HW218762   0.227   5.360   5.514
 5955SOL     OW18763   4.685   4.988   1.421
 5955SOL    HW118764   4.630   4.957   1.344
 5955SOL    HW218765   4.779   4.956   1.409
 5956SOL     OW18766   5.159   2.360   4.418
 5956SOL    HW118767   5.173   2.386   4.323
 5956SOL    HW218768   5.071   2.395   4.450
 5957SOL     OW18769   1.424   1.152   2.893
 5957SOL    HW118770   1.431   1.084   2.820
 5957SOL    HW218771   1.334   1.196   2.890
 5958SOL     OW18772   3.907   0.326   3.086
 5958SOL    HW118773   4.005   0.307   3.075
 5958SOL    HW218774   3.892   0.424   3.083
 5959SOL     OW18775   4.751   2.407   5.603
 5959SOL    HW118776   4.777   2.491   5.651
 5959SOL    HW218777   4.670   2.368   5.647
 5960SOL     OW18778   3.130   6.307   4.750
 5960SOL    HW118779   3.124   6.229   4.688
 5960SOL    HW218780   3.039   6.331   4.782
 5961SOL     OW18781   3.987   1.909   2.186
 5961SOL    HW118782   3.934   1.876   2.108
 5961SOL    HW218783   4.065   1.962   2.154
 5962SOL     OW18784   5.009   6.144   6.074
 5962SOL    HW118785   4.934   6.202   6.043
 5962SOL    HW218786   5.092   6.199   6.084
 5963SOL     OW18787   3.171   4.482   6.535
 5963SOL    HW118788   3.155   4.506   6.631
 5963SOL    HW218789   3.241   4.410   6.529
 5964SOL     OW18790   2.482   6.927   2.842
 5964SOL    HW118791   2.488   6.883   2.931
 5964SOL    HW218792   2.401   6.986   2.839
 5965SOL     OW18793   2.035   0.334   6.744
 5965SOL    HW118794   1.970   0.276   6.695
 5965SOL    HW218795   2.060   0.412   6.686
 5966SOL     OW18796   1.834   0.056   5.322
 5966SOL    HW118797   1.881   0.077   5.236
 5966SOL    HW218798   1.759   0.121   5.335
 5967SOL     OW18799   2.673   2.243   5.235
 5967SOL    HW118800   2.643   2.259   5.329
 5967SOL    HW218801   2.772   2.260   5.228
 5968SOL     OW18802   5.428   2.348   0.234
 5968SOL    HW118803   5.394   2.262   0.197
 5968SOL    HW218804   5.522   2.336   0.265
 5969SOL     OW18805   4.860   0.288   6.527
 5969SOL    HW118806   4.851   0.382   6.492
 5969SOL    HW218807   4.768   0.251   6.544
 5970SOL     OW18808   0.228   4.273   0.930
 5970SOL    HW118809   0.244   4.304   0.837
 5970SOL    HW218810   0.316   4.268   0.978
 5971SOL     OW18811   5.824   0.396   2.143
 5971SOL    HW118812   5.728   0.410   2.169
 5971SOL    HW218813   5.832   0.311   2.091
 5972SOL     OW18814   5.497   5.249   6.796
 5972SOL    HW118815   5.573   5.271   6.858
 5972SOL    HW218816   5.411   5.249   6.847
 5973SOL     OW18817   2.123   3.464   2.376
 5973SOL    HW118818   2.174   3.384   2.342
 5973SOL    HW218819   2.123   3.535   2.306
 5974SOL     OW18820   4.397   0.798   0.198
 5974SOL    HW118821   4.428   0.784   0.292
 5974SOL    HW218822   4.299   0.819   0.198
 5975SOL     OW18823   4.953   5.059   1.055
 5975SOL    HW118824   4.986   5.118   1.129
 5975SOL    HW218825   4.982   4.965   1.072
 5976SOL     OW18826   3.541   3.492   5.802
 5976SOL    HW118827   3.544   3.392   5.805
 5976SOL    HW218828   3.580   3.524   5.715
 5977SOL     OW18829   0.981   5.394   0.139
 5977SOL    HW118830   0.998   5.340   0.221
 5977SOL    HW218831   0.907   5.459   0.157
 5978SOL     OW18832   3.501   5.047   0.547
 5978SOL    HW118833   3.547   5.115   0.490
 5978SOL    HW218834   3.542   5.047   0.638
 5979SOL     OW18835   6.318   0.610   2.351
 5979SOL    HW118836   6.222   0.586   2.367
 5979SOL    HW218837   6.345   0.580   2.259
 5980SOL     OW18838   3.302   2.897   2.139
 5980SOL    HW118839   3.400   2.899   2.120
 5980SOL    HW218840   3.254   2.854   2.063
 5981SOL     OW18841   5.006   2.211   0.375
 5981SOL    HW118842   5.103   2.191   0.395
 5981SOL    HW218843   4.970   2.140   0.315
 5982SOL     OW18844   5.711   2.123   2.367
 5982SOL    HW118845   5.625   2.172   2.384
 5982SOL    HW218846   5.728   2.119   2.269
 5983SOL     OW18847   1.124   0.901   4.008
 5983SOL    HW118848   1.194   0.834   4.031
 5983SOL    HW218849   1.068   0.867   3.932
 5984SOL     OW18850   5.717   6.781   3.641
 5984SOL    HW118851   5.753   6.826   3.723
 5984SOL    HW218852   5.767   6.696   3.624
 5985SOL     OW18853   6.458   2.181   3.950
 5985SOL    HW118854   6.372   2.181   4.002
 5985SOL    HW218855   6.476   2.273   3.915
 5986SOL     OW18856   4.423   3.852   5.618
 5986SOL    HW118857   4.415   3.808   5.529
 5986SOL    HW218858   4.520   3.864   5.641
 5987SOL     OW18859   6.433   0.919   4.231
 5987SOL    HW118860   6.488   0.843   4.267
 5987SOL    HW218861   6.447   0.926   4.133
 5988SOL     OW18862   3.356   1.085   6.691
 5988SOL    HW118863   3.418   1.009   6.668
 5988SOL    HW218864   3.400   1.172   6.668
 5989SOL     OW18865   1.617   5.456   6.228
 5989SOL    HW118866   1.537   5.407   6.265
 5989SOL    HW218867   1.653   5.519   6.297
 5990SOL     OW18868   4.220   3.959   1.148
 5990SOL    HW118869   4.251   3.941   1.055
 5990SOL    HW218870   4.133   4.009   1.145
 5991SOL     OW18871   4.371   5.674   0.151
 5991SOL    HW118872   4.326   5.630   0.229
 5991SOL    HW218873   4.465   5.695   0.174
 5992SOL     OW18874   3.109   0.278   2.551
 5992SOL    HW118875   3.097   0.238   2.459
 5992SOL    HW218876   3.125   0.205   2.617
 5993SOL     OW18877   6.337   3.743   6.678
 5993SOL    HW118878   6.376   3.824   6.722
 5993SOL    HW218879   6.237   3.750   6.679
 5994SOL     OW18880   6.999   3.082   0.808
 5994SOL    HW118881   6.994   2.996   0.859
 5994SOL    HW218882   6.907   3.116   0.790
 5995SOL     OW18883   4.402   3.254   1.741
 5995SOL    HW118884   4.459   3.188   1.790
 5995SOL    HW218885   4.461   3.321   1.695
 5996SOL     OW18886   2.153   5.914   1.220
 5996SOL    HW118887   2.149   5.847   1.145
 5996SOL    HW218888   2.244   5.915   1.260
 5997SOL     OW18889   0.168   6.864   3.323
 5997SOL    HW118890   0.200   6.913   3.241
 5997SOL    HW218891   0.083   6.816   3.302
 5998SOL     OW18892   5.625   0.391   1.567
 5998SOL    HW118893   5.572   0.463   1.521
 5998SOL    HW218894   5.586   0.376   1.659
 5999SOL     OW18895   3.932   2.934   1.208
 5999SOL    HW118896   4.003   2.891   1.153
 5999SOL    HW218897   3.973   2.979   1.287
 6000SOL     OW18898   0.232   5.810   0.045
 6000SOL    HW118899   0.244   5.754   6.988
 6000SOL    HW218900   0.267   5.759   0.124
 6001SOL     OW18901   5.484   6.221   6.380
 6001SOL    HW118902   5.548   6.155   6.418
 6001SOL    HW218903   5.533   6.284   6.319
 6002SOL     OW18904   0.058   6.775   4.953
 6002SOL    HW118905   6.985   6.787   4.944
 6002SOL    HW218906   0.106   6.848   4.905
 6003SOL     OW18907   6.598   2.593   4.748
 6003SOL    HW118908   6.594   2.569   4.651
 6003SOL    HW218909   6.596   2.510   4.803
 6004SOL     OW18910   5.691   2.445   3.321
 6004SOL    HW118911   5.636   2.488   3.392
 6004SOL    HW218912   5.643   2.451   3.233
 6005SOL     OW18913   5.652   4.629   5.172
 6005SOL    HW118914   5.553   4.623   5.187
 6005SOL    HW218915   5.669   4.681   5.088
 6006SOL     OW18916   3.478   6.996   5.194
 6006SOL    HW118917   3.466   0.038   5.121
 6006SOL    HW218918   3.438   6.909   5.166
 6007SOL     OW18919   0.008   3.564   0.142
 6007SOL    HW118920   0.045   3.645   0.187
 6007SOL    HW218921   6.935   3.558   0.161
 6008SOL     OW18922   2.187   4.325   5.546
 6008SOL    HW118923   2.109   4.369   5.501
 6008SOL    HW218924   2.245   4.281   5.477
 6009SOL     OW18925   4.932   5.753   3.086
 6009SOL    HW118926   4.912   5.798   2.999
 6009SOL    HW218927   4.892   5.662   3.086
 6010SOL     OW18928   0.337   3.911   4.296
 6010SOL    HW118929   0.382   3.942   4.380
 6010SOL    HW218930   0.253   3.862   4.320
 6011SOL     OW18931   4.651   2.448   2.590
 6011SOL    HW118932   4.591   2.459   2.511
 6011SOL    HW218933   4.710   2.369   2.576
 6012SOL     OW18934   5.778   0.631   6.686
 6012SOL    HW118935   5.714   0.560   6.714
 6012SOL    HW218936   5.870   0.592   6.678
 6013SOL     OW18937   4.806   1.178   2.738
 6013SOL    HW118938   4.852   1.256   2.780
 6013SOL    HW218939   4.793   1.106   2.806
 6014SOL     OW18940   3.470   3.262   3.956
 6014SOL    HW118941   3.466   3.188   3.890
 6014SOL    HW218942   3.383   3.311   3.957
 6015SOL     OW18943   5.915   3.054   4.358
 6015SOL    HW118944   5.894   3.102   4.443
 6015SOL    HW218945   5.890   3.111   4.280
 6016SOL     OW18946   4.917   1.972   5.566
 6016SOL    HW118947   4.944   1.988   5.471
 6016SOL    HW218948   4.828   2.013   5.584
 6017SOL     OW18949   0.410   4.009   4.631
 6017SOL    HW118950   0.335   3.990   4.694
 6017SOL    HW218951   0.385   4.084   4.570
 6018SOL     OW18952   3.268   1.283   4.442
 6018SOL    HW118953   3.232   1.287   4.535
 6018SOL    HW218954   3.352   1.337   4.436
 6019SOL     OW18955   0.932   3.806   5.885
 6019SOL    HW118956   0.993   3.728   5.903
 6019SOL    HW218957   0.954   3.880   5.948
 6020SOL     OW18958   1.060   4.718   0.976
 6020SOL    HW118959   1.136   4.696   0.914
 6020SOL    HW218960   1.072   4.810   1.012
 6021SOL     OW18961   4.630   0.228   2.803
 6021SOL    HW118962   4.640   0.316   2.757
 6021SOL    HW218963   4.686   0.227   2.886
 6022SOL     OW18964   6.563   2.107   3.193
 6022SOL    HW118965   6.490   2.060   3.243
 6022SOL    HW218966   6.624   2.040   3.151
 6023SOL     OW18967   5.236   0.181   1.484
 6023SOL    HW118968   5.221   0.210   1.389
 6023SOL    HW218969   5.333   0.163   1.499
 6024SOL     OW18970   0.541   4.791   0.799
 6024SOL    HW118971   0.594   4.707   0.813
 6024SOL    HW218972   0.443   4.769   0.797
 6025SOL     OW18973   2.689   1.394   3.599
 6025SOL    HW118974   2.634   1.433   3.673
 6025SOL    HW218975   2.631   1.335   3.543
 6026SOL     OW18976   6.062   4.724   4.469
 6026SOL    HW118977   6.077   4.798   4.534
 6026SOL    HW218978   6.077   4.636   4.514
 6027SOL     OW18979   6.037   3.370   6.158
 6027SOL    HW118980   6.037   3.300   6.229
 6027SOL    HW218981   6.024   3.460   6.200
 6028SOL     OW18982   5.292   5.178   1.408
 6028SOL    HW118983   5.324   5.196   1.315
 6028SOL    HW218984   5.290   5.263   1.460
 6029SOL     OW18985   2.284   6.726   3.454
 6029SOL    HW118986   2.379   6.731   3.425
 6029SOL    HW218987   2.229   6.683   3.383
 6030SOL     OW18988   4.918   3.793   4.819
 6030SOL    HW118989   4.909   3.882   4.865
 6030SOL    HW218990   4.891   3.720   4.882
 6031SOL     OW18991   1.303   5.993   3.780
 6031SOL    HW118992   1.248   5.910   3.791
 6031SOL    HW218993   1.249   6.063   3.732
 6032SOL     OW18994   3.001   5.888   3.776
 6032SOL    HW118995   3.023   5.975   3.818
 6032SOL    HW218996   3.085   5.842   3.747
 6033SOL     OW18997   2.411   2.513   2.366
 6033SOL    HW118998   2.461   2.447   2.310
 6033SOL    HW218999   2.436   2.502   2.462
 6034SOL     OW19000   0.780   0.298   6.436
 6034SOL    HW119001   0.777   0.340   6.526
 6034SOL    HW219002   0.866   0.247   6.426
 6035SOL     OW19003   0.682   1.215   2.572
 6035SOL    HW119004   0.643   1.266   2.495
 6035SOL    HW219005   0.619   1.218   2.649
 6036SOL     OW19006   6.306   4.745   1.780
 6036SOL    HW119007   6.369   4.683   1.735
 6036SOL    HW219008   6.244   4.693   1.840
 6037SOL     OW19009   3.935   0.585   0.836
 6037SOL    HW119010   3.920   0.526   0.916
 6037SOL    HW219011   3.926   0.681   0.864
 6038SOL     OW19012   0.166   2.540   6.331
 6038SOL    HW119013   0.164   2.440   6.336
 6038SOL    HW219014   0.080   2.573   6.292
 6039SOL     OW19015   4.094   3.448   3.987
 6039SOL    HW119016   4.007   3.484   3.952
 6039SOL    HW219017   4.166   3.465   3.921
 6040SOL     OW19018   1.792   1.486   0.415
 6040SOL    HW119019   1.773   1.439   0.502
 6040SOL    HW219020   1.887   1.469   0.388
 6041SOL     OW19021   3.111   2.973   5.438
 6041SOL    HW119022   3.031   3.027   5.465
 6041SOL    HW219023   3.148   3.010   5.353
 6042SOL     OW19024   4.138   6.028   3.060
 6042SOL    HW119025   4.045   6.005   3.032
 6042SOL    HW219026   4.142   6.125   3.085
 6043SOL     OW19027   1.324   0.705   4.078
 6043SOL    HW119028   1.419   0.684   4.057
 6043SOL    HW219029   1.319   0.760   4.161
 6044SOL     OW19030   2.325   1.782   1.768
 6044SOL    HW119031   2.385   1.742   1.699
 6044SOL    HW219032   2.271   1.855   1.727
 6045SOL     OW19033   4.884   3.181   3.766
 6045SOL    HW119034   4.846   3.267   3.734
 6045SOL    HW219035   4.928   3.195   3.855
 6046SOL     OW19036   3.202   2.868   1.289
 6046SOL    HW119037   3.253   2.953   1.277
 6046SOL    HW219038   3.249   2.810   1.355
 6047SOL     OW19039   5.651   2.493   1.055
 6047SOL    HW119040   5.628   2.517   1.149
 6047SOL    HW219041   5.676   2.396   1.051
 6048SOL     OW19042   5.551   5.233   5.190
 6048SOL    HW119043   5.517   5.255   5.281
 6048SOL    HW219044   5.477   5.239   5.124
 6049SOL     OW19045   5.552   4.608   6.109
 6049SOL    HW119046   5.625   4.642   6.167
 6049SOL    HW219047   5.591   4.554   6.034
 6050SOL     OW19048   2.963   5.012   0.999
 6050SOL    HW119049   2.956   5.045   1.093
 6050SOL    HW219050   2.878   5.032   0.950
 6051SOL     OW19051   0.850   0.726   2.471
 6051SOL    HW119052   0.933   0.757   2.424
 6051SOL    HW219053   0.815   0.800   2.528
 6052SOL     OW19054   5.419   0.563   1.437
 6052SOL    HW119055   5.331   0.584   1.481
 6052SOL    HW219056   5.429   0.619   1.355
 6053SOL     OW19057   4.263   0.365   6.218
 6053SOL    HW119058   4.269   0.464   6.233
 6053SOL    HW219059   4.320   0.341   6.139
 6054SOL     OW19060   3.589   5.086   0.799
 6054SOL    HW119061   3.653   5.164   0.793
 6054SOL    HW219062   3.634   5.010   0.845
 6055SOL     OW19063   3.496   5.164   6.526
 6055SOL    HW119064   3.490   5.237   6.458
 6055SOL    HW219065   3.592   5.143   6.544
 6056SOL     OW19066   5.866   2.961   4.866
 6056SOL    HW119067   5.940   2.947   4.800
 6056SOL    HW219068   5.847   2.876   4.915
 6057SOL     OW19069   5.582   0.459   2.274
 6057SOL    HW119070   5.607   0.555   2.279
 6057SOL    HW219071   5.492   0.446   2.316
 6058SOL     OW19072   6.118   3.307   0.455
 6058SOL    HW119073   6.064   3.380   0.414
 6058SOL    HW219074   6.131   3.325   0.553
 6059SOL     OW19075   5.220   4.000   5.570
 6059SOL    HW119076   5.240   4.003   5.668
 6059SOL    HW219077   5.181   4.088   5.542
 6060SOL     OW19078   3.509   3.058   0.673
 6060SOL    HW119079   3.580   3.069   0.603
 6060SOL    HW219080   3.528   3.118   0.750
 6061SOL     OW19081   4.453   4.630   0.483
 6061SOL    HW119082   4.367   4.586   0.510
 6061SOL    HW219083   4.451   4.650   0.386
 6062SOL     OW19084   2.622   1.962   6.744
 6062SOL    HW119085   2.614   2.060   6.766
 6062SOL    HW219086   2.625   1.910   6.829
 6063SOL     OW19087   3.572   4.265   5.336
 6063SOL    HW119088   3.539   4.290   5.427
 6063SOL    HW219089   3.500   4.217   5.286
 6064SOL     OW19090   0.562   0.263   0.913
 6064SOL    HW119091   0.650   0.224   0.885
 6064SOL    HW219092   0.536   0.335   0.849
 6065SOL     OW19093   0.971   5.456   1.493
 6065SOL    HW119094   0.964   5.511   1.410
 6065SOL    HW219095   0.940   5.363   1.473
 6066SOL     OW19096   5.106   1.276   3.898
 6066SOL    HW119097   5.132   1.308   3.989
 6066SOL    HW219098   5.090   1.355   3.838
 6067SOL     OW19099   5.255   0.554   5.967
 6067SOL    HW119100   5.227   0.502   5.886
 6067SOL    HW219101   5.352   0.576   5.959
 6068SOL     OW19102   5.175   2.597   5.040
 6068SOL    HW119103   5.141   2.520   4.987
 6068SOL    HW219104   5.264   2.626   5.005
 6069SOL     OW19105   6.641   2.901   6.291
 6069SOL    HW119106   6.666   2.900   6.194
 6069SOL    HW219107   6.619   2.995   6.319
 6070SOL     OW19108   3.667   2.177   1.671
 6070SOL    HW119109   3.682   2.238   1.748
 6070SOL    HW219110   3.727   2.204   1.595
 6071SOL     OW19111   0.274   5.964   4.520
 6071SOL    HW119112   0.238   6.025   4.590
 6071SOL    HW219113   0.374   5.969   4.520
 6072SOL     OW19114   6.650   1.806   1.288
 6072SOL    HW119115   6.639   1.880   1.222
 6072SOL    HW219116   6.691   1.842   1.372
 6073SOL     OW19117   5.110   3.040   0.754
 6073SOL    HW119118   5.126   2.980   0.832
 6073SOL    HW219119   5.138   3.133   0.777
 6074SOL     OW19120   1.796   0.200   2.074
 6074SOL    HW119121   1.757   0.292   2.064
 6074SOL    HW219122   1.863   0.201   2.149
 6075SOL     OW19123   4.439   6.855   5.621
 6075SOL    HW119124   4.539   6.852   5.617
 6075SOL    HW219125   4.406   6.936   5.572
 6076SOL     OW19126   2.797   5.056   3.795
 6076SOL    HW119127   2.699   5.061   3.773
 6076SOL    HW219128   2.818   4.967   3.834
 6077SOL     OW19129   5.391   6.579   1.017
 6077SOL    HW119130   5.447   6.656   0.984
 6077SOL    HW219131   5.447   6.521   1.076
 6078SOL     OW19132   4.483   4.531   0.926
 6078SOL    HW119133   4.464   4.592   1.002
 6078SOL    HW219134   4.418   4.454   0.928
 6079SOL     OW19135   4.749   4.774   6.688
 6079SOL    HW119136   4.819   4.841   6.663
 6079SOL    HW219137   4.788   4.708   6.752
 6080SOL     OW19138   0.395   5.186   1.620
 6080SOL    HW119139   0.434   5.208   1.530
 6080SOL    HW219140   0.296   5.175   1.610
 6081SOL     OW19141   7.022   3.384   5.782
 6081SOL    HW119142   0.072   3.416   5.840
 6081SOL    HW219143   6.947   3.451   5.787
 6082SOL     OW19144   3.356   6.784   2.008
 6082SOL    HW119145   3.333   6.687   2.001
 6082SOL    HW219146   3.298   6.838   1.947
 6083SOL     OW19147   5.599   5.963   0.256
 6083SOL    HW119148   5.592   5.875   0.209
 6083SOL    HW219149   5.512   5.985   0.300
 6084SOL     OW19150   0.977   6.493   2.140
 6084SOL    HW119151   1.056   6.436   2.162
 6084SOL    HW219152   0.944   6.471   2.049
 6085SOL     OW19153   5.996   6.070   6.146
 6085SOL    HW119154   5.910   6.055   6.194
 6085SOL    HW219155   6.038   6.154   6.180
 6086SOL     OW19156   3.825   2.977   6.110
 6086SOL    HW119157   3.819   2.903   6.177
 6086SOL    HW219158   3.835   2.938   6.018
 6087SOL     OW19159   5.154   6.244   1.119
 6087SOL    HW119160   5.200   6.159   1.146
 6087SOL    HW219161   5.223   6.314   1.101
 6088SOL     OW19162   5.911   6.249   5.235
 6088SOL    HW119163   5.920   6.336   5.284
 6088SOL    HW219164   5.950   6.176   5.291
 6089SOL     OW19165   6.829   2.613   2.574
 6089SOL    HW119166   6.789   2.691   2.622
 6089SOL    HW219167   6.797   2.612   2.479
 6090SOL     OW19168   2.863   5.201   4.449
 6090SOL    HW119169   2.768   5.181   4.471
 6090SOL    HW219170   2.903   5.124   4.399
 6091SOL     OW19171   2.880   1.735   0.958
 6091SOL    HW119172   2.852   1.680   0.880
 6091SOL    HW219173   2.882   1.832   0.932
 6092SOL     OW19174   4.255   1.035   1.910
 6092SOL    HW119175   4.234   1.054   1.814
 6092SOL    HW219176   4.268   0.936   1.922
 6093SOL     OW19177   2.690   2.072   2.411
 6093SOL    HW119178   2.651   2.077   2.503
 6093SOL    HW219179   2.622   2.033   2.348
 6094SOL     OW19180   1.399   6.507   3.011
 6094SOL    HW119181   1.355   6.419   3.028
 6094SOL    HW219182   1.389   6.531   2.914
 6095SOL     OW19183   4.883   5.002   6.567
 6095SOL    HW119184   4.917   5.009   6.474
 6095SOL    HW219185   4.790   5.040   6.572
 6096SOL     OW19186   5.307   6.554   1.766
 6096SOL    HW119187   5.328   6.459   1.787
 6096SOL    HW219188   5.388   6.610   1.780
 6097SOL     OW19189   1.265   5.517   2.023
 6097SOL    HW119190   1.202   5.587   1.989
 6097SOL    HW219191   1.345   5.561   2.064
 6098SOL     OW19192   5.806   0.533   5.833
 6098SOL    HW119193   5.817   0.618   5.781
 6098SOL    HW219194   5.818   0.552   5.930
 6099SOL     OW19195   4.504   6.113   5.584
 6099SOL    HW119196   4.438   6.186   5.566
 6099SOL    HW219197   4.592   6.137   5.541
 6100SOL     OW19198   0.051   5.760   1.993
 6100SOL    HW119199   0.069   5.822   2.070
 6100SOL    HW219200   0.106   5.787   1.914
 6101SOL     OW19201   5.936   2.658   2.716
 6101SOL    HW119202   5.995   2.582   2.742
 6101SOL    HW219203   5.887   2.635   2.633
 6102SOL     OW19204   3.954   6.006   2.792
 6102SOL    HW119205   3.926   5.910   2.794
 6102SOL    HW219206   3.935   6.044   2.702
 6103SOL     OW19207   6.392   1.015   1.288
 6103SOL    HW119208   6.459   0.980   1.222
 6103SOL    HW219209   6.429   1.006   1.381
 6104SOL     OW19210   6.067   0.942   5.159
 6104SOL    HW119211   6.128   0.880   5.109
 6104SOL    HW219212   5.987   0.891   5.190
 6105SOL     OW19213   2.371   5.515   5.625
 6105SOL    HW119214   2.367   5.417   5.642
 6105SOL    HW219215   2.343   5.564   5.708
 6106SOL     OW19216   1.200   4.860   0.502
 6106SOL    HW119217   1.196   4.869   0.601
 6106SOL    HW219218   1.113   4.888   0.463
 6107SOL     OW19219   4.639   5.659   3.994
 6107SOL    HW119220   4.609   5.578   3.944
 6107SOL    HW219221   4.607   5.653   4.089
 6108SOL     OW19222   1.091   2.132   3.222
 6108SOL    HW119223   1.134   2.202   3.279
 6108SOL    HW219224   1.104   2.155   3.125
 6109SOL     OW19225   5.263   1.234   4.497
 6109SOL    HW119226   5.320   1.162   4.458
 6109SOL    HW219227   5.318   1.317   4.511
 6110SOL     OW19228   1.666   2.721   6.867
 6110SOL    HW119229   1.714   2.727   6.955
 6110SOL    HW219230   1.730   2.739   6.793
 6111SOL     OW19231   1.345   3.282   1.565
 6111SOL    HW119232   1.430   3.332   1.581
 6111SOL    HW219233   1.328   3.275   1.467
 6112SOL     OW19234   4.250   0.503   2.492
 6112SOL    HW119235   4.285   0.427   2.437
 6112SOL    HW219236   4.202   0.466   2.572
 6113SOL     OW19237   2.595   3.511   6.522
 6113SOL    HW119238   2.562   3.509   6.427
 6113SOL    HW219239   2.687   3.551   6.524
 6114SOL     OW19240   5.232   3.094   2.085
 6114SOL    HW119241   5.153   3.156   2.087
 6114SOL    HW219242   5.279   3.097   2.173
 6115SOL     OW19243   6.831   1.693   5.303
 6115SOL    HW119244   6.765   1.645   5.362
 6115SOL    HW219245   6.781   1.746   5.234
 6116SOL     OW19246   4.131   2.566   5.555
 6116SOL    HW119247   4.109   2.582   5.652
 6116SOL    HW219248   4.048   2.575   5.500
 6117SOL     OW19249   0.960   1.886   3.240
 6117SOL    HW119250   1.024   1.823   3.285
 6117SOL    HW219251   1.000   1.978   3.239
 6118SOL     OW19252   5.488   1.280   1.707
 6118SOL    HW119253   5.500   1.187   1.673
 6118SOL    HW219254   5.564   1.304   1.767
 6119SOL     OW19255   0.706   2.899   0.326
 6119SOL    HW119256   0.697   2.938   0.234
 6119SOL    HW219257   0.791   2.931   0.367
 6120SOL     OW19258   1.604   6.585   5.613
 6120SOL    HW119259   1.666   6.663   5.609
 6120SOL    HW219260   1.609   6.542   5.703
 6121SOL     OW19261   0.656   4.228   5.898
 6121SOL    HW119262   0.716   4.183   5.832
 6121SOL    HW219263   0.699   4.228   5.988
 6122SOL     OW19264   4.967   5.272   6.136
 6122SOL    HW119265   4.998   5.367   6.148
 6122SOL    HW219266   4.869   5.271   6.120
 6123SOL     OW19267   5.369   1.145   5.502
 6123SOL    HW119268   5.279   1.101   5.508
 6123SOL    HW219269   5.391   1.185   5.591
 6124SOL     OW19270   0.910   6.582   5.427
 6124SOL    HW119271   0.841   6.609   5.494
 6124SOL    HW219272   1.000   6.616   5.455
 6125SOL     OW19273   2.372   3.801   6.905
 6125SOL    HW119274   2.313   3.871   6.866
 6125SOL    HW219275   2.328   3.760   6.985
 6126SOL     OW19276   1.018   1.741   5.724
 6126SOL    HW119277   0.973   1.726   5.636
 6126SOL    HW219278   1.076   1.823   5.718
 6127SOL     OW19279   4.475   0.844   1.367
 6127SOL    HW119280   4.431   0.925   1.407
 6127SOL    HW219281   4.417   0.807   1.294
 6128SOL     OW19282   5.822   5.438   0.590
 6128SOL    HW119283   5.915   5.466   0.568
 6128SOL    HW219284   5.768   5.434   0.506
 6129SOL     OW19285   1.431   4.074   3.753
 6129SOL    HW119286   1.483   4.113   3.677
 6129SOL    HW219287   1.337   4.057   3.723
 6130SOL     OW19288   6.422   2.329   3.109
 6130SOL    HW119289   6.497   2.269   3.138
 6130SOL    HW219290   6.429   2.346   3.011
 6131SOL     OW19291   1.055   2.023   2.108
 6131SOL    HW119292   1.132   1.965   2.137
 6131SOL    HW219293   0.990   2.033   2.184
 6132SOL     OW19294   3.473   2.008   6.294
 6132SOL    HW119295   3.399   1.999   6.362
 6132SOL    HW219296   3.446   2.075   6.225
 6133SOL     OW19297   1.208   2.346   3.367
 6133SOL    HW119298   1.206   2.412   3.292
 6133SOL    HW219299   1.218   2.393   3.454
 6134SOL     OW19300   4.386   0.163   6.421
 6134SOL    HW119301   4.372   0.244   6.364
 6134SOL    HW219302   4.300   0.113   6.428
 6135SOL     OW19303   5.737   6.519   0.411
 6135SOL    HW119304   5.645   6.555   0.428
 6135SOL    HW219305   5.731   6.422   0.388
 6136SOL     OW19306   1.424   2.419   1.042
 6136SOL    HW119307   1.341   2.430   0.987
 6136SOL    HW219308   1.413   2.467   1.129
 6137SOL     OW19309   0.787   3.886   2.440
 6137SOL    HW119310   0.876   3.883   2.487
 6137SOL    HW219311   0.721   3.936   2.497
 6138SOL     OW19312   3.885   7.016   2.367
 6138SOL    HW119313   3.849   6.925   2.344
 6138SOL    HW219314   3.905   0.040   2.283
 6139SOL     OW19315   0.650   6.976   5.449
 6139SOL    HW119316   0.616   6.937   5.364
 6139SOL    HW219317   0.665   0.049   5.438
 6140SOL     OW19318   0.662   1.276   3.099
 6140SOL    HW119319   0.571   1.262   3.062
 6140SOL    HW219320   0.659   1.274   3.199
 6141SOL     OW19321   0.796   0.490   5.906
 6141SOL    HW119322   0.802   0.590   5.916
 6141SOL    HW219323   0.786   0.448   5.996
 6142SOL     OW19324   1.022   0.248   5.958
 6142SOL    HW119325   1.053   0.314   6.026
 6142SOL    HW219326   0.946   0.287   5.906
 6143SOL     OW19327   6.857   4.245   1.159
 6143SOL    HW119328   6.888   4.153   1.138
 6143SOL    HW219329   6.928   4.311   1.134
 6144SOL     OW19330   5.358   4.284   3.305
 6144SOL    HW119331   5.445   4.247   3.338
 6144SOL    HW219332   5.360   4.287   3.205
 6145SOL     OW19333   5.718   4.545   4.226
 6145SOL    HW119334   5.738   4.634   4.184
 6145SOL    HW219335   5.623   4.545   4.259
 6146SOL     OW19336   3.616   6.790   3.979
 6146SOL    HW119337   3.678   6.866   3.961
 6146SOL    HW219338   3.655   6.705   3.941
 6147SOL     OW19339   2.230   2.870   4.565
 6147SOL    HW119340   2.131   2.884   4.576
 6147SOL    HW219341   2.272   2.860   4.654
 6148SOL     OW19342   4.118   5.141   6.676
 6148SOL    HW119343   4.076   5.137   6.586
 6148SOL    HW219344   4.124   5.237   6.706
 6149SOL     OW19345   1.673   6.793   1.665
 6149SOL    HW119346   1.649   6.779   1.569
 6149SOL    HW219347   1.609   6.859   1.706
 6150SOL     OW19348   5.852   4.007   6.724
 6150SOL    HW119349   5.857   3.998   6.624
 6150SOL    HW219350   5.770   3.960   6.757
 6151SOL     OW19351   5.050   5.024   4.138
 6151SOL    HW119352   5.005   4.970   4.209
 6151SOL    HW219353   5.055   4.971   4.053
 6152SOL     OW19354   0.739   5.774   4.505
 6152SOL    HW119355   0.758   5.679   4.531
 6152SOL    HW219356   0.736   5.831   4.587
 6153SOL     OW19357   4.706   5.159   1.050
 6153SOL    HW119358   4.803   5.142   1.031
 6153SOL    HW219359   4.657   5.173   0.964
 6154SOL     OW19360   5.446   3.323   2.828
 6154SOL    HW119361   5.536   3.309   2.786
 6154SOL    HW219362   5.447   3.282   2.920
 6155SOL     OW19363   3.005   0.902   2.890
 6155SOL    HW119364   3.002   0.869   2.796
 6155SOL    HW219365   3.021   0.824   2.952
 6156SOL     OW19366   4.964   4.157   1.753
 6156SOL    HW119367   4.889   4.110   1.797
 6156SOL    HW219368   4.961   4.255   1.775
 6157SOL     OW19369   0.787   2.310   3.108
 6157SOL    HW119370   0.769   2.222   3.065
 6157SOL    HW219371   0.773   2.383   3.042
 6158SOL     OW19372   2.965   2.025   0.093
 6158SOL    HW119373   3.008   1.942   0.058
 6158SOL    HW219374   2.965   2.095   0.022
 6159SOL     OW19375   5.435   3.224   0.571
 6159SOL    HW119376   5.473   3.161   0.640
 6159SOL    HW219377   5.349   3.186   0.536
 6160SOL     OW19378   0.160   6.802   6.734
 6160SOL    HW119379   0.223   6.796   6.657
 6160SOL    HW219380   0.206   6.775   6.818
 6161SOL     OW19381   4.827   1.273   0.326
 6161SOL    HW119382   4.729   1.273   0.343
 6161SOL    HW219383   4.873   1.215   0.394
 6162SOL     OW19384   6.058   6.508   3.879
 6162SOL    HW119385   6.137   6.458   3.915
 6162SOL    HW219386   6.089   6.595   3.840
 6163SOL     OW19387   5.443   5.919   2.443
 6163SOL    HW119388   5.503   5.974   2.499
 6163SOL    HW219389   5.354   5.965   2.433
 6164SOL     OW19390   3.703   3.649   4.654
 6164SOL    HW119391   3.657   3.735   4.675
 6164SOL    HW219392   3.799   3.668   4.632
 6165SOL     OW19393   3.780   2.090   5.825
 6165SOL    HW119394   3.761   2.179   5.865
 6165SOL    HW219395   3.760   2.018   5.891
 6166SOL     OW19396   6.375   1.852   0.393
 6166SOL    HW119397   6.394   1.939   0.347
 6166SOL    HW219398   6.279   1.849   0.419
 6167SOL     OW19399   1.005   4.540   3.308
 6167SOL    HW119400   0.933   4.528   3.376
 6167SOL    HW219401   1.002   4.633   3.273
 6168SOL     OW19402   0.461   2.379   3.235
 6168SOL    HW119403   0.452   2.470   3.275
 6168SOL    HW219404   0.486   2.314   3.307
 6169SOL     OW19405   0.589   1.082   6.289
 6169SOL    HW119406   0.568   1.026   6.370
 6169SOL    HW219407   0.685   1.070   6.265
 6170SOL     OW19408   3.404   4.355   6.163
 6170SOL    HW119409   3.341   4.314   6.097
 6170SOL    HW219410   3.475   4.289   6.186
 6171SOL     OW19411   1.411   3.747   1.650
 6171SOL    HW119412   1.478   3.747   1.576
 6171SOL    HW219413   1.319   3.754   1.612
 6172SOL     OW19414   0.007   0.556   2.683
 6172SOL    HW119415   0.058   0.509   2.611
 6172SOL    HW219416   6.960   0.611   2.642
 6173SOL     OW19417   6.978   5.068   2.644
 6173SOL    HW119418   6.966   5.138   2.714
 6173SOL    HW219419   6.897   5.009   2.642
 6174SOL     OW19420   5.908   4.853   3.020
 6174SOL    HW119421   5.902   4.809   3.109
 6174SOL    HW219422   5.934   4.785   2.951
 6175SOL     OW19423   5.517   0.086   3.320
 6175SOL    HW119424   5.490   0.172   3.363
 6175SOL    HW219425   5.584   0.106   3.247
 6176SOL     OW19426   6.413   2.828   6.739
 6176SOL    HW119427   6.474   2.758   6.703
 6176SOL    HW219428   6.417   2.909   6.681
 6177SOL     OW19429   5.425   2.037   1.360
 6177SOL    HW119430   5.344   1.979   1.367
 6177SOL    HW219431   5.399   2.125   1.319
 6178SOL     OW19432   5.060   5.581   1.498
 6178SOL    HW119433   4.996   5.508   1.524
 6178SOL    HW219434   5.035   5.666   1.546
 6179SOL     OW19435   0.050   4.184   4.575
 6179SOL    HW119436   0.022   4.097   4.534
 6179SOL    HW219437   7.009   4.210   4.645
 6180SOL     OW19438   2.977   6.640   6.238
 6180SOL    HW119439   2.917   6.645   6.158
 6180SOL    HW219440   3.051   6.575   6.220
 6181SOL     OW19441   5.257   6.787   0.383
 6181SOL    HW119442   5.279   6.870   0.331
 6181SOL    HW219443   5.172   6.748   0.349
 6182SOL     OW19444   5.463   4.710   5.490
 6182SOL    HW119445   5.463   4.704   5.390
 6182SOL    HW219446   5.475   4.805   5.517
 6183SOL     OW19447   2.476   0.232   2.953
 6183SOL    HW119448   2.501   0.314   2.901
 6183SOL    HW219449   2.551   0.207   3.014
 6184SOL     OW19450   1.868   6.699   5.793
 6184SOL    HW119451   1.945   6.751   5.757
 6184SOL    HW219452   1.885   6.601   5.781
 6185SOL     OW19453   1.837   4.258   0.027
 6185SOL    HW119454   1.810   4.235   6.960
 6185SOL    HW219455   1.779   4.208   0.092
 6186SOL     OW19456   6.098   7.002   3.718
 6186SOL    HW119457   6.026   0.042   3.696
 6186SOL    HW219458   6.064   6.938   3.787
 6187SOL     OW19459   4.810   4.518   4.155
 6187SOL    HW119460   4.786   4.592   4.092
 6187SOL    HW219461   4.791   4.430   4.112
 6188SOL     OW19462   2.444   5.921   1.349
 6188SOL    HW119463   2.489   6.010   1.361
 6188SOL    HW219464   2.492   5.869   1.279
 6189SOL     OW19465   4.463   4.654   3.762
 6189SOL    HW119466   4.453   4.567   3.713
 6189SOL    HW219467   4.477   4.636   3.859
 6190SOL     OW19468   5.902   3.595   5.989
 6190SOL    HW119469   5.815   3.585   5.941
 6190SOL    HW219470   5.968   3.640   5.930
 6191SOL     OW19471   4.607   2.558   0.625
 6191SOL    HW119472   4.647   2.540   0.715
 6191SOL    HW219473   4.571   2.473   0.587
 6192SOL     OW19474   3.899   3.604   0.473
 6192SOL    HW119475   3.935   3.664   0.544
 6192SOL    HW219476   3.851   3.527   0.515
 6193SOL     OW19477   4.187   0.760   2.453
 6193SOL    HW119478   4.241   0.675   2.446
 6193SOL    HW219479   4.090   0.738   2.452
 6194SOL     OW19480   1.883   6.440   0.098
 6194SOL    HW119481   1.881   6.538   0.118
 6194SOL    HW219482   1.966   6.418   0.046
 6195SOL     OW19483   3.567   5.379   5.424
 6195SOL    HW119484   3.570   5.344   5.517
 6195SOL    HW219485   3.642   5.442   5.409
 6196SOL     OW19486   6.205   2.107   0.853
 6196SOL    HW119487   6.242   2.190   0.811
 6196SOL    HW219488   6.242   2.027   0.807
 6197SOL     OW19489   4.630   3.518   0.721
 6197SOL    HW119490   4.626   3.523   0.621
 6197SOL    HW219491   4.657   3.426   0.748
 6198SOL     OW19492   3.390   5.416   2.390
 6198SOL    HW119493   3.371   5.379   2.481
 6198SOL    HW219494   3.304   5.440   2.345
 6199SOL     OW19495   0.068   0.045   1.377
 6199SOL    HW119496   0.069   7.003   1.451
 6199SOL    HW219497   0.155   0.042   1.329
 6200SOL     OW19498   2.333   1.104   5.540
 6200SOL    HW119499   2.378   1.170   5.601
 6200SOL    HW219500   2.312   1.021   5.592
 6201SOL     OW19501   2.244   3.606   5.809
 6201SOL    HW119502   2.278   3.552   5.731
 6201SOL    HW219503   2.184   3.678   5.775
 6202SOL     OW19504   3.901   1.797   1.581
 6202SOL    HW119505   3.867   1.703   1.584
 6202SOL    HW219506   3.828   1.859   1.606
 6203SOL     OW19507   5.268   0.322   3.869
 6203SOL    HW119508   5.247   0.229   3.900
 6203SOL    HW219509   5.189   0.361   3.823
 6204SOL     OW19510   0.649   4.893   4.956
 6204SOL    HW119511   0.693   4.946   4.883
 6204SOL    HW219512   0.562   4.856   4.922
 6205SOL     OW19513   5.594   6.710   6.799
 6205SOL    HW119514   5.630   6.646   6.731
 6205SOL    HW219515   5.642   6.697   6.885
 6206SOL     OW19516   6.387   0.176   2.829
 6206SOL    HW119517   6.306   0.225   2.796
 6206SOL    HW219518   6.365   0.079   2.839
 6207SOL     OW19519   1.464   3.936   5.041
 6207SOL    HW119520   1.541   3.896   5.091
 6207SOL    HW219521   1.395   3.969   5.105
 6208SOL     OW19522   6.112   0.160   6.515
 6208SOL    HW119523   6.204   0.148   6.552
 6208SOL    HW219524   6.103   0.252   6.477
 6209SOL     OW19525   4.795   5.791   6.705
 6209SOL    HW119526   4.746   5.750   6.628
 6209SOL    HW219527   4.878   5.739   6.723
 6210SOL     OW19528   5.742   4.647   3.583
 6210SOL    HW119529   5.732   4.580   3.509
 6210SOL    HW219530   5.653   4.688   3.602
 6211SOL     OW19531   3.412   6.448   4.863
 6211SOL    HW119532   3.325   6.442   4.814
 6211SOL    HW219533   3.468   6.520   4.823
 6212SOL     OW19534   1.087   5.187   3.320
 6212SOL    HW119535   1.076   5.145   3.410
 6212SOL    HW219536   1.088   5.116   3.250
 6213SOL     OW19537   5.025   6.978   6.265
 6213SOL    HW119538   5.039   0.050   6.279
 6213SOL    HW219539   4.971   6.963   6.182
 6214SOL     OW19540   5.889   5.074   3.304
 6214SOL    HW119541   5.805   5.021   3.313
 6214SOL    HW219542   5.967   5.011   3.303
 6215SOL     OW19543   3.411   1.374   6.873
 6215SOL    HW119544   3.358   1.297   6.908
 6215SOL    HW219545   3.500   1.341   6.840
 6216SOL     OW19546   6.501   2.676   2.524
 6216SOL    HW119547   6.561   2.733   2.581
 6216SOL    HW219548   6.477   2.727   2.441
 6217SOL     OW19549   6.497   2.637   2.243
 6217SOL    HW119550   6.397   2.635   2.250
 6217SOL    HW219551   6.523   2.662   2.150
 6218SOL     OW19552   3.329   5.227   4.436
 6218SOL    HW119553   3.250   5.281   4.465
 6218SOL    HW219554   3.409   5.287   4.428
 6219SOL     OW19555   0.479   1.471   4.684
 6219SOL    HW119556   0.411   1.521   4.630
 6219SOL    HW219557   0.565   1.467   4.634
 6220SOL     OW19558   1.416   4.058   5.814
 6220SOL    HW119559   1.318   4.064   5.799
 6220SOL    HW219560   1.465   4.108   5.742
 6221SOL     OW19561   6.337   5.664   5.996
 6221SOL    HW119562   6.335   5.614   6.083
 6221SOL    HW219563   6.294   5.753   6.008
 6222SOL     OW19564   0.945   6.408   1.219
 6222SOL    HW119565   0.863   6.411   1.276
 6222SOL    HW219566   0.950   6.320   1.173
 6223SOL     OW19567   6.975   3.789   4.228
 6223SOL    HW119568   0.032   3.795   4.171
 6223SOL    HW219569   6.924   3.707   4.203
 6224SOL     OW19570   1.780   2.196   6.065
 6224SOL    HW119571   1.725   2.176   6.145
 6224SOL    HW219572   1.724   2.243   5.997
 6225SOL     OW19573   2.847   3.146   1.257
 6225SOL    HW119574   2.887   3.181   1.342
 6225SOL    HW219575   2.864   3.213   1.184
 6226SOL     OW19576   5.524   2.172   4.598
 6226SOL    HW119577   5.431   2.171   4.562
 6226SOL    HW219578   5.565   2.081   4.586
 6227SOL     OW19579   3.847   5.321   6.555
 6227SOL    HW119580   3.811   5.228   6.552
 6227SOL    HW219581   3.896   5.341   6.470
 6228SOL     OW19582   0.044   2.561   2.198
 6228SOL    HW119583   0.011   2.650   2.165
 6228SOL    HW219584   0.138   2.571   2.232
 6229SOL     OW19585   0.881   2.871   2.442
 6229SOL    HW119586   0.839   2.798   2.495
 6229SOL    HW219587   0.905   2.837   2.351
 6230SOL     OW19588   1.164   0.946   4.525
 6230SOL    HW119589   1.085   0.943   4.586
 6230SOL    HW219590   1.247   0.963   4.578
 6231SOL     OW19591   6.711   4.687   1.635
 6231SOL    HW119592   6.628   4.633   1.644
 6231SOL    HW219593   6.761   4.660   1.552
 6232SOL     OW19594   6.188   1.629   1.147
 6232SOL    HW119595   6.178   1.728   1.135
 6232SOL    HW219596   6.121   1.582   1.090
 6233SOL     OW19597   5.240   0.879   0.007
 6233SOL    HW119598   5.218   0.782   0.020
 6233SOL    HW219599   5.323   0.901   0.058
 6234SOL     OW19600   6.843   1.056   5.794
 6234SOL    HW119601   6.802   1.092   5.710
 6234SOL    HW219602   6.811   1.109   5.872
 6235SOL     OW19603   1.327   0.228   2.112
 6235SOL    HW119604   1.339   0.133   2.082
 6235SOL    HW219605   1.392   0.248   2.186
 6236SOL     OW19606   0.927   5.165   6.958
 6236SOL    HW119607   0.947   5.260   6.981
 6236SOL    HW219608   0.886   5.119   0.012
 6237SOL     OW19609   3.472   6.363   0.552
 6237SOL    HW119610   3.479   6.295   0.479
 6237SOL    HW219611   3.559   6.369   0.600
 6238SOL     OW19612   4.245   4.655   2.920
 6238SOL    HW119613   4.226   4.561   2.945
 6238SOL    HW219614   4.167   4.713   2.944
 6239SOL     OW19615   2.798   6.621   1.607
 6239SOL    HW119616   2.744   6.685   1.552
 6239SOL    HW219617   2.839   6.669   1.684
 6240SOL     OW19618   3.090   2.261   0.226
 6240SOL    HW119619   3.035   2.342   0.207
 6240SOL    HW219620   3.031   2.180   0.228
 6241SOL     OW19621   2.356   0.887   2.642
 6241SOL    HW119622   2.349   0.841   2.553
 6241SOL    HW219623   2.310   0.831   2.712
 6242SOL     OW19624   5.289   0.831   3.444
 6242SOL    HW119625   5.270   0.929   3.436
 6242SOL    HW219626   5.375   0.818   3.493
 6243SOL     OW19627   5.178   6.754   3.289
 6243SOL    HW119628   5.180   6.797   3.379
 6243SOL    HW219629   5.252   6.686   3.283
 6244SOL     OW19630   2.088   2.028   2.040
 6244SOL    HW119631   2.145   2.097   1.995
 6244SOL    HW219632   2.091   2.042   2.139
 6245SOL     OW19633   2.666   4.554   1.575
 6245SOL    HW119634   2.632   4.554   1.669
 6245SOL    HW219635   2.753   4.603   1.571
 6246SOL     OW19636   2.687   2.957   6.486
 6246SOL    HW119637   2.634   2.979   6.568
 6246SOL    HW219638   2.709   2.860   6.485
 6247SOL     OW19639   0.720   6.414   3.313
 6247SOL    HW119640   0.667   6.344   3.265
 6247SOL    HW219641   0.688   6.421   3.408
 6248SOL     OW19642   2.442   4.001   1.004
 6248SOL    HW119643   2.431   4.065   1.080
 6248SOL    HW219644   2.463   3.910   1.039
 6249SOL     OW19645   0.500   4.754   0.410
 6249SOL    HW119646   0.524   4.850   0.424
 6249SOL    HW219647   0.401   4.746   0.397
 6250SOL     OW19648   6.207   5.895   0.484
 6250SOL    HW119649   6.178   5.987   0.509
 6250SOL    HW219650   6.130   5.844   0.446
 6251SOL     OW19651   3.780   6.553   0.279
 6251SOL    HW119652   3.823   6.613   0.212
 6251SOL    HW219653   3.803   6.584   0.371
 6252SOL     OW19654   1.603   6.876   4.683
 6252SOL    HW119655   1.675   6.942   4.705
 6252SOL    HW219656   1.570   6.833   4.767
 6253SOL     OW19657   2.152   3.860   2.645
 6253SOL    HW119658   2.185   3.917   2.569
 6253SOL    HW219659   2.139   3.766   2.614
 6254SOL     OW19660   5.346   0.964   0.557
 6254SOL    HW119661   5.289   0.896   0.602
 6254SOL    HW219662   5.330   1.054   0.598
 6255SOL     OW19663   2.043   0.668   1.275
 6255SOL    HW119664   2.128   0.665   1.223
 6255SOL    HW219665   1.980   0.733   1.233
 6256SOL     OW19666   3.252   5.102   3.010
 6256SOL    HW119667   3.344   5.066   2.997
 6256SOL    HW219668   3.243   5.139   3.102
 6257SOL     OW19669   5.753   2.258   1.107
 6257SOL    HW119670   5.846   2.291   1.088
 6257SOL    HW219671   5.749   2.223   1.201
 6258SOL     OW19672   4.224   0.166   3.624
 6258SOL    HW119673   4.138   0.202   3.660
 6258SOL    HW219674   4.297   0.233   3.639
 6259SOL     OW19675   2.942   1.990   0.893
 6259SOL    HW119676   2.992   2.019   0.975
 6259SOL    HW219677   2.950   2.061   0.823
 6260SOL     OW19678   2.472   4.414   0.083
 6260SOL    HW119679   2.511   4.352   0.152
 6260SOL    HW219680   2.511   4.393   7.019
 6261SOL     OW19681   2.801   0.012   6.369
 6261SOL    HW119682   2.899   7.018   6.361
 6261SOL    HW219683   2.789   0.105   6.405
 6262SOL     OW19684   1.523   4.295   1.331
 6262SOL    HW119685   1.565   4.228   1.269
 6262SOL    HW219686   1.588   4.368   1.350
 6263SOL     OW19687   0.264   0.564   5.745
 6263SOL    HW119688   0.166   0.543   5.751
 6263SOL    HW219689   0.309   0.535   5.830
 6264SOL     OW19690   1.415   6.745   0.774
 6264SOL    HW119691   1.447   6.829   0.819
 6264SOL    HW219692   1.491   6.682   0.764
 6265SOL     OW19693   3.098   3.931   1.044
 6265SOL    HW119694   3.154   4.002   1.087
 6265SOL    HW219695   3.076   3.861   1.112
 6266SOL     OW19696   4.341   0.810   4.739
 6266SOL    HW119697   4.368   0.905   4.753
 6266SOL    HW219698   4.309   0.771   4.825
 6267SOL     OW19699   3.545   0.574   0.133
 6267SOL    HW119700   3.524   0.567   0.035
 6267SOL    HW219701   3.499   0.499   0.182
 6268SOL     OW19702   3.262   6.433   2.819
 6268SOL    HW119703   3.215   6.504   2.871
 6268SOL    HW219704   3.313   6.374   2.882
 6269SOL     OW19705   6.402   6.047   2.359
 6269SOL    HW119706   6.347   5.989   2.419
 6269SOL    HW219707   6.371   6.141   2.366
 6270SOL     OW19708   1.778   0.384   4.855
 6270SOL    HW119709   1.764   0.457   4.787
 6270SOL    HW219710   1.707   0.389   4.925
 6271SOL     OW19711   6.031   2.185   5.475
 6271SOL    HW119712   6.128   2.210   5.464
 6271SOL    HW219713   5.993   2.233   5.554
 6272SOL     OW19714   1.019   2.632   5.667
 6272SOL    HW119715   1.043   2.669   5.757
 6272SOL    HW219716   1.089   2.658   5.600
 6273SOL     OW19717   1.857   0.392   2.521
 6273SOL    HW119718   1.912   0.451   2.462
 6273SOL    HW219719   1.913   0.315   2.552
 6274SOL     OW19720   2.622   5.596   5.997
 6274SOL    HW119721   2.632   5.633   5.905
 6274SOL    HW219722   2.557   5.520   5.996
 6275SOL     OW19723   2.035   6.382   5.003
 6275SOL    HW119724   2.010   6.297   4.957
 6275SOL    HW219725   2.017   6.460   4.942
 6276SOL     OW19726   1.344   5.120   3.672
 6276SOL    HW119727   1.414   5.152   3.736
 6276SOL    HW219728   1.286   5.052   3.717
 6277SOL     OW19729   5.539   3.219   2.092
 6277SOL    HW119730   5.503   3.129   2.066
 6277SOL    HW219731   5.629   3.208   2.134
 6278SOL     OW19732   4.777   0.253   4.945
 6278SOL    HW119733   4.819   0.325   4.889
 6278SOL    HW219734   4.838   0.229   5.020
 6279SOL     OW19735   3.850   0.931   6.489
 6279SOL    HW119736   3.946   0.904   6.486
 6279SOL    HW219737   3.805   0.884   6.565
 6280SOL     OW19738   0.268   2.271   6.078
 6280SOL    HW119739   0.215   2.275   6.163
 6280SOL    HW219740   0.337   2.198   6.085
 6281SOL     OW19741   1.727   5.802   5.029
 6281SOL    HW119742   1.728   5.878   4.964
 6281SOL    HW219743   1.668   5.825   5.106
 6282SOL     OW19744   1.103   0.387   4.879
 6282SOL    HW119745   1.047   0.405   4.798
 6282SOL    HW219746   1.115   0.472   4.930
 6283SOL     OW19747   6.004   3.113   5.081
 6283SOL    HW119748   6.079   3.168   5.046
 6283SOL    HW219749   5.957   3.069   5.004
 6284SOL     OW19750   1.945   5.626   5.035
 6284SOL    HW119751   1.975   5.618   5.131
 6284SOL    HW219752   1.886   5.706   5.025
 6285SOL     OW19753   1.460   2.649   3.623
 6285SOL    HW119754   1.490   2.742   3.644
 6285SOL    HW219755   1.478   2.630   3.527
 6286SOL     OW19756   6.227   2.156   4.077
 6286SOL    HW119757   6.166   2.234   4.092
 6286SOL    HW219758   6.186   2.073   4.115
 6287SOL     OW19759   4.029   4.830   3.000
 6287SOL    HW119760   3.985   4.864   2.917
 6287SOL    HW219761   4.098   4.896   3.030
 6288SOL     OW19762   5.850   4.554   2.354
 6288SOL    HW119763   5.764   4.531   2.400
 6288SOL    HW219764   5.840   4.541   2.256
 6289SOL     OW19765   1.221   4.167   2.760
 6289SOL    HW119766   1.199   4.265   2.759
 6289SOL    HW219767   1.319   4.155   2.742
 6290SOL     OW19768   6.008   3.857   4.354
 6290SOL    HW119769   6.094   3.907   4.345
 6290SOL    HW219770   6.008   3.807   4.441
 6291SOL     OW19771   3.732   3.234   3.340
 6291SOL    HW119772   3.726   3.198   3.247
 6291SOL    HW219773   3.784   3.171   3.397
 6292SOL     OW19774   0.841   2.521   3.500
 6292SOL    HW119775   0.890   2.495   3.583
 6292SOL    HW219776   0.905   2.531   3.424
 6293SOL     OW19777   4.431   0.012   6.685
 6293SOL    HW119778   4.355   0.056   6.637
 6293SOL    HW219779   4.452   6.951   6.639
 6294SOL     OW19780   3.377   4.931   4.156
 6294SOL    HW119781   3.355   4.932   4.254
 6294SOL    HW219782   3.474   4.914   4.144
 6295SOL     OW19783   5.265   5.075   5.464
 6295SOL    HW119784   5.328   5.150   5.444
 6295SOL    HW219785   5.215   5.051   5.380
 6296SOL     OW19786   6.641   6.491   4.717
 6296SOL    HW119787   6.699   6.434   4.659
 6296SOL    HW219788   6.659   6.470   4.813
 6297SOL     OW19789   4.851   6.873   5.085
 6297SOL    HW119790   4.931   6.851   5.140
 6297SOL    HW219791   4.868   6.849   4.990
 6298SOL     OW19792   1.520   2.399   5.848
 6298SOL    HW119793   1.486   2.308   5.873
 6298SOL    HW219794   1.442   2.461   5.837
 6299SOL     OW19795   4.777   1.883   0.541
 6299SOL    HW119796   4.835   1.811   0.504
 6299SOL    HW219797   4.827   1.933   0.612
 6300SOL     OW19798   5.284   1.295   4.992
 6300SOL    HW119799   5.187   1.319   4.989
 6300SOL    HW219800   5.301   1.239   5.073
 6301SOL     OW19801   2.752   0.674   1.519
 6301SOL    HW119802   2.781   0.580   1.503
 6301SOL    HW219803   2.694   0.677   1.600
 6302SOL     OW19804   1.576   1.775   4.247
 6302SOL    HW119805   1.490   1.788   4.199
 6302SOL    HW219806   1.627   1.862   4.249
 6303SOL     OW19807   2.442   1.003   4.485
 6303SOL    HW119808   2.485   1.073   4.542
 6303SOL    HW219809   2.506   0.928   4.470
 6304SOL     OW19810   2.158   1.245   1.065
 6304SOL    HW119811   2.225   1.298   1.117
 6304SOL    HW219812   2.073   1.297   1.057
 6305SOL     OW19813   6.458   6.937   0.826
 6305SOL    HW119814   6.483   6.852   0.874
 6305SOL    HW219815   6.529   7.005   0.841
 6306SOL     OW19816   0.972   4.010   4.420
 6306SOL    HW119817   1.004   3.993   4.326
 6306SOL    HW219818   1.045   3.986   4.484
 6307SOL     OW19819   4.226   4.040   5.647
 6307SOL    HW119820   4.307   3.982   5.644
 6307SOL    HW219821   4.165   4.017   5.570
 6308SOL     OW19822   1.656   1.950   5.041
 6308SOL    HW119823   1.645   1.966   5.139
 6308SOL    HW219824   1.724   1.879   5.026
 6309SOL     OW19825   4.861   3.787   4.343
 6309SOL    HW119826   4.838   3.882   4.360
 6309SOL    HW219827   4.843   3.765   4.247
 6310SOL     OW19828   2.043   5.404   3.986
 6310SOL    HW119829   2.138   5.405   4.018
 6310SOL    HW219830   2.008   5.497   3.981
 6311SOL     OW19831   5.676   0.415   5.611
 6311SOL    HW119832   5.722   0.439   5.525
 6311SOL    HW219833   5.725   0.455   5.688
 6312SOL     OW19834   5.897   5.141   5.723
 6312SOL    HW119835   5.938   5.230   5.743
 6312SOL    HW219836   5.887   5.131   5.624
 6313SOL     OW19837   1.351   6.117   3.154
 6313SOL    HW119838   1.272   6.169   3.185
 6313SOL    HW219839   1.398   6.078   3.234
 6314SOL     OW19840   4.308   6.732   1.622
 6314SOL    HW119841   4.338   6.648   1.667
 6314SOL    HW219842   4.371   6.755   1.548
 6315SOL     OW19843   3.786   2.851   6.771
 6315SOL    HW119844   3.758   2.833   6.865
 6315SOL    HW219845   3.836   2.772   6.736
 6316SOL     OW19846   4.453   2.117   6.163
 6316SOL    HW119847   4.544   2.075   6.165
 6316SOL    HW219848   4.384   2.046   6.149
 6317SOL     OW19849   5.271   5.263   3.498
 6317SOL    HW119850   5.260   5.286   3.401
 6317SOL    HW219851   5.356   5.211   3.510
 6318SOL     OW19852   2.965   1.893   4.803
 6318SOL    HW119853   2.914   1.976   4.825
 6318SOL    HW219854   3.063   1.910   4.813
 6319SOL     OW19855   0.148   2.514   3.262
 6319SOL    HW119856   0.170   2.433   3.317
 6319SOL    HW219857   0.204   2.591   3.292
 6320SOL     OW19858   6.203   4.921   4.645
 6320SOL    HW119859   6.144   4.989   4.601
 6320SOL    HW219860   6.251   4.963   4.721
 6321SOL     OW19861   3.348   5.136   0.944
 6321SOL    HW119862   3.444   5.162   0.933
 6321SOL    HW219863   3.337   5.080   1.026
 6322SOL     OW19864   1.566   2.556   6.495
 6322SOL    HW119865   1.616   2.491   6.438
 6322SOL    HW219866   1.537   2.510   6.579
 6323SOL     OW19867   3.686   2.690   1.039
 6323SOL    HW119868   3.647   2.773   1.080
 6323SOL    HW219869   3.616   2.642   0.987
 6324SOL     OW19870   4.873   0.323   5.958
 6324SOL    HW119871   4.890   0.376   6.040
 6324SOL    HW219872   4.942   0.251   5.950
 6325SOL     OW19873   1.271   1.843   2.197
 6325SOL    HW119874   1.357   1.856   2.247
 6325SOL    HW219875   1.290   1.828   2.100
 6326SOL     OW19876   4.863   6.253   1.499
 6326SOL    HW119877   4.832   6.306   1.420
 6326SOL    HW219878   4.801   6.176   1.514
 6327SOL     OW19879   6.862   0.297   5.439
 6327SOL    HW119880   6.844   0.339   5.350
 6327SOL    HW219881   6.956   0.317   5.467
 6328SOL     OW19882   1.624   3.703   0.461
 6328SOL    HW119883   1.696   3.663   0.518
 6328SOL    HW219884   1.661   3.725   0.371
 6329SOL     OW19885   2.092   2.850   3.349
 6329SOL    HW119886   2.063   2.886   3.260
 6329SOL    HW219887   2.111   2.752   3.341
 6330SOL     OW19888   4.611   0.966   1.720
 6330SOL    HW119889   4.622   1.027   1.798
 6330SOL    HW219890   4.655   0.879   1.739
 6331SOL     OW19891   5.794   2.127   0.132
 6331SOL    HW119892   5.740   2.171   0.204
 6331SOL    HW219893   5.795   2.028   0.148
 6332SOL     OW19894   7.025   3.915   2.184
 6332SOL    HW119895   0.074   3.933   2.119
 6332SOL    HW219896   6.963   3.993   2.184
 6333SOL     OW19897   3.989   4.930   4.402
 6333SOL    HW119898   4.075   4.981   4.392
 6333SOL    HW219899   3.968   4.884   4.315
 6334SOL     OW19900   2.176   0.405   2.341
 6334SOL    HW119901   2.097   0.466   2.352
 6334SOL    HW219902   2.260   0.458   2.352
 6335SOL     OW19903   4.754   1.421   0.699
 6335SOL    HW119904   4.709   1.507   0.675
 6335SOL    HW219905   4.709   1.346   0.651
 6336SOL     OW19906   0.028   1.425   6.068
 6336SOL    HW119907   0.022   1.348   6.006
 6336SOL    HW219908   0.026   1.511   6.016
 6337SOL     OW19909   4.842   4.059   6.472
 6337SOL    HW119910   4.752   4.103   6.468
 6337SOL    HW219911   4.910   4.119   6.431
 6338SOL     OW19912   2.849   2.292   2.562
 6338SOL    HW119913   2.863   2.322   2.467
 6338SOL    HW219914   2.762   2.329   2.596
 6339SOL     OW19915   0.459   3.172   3.830
 6339SOL    HW119916   0.508   3.085   3.824
 6339SOL    HW219917   0.375   3.167   3.776
 6340SOL     OW19918   1.889   5.167   3.048
 6340SOL    HW119919   1.927   5.076   3.033
 6340SOL    HW219920   1.854   5.173   3.142
 6341SOL     OW19921   0.932   4.927   3.279
 6341SOL    HW119922   0.995   4.985   3.331
 6341SOL    HW219923   0.874   4.875   3.342
 6342SOL     OW19924   2.775   1.551   1.378
 6342SOL    HW119925   2.796   1.625   1.313
 6342SOL    HW219926   2.793   1.583   1.471
 6343SOL     OW19927   5.212   2.734   6.281
 6343SOL    HW119928   5.283   2.667   6.302
 6343SOL    HW219929   5.164   2.759   6.366
 6344SOL     OW19930   5.838   3.721   5.633
 6344SOL    HW119931   5.859   3.758   5.542
 6344SOL    HW219932   5.923   3.693   5.678
 6345SOL     OW19933   4.508   1.389   2.226
 6345SOL    HW119934   4.492   1.329   2.305
 6345SOL    HW219935   4.542   1.477   2.258
 6346SOL     OW19936   6.876   3.363   3.601
 6346SOL    HW119937   6.963   3.386   3.558
 6346SOL    HW219938   6.846   3.273   3.571
 6347SOL     OW19939   2.301   0.578   1.206
 6347SOL    HW119940   2.361   0.635   1.150
 6347SOL    HW219941   2.316   0.599   1.303
 6348SOL     OW19942   1.252   3.991   5.188
 6348SOL    HW119943   1.242   3.966   5.284
 6348SOL    HW219944   1.178   3.952   5.135
 6349SOL     OW19945   3.026   0.538   1.478
 6349SOL    HW119946   3.064   0.594   1.404
 6349SOL    HW219947   2.971   0.595   1.538
 6350SOL     OW19948   2.441   4.878   3.947
 6350SOL    HW119949   2.420   4.951   4.012
 6350SOL    HW219950   2.486   4.802   3.994
 6351SOL     OW19951   6.801   3.227   2.477
 6351SOL    HW119952   6.746   3.283   2.539
 6351SOL    HW219953   6.782   3.253   2.382
 6352SOL     OW19954   1.903   5.236   4.680
 6352SOL    HW119955   1.891   5.143   4.714
 6352SOL    HW219956   1.853   5.300   4.738
 6353SOL     OW19957   6.273   0.611   6.355
 6353SOL    HW119958   6.358   0.653   6.320
 6353SOL    HW219959   6.237   0.548   6.286
 6354SOL     OW19960   1.120   0.242   2.659
 6354SOL    HW119961   1.218   0.249   2.639
 6354SOL    HW219962   1.080   0.334   2.660
 6355SOL     OW19963   1.321   4.442   5.759
 6355SOL    HW119964   1.369   4.418   5.843
 6355SOL    HW219965   1.299   4.540   5.760
 6356SOL     OW19966   4.237   4.815   2.341
 6356SOL    HW119967   4.283   4.727   2.353
 6356SOL    HW219968   4.277   4.864   2.264
 6357SOL     OW19969   4.804   2.738   1.605
 6357SOL    HW119970   4.811   2.640   1.620
 6357SOL    HW219971   4.853   2.786   1.679
 6358SOL     OW19972   0.641   2.350   5.814
 6358SOL    HW119973   0.699   2.387   5.742
 6358SOL    HW219974   0.688   2.273   5.858
 6359SOL     OW19975   5.870   6.682   5.748
 6359SOL    HW119976   5.825   6.758   5.702
 6359SOL    HW219977   5.818   6.598   5.734
 6360SOL     OW19978   2.128   3.940   4.176
 6360SOL    HW119979   2.157   3.991   4.095
 6360SOL    HW219980   2.188   3.963   4.253
 6361SOL     OW19981   6.121   0.263   0.265
 6361SOL    HW119982   6.120   0.356   0.302
 6361SOL    HW219983   6.036   0.245   0.217
 6362SOL     OW19984   5.593   5.307   6.260
 6362SOL    HW119985   5.670   5.349   6.308
 6362SOL    HW219986   5.543   5.248   6.323
 6363SOL     OW19987   2.296   5.155   2.923
 6363SOL    HW119988   2.367   5.206   2.972
 6363SOL    HW219989   2.217   5.144   2.983
 6364SOL     OW19990   3.198   1.045   5.863
 6364SOL    HW119991   3.215   1.000   5.775
 6364SOL    HW219992   3.101   1.066   5.871
 6365SOL     OW19993   4.934   6.856   4.387
 6365SOL    HW119994   4.925   6.944   4.340
 6365SOL    HW219995   5.003   6.863   4.459
 6366SOL     OW19996   0.134   5.762   6.177
 6366SOL    HW119997   0.084   5.790   6.095
 6366SOL    HW219998   0.225   5.804   6.177
 6367SOL     OW19999   3.975   0.492   4.237
 6367SOL    HW120000   3.946   0.521   4.328
 6367SOL    HW220001   3.910   0.425   4.201
 6368SOL     OW20002   3.446   0.239   3.612
 6368SOL    HW120003   3.461   0.331   3.648
 6368SOL    HW220004   3.351   0.213   3.627
 6369SOL     OW20005   2.563   5.109   4.796
 6369SOL    HW120006   2.527   5.186   4.743
 6369SOL    HW220007   2.588   5.141   4.888
 6370SOL     OW20008   1.254   2.912   2.347
 6370SOL    HW120009   1.183   2.980   2.361
 6370SOL    HW220010   1.336   2.956   2.309
 6371SOL     OW20011   4.979   3.128   4.032
 6371SOL    HW120012   4.994   3.068   4.110
 6371SOL    HW220013   5.032   3.212   4.044
 6372SOL     OW20014   3.182   6.901   1.737
 6372SOL    HW120015   3.163   6.854   1.651
 6372SOL    HW220016   3.162   6.999   1.726
 6373SOL     OW20017   6.105   3.982   3.998
 6373SOL    HW120018   6.044   4.059   4.015
 6373SOL    HW220019   6.161   3.965   4.079
 6374SOL     OW20020   3.901   4.015   4.283
 6374SOL    HW120021   3.808   3.980   4.295
 6374SOL    HW220022   3.920   4.027   4.186
 6375SOL     OW20023   0.436   1.707   3.892
 6375SOL    HW120024   0.524   1.662   3.877
 6375SOL    HW220025   0.383   1.656   3.959
 6376SOL     OW20026   6.488   2.477   5.612
 6376SOL    HW120027   6.438   2.403   5.566
 6376SOL    HW220028   6.472   2.471   5.711
 6377SOL     OW20029   6.493   1.618   5.890
 6377SOL    HW120030   6.401   1.613   5.929
 6377SOL    HW220031   6.533   1.707   5.910
 6378SOL     OW20032   5.233   5.073   3.764
 6378SOL    HW120033   5.265   5.034   3.851
 6378SOL    HW220034   5.268   5.017   3.689
 6379SOL     OW20035   2.289   4.669   4.451
 6379SOL    HW120036   2.209   4.615   4.423
 6379SOL    HW220037   2.319   4.639   4.542
 6380SOL     OW20038   0.454   1.617   5.509
 6380SOL    HW120039   0.424   1.677   5.436
 6380SOL    HW220040   0.554   1.620   5.516
 6381SOL     OW20041   3.612   3.292   2.874
 6381SOL    HW120042   3.547   3.297   2.799
 6381SOL    HW220043   3.672   3.212   2.861
 6382SOL     OW20044   1.118   3.021   0.176
 6382SOL    HW120045   1.101   2.933   0.221
 6382SOL    HW220046   1.147   3.089   0.243
 6383SOL     OW20047   2.197   2.477   2.662
 6383SOL    HW120048   2.164   2.557   2.611
 6383SOL    HW220049   2.296   2.482   2.672
 6384SOL     OW20050   5.853   4.403   1.344
 6384SOL    HW120051   5.810   4.413   1.434
 6384SOL    HW220052   5.861   4.494   1.301
 6385SOL     OW20053   6.857   4.816   4.464
 6385SOL    HW120054   6.955   4.798   4.474
 6385SOL    HW220055   6.826   4.782   4.375
 6386SOL     OW20056   2.457   4.154   6.772
 6386SOL    HW120057   2.407   4.158   6.686
 6386SOL    HW220058   2.466   4.058   6.801
 6387SOL     OW20059   0.692   1.863   6.719
 6387SOL    HW120060   0.607   1.848   6.768
 6387SOL    HW220061   0.765   1.888   6.783
 6388SOL     OW20062   4.317   4.465   1.761
 6388SOL    HW120063   4.338   4.374   1.797
 6388SOL    HW220064   4.397   4.525   1.773
 6389SOL     OW20065   0.548   5.967   2.329
 6389SOL    HW120066   0.526   5.870   2.319
 6389SOL    HW220067   0.489   6.021   2.269
 6390SOL     OW20068   1.210   2.539   4.414
 6390SOL    HW120069   1.136   2.581   4.466
 6390SOL    HW220070   1.285   2.605   4.403
 6391SOL     OW20071   3.098   0.173   6.280
 6391SOL    HW120072   3.046   0.091   6.257
 6391SOL    HW220073   3.038   0.242   6.320
 6392SOL     OW20074   2.521   6.568   3.261
 6392SOL    HW120075   2.486   6.653   3.222
 6392SOL    HW220076   2.512   6.571   3.361
 6393SOL     OW20077   6.036   6.503   1.541
 6393SOL    HW120078   6.080   6.477   1.455
 6393SOL    HW220079   6.104   6.500   1.615
 6394SOL     OW20080   2.215   4.114   1.557
 6394SOL    HW120081   2.205   4.210   1.530
 6394SOL    HW220082   2.262   4.109   1.645
 6395SOL     OW20083   5.728   2.649   1.337
 6395SOL    HW120084   5.815   2.605   1.315
 6395SOL    HW220085   5.736   2.696   1.425
 6396SOL     OW20086   5.302   2.974   6.498
 6396SOL    HW120087   5.304   2.985   6.398
 6396SOL    HW220088   5.220   2.925   6.524
 6397SOL     OW20089   5.716   1.879   6.702
 6397SOL    HW120090   5.728   1.968   6.748
 6397SOL    HW220091   5.782   1.871   6.627
 6398SOL     OW20092   3.441   0.868   0.594
 6398SOL    HW120093   3.368   0.851   0.527
 6398SOL    HW220094   3.402   0.911   0.675
 6399SOL     OW20095   2.021   5.040   6.418
 6399SOL    HW120096   2.018   5.131   6.459
 6399SOL    HW220097   2.084   4.982   6.469
 6400SOL     OW20098   1.799   5.644   3.211
 6400SOL    HW120099   1.793   5.594   3.124
 6400SOL    HW220100   1.776   5.583   3.286
 6401SOL     OW20101   6.650   4.499   3.585
 6401SOL    HW120102   6.680   4.408   3.611
 6401SOL    HW220103   6.689   4.522   3.495
 6402SOL     OW20104   3.148   0.665   3.032
 6402SOL    HW120105   3.164   0.672   3.130
 6402SOL    HW220106   3.233   0.685   2.983
 6403SOL     OW20107   0.440   6.197   6.399
 6403SOL    HW120108   0.477   6.270   6.455
 6403SOL    HW220109   0.488   6.112   6.419
 6404SOL     OW20110   4.068   1.306   2.792
 6404SOL    HW120111   3.992   1.370   2.801
 6404SOL    HW220112   4.072   1.248   2.873
 6405SOL     OW20113   1.663   1.271   3.495
 6405SOL    HW120114   1.744   1.239   3.545
 6405SOL    HW220115   1.676   1.365   3.466
 6406SOL     OW20116   1.744   2.189   3.517
 6406SOL    HW120117   1.762   2.253   3.592
 6406SOL    HW220118   1.789   2.221   3.434
 6407SOL     OW20119   3.108   6.630   2.919
 6407SOL    HW120120   3.020   6.668   2.891
 6407SOL    HW220121   3.136   6.671   3.005
 6408SOL     OW20122   6.115   2.555   0.134
 6408SOL    HW120123   6.064   2.469   0.130
 6408SOL    HW220124   6.207   2.537   0.167
 6409SOL     OW20125   6.813   4.125   3.324
 6409SOL    HW120126   6.794   4.113   3.227
 6409SOL    HW220127   6.898   4.176   3.335
 6410SOL     OW20128   1.646   1.760   0.480
 6410SOL    HW120129   1.724   1.818   0.458
 6410SOL    HW220130   1.677   1.669   0.504
 6411SOL     OW20131   0.754   2.952   2.980
 6411SOL    HW120132   0.792   3.000   2.900
 6411SOL    HW220133   0.816   2.964   3.058
 6412SOL     OW20134   0.111   3.088   5.459
 6412SOL    HW120135   0.117   3.108   5.556
 6412SOL    HW220136   0.145   2.995   5.441
 6413SOL     OW20137   5.148   5.091   3.093
 6413SOL    HW120138   5.082   5.023   3.061
 6413SOL    HW220139   5.119   5.182   3.064
 6414SOL     OW20140   5.982   0.479   1.894
 6414SOL    HW120141   5.938   0.447   1.977
 6414SOL    HW220142   6.050   0.549   1.917
 6415SOL     OW20143   2.847   2.233   2.831
 6415SOL    HW120144   2.871   2.250   2.735
 6415SOL    HW220145   2.796   2.311   2.867
 6416SOL     OW20146   0.667   0.768   6.029
 6416SOL    HW120147   0.597   0.794   6.095
 6416SOL    HW220148   0.690   0.847   5.972
 6417SOL     OW20149   0.078   4.808   2.646
 6417SOL    HW120150   0.066   4.907   2.642
 6417SOL    HW220151   7.014   4.763   2.637
 6418SOL     OW20152   6.175   4.893   2.439
 6418SOL    HW120153   6.099   4.941   2.483
 6418SOL    HW220154   6.207   4.820   2.499
 6419SOL     OW20155   2.797   5.002   2.446
 6419SOL    HW120156   2.893   5.030   2.447
 6419SOL    HW220157   2.739   5.084   2.449
 6420SOL     OW20158   3.046   3.663   5.504
 6420SOL    HW120159   3.023   3.570   5.474
 6420SOL    HW220160   2.962   3.718   5.507
 6421SOL     OW20161   6.194   1.652   2.056
 6421SOL    HW120162   6.218   1.555   2.054
 6421SOL    HW220163   6.096   1.662   2.041
 6422SOL     OW20164   6.650   0.450   3.955
 6422SOL    HW120165   6.617   0.382   3.889
 6422SOL    HW220166   6.733   0.493   3.919
 6423SOL     OW20167   4.393   4.605   2.403
 6423SOL    HW120168   4.409   4.575   2.309
 6423SOL    HW220169   4.431   4.537   2.466
 6424SOL     OW20170   6.607   5.383   5.717
 6424SOL    HW120171   6.599   5.445   5.639
 6424SOL    HW220172   6.703   5.375   5.743
 6425SOL     OW20173   6.743   5.587   4.052
 6425SOL    HW120174   6.777   5.507   4.003
 6425SOL    HW220175   6.675   5.558   4.119
 6426SOL     OW20176   0.555   4.037   3.593
 6426SOL    HW120177   0.599   3.988   3.669
 6426SOL    HW220178   0.613   4.031   3.512
 6427SOL     OW20179   1.830   3.345   7.002
 6427SOL    HW120180   1.740   3.380   0.001
 6427SOL    HW220181   1.858   3.384   6.915
 6428SOL     OW20182   6.056   3.347   0.735
 6428SOL    HW120183   6.076   3.437   0.774
 6428SOL    HW220184   5.961   3.323   0.752
 6429SOL     OW20185   0.811   1.420   4.923
 6429SOL    HW120186   0.821   1.519   4.918
 6429SOL    HW220187   0.715   1.397   4.941
 6430SOL     OW20188   4.960   1.119   2.075
 6430SOL    HW120189   4.924   1.026   2.065
 6430SOL    HW220190   4.887   1.180   2.107
 6431SOL     OW20191   5.684   0.110   3.108
 6431SOL    HW120192   5.778   0.101   3.141
 6431SOL    HW220193   5.655   0.024   3.066
 6432SOL     OW20194   3.910   4.106   6.983
 6432SOL    HW120195   3.825   4.115   6.930
 6432SOL    HW220196   3.897   4.146   0.048
 6433SOL     OW20197   3.563   4.361   0.921
 6433SOL    HW120198   3.508   4.291   0.966
 6433SOL    HW220199   3.558   4.349   0.822
 6434SOL     OW20200   1.511   3.956   0.500
 6434SOL    HW120201   1.587   4.020   0.494
 6434SOL    HW220202   1.542   3.864   0.476
 6435SOL     OW20203   3.909   4.985   0.081
 6435SOL    HW120204   3.960   4.973   7.021
 6435SOL    HW220205   3.927   5.077   0.116
 6436SOL     OW20206   2.218   3.018   3.753
 6436SOL    HW120207   2.196   3.085   3.823
 6436SOL    HW220208   2.255   3.064   3.673
 6437SOL     OW20209   1.514   1.126   0.796
 6437SOL    HW120210   1.487   1.039   0.755
 6437SOL    HW220211   1.578   1.109   0.871
 6438SOL     OW20212   0.436   4.658   5.727
 6438SOL    HW120213   0.348   4.673   5.772
 6438SOL    HW220214   0.435   4.701   5.637
 6439SOL     OW20215   0.309   6.783   1.917
 6439SOL    HW120216   0.280   6.739   2.002
 6439SOL    HW220217   0.229   6.823   1.871
 6440SOL     OW20218   2.193   1.289   2.163
 6440SOL    HW120219   2.135   1.363   2.130
 6440SOL    HW220220   2.251   1.322   2.237
 6441SOL     OW20221   0.879   0.081   2.632
 6441SOL    HW120222   0.840   0.050   2.545
 6441SOL    HW220223   0.970   0.121   2.615
 6442SOL     OW20224   1.590   1.535   3.469
 6442SOL    HW120225   1.652   1.590   3.527
 6442SOL    HW220226   1.515   1.500   3.525
 6443SOL     OW20227   3.703   2.809   7.017
 6443SOL    HW120228   3.648   2.740   6.970
 6443SOL    HW220229   3.755   2.765   0.065
 6444SOL     OW20230   1.003   2.499   3.756
 6444SOL    HW120231   0.944   2.451   3.821
 6444SOL    HW220232   1.062   2.563   3.805
 6445SOL     OW20233   4.978   2.713   5.551
 6445SOL    HW120234   4.947   2.730   5.457
 6445SOL    HW220235   4.899   2.692   5.609
 6446SOL     OW20236   0.696   1.598   6.372
 6446SOL    HW120237   0.746   1.606   6.286
 6446SOL    HW220238   0.633   1.520   6.368
 6447SOL     OW20239   0.190   5.852   2.456
 6447SOL    HW120240   0.184   5.938   2.407
 6447SOL    HW220241   0.176   5.869   2.554
 6448SOL     OW20242   5.785   4.829   2.219
 6448SOL    HW120243   5.705   4.883   2.193
 6448SOL    HW220244   5.793   4.826   2.319
 6449SOL     OW20245   3.800   4.358   1.229
 6449SOL    HW120246   3.752   4.439   1.262
 6449SOL    HW220247   3.816   4.367   1.131
 6450SOL     OW20248   0.190   3.332   1.373
 6450SOL    HW120249   0.164   3.394   1.299
 6450SOL    HW220250   0.148   3.362   1.459
 6451SOL     OW20251   2.655   6.124   4.825
 6451SOL    HW120252   2.711   6.115   4.742
 6451SOL    HW220253   2.571   6.072   4.814
 6452SOL     OW20254   3.437   5.949   5.351
 6452SOL    HW120255   3.436   5.856   5.314
 6452SOL    HW220256   3.370   5.955   5.425
 6453SOL     OW20257   2.273   5.932   6.751
 6453SOL    HW120258   2.205   5.996   6.716
 6453SOL    HW220259   2.344   5.981   6.801
 6454SOL     OW20260   2.833   1.189   3.722
 6454SOL    HW120261   2.931   1.194   3.704
 6454SOL    HW220262   2.790   1.276   3.697
 6455SOL     OW20263   0.488   2.445   4.425
 6455SOL    HW120264   0.541   2.385   4.365
 6455SOL    HW220265   0.504   2.541   4.399
 6456SOL     OW20266   1.700   0.410   3.520
 6456SOL    HW120267   1.654   0.351   3.454
 6456SOL    HW220268   1.638   0.483   3.549
 6457SOL     OW20269   5.395   1.268   1.262
 6457SOL    HW120270   5.442   1.180   1.258
 6457SOL    HW220271   5.367   1.286   1.356
 6458SOL     OW20272   1.159   6.985   3.614
 6458SOL    HW120273   1.213   6.910   3.650
 6458SOL    HW220274   1.073   6.992   3.666
 6459SOL     OW20275   5.854   5.432   1.041
 6459SOL    HW120276   5.937   5.387   1.074
 6459SOL    HW220277   5.849   5.525   1.077
 6460SOL     OW20278   4.500   5.191   5.964
 6460SOL    HW120279   4.453   5.202   5.876
 6460SOL    HW220280   4.441   5.139   6.026
 6461SOL     OW20281   3.213   4.902   5.234
 6461SOL    HW120282   3.218   4.902   5.134
 6461SOL    HW220283   3.301   4.931   5.271
 6462SOL     OW20284   2.366   2.823   5.368
 6462SOL    HW120285   2.367   2.891   5.295
 6462SOL    HW220286   2.434   2.753   5.349
 6463SOL     OW20287   1.764   3.930   6.466
 6463SOL    HW120288   1.717   3.975   6.390
 6463SOL    HW220289   1.698   3.905   6.536
 6464SOL     OW20290   0.879   4.769   5.055
 6464SOL    HW120291   0.800   4.792   4.997
 6464SOL    HW220292   0.848   4.753   5.149
 6465SOL     OW20293   6.492   2.669   3.886
 6465SOL    HW120294   6.517   2.654   3.790
 6465SOL    HW220295   6.399   2.707   3.890
 6466SOL     OW20296   0.363   1.780   6.071
 6466SOL    HW120297   0.447   1.750   6.026
 6466SOL    HW220298   0.367   1.756   6.168
 6467SOL     OW20299   3.090   1.124   6.862
 6467SOL    HW120300   3.140   1.047   6.822
 6467SOL    HW220301   3.154   1.188   6.903
 6468SOL     OW20302   4.121   6.052   1.374
 6468SOL    HW120303   4.159   6.124   1.316
 6468SOL    HW220304   4.193   6.012   1.431
 6469SOL     OW20305   4.967   0.777   5.345
 6469SOL    HW120306   4.912   0.860   5.338
 6469SOL    HW220307   5.053   0.798   5.392
 6470SOL     OW20308   6.238   4.960   6.115
 6470SOL    HW120309   6.276   4.919   6.198
 6470SOL    HW220310   6.146   4.925   6.100
 6471SOL     OW20311   6.650   5.750   5.878
 6471SOL    HW120312   6.640   5.670   5.819
 6471SOL    HW220313   6.603   5.828   5.837
 6472SOL     OW20314   0.220   5.033   0.857
 6472SOL    HW120315   0.160   5.067   0.930
 6472SOL    HW220316   0.312   5.069   0.871
 6473SOL     OW20317   2.255   1.762   5.078
 6473SOL    HW120318   2.267   1.674   5.122
 6473SOL    HW220319   2.200   1.751   4.995
 6474SOL     OW20320   1.749   3.331   5.866
 6474SOL    HW120321   1.737   3.395   5.942
 6474SOL    HW220322   1.840   3.344   5.827
 6475SOL     OW20323   6.763   5.463   4.762
 6475SOL    HW120324   6.665   5.479   4.770
 6475SOL    HW220325   6.807   5.544   4.723
 6476SOL     OW20326   4.707   3.689   1.764
 6476SOL    HW120327   4.656   3.767   1.729
 6476SOL    HW220328   4.650   3.607   1.759
 6477SOL     OW20329   0.290   4.917   1.216
 6477SOL    HW120330   0.261   4.907   1.311
 6477SOL    HW220331   0.215   4.893   1.155
 6478SOL     OW20332   3.780   6.134   2.226
 6478SOL    HW120333   3.718   6.195   2.275
 6478SOL    HW220334   3.778   6.156   2.128
 6479SOL     OW20335   3.851   5.083   3.030
 6479SOL    HW120336   3.786   5.007   3.043
 6479SOL    HW220337   3.801   5.170   3.034
 6480SOL     OW20338   3.341   2.952   5.623
 6480SOL    HW120339   3.340   2.854   5.639
 6480SOL    HW220340   3.251   2.983   5.592
 6481SOL     OW20341   3.410   2.101   1.809
 6481SOL    HW120342   3.506   2.088   1.784
 6481SOL    HW220343   3.363   2.013   1.809
 6482SOL     OW20344   0.234   1.051   6.020
 6482SOL    HW120345   0.196   0.984   5.956
 6482SOL    HW220346   0.227   1.016   6.113
 6483SOL     OW20347   2.414   5.450   1.619
 6483SOL    HW120348   2.393   5.395   1.700
 6483SOL    HW220349   2.387   5.400   1.537
 6484SOL     OW20350   3.933   0.591   3.029
 6484SOL    HW120351   4.002   0.591   3.102
 6484SOL    HW220352   3.979   0.594   2.940
 6485SOL     OW20353   1.796   3.557   3.652
 6485SOL    HW120354   1.759   3.599   3.569
 6485SOL    HW220355   1.786   3.621   3.728
 6486SOL     OW20356   1.447   4.354   4.097
 6486SOL    HW120357   1.380   4.406   4.150
 6486SOL    HW220358   1.402   4.275   4.055
 6487SOL     OW20359   6.517   5.704   5.093
 6487SOL    HW120360   6.505   5.653   5.178
 6487SOL    HW220361   6.574   5.785   5.111
 6488SOL     OW20362   2.617   5.746   4.804
 6488SOL    HW120363   2.595   5.664   4.857
 6488SOL    HW220364   2.560   5.822   4.835
 6489SOL     OW20365   2.154   3.490   6.932
 6489SOL    HW120366   2.185   3.475   6.838
 6489SOL    HW220367   2.171   3.408   6.986
 6490SOL     OW20368   4.252   2.642   6.306
 6490SOL    HW120369   4.220   2.633   6.400
 6490SOL    HW220370   4.351   2.630   6.303
 6491SOL     OW20371   4.132   1.198   6.602
 6491SOL    HW120372   4.158   1.103   6.619
 6491SOL    HW220373   4.072   1.230   6.676
 6492SOL     OW20374   5.760   6.293   0.039
 6492SOL    HW120375   5.688   6.359   0.018
 6492SOL    HW220376   5.847   6.325   0.002
 6493SOL     OW20377   1.412   6.135   5.468
 6493SOL    HW120378   1.330   6.175   5.509
 6493SOL    HW220379   1.428   6.176   5.378
 6494SOL     OW20380   0.034   1.130   3.465
 6494SOL    HW120381   0.055   1.073   3.386
 6494SOL    HW220382   0.115   1.185   3.488
 6495SOL     OW20383   5.014   6.023   4.478
 6495SOL    HW120384   4.928   6.025   4.428
 6495SOL    HW220385   5.064   5.939   4.455
 6496SOL     OW20386   0.213   6.146   2.384
 6496SOL    HW120387   0.218   6.234   2.430
 6496SOL    HW220388   0.291   6.136   2.322
 6497SOL     OW20389   2.289   3.236   0.127
 6497SOL    HW120390   2.366   3.300   0.118
 6497SOL    HW220391   2.313   3.164   0.192
 6498SOL     OW20392   2.484   4.682   4.262
 6498SOL    HW120393   2.529   4.770   4.277
 6498SOL    HW220394   2.429   4.659   4.343
 6499SOL     OW20395   5.894   1.811   5.075
 6499SOL    HW120396   5.818   1.771   5.126
 6499SOL    HW220397   5.879   1.909   5.064
 6500SOL     OW20398   0.476   4.926   3.842
 6500SOL    HW120399   0.446   4.855   3.906
 6500SOL    HW220400   0.407   4.938   3.771
 6501SOL     OW20401   0.241   2.637   0.726
 6501SOL    HW120402   0.306   2.700   0.683
 6501SOL    HW220403   0.291   2.558   0.762
 6502SOL     OW20404   6.797   3.817   3.411
 6502SOL    HW120405   6.807   3.916   3.417
 6502SOL    HW220406   6.707   3.795   3.373
 6503SOL     OW20407   5.203   0.021   3.928
 6503SOL    HW120408   5.124   6.991   3.956
 6503SOL    HW220409   5.235   7.015   3.839
 6504SOL     OW20410   4.420   6.345   6.179
 6504SOL    HW120411   4.403   6.411   6.105
 6504SOL    HW220412   4.413   6.252   6.142
 6505SOL     OW20413   5.779   4.578   2.080
 6505SOL    HW120414   5.791   4.663   2.131
 6505SOL    HW220415   5.745   4.599   1.988
 6506SOL     OW20416   0.845   3.184   0.723
 6506SOL    HW120417   0.882   3.267   0.681
 6506SOL    HW220418   0.747   3.177   0.704
 6507SOL     OW20419   1.873   5.850   6.626
 6507SOL    HW120420   1.857   5.821   6.532
 6507SOL    HW220421   1.908   5.772   6.679
 6508SOL     OW20422   1.850   1.955   3.824
 6508SOL    HW120423   1.868   1.886   3.893
 6508SOL    HW220424   1.935   2.006   3.805
 6509SOL     OW20425   2.210   2.439   4.866
 6509SOL    HW120426   2.126   2.492   4.876
 6509SOL    HW220427   2.285   2.502   4.845
 6510SOL     OW20428   0.795   5.276   6.532
 6510SOL    HW120429   0.753   5.282   6.441
 6510SOL    HW220430   0.871   5.340   6.537
 6511SOL     OW20431   5.417   0.772   4.619
 6511SOL    HW120432   5.341   0.792   4.681
 6511SOL    HW220433   5.382   0.761   4.526
 6512SOL     OW20434   5.073   0.429   2.915
 6512SOL    HW120435   5.048   0.334   2.935
 6512SOL    HW220436   5.164   0.447   2.951
 6513SOL     OW20437   3.400   6.051   3.559
 6513SOL    HW120438   3.424   6.056   3.462
 6513SOL    HW220439   3.403   6.142   3.600
 6514SOL     OW20440   5.613   0.315   2.938
 6514SOL    HW120441   5.688   0.381   2.933
 6514SOL    HW220442   5.642   0.236   2.992
 6515SOL     OW20443   0.042   5.440   3.912
 6515SOL    HW120444   0.052   5.529   3.957
 6515SOL    HW220445   6.984   5.396   3.942
 6516SOL     OW20446   0.010   2.200   0.508
 6516SOL    HW120447   7.024   2.289   0.464
 6516SOL    HW220448   0.105   2.188   0.536
 6517SOL     OW20449   5.773   1.360   0.557
 6517SOL    HW120450   5.684   1.319   0.576
 6517SOL    HW220451   5.789   1.436   0.621
 6518SOL     OW20452   0.470   6.103   6.843
 6518SOL    HW120453   0.373   6.080   6.841
 6518SOL    HW220454   0.522   6.026   6.880
 6519SOL     OW20455   2.127   2.195   3.346
 6519SOL    HW120456   2.217   2.155   3.364
 6519SOL    HW220457   2.116   2.210   3.248
 6520SOL     OW20458   6.592   5.929   3.398
 6520SOL    HW120459   6.630   5.877   3.322
 6520SOL    HW220460   6.641   6.016   3.406
 6521SOL     OW20461   1.089   1.405   4.681
 6521SOL    HW120462   1.124   1.380   4.771
 6521SOL    HW220463   1.015   1.343   4.656
 6522SOL     OW20464   3.128   4.662   6.953
 6522SOL    HW120465   3.085   4.595   6.892
 6522SOL    HW220466   3.062   4.690   7.023
 6523SOL     OW20467   3.179   1.506   6.473
 6523SOL    HW120468   3.163   1.424   6.528
 6523SOL    HW220469   3.277   1.525   6.470
 6524SOL     OW20470   3.479   2.885   3.359
 6524SOL    HW120471   3.399   2.886   3.419
 6524SOL    HW220472   3.557   2.846   3.409
 6525SOL     OW20473   2.165   3.109   2.900
 6525SOL    HW120474   2.219   3.175   2.951
 6525SOL    HW220475   2.099   3.157   2.842
 6526SOL     OW20476   0.699   6.422   4.510
 6526SOL    HW120477   0.610   6.392   4.475
 6526SOL    HW220478   0.771   6.374   4.459
 6527SOL     OW20479   0.532   1.555   4.324
 6527SOL    HW120480   0.574   1.468   4.347
 6527SOL    HW220481   0.602   1.627   4.323
 6528SOL     OW20482   6.834   0.778   3.853
 6528SOL    HW120483   6.909   0.830   3.814
 6528SOL    HW220484   6.825   0.690   3.805
 6529SOL     OW20485   6.078   1.723   3.899
 6529SOL    HW120486   6.100   1.646   3.838
 6529SOL    HW220487   6.000   1.698   3.957
 6530SOL     OW20488   6.931   3.888   0.832
 6530SOL    HW120489   6.911   3.873   0.929
 6530SOL    HW220490   7.007   3.952   0.824
 6531SOL     OW20491   5.243   3.381   4.381
 6531SOL    HW120492   5.156   3.428   4.369
 6531SOL    HW220493   5.230   3.283   4.365
 6532SOL     OW20494   5.623   1.374   1.152
 6532SOL    HW120495   5.540   1.349   1.202
 6532SOL    HW220496   5.679   1.434   1.208
 6533SOL     OW20497   5.482   5.711   1.828
 6533SOL    HW120498   5.522   5.727   1.737
 6533SOL    HW220499   5.466   5.613   1.841
 6534SOL     OW20500   2.613   4.281   1.678
 6534SOL    HW120501   2.627   4.342   1.756
 6534SOL    HW220502   2.694   4.224   1.665
 6535SOL     OW20503   0.600   3.410   4.649
 6535SOL    HW120504   0.609   3.351   4.569
 6535SOL    HW220505   0.537   3.485   4.629
 6536SOL     OW20506   6.791   2.491   5.891
 6536SOL    HW120507   6.692   2.491   5.880
 6536SOL    HW220508   6.829   2.403   5.863
 6537SOL     OW20509   6.224   5.802   6.882
 6537SOL    HW120510   6.174   5.717   6.871
 6537SOL    HW220511   6.195   5.867   6.812
 6538SOL     OW20512   3.601   4.099   0.150
 6538SOL    HW120513   3.543   4.100   0.231
 6538SOL    HW220514   3.696   4.112   0.176
 6539SOL     OW20515   2.778   1.508   6.280
 6539SOL    HW120516   2.684   1.541   6.283
 6539SOL    HW220517   2.784   1.429   6.219
 6540SOL     OW20518   4.415   1.896   4.753
 6540SOL    HW120519   4.410   1.986   4.796
 6540SOL    HW220520   4.505   1.884   4.711
 6541SOL     OW20521   3.602   2.153   4.474
 6541SOL    HW120522   3.661   2.207   4.534
 6541SOL    HW220523   3.613   2.056   4.495
 6542SOL     OW20524   0.237   4.663   3.280
 6542SOL    HW120525   0.155   4.713   3.305
 6542SOL    HW220526   0.263   4.601   3.355
 6543SOL     OW20527   6.449   4.248   0.371
 6543SOL    HW120528   6.410   4.211   0.287
 6543SOL    HW220529   6.386   4.314   0.411
 6544SOL     OW20530   0.708   6.106   3.806
 6544SOL    HW120531   0.796   6.143   3.779
 6544SOL    HW220532   0.641   6.121   3.733
 6545SOL     OW20533   4.843   2.232   6.132
 6545SOL    HW120534   4.791   2.251   6.049
 6545SOL    HW220535   4.886   2.317   6.165
 6546SOL     OW20536   4.424   4.527   6.384
 6546SOL    HW120537   4.522   4.516   6.368
 6546SOL    HW220538   4.407   4.546   6.481
 6547SOL     OW20539   4.210   1.571   5.642
 6547SOL    HW120540   4.240   1.546   5.550
 6547SOL    HW220541   4.126   1.624   5.637
 6548SOL     OW20542   0.658   4.129   6.927
 6548SOL    HW120543   0.595   4.051   6.920
 6548SOL    HW220544   0.732   4.118   6.861
 6549SOL     OW20545   3.564   1.084   0.781
 6549SOL    HW120546   3.523   1.081   0.872
 6549SOL    HW220547   3.492   1.081   0.711
 6550SOL     OW20548   6.883   6.260   3.068
 6550SOL    HW120549   6.819   6.259   3.145
 6550SOL    HW220550   6.927   6.170   3.060
 6551SOL     OW20551   1.767   4.058   2.660
 6551SOL    HW120552   1.832   4.081   2.732
 6551SOL    HW220553   1.775   4.124   2.585
 6552SOL     OW20554   2.500   6.791   4.624
 6552SOL    HW120555   2.415   6.740   4.613
 6552SOL    HW220556   2.523   6.797   4.721
 6553SOL     OW20557   7.011   2.269   1.578
 6553SOL    HW120558   0.066   2.328   1.570
 6553SOL    HW220559   6.954   2.301   1.653
 6554SOL     OW20560   5.891   1.759   5.986
 6554SOL    HW120561   5.801   1.800   5.969
 6554SOL    HW220562   5.880   1.663   6.012
 6555SOL     OW20563   1.941   1.003   2.476
 6555SOL    HW120564   2.012   1.046   2.531
 6555SOL    HW220565   1.982   0.967   2.392
 6556SOL     OW20566   4.768   4.631   5.175
 6556SOL    HW120567   4.810   4.556   5.125
 6556SOL    HW220568   4.808   4.636   5.267
 6557SOL     OW20569   4.878   5.400   1.160
 6557SOL    HW120570   4.932   5.469   1.111
 6557SOL    HW220571   4.876   5.422   1.257
 6558SOL     OW20572   6.489   5.980   1.502
 6558SOL    HW120573   6.520   6.053   1.562
 6558SOL    HW220574   6.420   6.014   1.439
 6559SOL     OW20575   6.487   4.166   0.621
 6559SOL    HW120576   6.586   4.157   0.630
 6559SOL    HW220577   6.465   4.199   0.529
 6560SOL     OW20578   3.787   2.840   1.905
 6560SOL    HW120579   3.839   2.903   1.846
 6560SOL    HW220580   3.777   2.752   1.859
 6561SOL     OW20581   3.880   3.971   2.642
 6561SOL    HW120582   3.929   4.057   2.657
 6561SOL    HW220583   3.861   3.959   2.544
 6562SOL     OW20584   6.257   4.796   6.635
 6562SOL    HW120585   6.300   4.799   6.545
 6562SOL    HW220586   6.273   4.706   6.676
 6563SOL     OW20587   0.700   6.578   0.098
 6563SOL    HW120588   0.796   6.568   0.127
 6563SOL    HW220589   0.695   6.646   0.024
 6564SOL     OW20590   0.725   3.749   2.166
 6564SOL    HW120591   0.670   3.829   2.189
 6564SOL    HW220592   0.804   3.777   2.111
 6565SOL     OW20593   6.457   2.254   4.703
 6565SOL    HW120594   6.531   2.203   4.745
 6565SOL    HW220595   6.379   2.192   4.687
 6566SOL     OW20596   3.555   6.611   1.345
 6566SOL    HW120597   3.513   6.585   1.432
 6566SOL    HW220598   3.505   6.690   1.307
 6567SOL     OW20599   4.219   2.130   1.688
 6567SOL    HW120600   4.163   2.153   1.768
 6567SOL    HW220601   4.170   2.063   1.631
 6568SOL     OW20602   4.861   4.912   2.200
 6568SOL    HW120603   4.800   4.926   2.277
 6568SOL    HW220604   4.867   4.996   2.147
 6569SOL     OW20605   3.126   4.680   1.395
 6569SOL    HW120606   3.160   4.602   1.447
 6569SOL    HW220607   3.127   4.658   1.297
 6570SOL     OW20608   5.037   6.930   1.230
 6570SOL    HW120609   5.097   6.942   1.309
 6570SOL    HW220610   4.977   7.009   1.221
 6571SOL     OW20611   2.298   6.807   2.182
 6571SOL    HW120612   2.228   6.737   2.198
 6571SOL    HW220613   2.254   6.894   2.161
 6572SOL     OW20614   6.456   4.843   5.255
 6572SOL    HW120615   6.497   4.900   5.326
 6572SOL    HW220616   6.520   4.832   5.179
 6573SOL     OW20617   2.995   1.874   3.138
 6573SOL    HW120618   3.090   1.882   3.106
 6573SOL    HW220619   2.934   1.917   3.072
 6574SOL     OW20620   3.234   5.878   2.232
 6574SOL    HW120621   3.188   5.801   2.277
 6574SOL    HW220622   3.178   5.909   2.155
 6575SOL     OW20623   0.697   1.385   1.778
 6575SOL    HW120624   0.689   1.382   1.678
 6575SOL    HW220625   0.791   1.364   1.805
 6576SOL     OW20626   1.725   6.301   6.358
 6576SOL    HW120627   1.702   6.339   6.269
 6576SOL    HW220628   1.819   6.326   6.382
 6577SOL     OW20629   0.868   1.455   3.310
 6577SOL    HW120630   0.838   1.546   3.341
 6577SOL    HW220631   0.843   1.387   3.379
 6578SOL     OW20632   0.004   5.035   3.049
 6578SOL    HW120633   0.034   5.108   3.110
 6578SOL    HW220634   0.084   4.986   3.014
 6579SOL     OW20635   6.977   4.360   4.334
 6579SOL    HW120636   6.886   4.356   4.374
 6579SOL    HW220637   0.020   4.343   4.404
 6580SOL     OW20638   5.997   1.442   1.302
 6580SOL    HW120639   6.075   1.499   1.277
 6580SOL    HW220640   6.011   1.350   1.268
 6581SOL     OW20641   3.611   0.747   6.091
 6581SOL    HW120642   3.643   0.815   6.026
 6581SOL    HW220643   3.589   0.662   6.042
 6582SOL     OW20644   1.384   0.383   1.900
 6582SOL    HW120645   1.373   0.314   1.971
 6582SOL    HW220646   1.429   0.464   1.939
 6583SOL     OW20647   4.162   0.915   5.979
 6583SOL    HW120648   4.117   0.875   5.899
 6583SOL    HW220649   4.238   0.973   5.948
 6584SOL     OW20650   5.269   1.200   0.192
 6584SOL    HW120651   5.299   1.106   0.206
 6584SOL    HW220652   5.329   1.245   0.125
 6585SOL     OW20653   6.364   1.060   0.487
 6585SOL    HW120654   6.404   1.152   0.490
 6585SOL    HW220655   6.291   1.057   0.419
 6586SOL     OW20656   5.807   2.077   5.992
 6586SOL    HW120657   5.742   2.115   6.057
 6586SOL    HW220658   5.764   2.004   5.939
 6587SOL     OW20659   3.080   5.857   4.081
 6587SOL    HW120660   3.008   5.897   4.025
 6587SOL    HW220661   3.141   5.929   4.114
 6588SOL     OW20662   1.967   4.064   1.699
 6588SOL    HW120663   2.008   4.111   1.620
 6588SOL    HW220664   1.870   4.085   1.702
 6589SOL     OW20665   4.253   0.612   6.887
 6589SOL    HW120666   4.183   0.546   6.915
 6589SOL    HW220667   4.343   0.568   6.890
 6590SOL     OW20668   0.654   1.665   5.924
 6590SOL    HW120669   0.701   1.638   6.008
 6590SOL    HW220670   0.684   1.757   5.898
 6591SOL     OW20671   6.006   6.039   2.212
 6591SOL    HW120672   6.048   6.105   2.274
 6591SOL    HW220673   5.939   6.086   2.154
 6592SOL     OW20674   4.995   6.876   4.023
 6592SOL    HW120675   5.029   6.792   4.066
 6592SOL    HW220676   4.929   6.852   3.951
 6593SOL     OW20677   2.263   2.531   3.497
 6593SOL    HW120678   2.351   2.570   3.525
 6593SOL    HW220679   2.189   2.581   3.542
 6594SOL     OW20680   4.031   1.142   0.590
 6594SOL    HW120681   4.083   1.074   0.539
 6594SOL    HW220682   3.935   1.139   0.562
 6595SOL     OW20683   0.699   4.096   1.101
 6595SOL    HW120684   0.618   4.153   1.099
 6595SOL    HW220685   0.780   4.152   1.082
 6596SOL     OW20686   4.013   0.260   5.039
 6596SOL    HW120687   3.936   0.198   5.053
 6596SOL    HW220688   4.095   0.207   5.017
 6597SOL     OW20689   1.112   6.273   3.085
 6597SOL    HW120690   1.134   6.305   3.177
 6597SOL    HW220691   1.035   6.326   3.049
 6598SOL     OW20692   1.569   6.244   5.248
 6598SOL    HW120693   1.516   6.306   5.190
 6598SOL    HW220694   1.628   6.298   5.308
 6599SOL     OW20695   3.978   5.374   5.499
 6599SOL    HW120696   4.076   5.355   5.492
 6599SOL    HW220697   3.927   5.304   5.450
 6600SOL     OW20698   5.048   5.414   5.277
 6600SOL    HW120699   5.030   5.401   5.375
 6600SOL    HW220700   5.090   5.503   5.262
 6601SOL     OW20701   0.990   0.436   0.861
 6601SOL    HW120702   0.925   0.511   0.873
 6601SOL    HW220703   1.080   0.464   0.895
 6602SOL     OW20704   6.834   1.605   1.601
 6602SOL    HW120705   6.804   1.693   1.566
 6602SOL    HW220706   6.934   1.601   1.599
 6603SOL     OW20707   1.197   2.823   4.091
 6603SOL    HW120708   1.278   2.880   4.108
 6603SOL    HW220709   1.158   2.795   4.179
 6604SOL     OW20710   3.098   6.445   1.374
 6604SOL    HW120711   3.124   6.392   1.455
 6604SOL    HW220712   2.999   6.456   1.373
 6605SOL     OW20713   4.893   4.782   0.776
 6605SOL    HW120714   4.806   4.799   0.729
 6605SOL    HW220715   4.941   4.869   0.788
 6606SOL     OW20716   4.920   6.427   2.161
 6606SOL    HW120717   4.829   6.442   2.121
 6606SOL    HW220718   4.979   6.504   2.138
 6607SOL     OW20719   2.272   1.470   1.605
 6607SOL    HW120720   2.339   1.544   1.596
 6607SOL    HW220721   2.232   1.472   1.696
 6608SOL     OW20722   5.569   5.037   2.323
 6608SOL    HW120723   5.502   5.112   2.325
 6608SOL    HW220724   5.523   4.953   2.294
 6609SOL     OW20725   4.708   0.971   6.283
 6609SOL    HW120726   4.650   1.052   6.268
 6609SOL    HW220727   4.652   0.895   6.314
 6610SOL     OW20728   2.395   0.180   6.839
 6610SOL    HW120729   2.435   0.174   6.747
 6610SOL    HW220730   2.369   0.274   6.858
 6611SOL     OW20731   6.735   2.456   2.851
 6611SOL    HW120732   6.780   2.514   2.783
 6611SOL    HW220733   6.802   2.395   2.894
 6612SOL     OW20734   0.321   3.824   0.138
 6612SOL    HW120735   0.395   3.848   0.201
 6612SOL    HW220736   0.332   3.728   0.109
 6613SOL     OW20737   5.953   6.230   3.601
 6613SOL    HW120738   5.878   6.223   3.667
 6613SOL    HW220739   5.937   6.167   3.525
 6614SOL     OW20740   4.626   6.472   6.683
 6614SOL    HW120741   4.530   6.452   6.701
 6614SOL    HW220742   4.654   6.552   6.736
 6615SOL     OW20743   0.658   3.714   4.723
 6615SOL    HW120744   0.604   3.650   4.779
 6615SOL    HW220745   0.723   3.662   4.667
 6616SOL     OW20746   4.368   1.068   5.872
 6616SOL    HW120747   4.421   1.131   5.929
 6616SOL    HW220748   4.305   1.119   5.814
 6617SOL     OW20749   3.300   6.124   3.020
 6617SOL    HW120750   3.257   6.036   3.040
 6617SOL    HW220751   3.255   6.196   3.073
 6618SOL     OW20752   0.848   3.320   2.890
 6618SOL    HW120753   0.788   3.321   2.970
 6618SOL    HW220754   0.827   3.399   2.832
 6619SOL     OW20755   6.524   6.808   4.737
 6619SOL    HW120756   6.458   6.804   4.662
 6619SOL    HW220757   6.490   6.755   4.814
 6620SOL     OW20758   1.901   2.681   5.520
 6620SOL    HW120759   1.866   2.771   5.493
 6620SOL    HW220760   1.994   2.669   5.485
 6621SOL     OW20761   2.837   3.469   0.428
 6621SOL    HW120762   2.905   3.536   0.400
 6621SOL    HW220763   2.808   3.488   0.522
 6622SOL     OW20764   6.432   6.188   1.748
 6622SOL    HW120765   6.339   6.164   1.774
 6622SOL    HW220766   6.431   6.265   1.685
 6623SOL     OW20767   3.429   3.082   1.871
 6623SOL    HW120768   3.341   3.035   1.864
 6623SOL    HW220769   3.463   3.076   1.964
 6624SOL     OW20770   2.809   6.760   4.031
 6624SOL    HW120771   2.790   6.828   4.102
 6624SOL    HW220772   2.897   6.780   3.988
 6625SOL     OW20773   5.302   2.299   6.434
 6625SOL    HW120774   5.363   2.251   6.496
 6625SOL    HW220775   5.207   2.276   6.455
 6626SOL     OW20776   3.511   5.131   3.627
 6626SOL    HW120777   3.543   5.044   3.663
 6626SOL    HW220778   3.426   5.117   3.576
 6627SOL     OW20779   2.233   0.839   5.899
 6627SOL    HW120780   2.264   0.784   5.822
 6627SOL    HW220781   2.227   0.935   5.873
 6628SOL     OW20782   4.999   5.488   3.446
 6628SOL    HW120783   4.927   5.544   3.487
 6628SOL    HW220784   4.961   5.400   3.416
 6629SOL     OW20785   3.023   6.459   0.534
 6629SOL    HW120786   2.977   6.441   0.621
 6629SOL    HW220787   3.020   6.556   0.514
 6630SOL     OW20788   3.398   2.082   0.990
 6630SOL    HW120789   3.422   2.133   1.073
 6630SOL    HW220790   3.471   2.092   0.923
 6631SOL     OW20791   4.607   0.365   2.399
 6631SOL    HW120792   4.672   0.293   2.375
 6631SOL    HW220793   4.598   0.371   2.498
 6632SOL     OW20794   6.973   0.980   1.564
 6632SOL    HW120795   6.882   0.971   1.521
 6632SOL    HW220796   6.962   0.987   1.663
 6633SOL     OW20797   1.783   5.467   5.705
 6633SOL    HW120798   1.805   5.503   5.615
 6633SOL    HW220799   1.765   5.543   5.768
 6634SOL     OW20800   5.689   3.490   5.668
 6634SOL    HW120801   5.659   3.441   5.586
 6634SOL    HW220802   5.735   3.574   5.641
 6635SOL     OW20803   4.231   5.060   2.978
 6635SOL    HW120804   4.327   5.064   2.949
 6635SOL    HW220805   4.172   5.090   2.903
 6636SOL     OW20806   2.104   2.444   5.903
 6636SOL    HW120807   2.021   2.498   5.887
 6636SOL    HW220808   2.141   2.414   5.815
 6637SOL     OW20809   1.248   0.512   6.985
 6637SOL    HW120810   1.274   0.558   6.900
 6637SOL    HW220811   1.316   0.442   7.006
 6638SOL     OW20812   4.178   4.743   5.141
 6638SOL    HW120813   4.196   4.758   5.238
 6638SOL    HW220814   4.203   4.650   5.116
 6639SOL     OW20815   5.637   6.402   6.226
 6639SOL    HW120816   5.695   6.419   6.146
 6639SOL    HW220817   5.691   6.412   6.309
 6640SOL     OW20818   0.183   2.060   5.272
 6640SOL    HW120819   0.215   2.155   5.270
 6640SOL    HW220820   0.130   2.044   5.355
 6641SOL     OW20821   2.200   2.955   6.606
 6641SOL    HW120822   2.208   3.030   6.671
 6641SOL    HW220823   2.254   2.976   6.524
 6642SOL     OW20824   2.910   5.011   0.341
 6642SOL    HW120825   2.850   5.061   0.278
 6642SOL    HW220826   3.002   5.005   0.302
 6643SOL     OW20827   6.621   4.695   0.025
 6643SOL    HW120828   6.708   4.691   7.001
 6643SOL    HW220829   6.548   4.657   6.993
 6644SOL     OW20830   2.984   4.784   1.948
 6644SOL    HW120831   3.015   4.788   1.853
 6644SOL    HW220832   2.906   4.722   1.955
 6645SOL     OW20833   6.348   5.216   0.478
 6645SOL    HW120834   6.425   5.154   0.464
 6645SOL    HW220835   6.352   5.254   0.570
 6646SOL     OW20836   4.294   5.838   4.220
 6646SOL    HW120837   4.232   5.768   4.184
 6646SOL    HW220838   4.315   5.817   4.316
 6647SOL     OW20839   3.490   1.705   2.706
 6647SOL    HW120840   3.447   1.626   2.750
 6647SOL    HW220841   3.548   1.674   2.631
 6648SOL     OW20842   3.730   6.166   1.967
 6648SOL    HW120843   3.702   6.082   1.921
 6648SOL    HW220844   3.652   6.227   1.977
 6649SOL     OW20845   4.930   1.816   6.410
 6649SOL    HW120846   4.834   1.834   6.386
 6649SOL    HW220847   4.934   1.745   6.480
 6650SOL     OW20848   4.052   1.693   4.509
 6650SOL    HW120849   4.062   1.638   4.425
 6650SOL    HW220850   4.142   1.717   4.544
 6651SOL     OW20851   1.436   1.729   6.950
 6651SOL    HW120852   1.369   1.700   7.018
 6651SOL    HW220853   1.389   1.760   6.868
 6652SOL     OW20854   6.521   4.841   0.352
 6652SOL    HW120855   6.493   4.748   0.329
 6652SOL    HW220856   6.499   4.903   0.276
 6653SOL     OW20857   3.739   3.079   3.119
 6653SOL    HW120858   3.763   2.989   3.081
 6653SOL    HW220859   3.702   3.136   3.046
 6654SOL     OW20860   2.297   2.684   1.051
 6654SOL    HW120861   2.276   2.592   1.084
 6654SOL    HW220862   2.235   2.750   1.093
 6655SOL     OW20863   2.709   6.851   1.469
 6655SOL    HW120864   2.747   6.942   1.487
 6655SOL    HW220865   2.662   6.851   1.381
 6656SOL     OW20866   6.172   1.393   3.088
 6656SOL    HW120867   6.258   1.406   3.038
 6656SOL    HW220868   6.136   1.482   3.115
 6657SOL     OW20869   4.618   6.329   6.377
 6657SOL    HW120870   4.544   6.352   6.314
 6657SOL    HW220871   4.596   6.364   6.468
 6658SOL     OW20872   5.908   1.436   5.156
 6658SOL    HW120873   5.874   1.343   5.144
 6658SOL    HW220874   5.870   1.475   5.240
 6659SOL     OW20875   2.631   2.099   0.418
 6659SOL    HW120876   2.621   2.008   0.459
 6659SOL    HW220877   2.719   2.104   0.371
 6660SOL     OW20878   0.307   6.287   0.990
 6660SOL    HW120879   0.363   6.325   1.064
 6660SOL    HW220880   0.271   6.361   0.934
 6661SOL     OW20881   0.755   4.935   3.857
 6661SOL    HW120882   0.781   5.024   3.893
 6661SOL    HW220883   0.656   4.927   3.855
 6662SOL     OW20884   1.541   0.611   6.698
 6662SOL    HW120885   1.462   0.663   6.732
 6662SOL    HW220886   1.579   0.557   6.773
 6663SOL     OW20887   6.894   5.728   2.867
 6663SOL    HW120888   6.994   5.731   2.876
 6663SOL    HW220889   6.869   5.681   2.783
 6664SOL     OW20890   1.391   0.003   1.361
 6664SOL    HW120891   1.328   0.012   1.438
 6664SOL    HW220892   1.341   6.992   1.282
 6665SOL     OW20893   2.053   0.475   2.920
 6665SOL    HW120894   2.029   0.381   2.944
 6665SOL    HW220895   2.044   0.533   3.001
 6666SOL     OW20896   5.733   1.744   5.287
 6666SOL    HW120897   5.809   1.800   5.320
 6666SOL    HW220898   5.732   1.656   5.334
 6667SOL     OW20899   6.854   4.984   5.000
 6667SOL    HW120900   6.867   5.029   5.088
 6667SOL    HW220901   6.849   5.053   4.927
 6668SOL     OW20902   6.678   6.233   1.934
 6668SOL    HW120903   6.624   6.200   1.856
 6668SOL    HW220904   6.638   6.317   1.969
 6669SOL     OW20905   1.948   3.175   3.818
 6669SOL    HW120906   2.019   3.157   3.885
 6669SOL    HW220907   1.968   3.261   3.770
 6670SOL     OW20908   3.357   3.697   6.297
 6670SOL    HW120909   3.430   3.632   6.278
 6670SOL    HW220910   3.385   3.789   6.270
 6671SOL     OW20911   5.681   5.376   0.835
 6671SOL    HW120912   5.732   5.426   0.765
 6671SOL    HW220913   5.724   5.387   0.924
 6672SOL     OW20914   1.042   1.549   5.240
 6672SOL    HW120915   1.050   1.539   5.140
 6672SOL    HW220916   1.114   1.610   5.272
 6673SOL     OW20917   4.318   5.828   3.064
 6673SOL    HW120918   4.256   5.757   3.099
 6673SOL    HW220919   4.268   5.914   3.055
 6674SOL     OW20920   0.921   5.045   6.184
 6674SOL    HW120921   0.853   5.076   6.250
 6674SOL    HW220922   0.924   4.945   6.184
 6675SOL     OW20923   4.697   4.092   1.804
 6675SOL    HW120924   4.678   3.997   1.781
 6675SOL    HW220925   4.610   4.142   1.809
 6676SOL     OW20926   0.197   3.437   5.434
 6676SOL    HW120927   0.172   3.368   5.501
 6676SOL    HW220928   0.291   3.468   5.451
 6677SOL     OW20929   0.289   2.998   0.291
 6677SOL    HW120930   0.370   3.002   0.232
 6677SOL    HW220931   0.289   2.912   0.343
 6678SOL     OW20932   1.502   2.454   0.047
 6678SOL    HW120933   1.437   2.512   7.023
 6678SOL    HW220934   1.591   2.499   0.051
 6679SOL     OW20935   2.073   1.719   4.845
 6679SOL    HW120936   2.084   1.621   4.831
 6679SOL    HW220937   2.129   1.769   4.780
 6680SOL     OW20938   4.461   5.858   5.594
 6680SOL    HW120939   4.388   5.832   5.656
 6680SOL    HW220940   4.486   5.953   5.609
 6681SOL     OW20941   4.957   5.137   6.984
 6681SOL    HW120942   5.010   5.055   7.003
 6681SOL    HW220943   4.861   5.120   7.005
 6682SOL     OW20944   1.047   3.927   2.491
 6682SOL    HW120945   1.039   3.994   2.564
 6682SOL    HW220946   1.112   3.856   2.518
 6683SOL     OW20947   5.100   2.519   5.911
 6683SOL    HW120948   5.198   2.535   5.914
 6683SOL    HW220949   5.074   2.482   5.822
 6684SOL     OW20950   1.993   6.598   1.052
 6684SOL    HW120951   1.905   6.640   1.029
 6684SOL    HW220952   1.984   6.546   1.137
 6685SOL     OW20953   5.276   2.003   5.822
 6685SOL    HW120954   5.245   2.074   5.886
 6685SOL    HW220955   5.318   1.929   5.873
 6686SOL     OW20956   5.597   4.994   3.778
 6686SOL    HW120957   5.638   4.904   3.793
 6686SOL    HW220958   5.642   5.062   3.835
 6687SOL     OW20959   0.737   2.050   1.675
 6687SOL    HW120960   0.796   1.970   1.657
 6687SOL    HW220961   0.657   2.046   1.615
 6688SOL     OW20962   0.413   4.245   1.913
 6688SOL    HW120963   0.412   4.313   1.986
 6688SOL    HW220964   0.442   4.157   1.950
 6689SOL     OW20965   4.032   2.447   0.357
 6689SOL    HW120966   3.976   2.395   0.293
 6689SOL    HW220967   4.048   2.393   0.439
 6690SOL     OW20968   2.670   1.201   1.597
 6690SOL    HW120969   2.763   1.207   1.635
 6690SOL    HW220970   2.640   1.106   1.599
 6691SOL     OW20971   3.253   5.729   1.195
 6691SOL    HW120972   3.334   5.771   1.154
 6691SOL    HW220973   3.278   5.638   1.229
 6692SOL     OW20974   2.905   4.839   5.208
 6692SOL    HW120975   2.967   4.805   5.279
 6692SOL    HW220976   2.900   4.771   5.134
 6693SOL     OW20977   5.195   3.335   6.374
 6693SOL    HW120978   5.226   3.316   6.468
 6693SOL    HW220979   5.212   3.430   6.352
 6694SOL     OW20980   4.634   5.787   6.921
 6694SOL    HW120981   4.537   5.810   6.908
 6694SOL    HW220982   4.681   5.790   6.833
 6695SOL     OW20983   0.979   1.880   6.551
 6695SOL    HW120984   0.937   1.794   6.581
 6695SOL    HW220985   0.951   1.954   6.612
 6696SOL     OW20986   1.989   2.320   0.495
 6696SOL    HW120987   1.898   2.355   0.473
 6696SOL    HW220988   2.000   2.229   0.457
 6697SOL     OW20989   4.342   2.387   2.943
 6697SOL    HW120990   4.437   2.418   2.939
 6697SOL    HW220991   4.284   2.461   2.977
 6698SOL     OW20992   3.742   2.411   0.547
 6698SOL    HW120993   3.827   2.383   0.592
 6698SOL    HW220994   3.760   2.487   0.485
 6699SOL     OW20995   3.313   4.412   0.282
 6699SOL    HW120996   3.269   4.430   0.370
 6699SOL    HW220997   3.382   4.482   0.266
 6700SOL     OW20998   0.329   5.573   1.021
 6700SOL    HW120999   0.281   5.593   0.936
 6700SOL    HW221000   0.313   5.646   1.088
 6701SOL     OW21001   6.233   2.824   1.265
 6701SOL    HW121002   6.162   2.861   1.206
 6701SOL    HW221003   6.196   2.805   1.356
 6702SOL     OW21004   2.937   2.486   0.177
 6702SOL    HW121005   2.913   2.506   0.082
 6702SOL    HW221006   2.860   2.510   0.236
 6703SOL     OW21007   6.247   1.886   6.981
 6703SOL    HW121008   6.337   1.845   6.970
 6703SOL    HW221009   6.241   1.968   6.924
 6704SOL     OW21010   4.445   2.424   2.397
 6704SOL    HW121011   4.455   2.382   2.307
 6704SOL    HW221012   4.349   2.424   2.423
 6705SOL     OW21013   0.321   1.869   2.117
 6705SOL    HW121014   0.411   1.898   2.086
 6705SOL    HW221015   0.303   1.907   2.208
 6706SOL     OW21016   1.303   4.447   0.604
 6706SOL    HW121017   1.228   4.500   0.564
 6706SOL    HW221018   1.340   4.384   0.536
 6707SOL     OW21019   6.449   5.721   4.836
 6707SOL    HW121020   6.485   5.724   4.929
 6707SOL    HW221021   6.450   5.814   4.798
 6708SOL     OW21022   1.805   5.865   2.585
 6708SOL    HW121023   1.811   5.891   2.681
 6708SOL    HW221024   1.895   5.875   2.542
 6709SOL     OW21025   3.325   6.095   1.269
 6709SOL    HW121026   3.381   6.012   1.261
 6709SOL    HW221027   3.258   6.097   1.194
 6710SOL     OW21028   2.492   2.047   6.099
 6710SOL    HW121029   2.507   2.111   6.174
 6710SOL    HW221030   2.437   2.091   6.027
 6711SOL     OW21031   5.891   4.397   6.525
 6711SOL    HW121032   5.861   4.319   6.470
 6711SOL    HW221033   5.815   4.462   6.534
 6712SOL     OW21034   4.444   5.357   0.533
 6712SOL    HW121035   4.469   5.451   0.555
 6712SOL    HW221036   4.527   5.303   0.518
 6713SOL     OW21037   2.134   1.765   1.408
 6713SOL    HW121038   2.131   1.807   1.499
 6713SOL    HW221039   2.207   1.806   1.355
 6714SOL     OW21040   5.395   0.229   5.255
 6714SOL    HW121041   5.468   0.190   5.199
 6714SOL    HW221042   5.341   0.292   5.199
 6715SOL     OW21043   0.055   0.721   0.169
 6715SOL    HW121044   0.044   0.700   0.266
 6715SOL    HW221045   0.102   0.644   0.125
 6716SOL     OW21046   1.465   6.554   1.507
 6716SOL    HW121047   1.514   6.637   1.482
 6716SOL    HW221048   1.401   6.529   1.434
 6717SOL     OW21049   4.478   2.863   0.904
 6717SOL    HW121050   4.550   2.902   0.961
 6717SOL    HW221051   4.478   2.907   0.815
 6718SOL     OW21052   4.173   5.780   6.750
 6718SOL    HW121053   4.262   5.777   6.705
 6718SOL    HW221054   4.102   5.795   6.681
 6719SOL     OW21055   0.629   0.107   5.963
 6719SOL    HW121056   0.659   0.202   5.969
 6719SOL    HW221057   0.592   0.090   5.872
 6720SOL     OW21058   2.609   6.019   1.935
 6720SOL    HW121059   2.556   6.025   2.020
 6720SOL    HW221060   2.546   6.022   1.857
 6721SOL     OW21061   5.491   6.558   4.273
 6721SOL    HW121062   5.516   6.461   4.270
 6721SOL    HW221063   5.397   6.567   4.307
 6722SOL     OW21064   5.176   3.242   0.981
 6722SOL    HW121065   5.260   3.294   0.964
 6722SOL    HW221066   5.097   3.297   0.954
 6723SOL     OW21067   2.389   6.831   3.123
 6723SOL    HW121068   2.331   6.770   3.069
 6723SOL    HW221069   2.335   6.910   3.153
 6724SOL     OW21070   1.967   4.471   5.480
 6724SOL    HW121071   1.975   4.454   5.381
 6724SOL    HW221072   1.918   4.557   5.495
 6725SOL     OW21073   0.998   4.279   2.365
 6725SOL    HW121074   0.986   4.283   2.464
 6725SOL    HW221075   0.948   4.354   2.321
 6726SOL     OW21076   1.884   2.424   4.975
 6726SOL    HW121077   1.790   2.405   5.004
 6726SOL    HW221078   1.941   2.443   5.055
 6727SOL     OW21079   5.580   3.706   6.017
 6727SOL    HW121080   5.617   3.748   5.934
 6727SOL    HW221081   5.578   3.607   6.006
 6728SOL     OW21082   4.845   1.682   4.288
 6728SOL    HW121083   4.765   1.740   4.301
 6728SOL    HW221084   4.891   1.707   4.202
 6729SOL     OW21085   6.554   1.155   2.767
 6729SOL    HW121086   6.506   1.227   2.717
 6729SOL    HW221087   6.581   1.189   2.857
 6730SOL     OW21088   2.523   6.828   6.970
 6730SOL    HW121089   2.614   6.869   6.966
 6730SOL    HW221090   2.530   6.728   6.974
 6731SOL     OW21091   2.691   4.418   1.346
 6731SOL    HW121092   2.697   4.446   1.442
 6731SOL    HW221093   2.686   4.318   1.341
 6732SOL     OW21094   2.792   5.834   6.927
 6732SOL    HW121095   2.737   5.751   6.921
 6732SOL    HW221096   2.857   5.836   6.852
 6733SOL     OW21097   4.646   5.699   6.495
 6733SOL    HW121098   4.699   5.696   6.410
 6733SOL    HW221099   4.628   5.606   6.526
 6734SOL     OW21100   0.667   3.127   5.796
 6734SOL    HW121101   0.584   3.157   5.749
 6734SOL    HW221102   0.719   3.066   5.736
 6735SOL     OW21103   0.493   5.195   5.335
 6735SOL    HW121104   0.560   5.128   5.368
 6735SOL    HW221105   0.540   5.274   5.298
 6736SOL     OW21106   2.094   3.520   0.802
 6736SOL    HW121107   2.058   3.473   0.882
 6736SOL    HW221108   2.140   3.604   0.831
 6737SOL     OW21109   2.148   1.392   1.351
 6737SOL    HW121110   2.194   1.380   1.439
 6737SOL    HW221111   2.158   1.486   1.321
 6738SOL     OW21112   2.131   2.558   2.197
 6738SOL    HW121113   2.170   2.508   2.274
 6738SOL    HW221114   2.205   2.597   2.142
 6739SOL     OW21115   3.149   5.734   5.496
 6739SOL    HW121116   3.077   5.700   5.435
 6739SOL    HW221117   3.158   5.672   5.574
 6740SOL     OW21118   1.698   1.114   4.535
 6740SOL    HW121119   1.633   1.171   4.584
 6740SOL    HW221120   1.790   1.129   4.571
 6741SOL     OW21121   4.469   1.629   6.170
 6741SOL    HW121122   4.371   1.644   6.182
 6741SOL    HW221123   4.494   1.643   6.074
 6742SOL     OW21124   0.209   5.815   4.314
 6742SOL    HW121125   0.202   5.888   4.382
 6742SOL    HW221126   0.279   5.750   4.342
 6743SOL     OW21127   4.072   3.706   6.468
 6743SOL    HW121128   4.162   3.725   6.427
 6743SOL    HW221129   4.002   3.758   6.419
 6744SOL     OW21130   4.035   5.101   6.068
 6744SOL    HW121131   4.041   5.046   5.985
 6744SOL    HW221132   4.107   5.170   6.069
 6745SOL     OW21133   1.224   5.183   2.799
 6745SOL    HW121134   1.175   5.260   2.759
 6745SOL    HW221135   1.293   5.151   2.735
 6746SOL     OW21136   0.899   0.758   1.408
 6746SOL    HW121137   0.991   0.743   1.444
 6746SOL    HW221138   0.888   0.856   1.387
 6747SOL     OW21139   5.261   6.578   4.385
 6747SOL    HW121140   5.308   6.549   4.469
 6747SOL    HW221141   5.167   6.544   4.386
 6748SOL     OW21142   0.792   1.107   2.207
 6748SOL    HW121143   0.701   1.066   2.213
 6748SOL    HW221144   0.787   1.204   2.230
 6749SOL     OW21145   3.481   0.520   6.901
 6749SOL    HW121146   3.537   0.507   6.819
 6749SOL    HW221147   3.425   0.439   6.916
 6750SOL     OW21148   2.990   1.917   4.280
 6750SOL    HW121149   3.026   1.838   4.231
 6750SOL    HW221150   3.051   1.995   4.266
 6751SOL     OW21151   2.745   2.188   4.034
 6751SOL    HW121152   2.753   2.119   3.962
 6751SOL    HW221153   2.661   2.172   4.086
 6752SOL     OW21154   6.303   2.465   1.177
 6752SOL    HW121155   6.374   2.534   1.193
 6752SOL    HW221156   6.217   2.497   1.215
 6753SOL     OW21157   4.186   1.706   6.680
 6753SOL    HW121158   4.166   1.620   6.633
 6753SOL    HW221159   4.199   1.688   6.778
 6754SOL     OW21160   6.613   2.004   6.314
 6754SOL    HW121161   6.712   2.015   6.300
 6754SOL    HW221162   6.569   2.094   6.313
 6755SOL     OW21163   5.070   1.488   3.446
 6755SOL    HW121164   5.065   1.457   3.351
 6755SOL    HW221165   5.125   1.571   3.450
 6756SOL     OW21166   4.797   4.042   4.425
 6756SOL    HW121167   4.825   4.074   4.516
 6756SOL    HW221168   4.729   4.105   4.387
 6757SOL     OW21169   4.550   5.639   0.529
 6757SOL    HW121170   4.573   5.730   0.495
 6757SOL    HW221171   4.633   5.583   0.534
 6758SOL     OW21172   5.444   3.738   2.159
 6758SOL    HW121173   5.542   3.725   2.144
 6758SOL    HW221174   5.399   3.650   2.164
 6759SOL     OW21175   1.432   4.201   3.260
 6759SOL    HW121176   1.440   4.296   3.290
 6759SOL    HW221177   1.349   4.191   3.205
 6760SOL     OW21178   0.413   4.995   4.645
 6760SOL    HW121179   0.491   4.949   4.602
 6760SOL    HW221180   0.329   4.948   4.621
 6761SOL     OW21181   5.456   2.591   5.639
 6761SOL    HW121182   5.548   2.629   5.645
 6761SOL    HW221183   5.459   2.506   5.586
 6762SOL     OW21184   6.348   4.873   3.512
 6762SOL    HW121185   6.392   4.812   3.577
 6762SOL    HW221186   6.363   4.968   3.540
 6763SOL     OW21187   5.750   5.855   4.599
 6763SOL    HW121188   5.781   5.784   4.537
 6763SOL    HW221189   5.657   5.836   4.628
 6764SOL     OW21190   3.237   3.960   5.899
 6764SOL    HW121191   3.302   3.992   5.830
 6764SOL    HW221192   3.196   3.874   5.870
 6765SOL     OW21193   6.523   4.725   3.639
 6765SOL    HW121194   6.538   4.756   3.733
 6765SOL    HW221195   6.581   4.645   3.621
 6766SOL     OW21196   1.844   0.543   6.253
 6766SOL    HW121197   1.779   0.595   6.198
 6766SOL    HW221198   1.903   0.606   6.305
 6767SOL     OW21199   0.231   2.640   0.200
 6767SOL    HW121200   0.137   2.645   0.232
 6767SOL    HW221201   0.292   2.685   0.265
 6768SOL     OW21202   0.630   0.455   3.804
 6768SOL    HW121203   0.727   0.464   3.825
 6768SOL    HW221204   0.590   0.381   3.858
 6769SOL     OW21205   3.166   1.915   5.220
 6769SOL    HW121206   3.117   1.847   5.274
 6769SOL    HW221207   3.147   1.900   5.123
 6770SOL     OW21208   0.359   2.578   3.644
 6770SOL    HW121209   0.450   2.583   3.686
 6770SOL    HW221210   0.301   2.517   3.698
 6771SOL     OW21211   3.604   2.126   3.374
 6771SOL    HW121212   3.545   2.182   3.316
 6771SOL    HW221213   3.699   2.153   3.360
 6772SOL     OW21214   5.808   1.564   2.732
 6772SOL    HW121215   5.711   1.578   2.752
 6772SOL    HW221216   5.823   1.563   2.633
 6773SOL     OW21217   6.893   6.040   1.448
 6773SOL    HW121218   6.813   6.020   1.392
 6773SOL    HW221219   6.923   6.135   1.433
 6774SOL     OW21220   1.632   1.710   5.265
 6774SOL    HW121221   1.643   1.794   5.318
 6774SOL    HW221222   1.695   1.710   5.188
 6775SOL     OW21223   0.872   1.673   4.495
 6775SOL    HW121224   0.803   1.725   4.446
 6775SOL    HW221225   0.932   1.736   4.545
 6776SOL     OW21226   3.972   4.273   1.419
 6776SOL    HW121227   4.056   4.327   1.411
 6776SOL    HW221228   3.907   4.303   1.349
 6777SOL     OW21229   4.598   5.706   1.319
 6777SOL    HW121230   4.671   5.774   1.323
 6777SOL    HW221231   4.632   5.622   1.277
 6778SOL     OW21232   6.032   3.438   2.645
 6778SOL    HW121233   6.000   3.456   2.552
 6778SOL    HW221234   5.956   3.450   2.709
 6779SOL     OW21235   5.841   4.314   5.605
 6779SOL    HW121236   5.803   4.407   5.609
 6779SOL    HW221237   5.879   4.297   5.514
 6780SOL     OW21238   2.492   2.620   2.909
 6780SOL    HW121239   2.398   2.653   2.920
 6780SOL    HW221240   2.555   2.697   2.913
 6781SOL     OW21241   6.352   1.419   4.247
 6781SOL    HW121242   6.297   1.443   4.327
 6781SOL    HW221243   6.305   1.348   4.194
 6782SOL     OW21244   6.773   1.991   3.582
 6782SOL    HW121245   6.866   2.004   3.618
 6782SOL    HW221246   6.776   1.928   3.504
 6783SOL     OW21247   1.131   4.924   5.488
 6783SOL    HW121248   1.128   5.007   5.432
 6783SOL    HW221249   1.138   4.844   5.428
 6784SOL     OW21250   1.978   3.254   1.403
 6784SOL    HW121251   1.997   3.262   1.501
 6784SOL    HW221252   2.062   3.226   1.355
 6785SOL     OW21253   5.660   4.948   4.710
 6785SOL    HW121254   5.657   5.047   4.729
 6785SOL    HW221255   5.704   4.933   4.622
 6786SOL     OW21256   6.538   2.222   0.897
 6786SOL    HW121257   6.602   2.187   0.828
 6786SOL    HW221258   6.451   2.244   0.853
 6787SOL     OW21259   3.735   2.180   0.062
 6787SOL    HW121260   3.686   2.144   0.142
 6787SOL    HW221261   3.795   2.255   0.090
 6788SOL     OW21262   0.545   3.928   3.864
 6788SOL    HW121263   0.541   3.888   3.956
 6788SOL    HW221264   0.462   3.904   3.813
 6789SOL     OW21265   6.598   3.777   3.732
 6789SOL    HW121266   6.526   3.845   3.722
 6789SOL    HW221267   6.580   3.700   3.670
 6790SOL     OW21268   1.627   4.783   6.037
 6790SOL    HW121269   1.653   4.878   6.024
 6790SOL    HW221270   1.530   4.771   6.013
 6791SOL     OW21271   4.529   1.340   4.092
 6791SOL    HW121272   4.516   1.263   4.155
 6791SOL    HW221273   4.440   1.376   4.065
 6792SOL     OW21274   4.267   0.204   5.204
 6792SOL    HW121275   4.299   0.201   5.109
 6792SOL    HW221276   4.346   0.193   5.265
 6793SOL     OW21277   2.058   3.357   0.157
 6793SOL    HW121278   1.971   3.336   0.114
 6793SOL    HW221279   2.130   3.299   0.119
 6794SOL     OW21280   4.472   1.491   5.741
 6794SOL    HW121281   4.488   1.530   5.832
 6794SOL    HW221282   4.392   1.535   5.700
 6795SOL     OW21283   1.175   0.737   1.448
 6795SOL    HW121284   1.212   0.728   1.356
 6795SOL    HW221285   1.249   0.732   1.515
 6796SOL     OW21286   5.750   1.254   2.397
 6796SOL    HW121287   5.843   1.256   2.360
 6796SOL    HW221288   5.724   1.159   2.416
 6797SOL     OW21289   0.404   1.664   1.867
 6797SOL    HW121290   0.375   1.760   1.873
 6797SOL    HW221291   0.503   1.660   1.862
 6798SOL     OW21292   5.645   0.220   2.026
 6798SOL    HW121293   5.617   0.260   1.939
 6798SOL    HW221294   5.575   0.239   2.095
 6799SOL     OW21295   5.291   7.023   3.162
 6799SOL    HW121296   5.269   6.943   3.219
 6799SOL    HW221297   5.354   0.057   3.212
 6800SOL     OW21298   0.174   1.125   1.535
 6800SOL    HW121299   0.245   1.091   1.474
 6800SOL    HW221300   0.101   1.057   1.543
 6801SOL     OW21301   1.463   6.327   4.586
 6801SOL    HW121302   1.491   6.263   4.515
 6801SOL    HW221303   1.525   6.406   4.586
 6802SOL     OW21304   3.219   5.838   1.719
 6802SOL    HW121305   3.182   5.796   1.637
 6802SOL    HW221306   3.309   5.876   1.699
 6803SOL     OW21307   4.999   4.656   6.531
 6803SOL    HW121308   4.965   4.564   6.549
 6803SOL    HW221309   4.933   4.705   6.474
 6804SOL     OW21310   2.471   4.514   2.785
 6804SOL    HW121311   2.570   4.521   2.784
 6804SOL    HW221312   2.434   4.536   2.695
 6805SOL     OW21313   0.160   4.664   5.802
 6805SOL    HW121314   0.189   4.746   5.851
 6805SOL    HW221315   0.092   4.615   5.856
 6806SOL     OW21316   6.800   0.775   3.493
 6806SOL    HW121317   6.886   0.778   3.545
 6806SOL    HW221318   6.821   0.768   3.395
 6807SOL     OW21319   3.081   3.724   1.999
 6807SOL    HW121320   3.036   3.770   2.076
 6807SOL    HW221321   3.102   3.630   2.024
 6808SOL     OW21322   4.151   1.606   4.814
 6808SOL    HW121323   4.135   1.512   4.845
 6808SOL    HW221324   4.233   1.609   4.757
 6809SOL     OW21325   6.044   4.504   2.538
 6809SOL    HW121326   5.979   4.516   2.463
 6809SOL    HW221327   6.003   4.446   2.609
 6810SOL     OW21328   2.441   1.254   3.532
 6810SOL    HW121329   2.400   1.275   3.620
 6810SOL    HW221330   2.432   1.156   3.514
 6811SOL     OW21331   6.512   1.682   2.367
 6811SOL    HW121332   6.497   1.625   2.448
 6811SOL    HW221333   6.426   1.723   2.338
 6812SOL     OW21334   2.842   3.838   5.184
 6812SOL    HW121335   2.768   3.885   5.233
 6812SOL    HW221336   2.914   3.904   5.162
 6813SOL     OW21337   5.788   3.673   1.643
 6813SOL    HW121338   5.719   3.745   1.642
 6813SOL    HW221339   5.836   3.671   1.556
 6814SOL     OW21340   4.643   1.429   6.245
 6814SOL    HW121341   4.581   1.506   6.235
 6814SOL    HW221342   4.720   1.440   6.181
 6815SOL     OW21343   2.389   5.323   6.406
 6815SOL    HW121344   2.313   5.371   6.449
 6815SOL    HW221345   2.470   5.382   6.407
 6816SOL     OW21346   0.645   2.045   4.106
 6816SOL    HW121347   0.741   2.043   4.079
 6816SOL    HW221348   0.637   2.021   4.203
 6817SOL     OW21349   3.651   2.010   2.102
 6817SOL    HW121350   3.681   2.094   2.057
 6817SOL    HW221351   3.664   2.019   2.200
 6818SOL     OW21352   2.199   6.471   6.303
 6818SOL    HW121353   2.177   6.480   6.206
 6818SOL    HW221354   2.272   6.404   6.315
 6819SOL     OW21355   4.494   4.828   2.538
 6819SOL    HW121356   4.442   4.751   2.500
 6819SOL    HW221357   4.463   4.913   2.495
 6820SOL     OW21358   2.422   6.187   1.103
 6820SOL    HW121359   2.355   6.228   1.164
 6820SOL    HW221360   2.510   6.179   1.150
 6821SOL     OW21361   4.501   3.021   5.369
 6821SOL    HW121362   4.587   3.067   5.345
 6821SOL    HW221363   4.432   3.089   5.394
 6822SOL     OW21364   6.898   2.507   6.620
 6822SOL    HW121365   6.859   2.479   6.532
 6822SOL    HW221366   6.978   2.564   6.605
 6823SOL     OW21367   5.395   3.434   0.005
 6823SOL    HW121368   5.347   3.488   6.962
 6823SOL    HW221369   5.339   3.427   0.087
 6824SOL     OW21370   1.138   2.142   6.441
 6824SOL    HW121371   1.143   2.110   6.536
 6824SOL    HW221372   1.079   2.081   6.388
 6825SOL     OW21373   6.907   5.985   1.893
 6825SOL    HW121374   6.857   6.070   1.910
 6825SOL    HW221375   6.955   5.957   1.976
 6826SOL     OW21376   0.544   3.654   3.412
 6826SOL    HW121377   0.615   3.724   3.410
 6826SOL    HW221378   0.585   3.565   3.430
 6827SOL     OW21379   4.224   5.972   4.737
 6827SOL    HW121380   4.283   6.014   4.668
 6827SOL    HW221381   4.253   6.003   4.828
 6828SOL     OW21382   3.479   2.077   2.923
 6828SOL    HW121383   3.456   1.980   2.925
 6828SOL    HW221384   3.440   2.123   3.003
 6829SOL     OW21385   5.756   6.802   4.806
 6829SOL    HW121386   5.768   6.724   4.746
 6829SOL    HW221387   5.712   6.773   4.891
 6830SOL     OW21388   5.319   0.488   2.977
 6830SOL    HW121389   5.394   0.424   2.958
 6830SOL    HW221390   5.356   0.581   2.980
 6831SOL     OW21391   1.390   1.576   6.426
 6831SOL    HW121392   1.329   1.654   6.442
 6831SOL    HW221393   1.419   1.575   6.331
 6832SOL     OW21394   3.046   2.163   0.705
 6832SOL    HW121395   3.074   2.243   0.653
 6832SOL    HW221396   3.080   2.080   0.660
 6833SOL     OW21397   2.917   5.338   5.833
 6833SOL    HW121398   3.017   5.332   5.840
 6833SOL    HW221399   2.893   5.422   5.784
 6834SOL     OW21400   5.106   6.973   0.018
 6834SOL    HW121401   5.165   6.961   0.098
 6834SOL    HW221402   5.036   0.016   0.038
 6835SOL     OW21403   2.771   1.932   4.421
 6835SOL    HW121404   2.860   1.938   4.376
 6835SOL    HW221405   2.761   1.842   4.464
 6836SOL     OW21406   2.198   5.171   6.639
 6836SOL    HW121407   2.258   5.123   6.575
 6836SOL    HW221408   2.133   5.107   6.679
 6837SOL     OW21409   0.800   0.639   1.904
 6837SOL    HW121410   0.732   0.573   1.873
 6837SOL    HW221411   0.882   0.632   1.847
 6838SOL     OW21412   2.681   4.493   5.346
 6838SOL    HW121413   2.673   4.395   5.365
 6838SOL    HW221414   2.770   4.513   5.307
 6839SOL     OW21415   5.665   2.651   3.940
 6839SOL    HW121416   5.599   2.715   3.899
 6839SOL    HW221417   5.709   2.695   4.018
 6840SOL     OW21418   2.646   6.690   5.165
 6840SOL    HW121419   2.665   6.595   5.190
 6840SOL    HW221420   2.572   6.692   5.097
 6841SOL     OW21421   3.770   5.914   1.523
 6841SOL    HW121422   3.840   5.880   1.461
 6841SOL    HW221423   3.752   6.011   1.502
 6842SOL     OW21424   0.567   3.910   6.664
 6842SOL    HW121425   0.657   3.899   6.708
 6842SOL    HW221426   0.576   3.896   6.566
 6843SOL     OW21427   4.106   2.247   1.964
 6843SOL    HW121428   4.046   2.274   1.890
 6843SOL    HW221429   4.054   2.240   2.049
 6844SOL     OW21430   4.640   5.125   3.917
 6844SOL    HW121431   4.595   5.107   3.830
 6844SOL    HW221432   4.589   5.082   3.991
 6845SOL     OW21433   4.607   5.272   2.293
 6845SOL    HW121434   4.636   5.228   2.208
 6845SOL    HW221435   4.674   5.340   2.320
 6846SOL     OW21436   3.514   3.261   2.615
 6846SOL    HW121437   3.492   3.169   2.583
 6846SOL    HW221438   3.604   3.288   2.582
 6847SOL     OW21439   5.190   4.061   1.645
 6847SOL    HW121440   5.106   4.079   1.697
 6847SOL    HW221441   5.175   4.083   1.549
 6848SOL     OW21442   0.652   5.602   4.119
 6848SOL    HW121443   0.693   5.687   4.153
 6848SOL    HW221444   0.574   5.624   4.060
 6849SOL     OW21445   3.576   5.929   3.951
 6849SOL    HW121446   3.555   5.911   3.855
 6849SOL    HW221447   3.649   5.868   3.981
 6850SOL     OW21448   5.533   2.439   3.092
 6850SOL    HW121449   5.569   2.434   2.999
 6850SOL    HW221450   5.450   2.383   3.099
 6851SOL     OW21451   1.814   5.193   5.752
 6851SOL    HW121452   1.913   5.180   5.756
 6851SOL    HW221453   1.794   5.291   5.749
 6852SOL     OW21454   1.542   4.132   2.025
 6852SOL    HW121455   1.479   4.056   2.041
 6852SOL    HW221456   1.498   4.218   2.052
 6853SOL     OW21457   0.625   4.602   5.896
 6853SOL    HW121458   0.580   4.588   5.984
 6853SOL    HW221459   0.556   4.628   5.827
 6854SOL     OW21460   0.053   2.025   5.859
 6854SOL    HW121461   0.070   1.932   5.829
 6854SOL    HW221462   0.127   2.056   5.919
 6855SOL     OW21463   3.513   6.713   2.961
 6855SOL    HW121464   3.589   6.695   2.898
 6855SOL    HW221465   3.474   6.627   2.991
 6856SOL     OW21466   6.177   3.629   4.790
 6856SOL    HW121467   6.267   3.598   4.822
 6856SOL    HW221468   6.167   3.605   4.693
 6857SOL     OW21469   2.846   2.360   6.045
 6857SOL    HW121470   2.808   2.272   6.014
 6857SOL    HW221471   2.940   2.369   6.012
 6858SOL     OW21472   4.096   3.671   4.827
 6858SOL    HW121473   4.045   3.699   4.746
 6858SOL    HW221474   4.151   3.590   4.806
 6859SOL     OW21475   2.529   6.523   0.834
 6859SOL    HW121476   2.435   6.525   0.802
 6859SOL    HW221477   2.590   6.497   0.759
 6860SOL     OW21478   5.924   4.653   1.236
 6860SOL    HW121479   5.983   4.606   1.170
 6860SOL    HW221480   5.884   4.734   1.193
 6861SOL     OW21481   5.465   6.037   6.915
 6861SOL    HW121482   5.416   6.034   7.002
 6861SOL    HW221483   5.399   6.026   6.840
 6862SOL     OW21484   2.991   5.449   4.895
 6862SOL    HW121485   2.952   5.422   4.984
 6862SOL    HW221486   3.017   5.367   4.844
 6863SOL     OW21487   5.538   1.403   3.941
 6863SOL    HW121488   5.480   1.395   3.860
 6863SOL    HW221489   5.634   1.399   3.915
 6864SOL     OW21490   2.699   5.995   3.374
 6864SOL    HW121491   2.662   5.951   3.292
 6864SOL    HW221492   2.751   5.929   3.427
 6865SOL     OW21493   6.670   3.916   4.733
 6865SOL    HW121494   6.678   3.955   4.825
 6865SOL    HW221495   6.712   3.825   4.731
 6866SOL     OW21496   6.951   3.665   2.188
 6866SOL    HW121497   6.986   3.758   2.200
 6866SOL    HW221498   6.890   3.662   2.109
 6867SOL     OW21499   2.347   4.070   2.025
 6867SOL    HW121500   2.289   4.100   2.100
 6867SOL    HW221501   2.402   3.992   2.055
 6868SOL     OW21502   2.042   6.258   4.719
 6868SOL    HW121503   1.962   6.279   4.664
 6868SOL    HW221504   2.070   6.163   4.704
 6869SOL     OW21505   5.241   2.205   5.618
 6869SOL    HW121506   5.183   2.284   5.636
 6869SOL    HW221507   5.252   2.152   5.702
 6870SOL     OW21508   5.824   3.476   2.857
 6870SOL    HW121509   5.757   3.490   2.785
 6870SOL    HW221510   5.793   3.402   2.918
 6871SOL     OW21511   6.080   4.953   1.149
 6871SOL    HW121512   6.137   4.931   1.228
 6871SOL    HW221513   6.137   4.992   1.077
 6872SOL     OW21514   2.107   3.170   1.005
 6872SOL    HW121515   2.074   3.251   0.956
 6872SOL    HW221516   2.154   3.110   0.940
 6873SOL     OW21517   6.067   2.977   5.840
 6873SOL    HW121518   6.103   3.031   5.764
 6873SOL    HW221519   6.015   3.036   5.902
 6874SOL     OW21520   6.938   3.014   3.857
 6874SOL    HW121521   7.015   2.998   3.919
 6874SOL    HW221522   6.946   2.953   3.778
 6875SOL     OW21523   1.345   1.532   2.727
 6875SOL    HW121524   1.406   1.539   2.806
 6875SOL    HW221525   1.400   1.531   2.643
 6876SOL     OW21526   3.652   5.528   0.434
 6876SOL    HW121527   3.686   5.489   0.349
 6876SOL    HW221528   3.715   5.598   0.467
 6877SOL     OW21529   2.204   4.038   6.894
 6877SOL    HW121530   2.221   4.101   6.971
 6877SOL    HW221531   2.208   4.089   6.808
 6878SOL     OW21532   1.764   1.830   5.625
 6878SOL    HW121533   1.801   1.844   5.534
 6878SOL    HW221534   1.713   1.912   5.654
 6879SOL     OW21535   0.161   2.269   6.377
 6879SOL    HW121536   0.090   2.202   6.393
 6879SOL    HW221537   0.216   2.280   6.460
 6880SOL     OW21538   2.147   3.928   5.222
 6880SOL    HW121539   2.205   3.913   5.302
 6880SOL    HW221540   2.202   3.959   5.145
 6881SOL     OW21541   0.090   4.324   1.564
 6881SOL    HW121542   0.007   4.329   1.508
 6881SOL    HW221543   0.164   4.373   1.519
 6882SOL     OW21544   1.940   0.844   5.239
 6882SOL    HW121545   2.034   0.845   5.205
 6882SOL    HW221546   1.922   0.928   5.291
 6883SOL     OW21547   3.703   0.062   1.335
 6883SOL    HW121548   3.719   0.036   1.430
 6883SOL    HW221549   3.606   0.057   1.315
 6884SOL     OW21550   2.396   4.455   4.905
 6884SOL    HW121551   2.429   4.494   4.991
 6884SOL    HW221552   2.338   4.376   4.925
 6885SOL     OW21553   2.485   6.109   3.505
 6885SOL    HW121554   2.471   6.036   3.573
 6885SOL    HW221555   2.557   6.082   3.442
 6886SOL     OW21556   5.238   0.954   2.601
 6886SOL    HW121557   5.205   1.041   2.637
 6886SOL    HW221558   5.338   0.958   2.592
 6887SOL     OW21559   5.958   0.344   5.244
 6887SOL    HW121560   6.030   0.396   5.197
 6887SOL    HW221561   6.000   0.285   5.313
 6888SOL     OW21562   6.150   0.502   4.789
 6888SOL    HW121563   6.078   0.547   4.737
 6888SOL    HW221564   6.226   0.565   4.802
 6889SOL     OW21565   1.415   3.085   5.903
 6889SOL    HW121566   1.491   3.119   5.958
 6889SOL    HW221567   1.420   3.125   5.811
 6890SOL     OW21568   2.555   0.404   1.097
 6890SOL    HW121569   2.534   0.393   1.000
 6890SOL    HW221570   2.475   0.438   1.145
 6891SOL     OW21571   2.119   3.784   4.567
 6891SOL    HW121572   2.088   3.695   4.534
 6891SOL    HW221573   2.138   3.779   4.665
 6892SOL     OW21574   3.776   0.332   4.091
 6892SOL    HW121575   3.691   0.284   4.110
 6892SOL    HW221576   3.849   0.266   4.072
 6893SOL     OW21577   5.168   5.845   3.482
 6893SOL    HW121578   5.241   5.785   3.450
 6893SOL    HW221579   5.207   5.927   3.523
 6894SOL     OW21580   5.978   5.645   0.221
 6894SOL    HW121581   5.903   5.700   0.184
 6894SOL    HW221582   6.065   5.688   0.196
 6895SOL     OW21583   2.589   3.777   0.389
 6895SOL    HW121584   2.642   3.724   0.323
 6895SOL    HW221585   2.575   3.723   0.472
 6896SOL     OW21586   3.382   0.913   3.460
 6896SOL    HW121587   3.296   0.962   3.441
 6896SOL    HW221588   3.437   0.966   3.524
 6897SOL     OW21589   3.217   3.269   0.354
 6897SOL    HW121590   3.135   3.303   0.400
 6897SOL    HW221591   3.237   3.176   0.384
 6898SOL     OW21592   4.205   0.600   1.772
 6898SOL    HW121593   4.276   0.558   1.828
 6898SOL    HW221594   4.246   0.667   1.709
 6899SOL     OW21595   5.158   6.715   6.052
 6899SOL    HW121596   5.230   6.647   6.036
 6899SOL    HW221597   5.182   6.770   6.132
 6900SOL     OW21598   5.411   0.908   5.879
 6900SOL    HW121599   5.443   1.000   5.902
 6900SOL    HW221600   5.312   0.910   5.867
 6901SOL     OW21601   1.274   0.109   6.199
 6901SOL    HW121602   1.281   0.187   6.137
 6901SOL    HW221603   1.220   0.134   6.279
 6902SOL     OW21604   0.738   6.764   6.916
 6902SOL    HW121605   0.777   6.689   6.864
 6902SOL    HW221606   0.775   6.851   6.883
 6903SOL     OW21607   3.689   3.362   0.458
 6903SOL    HW121608   3.648   3.271   0.448
 6903SOL    HW221609   3.658   3.421   0.383
 6904SOL     OW21610   6.389   0.755   3.973
 6904SOL    HW121611   6.342   0.725   4.056
 6904SOL    HW221612   6.364   0.694   3.898
 6905SOL     OW21613   6.693   6.285   1.245
 6905SOL    HW121614   6.681   6.189   1.220
 6905SOL    HW221615   6.790   6.309   1.243
 6906SOL     OW21616   3.574   1.056   3.989
 6906SOL    HW121617   3.639   1.018   3.923
 6906SOL    HW221618   3.547   1.148   3.961
 6907SOL     OW21619   3.773   1.211   1.666
 6907SOL    HW121620   3.823   1.159   1.598
 6907SOL    HW221621   3.831   1.226   1.746
 6908SOL     OW21622   1.383   6.890   5.363
 6908SOL    HW121623   1.409   6.793   5.359
 6908SOL    HW221624   1.444   6.938   5.427
 6909SOL     OW21625   4.401   4.808   0.839
 6909SOL    HW121626   4.311   4.803   0.882
 6909SOL    HW221627   4.447   4.719   0.847
 6910SOL     OW21628   6.338   1.423   2.016
 6910SOL    HW121629   6.416   1.459   2.068
 6910SOL    HW221630   6.349   1.446   1.920
 6911SOL     OW21631   4.417   0.140   4.082
 6911SOL    HW121632   4.474   0.205   4.034
 6911SOL    HW221633   4.463   0.051   4.087
 6912SOL     OW21634   5.043   4.803   1.076
 6912SOL    HW121635   5.133   4.769   1.103
 6912SOL    HW221636   5.026   4.781   0.980
 6913SOL     OW21637   5.010   4.773   4.275
 6913SOL    HW121638   4.949   4.790   4.353
 6913SOL    HW221639   4.962   4.718   4.207
 6914SOL     OW21640   5.881   5.386   6.476
 6914SOL    HW121641   5.934   5.469   6.491
 6914SOL    HW221642   5.929   5.327   6.411
 6915SOL     OW21643   0.569   4.412   2.654
 6915SOL    HW121644   0.558   4.334   2.715
 6915SOL    HW221645   0.648   4.466   2.683
 6916SOL     OW21646   6.535   4.333   0.027
 6916SOL    HW121647   6.476   4.255   0.047
 6916SOL    HW221648   6.556   4.335   6.955
 6917SOL     OW21649   4.169   6.142   5.914
 6917SOL    HW121650   4.193   6.185   5.827
 6917SOL    HW221651   4.140   6.048   5.898
 6918SOL     OW21652   0.279   4.046   4.048
 6918SOL    HW121653   0.337   4.124   4.071
 6918SOL    HW221654   0.286   3.977   4.120
 6919SOL     OW21655   2.229   6.234   2.474
 6919SOL    HW121656   2.290   6.264   2.401
 6919SOL    HW221657   2.251   6.284   2.558
 6920SOL     OW21658   5.265   5.031   4.310
 6920SOL    HW121659   5.237   4.970   4.384
 6920SOL    HW221660   5.202   5.020   4.232
 6921SOL     OW21661   5.865   6.184   3.257
 6921SOL    HW121662   5.858   6.108   3.321
 6921SOL    HW221663   5.915   6.155   3.176
 6922SOL     OW21664   2.114   6.163   6.704
 6922SOL    HW121665   2.042   6.112   6.751
 6922SOL    HW221666   2.120   6.255   6.744
 6923SOL     OW21667   4.352   6.592   3.849
 6923SOL    HW121668   4.328   6.559   3.941
 6923SOL    HW221669   4.410   6.673   3.857
 6924SOL     OW21670   1.029   4.882   0.179
 6924SOL    HW121671   1.124   4.888   0.211
 6924SOL    HW221672   1.025   4.825   0.097
 6925SOL     OW21673   4.129   5.880   3.801
 6925SOL    HW121674   4.086   5.830   3.726
 6925SOL    HW221675   4.223   5.848   3.813
 6926SOL     OW21676   3.966   3.713   3.564
 6926SOL    HW121677   3.871   3.739   3.583
 6926SOL    HW221678   4.003   3.772   3.493
 6927SOL     OW21679   5.151   3.769   6.695
 6927SOL    HW121680   5.115   3.689   6.647
 6927SOL    HW221681   5.197   3.829   6.630
 6928SOL     OW21682   4.150   0.369   6.508
 6928SOL    HW121683   4.161   0.334   6.415
 6928SOL    HW221684   4.203   0.453   6.519
 6929SOL     OW21685   4.781   6.219   6.835
 6929SOL    HW121686   4.726   6.295   6.801
 6929SOL    HW221687   4.747   6.133   6.795
 6930SOL     OW21688   0.842   6.481   1.900
 6930SOL    HW121689   0.862   6.458   1.805
 6930SOL    HW221690   0.803   6.573   1.905
 6931SOL     OW21691   0.846   0.269   1.602
 6931SOL    HW121692   0.795   0.279   1.687
 6931SOL    HW221693   0.784   0.277   1.525
 6932SOL     OW21694   2.862   1.037   6.762
 6932SOL    HW121695   2.945   1.077   6.801
 6932SOL    HW221696   2.806   1.109   6.721
 6933SOL     OW21697   3.610   5.697   4.861
 6933SOL    HW121698   3.541   5.742   4.917
 6933SOL    HW221699   3.671   5.643   4.920
 6934SOL     OW21700   5.064   2.627   0.235
 6934SOL    HW121701   5.128   2.596   0.164
 6934SOL    HW221702   5.115   2.660   0.314
 6935SOL     OW21703   3.928   5.818   3.595
 6935SOL    HW121704   3.909   5.907   3.554
 6935SOL    HW221705   3.932   5.747   3.524
 6936SOL     OW21706   0.268   2.384   2.078
 6936SOL    HW121707   0.221   2.466   2.047
 6936SOL    HW221708   0.202   2.318   2.114
 6937SOL     OW21709   4.168   6.057   5.606
 6937SOL    HW121710   4.094   6.120   5.583
 6937SOL    HW221711   4.243   6.069   5.541
 6938SOL     OW21712   5.076   3.814   5.864
 6938SOL    HW121713   5.104   3.748   5.934
 6938SOL    HW221714   5.073   3.769   5.775
 6939SOL     OW21715   0.116   4.692   2.368
 6939SOL    HW121716   0.179   4.662   2.440
 6939SOL    HW221717   0.155   4.671   2.279
 6940SOL     OW21718   4.644   0.455   6.804
 6940SOL    HW121719   4.690   0.396   6.870
 6940SOL    HW221720   4.546   0.433   6.803
 6941SOL     OW21721   3.084   3.092   2.216
 6941SOL    HW121722   3.075   3.149   2.135
 6941SOL    HW221723   3.108   2.999   2.189
 6942SOL     OW21724   0.357   2.306   0.637
 6942SOL    HW121725   0.361   2.211   0.668
 6942SOL    HW221726   0.324   2.364   0.712
 6943SOL     OW21727   5.308   6.474   6.071
 6943SOL    HW121728   5.384   6.503   6.013
 6943SOL    HW221729   5.240   6.427   6.016
 6944SOL     OW21730   1.069   5.821   5.942
 6944SOL    HW121731   1.118   5.746   5.988
 6944SOL    HW221732   1.022   5.785   5.862
 6945SOL     OW21733   6.267   3.395   6.480
 6945SOL    HW121734   6.319   3.310   6.481
 6945SOL    HW221735   6.177   3.379   6.521
 6946SOL     OW21736   6.008   4.664   2.787
 6946SOL    HW121737   6.038   4.643   2.694
 6946SOL    HW221738   6.067   4.618   2.852
 6947SOL     OW21739   3.701   6.829   3.509
 6947SOL    HW121740   3.608   6.819   3.474
 6947SOL    HW221741   3.761   6.861   3.435
 6948SOL     OW21742   4.991   0.400   0.550
 6948SOL    HW121743   4.976   0.348   0.634
 6948SOL    HW221744   4.904   0.437   0.517
 6949SOL     OW21745   4.600   6.295   3.460
 6949SOL    HW121746   4.690   6.252   3.471
 6949SOL    HW221747   4.596   6.341   3.371
 6950SOL     OW21748   2.051   0.588   3.187
 6950SOL    HW121749   2.037   0.489   3.189
 6950SOL    HW221750   1.986   0.632   3.248
 6951SOL     OW21751   6.504   6.342   6.024
 6951SOL    HW121752   6.416   6.370   5.986
 6951SOL    HW221753   6.557   6.422   6.051
 6952SOL     OW21754   6.907   5.149   3.318
 6952SOL    HW121755   6.990   5.168   3.369
 6952SOL    HW221756   6.846   5.093   3.373
 6953SOL     OW21757   5.133   0.864   5.937
 6953SOL    HW121758   5.181   0.779   5.962
 6953SOL    HW221759   5.088   0.901   6.018
 6954SOL     OW21760   0.452   3.073   4.085
 6954SOL    HW121761   0.399   2.989   4.074
 6954SOL    HW221762   0.466   3.115   3.995
 6955SOL     OW21763   0.503   6.646   1.770
 6955SOL    HW121764   0.432   6.677   1.833
 6955SOL    HW221765   0.592   6.674   1.804
 6956SOL     OW21766   4.712   5.314   1.932
 6956SOL    HW121767   4.770   5.289   1.855
 6956SOL    HW221768   4.738   5.404   1.966
 6957SOL     OW21769   6.689   4.746   1.956
 6957SOL    HW121770   6.693   4.731   1.858
 6957SOL    HW221771   6.739   4.673   2.003
 6958SOL     OW21772   2.039   2.149   6.119
 6958SOL    HW121773   1.944   2.170   6.096
 6958SOL    HW221774   2.088   2.234   6.139
 6959SOL     OW21775   3.649   1.619   4.832
 6959SOL    HW121776   3.578   1.601   4.900
 6959SOL    HW221777   3.737   1.584   4.866
 6960SOL     OW21778   6.850   5.036   0.048
 6960SOL    HW121779   6.936   5.029   7.023
 6960SOL    HW221780   6.836   5.130   0.077
 6961SOL     OW21781   0.579   2.310   3.531
 6961SOL    HW121782   0.649   2.254   3.487
 6961SOL    HW221783   0.619   2.358   3.609
 6962SOL     OW21784   5.531   5.770   2.805
 6962SOL    HW121785   5.476   5.742   2.884
 6962SOL    HW221786   5.555   5.866   2.815
 6963SOL     OW21787   0.125   5.144   1.611
 6963SOL    HW121788   0.084   5.091   1.685
 6963SOL    HW221789   0.086   5.236   1.611
 6964SOL     OW21790   4.859   5.113   5.402
 6964SOL    HW121791   4.943   5.156   5.370
 6964SOL    HW221792   4.863   5.015   5.383
 6965SOL     OW21793   6.402   3.288   6.120
 6965SOL    HW121794   6.359   3.234   6.192
 6965SOL    HW221795   6.449   3.227   6.056
 6966SOL     OW21796   5.394   3.028   2.588
 6966SOL    HW121797   5.413   3.116   2.546
 6966SOL    HW221798   5.296   3.009   2.581
 6967SOL     OW21799   1.488   2.141   5.954
 6967SOL    HW121800   1.392   2.114   5.964
 6967SOL    HW221801   1.532   2.140   6.043
 6968SOL     OW21802   4.353   6.279   1.156
 6968SOL    HW121803   4.322   6.184   1.160
 6968SOL    HW221804   4.311   6.324   1.078
 6969SOL     OW21805   4.251   1.320   1.789
 6969SOL    HW121806   4.205   1.409   1.788
 6969SOL    HW221807   4.325   1.321   1.856
 6970SOL     OW21808   4.061   4.349   0.579
 6970SOL    HW121809   4.036   4.317   0.488
 6970SOL    HW221810   3.990   4.409   0.615
 6971SOL     OW21811   6.545   2.714   1.504
 6971SOL    HW121812   6.642   2.739   1.500
 6971SOL    HW221813   6.502   2.763   1.580
 6972SOL     OW21814   5.396   4.344   3.939
 6972SOL    HW121815   5.341   4.261   3.942
 6972SOL    HW221816   5.342   4.422   3.972
 6973SOL     OW21817   1.825   4.325   4.472
 6973SOL    HW121818   1.885   4.379   4.531
 6973SOL    HW221819   1.817   4.232   4.509
 6974SOL     OW21820   4.061   3.458   3.072
 6974SOL    HW121821   4.036   3.549   3.104
 6974SOL    HW221822   4.092   3.402   3.150
 6975SOL     OW21823   3.165   0.089   5.527
 6975SOL    HW121824   3.246   0.135   5.562
 6975SOL    HW221825   3.125   0.142   5.452
 6976SOL     OW21826   3.119   4.656   6.346
 6976SOL    HW121827   3.141   4.610   6.432
 6976SOL    HW221828   3.175   4.618   6.273
 6977SOL     OW21829   4.857   1.728   2.045
 6977SOL    HW121830   4.777   1.787   2.041
 6977SOL    HW221831   4.938   1.779   2.017
 6978SOL     OW21832   6.673   0.611   2.053
 6978SOL    HW121833   6.719   0.564   2.128
 6978SOL    HW221834   6.705   0.574   1.965
 6979SOL     OW21835   1.308   5.101   2.010
 6979SOL    HW121836   1.403   5.072   2.024
 6979SOL    HW221837   1.247   5.025   2.031
 6980SOL     OW21838   2.181   0.853   3.523
 6980SOL    HW121839   2.127   0.840   3.606
 6980SOL    HW221840   2.134   0.917   3.462
 6981SOL     OW21841   2.625   4.326   6.897
 6981SOL    HW121842   2.664   4.281   6.977
 6981SOL    HW221843   2.581   4.259   6.839
 6982SOL     OW21844   1.144   1.203   3.998
 6982SOL    HW121845   1.132   1.104   4.008
 6982SOL    HW221846   1.212   1.234   4.064
 6983SOL     OW21847   0.219   0.690   4.498
 6983SOL    HW121848   0.176   0.730   4.418
 6983SOL    HW221849   0.248   0.597   4.477
 6984SOL     OW21850   1.932   1.820   5.397
 6984SOL    HW121851   1.996   1.873   5.341
 6984SOL    HW221852   1.953   1.723   5.390
 6985SOL     OW21853   3.997   5.761   1.987
 6985SOL    HW121854   3.935   5.701   2.037
 6985SOL    HW221855   3.947   5.811   1.916
 6986SOL     OW21856   2.209   6.522   5.976
 6986SOL    HW121857   2.133   6.564   6.025
 6986SOL    HW221858   2.221   6.567   5.888
 6987SOL     OW21859   0.461   2.114   6.133
 6987SOL    HW121860   0.495   2.182   6.198
 6987SOL    HW221861   0.494   2.024   6.159
 6988SOL     OW21862   5.642   1.587   4.363
 6988SOL    HW121863   5.555   1.546   4.390
 6988SOL    HW221864   5.693   1.613   4.445
 6989SOL     OW21865   0.776   1.706   3.394
 6989SOL    HW121866   0.844   1.746   3.332
 6989SOL    HW221867   0.710   1.776   3.420
 6990SOL     OW21868   4.627   2.217   6.900
 6990SOL    HW121869   4.675   2.279   6.838
 6990SOL    HW221870   4.560   2.268   6.953
 6991SOL     OW21871   2.558   4.528   5.109
 6991SOL    HW121872   2.640   4.497   5.060
 6991SOL    HW221873   2.575   4.525   5.207
 6992SOL     OW21874   6.138   6.167   4.693
 6992SOL    HW121875   6.134   6.100   4.767
 6992SOL    HW221876   6.230   6.205   4.687
 6993SOL     OW21877   6.047   6.562   3.353
 6993SOL    HW121878   6.128   6.585   3.298
 6993SOL    HW221879   6.027   6.464   3.344
 6994SOL     OW21880   1.211   3.719   5.637
 6994SOL    HW121881   1.198   3.668   5.722
 6994SOL    HW221882   1.123   3.753   5.603
 6995SOL     OW21883   6.192   5.367   4.778
 6995SOL    HW121884   6.222   5.440   4.717
 6995SOL    HW221885   6.134   5.405   4.850
 6996SOL     OW21886   2.996   0.804   4.927
 6996SOL    HW121887   2.971   0.712   4.900
 6996SOL    HW221888   2.994   0.864   4.847
 6997SOL     OW21889   4.845   6.423   4.973
 6997SOL    HW121890   4.931   6.473   4.985
 6997SOL    HW221891   4.774   6.487   4.943
 6998SOL     OW21892   1.692   2.930   1.538
 6998SOL    HW121893   1.760   2.989   1.583
 6998SOL    HW221894   1.705   2.933   1.439
 6999SOL     OW21895   2.174   1.489   6.229
 6999SOL    HW121896   2.182   1.451   6.137
 6999SOL    HW221897   2.258   1.537   6.253
 7000SOL     OW21898   0.499   6.050   2.728
 7000SOL    HW121899   0.536   6.042   2.821
 7000SOL    HW221900   0.484   5.959   2.691
 7001SOL     OW21901   2.449   2.436   6.014
 7001SOL    HW121902   2.406   2.372   6.078
 7001SOL    HW221903   2.492   2.385   5.939
 7002SOL     OW21904   2.548   4.542   3.535
 7002SOL    HW121905   2.489   4.501   3.466
 7002SOL    HW221906   2.595   4.621   3.496
 7003SOL     OW21907   3.079   0.375   6.816
 7003SOL    HW121908   3.040   0.296   6.770
 7003SOL    HW221909   3.006   0.439   6.839
 7004SOL     OW21910   2.063   4.283   1.885
 7004SOL    HW121911   2.129   4.339   1.835
 7004SOL    HW221912   2.026   4.213   1.825
 7005SOL     OW21913   6.517   6.016   5.635
 7005SOL    HW121914   6.468   6.082   5.577
 7005SOL    HW221915   6.522   6.050   5.728
 7006SOL     OW21916   4.869   4.422   5.044
 7006SOL    HW121917   4.874   4.419   4.944
 7006SOL    HW221918   4.953   4.384   5.082
 7007SOL     OW21919   4.804   6.613   3.382
 7007SOL    HW121920   4.727   6.670   3.408
 7007SOL    HW221921   4.876   6.621   3.451
 7008SOL     OW21922   2.242   4.947   4.466
 7008SOL    HW121923   2.263   4.849   4.474
 7008SOL    HW221924   2.203   4.965   4.376
 7009SOL     OW21925   6.451   5.011   2.502
 7009SOL    HW121926   6.467   4.981   2.596
 7009SOL    HW221927   6.497   4.948   2.439
 7010SOL     OW21928   3.791   4.883   6.339
 7010SOL    HW121929   3.720   4.846   6.278
 7010SOL    HW221930   3.820   4.812   6.403
 7011SOL     OW21931   1.554   6.949   4.974
 7011SOL    HW121932   1.466   6.904   4.990
 7011SOL    HW221933   1.566   7.022   5.042
 7012SOL     OW21934   1.091   0.341   2.179
 7012SOL    HW121935   1.160   0.285   2.132
 7012SOL    HW221936   1.137   0.402   2.244
 7013SOL     OW21937   0.908   6.566   1.006
 7013SOL    HW121938   0.980   6.539   0.942
 7013SOL    HW221939   0.934   6.542   1.099
 7014SOL     OW21940   4.315   3.801   0.951
 7014SOL    HW121941   4.249   3.737   0.912
 7014SOL    HW221942   4.357   3.855   0.878
 7015SOL     OW21943   5.715   3.719   2.114
 7015SOL    HW121944   5.734   3.624   2.089
 7015SOL    HW221945   5.794   3.776   2.091
 7016SOL     OW21946   4.623   5.017   2.014
 7016SOL    HW121947   4.661   5.104   1.982
 7016SOL    HW221948   4.540   5.033   2.068
 7017SOL     OW21949   2.394   1.208   2.997
 7017SOL    HW121950   2.462   1.144   2.962
 7017SOL    HW221951   2.430   1.255   3.077
 7018SOL     OW21952   0.040   4.011   4.940
 7018SOL    HW121953   6.984   4.054   4.901
 7018SOL    HW221954   0.096   3.971   4.867
 7019SOL     OW21955   2.564   4.699   6.781
 7019SOL    HW121956   2.518   4.739   6.860
 7019SOL    HW221957   2.495   4.661   6.719
 7020SOL     OW21958   5.429   0.055   0.486
 7020SOL    HW121959   5.462   7.012   0.551
 7020SOL    HW221960   5.466   0.145   0.509
 7021SOL     OW21961   3.011   0.970   4.676
 7021SOL    HW121962   3.091   0.959   4.617
 7021SOL    HW221963   2.954   1.044   4.642
 7022SOL     OW21964   5.187   3.639   0.934
 7022SOL    HW121965   5.108   3.636   0.872
 7022SOL    HW221966   5.261   3.584   0.896
 7023SOL     OW21967   6.486   2.353   2.826
 7023SOL    HW121968   6.573   2.400   2.813
 7023SOL    HW221969   6.412   2.420   2.837
 7024SOL     OW21970   1.887   5.700   6.093
 7024SOL    HW121971   1.802   5.721   6.044
 7024SOL    HW221972   1.937   5.629   6.043
 7025SOL     OW21973   3.025   1.774   6.381
 7025SOL    HW121974   3.016   1.690   6.327
 7025SOL    HW221975   2.936   1.802   6.415
 7026SOL     OW21976   2.895   1.098   2.111
 7026SOL    HW121977   2.882   1.186   2.066
 7026SOL    HW221978   2.974   1.103   2.172
 7027SOL     OW21979   3.913   5.530   3.188
 7027SOL    HW121980   4.002   5.562   3.155
 7027SOL    HW221981   3.843   5.597   3.166
 7028SOL     OW21982   5.186   6.786   4.223
 7028SOL    HW121983   5.229   6.709   4.270
 7028SOL    HW221984   5.110   6.820   4.278
 7029SOL     OW21985   3.262   5.998   6.580
 7029SOL    HW121986   3.299   6.042   6.662
 7029SOL    HW221987   3.325   5.926   6.550
 7030SOL     OW21988   0.561   3.971   5.755
 7030SOL    HW121989   0.573   3.888   5.701
 7030SOL    HW221990   0.506   4.037   5.704
 7031SOL     OW21991   2.332   5.711   3.882
 7031SOL    HW121992   2.307   5.630   3.934
 7031SOL    HW221993   2.252   5.744   3.831
 7032SOL     OW21994   4.446   0.160   3.125
 7032SOL    HW121995   4.441   0.196   3.032
 7032SOL    HW221996   4.526   0.200   3.171
 7033SOL     OW21997   6.848   1.274   4.418
 7033SOL    HW121998   6.884   1.345   4.358
 7033SOL    HW221999   6.802   1.204   4.364
 7034SOL     OW22000   5.274   0.382   2.402
 7034SOL    HW122001   5.224   0.304   2.440
 7034SOL    HW222002   5.225   0.417   2.322
 7035SOL     OW22003   1.159   6.885   2.626
 7035SOL    HW122004   1.158   6.791   2.593
 7035SOL    HW222005   1.138   6.947   2.550
 7036SOL     OW22006   6.600   5.759   1.915
 7036SOL    HW122007   6.658   5.743   1.835
 7036SOL    HW222008   6.658   5.788   1.992
 7037SOL     OW22009   0.171   6.698   5.989
 7037SOL    HW122010   0.138   6.685   5.895
 7037SOL    HW222011   0.095   6.687   6.053
 7038SOL     OW22012   1.794   4.150   3.920
 7038SOL    HW122013   1.752   4.239   3.907
 7038SOL    HW222014   1.856   4.153   3.999
 7039SOL     OW22015   3.291   6.923   6.882
 7039SOL    HW122016   3.221   6.852   6.873
 7039SOL    HW222017   3.252   7.002   6.929
 7040SOL     OW22018   4.920   2.880   5.884
 7040SOL    HW122019   4.874   2.964   5.854
 7040SOL    HW222020   4.863   2.801   5.862
 7041SOL     OW22021   1.189   1.731   3.275
 7041SOL    HW122022   1.168   1.722   3.178
 7041SOL    HW222023   1.289   1.725   3.288
 7042SOL     OW22024   5.007   5.099   6.316
 7042SOL    HW122025   4.992   5.176   6.255
 7042SOL    HW222026   5.071   5.035   6.274
 7043SOL     OW22027   1.888   3.160   3.174
 7043SOL    HW122028   1.944   3.085   3.139
 7043SOL    HW222029   1.946   3.224   3.225
 7044SOL     OW22030   4.671   4.767   3.008
 7044SOL    HW122031   4.617   4.830   3.065
 7044SOL    HW222032   4.611   4.723   2.941
 7045SOL     OW22033   4.830   6.718   0.886
 7045SOL    HW122034   4.865   6.708   0.979
 7045SOL    HW222035   4.778   6.804   0.878
 7046SOL     OW22036   3.605   1.817   4.260
 7046SOL    HW122037   3.653   1.888   4.312
 7046SOL    HW222038   3.636   1.727   4.289
 7047SOL     OW22039   1.074   2.195   2.977
 7047SOL    HW122040   0.978   2.208   2.954
 7047SOL    HW222041   1.122   2.155   2.899
 7048SOL     OW22042   1.323   5.582   0.944
 7048SOL    HW122043   1.371   5.647   0.885
 7048SOL    HW222044   1.298   5.628   1.030
 7049SOL     OW22045   2.244   0.773   0.759
 7049SOL    HW122046   2.212   0.705   0.693
 7049SOL    HW222047   2.170   0.836   0.780
 7050SOL     OW22048   3.665   4.145   4.211
 7050SOL    HW122049   3.727   4.135   4.133
 7050SOL    HW222050   3.709   4.199   4.282
 7051SOL     OW22051   7.020   0.308   1.293
 7051SOL    HW122052   0.038   0.218   1.304
 7051SOL    HW222053   0.059   0.379   1.320
 7052SOL     OW22054   6.863   2.121   4.656
 7052SOL    HW122055   6.865   2.138   4.755
 7052SOL    HW222056   6.781   2.069   4.634
 7053SOL     OW22057   0.046   3.563   6.881
 7053SOL    HW122058   0.030   3.654   6.844
 7053SOL    HW222059   0.038   3.565   6.981
 7054SOL     OW22060   0.726   5.799   1.361
 7054SOL    HW122061   0.721   5.791   1.461
 7054SOL    HW222062   0.638   5.831   1.327
 7055SOL     OW22063   4.095   6.478   5.566
 7055SOL    HW122064   4.050   6.451   5.650
 7055SOL    HW222065   4.108   6.398   5.507
 7056SOL     OW22066   5.535   5.199   3.578
 7056SOL    HW122067   5.511   5.137   3.652
 7056SOL    HW222068   5.630   5.229   3.589
 7057SOL     OW22069   0.958   4.275   4.865
 7057SOL    HW122070   0.882   4.302   4.924
 7057SOL    HW222071   0.952   4.327   4.779
 7058SOL     OW22072   0.132   5.471   5.392
 7058SOL    HW122073   0.043   5.427   5.380
 7058SOL    HW222074   0.188   5.457   5.310
 7059SOL     OW22075   0.313   0.279   2.067
 7059SOL    HW122076   0.335   0.182   2.064
 7059SOL    HW222077   0.372   0.325   2.133
 7060SOL     OW22078   3.178   0.142   1.799
 7060SOL    HW122079   3.119   0.156   1.879
 7060SOL    HW222080   3.212   0.230   1.767
 7061SOL     OW22081   0.347   2.214   3.639
 7061SOL    HW122082   0.426   2.262   3.602
 7061SOL    HW222083   0.378   2.144   3.704
 7062SOL     OW22084   5.712   1.949   5.764
 7062SOL    HW122085   5.673   1.858   5.780
 7062SOL    HW222086   5.682   1.983   5.675
 7063SOL     OW22087   1.372   6.079   0.455
 7063SOL    HW122088   1.359   6.176   0.473
 7063SOL    HW222089   1.367   6.028   0.540
 7064SOL     OW22090   4.543   2.245   1.505
 7064SOL    HW122091   4.617   2.309   1.524
 7064SOL    HW222092   4.514   2.201   1.590
 7065SOL     OW22093   4.875   4.190   1.110
 7065SOL    HW122094   4.883   4.163   1.014
 7065SOL    HW222095   4.939   4.265   1.129
 7066SOL     OW22096   3.829   0.812   0.409
 7066SOL    HW122097   3.802   0.856   0.495
 7066SOL    HW222098   3.748   0.780   0.362
 7067SOL     OW22099   0.708   3.559   5.583
 7067SOL    HW122100   0.770   3.621   5.534
 7067SOL    HW222101   0.761   3.508   5.651
 7068SOL     OW22102   1.050   3.137   2.988
 7068SOL    HW122103   1.046   3.205   3.062
 7068SOL    HW222104   0.992   3.167   2.912
 7069SOL     OW22105   6.474   3.630   4.694
 7069SOL    HW122106   6.414   3.690   4.641
 7069SOL    HW222107   6.554   3.607   4.640
 7070SOL     OW22108   6.520   5.224   5.214
 7070SOL    HW122109   6.482   5.284   5.284
 7070SOL    HW222110   6.448   5.197   5.151
 7071SOL     OW22111   0.578   6.171   5.482
 7071SOL    HW122112   0.492   6.194   5.436
 7071SOL    HW222113   0.654   6.189   5.419
 7072SOL     OW22114   6.905   6.955   6.326
 7072SOL    HW122115   6.813   6.971   6.361
 7072SOL    HW222116   6.940   0.013   6.284
 7073SOL     OW22117   6.754   0.847   4.722
 7073SOL    HW122118   6.849   0.833   4.750
 7073SOL    HW222119   6.740   0.943   4.700
 7074SOL     OW22120   3.549   3.110   2.231
 7074SOL    HW122121   3.631   3.118   2.288
 7074SOL    HW222122   3.468   3.125   2.287
 7075SOL     OW22123   1.357   6.432   4.243
 7075SOL    HW122124   1.343   6.465   4.149
 7075SOL    HW222125   1.407   6.345   4.240
 7076SOL     OW22126   3.534   1.593   0.012
 7076SOL    HW122127   3.502   1.541   6.958
 7076SOL    HW222128   3.513   1.690   7.024
 7077SOL     OW22129   2.368   5.884   5.455
 7077SOL    HW122130   2.296   5.945   5.424
 7077SOL    HW222131   2.362   5.872   5.554
 7078SOL     OW22132   6.003   0.512   2.573
 7078SOL    HW122133   6.016   0.611   2.565
 7078SOL    HW222134   5.905   0.492   2.583
 7079SOL     OW22135   6.637   6.494   5.775
 7079SOL    HW122136   6.541   6.523   5.774
 7079SOL    HW222137   6.646   6.405   5.731
 7080SOL     OW22138   4.054   1.753   3.878
 7080SOL    HW122139   4.151   1.757   3.855
 7080SOL    HW222140   4.042   1.777   3.974
 7081SOL     OW22141   3.855   1.160   5.653
 7081SOL    HW122142   3.951   1.169   5.678
 7081SOL    HW222143   3.838   1.211   5.568
 7082SOL     OW22144   5.497   6.665   0.451
 7082SOL    HW122145   5.403   6.698   0.444
 7082SOL    HW222146   5.556   6.740   0.482
 7083SOL     OW22147   3.058   1.150   6.139
 7083SOL    HW122148   3.099   1.230   6.096
 7083SOL    HW222149   3.101   1.135   6.228
 7084SOL     OW22150   6.884   6.491   5.257
 7084SOL    HW122151   6.982   6.470   5.269
 7084SOL    HW222152   6.863   6.494   5.160
 7085SOL     OW22153   1.901   1.375   2.965
 7085SOL    HW122154   1.897   1.454   3.027
 7085SOL    HW222155   1.834   1.307   2.994
 7086SOL     OW22156   5.340   1.331   6.124
 7086SOL    HW122157   5.348   1.243   6.170
 7086SOL    HW222158   5.302   1.399   6.188
 7087SOL     OW22159   0.638   3.129   4.588
 7087SOL    HW122160   0.649   3.055   4.522
 7087SOL    HW222161   0.727   3.169   4.610
 7088SOL     OW22162   4.741   2.752   3.998
 7088SOL    HW122163   4.698   2.754   3.908
 7088SOL    HW222164   4.831   2.711   3.991
 7089SOL     OW22165   3.004   2.712   6.537
 7089SOL    HW122166   2.905   2.700   6.526
 7089SOL    HW222167   3.051   2.656   6.468
 7090SOL     OW22168   2.382   1.480   5.856
 7090SOL    HW122169   2.311   1.546   5.833
 7090SOL    HW222170   2.422   1.444   5.772
 7091SOL     OW22171   0.126   1.404   6.518
 7091SOL    HW122172   0.137   1.333   6.587
 7091SOL    HW222173   0.132   1.494   6.561
 7092SOL     OW22174   4.320   3.103   0.596
 7092SOL    HW122175   4.283   3.018   0.558
 7092SOL    HW222176   4.348   3.163   0.522
 7093SOL     OW22177   3.468   3.743   4.071
 7093SOL    HW122178   3.431   3.822   4.118
 7093SOL    HW222179   3.565   3.732   4.094
 7094SOL     OW22180   0.651   6.385   5.632
 7094SOL    HW122181   0.608   6.317   5.572
 7094SOL    HW222182   0.743   6.406   5.598
 7095SOL     OW22183   2.671   2.833   0.195
 7095SOL    HW122184   2.594   2.834   0.132
 7095SOL    HW222185   2.680   2.742   0.236
 7096SOL     OW22186   5.789   1.400   3.795
 7096SOL    HW122187   5.863   1.347   3.838
 7096SOL    HW222188   5.811   1.416   3.699
 7097SOL     OW22189   6.697   0.539   1.784
 7097SOL    HW122190   6.619   0.535   1.721
 7097SOL    HW222191   6.769   0.595   1.744
 7098SOL     OW22192   1.174   5.795   5.007
 7098SOL    HW122193   1.266   5.766   4.977
 7098SOL    HW222194   1.118   5.816   4.927
 7099SOL     OW22195   1.392   1.156   4.962
 7099SOL    HW122196   1.478   1.201   4.939
 7099SOL    HW222197   1.403   1.057   4.953
 7100SOL     OW22198   5.408   3.420   1.012
 7100SOL    HW122199   5.376   3.413   1.107
 7100SOL    HW222200   5.434   3.515   0.993
 7101SOL     OW22201   3.125   0.526   4.615
 7101SOL    HW122202   3.187   0.604   4.618
 7101SOL    HW222203   3.032   0.558   4.598
 7102SOL     OW22204   4.719   0.957   0.919
 7102SOL    HW122205   4.788   1.015   0.962
 7102SOL    HW222206   4.633   0.965   0.970
 7103SOL     OW22207   4.013   5.254   0.190
 7103SOL    HW122208   3.983   5.321   0.122
 7103SOL    HW222209   4.111   5.265   0.207
 7104SOL     OW22210   1.269   3.581   4.532
 7104SOL    HW122211   1.367   3.560   4.531
 7104SOL    HW222212   1.240   3.600   4.626
 7105SOL     OW22213   3.695   3.076   5.429
 7105SOL    HW122214   3.600   3.100   5.406
 7105SOL    HW222215   3.755   3.152   5.404
 7106SOL     OW22216   3.482   3.140   3.475
 7106SOL    HW122217   3.433   3.058   3.444
 7106SOL    HW222218   3.554   3.162   3.410
 7107SOL     OW22219   2.425   0.971   0.755
 7107SOL    HW122220   2.364   0.892   0.767
 7107SOL    HW222221   2.449   0.980   0.659
 7108SOL     OW22222   4.603   6.428   0.785
 7108SOL    HW122223   4.544   6.486   0.842
 7108SOL    HW222224   4.698   6.458   0.795
 7109SOL     OW22225   3.645   6.959   6.289
 7109SOL    HW122226   3.660   6.938   6.193
 7109SOL    HW222227   3.696   6.895   6.346
 7110SOL     OW22228   5.028   5.241   3.751
 7110SOL    HW122229   5.060   5.334   3.730
 7110SOL    HW222230   5.106   5.178   3.750
 7111SOL     OW22231   1.024   2.826   4.747
 7111SOL    HW122232   1.066   2.804   4.835
 7111SOL    HW222233   1.043   2.922   4.724
 7112SOL     OW22234   1.589   5.384   4.477
 7112SOL    HW122235   1.649   5.451   4.433
 7112SOL    HW222236   1.575   5.411   4.573
 7113SOL     OW22237   3.563   4.094   4.730
 7113SOL    HW122238   3.498   4.019   4.748
 7113SOL    HW222239   3.581   4.143   4.815
 7114SOL     OW22240   4.305   0.055   1.796
 7114SOL    HW122241   4.254   0.138   1.816
 7114SOL    HW222242   4.357   0.067   1.711
 7115SOL     OW22243   5.473   2.249   1.825
 7115SOL    HW122244   5.498   2.190   1.748
 7115SOL    HW222245   5.376   2.272   1.819
 7116SOL     OW22246   5.647   3.700   3.322
 7116SOL    HW122247   5.655   3.653   3.409
 7116SOL    HW222248   5.575   3.770   3.328
 7117SOL     OW22249   0.075   6.903   4.234
 7117SOL    HW122250   0.030   6.851   4.162
 7117SOL    HW222251   0.149   6.849   4.274
 7118SOL     OW22252   4.837   3.017   0.854
 7118SOL    HW122253   4.803   2.949   0.789
 7118SOL    HW222254   4.932   3.041   0.831
 7119SOL     OW22255   4.776   1.373   3.420
 7119SOL    HW122256   4.833   1.415   3.490
 7119SOL    HW222257   4.835   1.340   3.345
 7120SOL     OW22258   3.883   1.792   2.681
 7120SOL    HW122259   3.842   1.828   2.597
 7120SOL    HW222260   3.895   1.867   2.747
 7121SOL     OW22261   2.018   0.320   3.147
 7121SOL    HW122262   1.970   0.287   3.229
 7121SOL    HW222263   2.079   0.249   3.113
 7122SOL     OW22264   6.527   0.933   6.927
 7122SOL    HW122265   6.490   1.007   6.983
 7122SOL    HW222266   6.457   0.863   6.914
 7123SOL     OW22267   3.443   5.290   1.287
 7123SOL    HW122268   3.476   5.284   1.381
 7123SOL    HW222269   3.382   5.213   1.267
 7124SOL     OW22270   0.866   4.292   0.550
 7124SOL    HW122271   0.872   4.387   0.520
 7124SOL    HW222272   0.911   4.233   0.483
 7125SOL     OW22273   7.004   6.211   1.273
 7125SOL    HW122274   0.012   6.123   1.241
 7125SOL    HW222275   0.005   6.283   1.208
 7126SOL     OW22276   2.366   4.353   1.036
 7126SOL    HW122277   2.349   4.256   1.050
 7126SOL    HW222278   2.364   4.400   1.124
 7127SOL     OW22279   2.825   5.408   4.251
 7127SOL    HW122280   2.837   5.354   4.335
 7127SOL    HW222281   2.877   5.366   4.177
 7128SOL     OW22282   3.032   4.326   0.357
 7128SOL    HW122283   3.017   4.375   0.271
 7128SOL    HW222284   3.089   4.382   0.417
 7129SOL     OW22285   3.272   1.170   0.965
 7129SOL    HW122286   3.242   1.256   0.922
 7129SOL    HW222287   3.364   1.182   1.002
 7130SOL     OW22288   3.171   4.905   4.639
 7130SOL    HW122289   3.111   4.872   4.712
 7130SOL    HW222290   3.254   4.945   4.679
 7131SOL     OW22291   2.130   1.653   0.424
 7131SOL    HW122292   2.106   1.566   0.381
 7131SOL    HW222293   2.142   1.723   0.353
 7132SOL     OW22294   4.023   3.602   1.980
 7132SOL    HW122295   4.117   3.637   1.983
 7132SOL    HW222296   4.013   3.525   2.042
 7133SOL     OW22297   5.305   4.897   3.565
 7133SOL    HW122298   5.372   4.825   3.584
 7133SOL    HW222299   5.281   4.896   3.468
 7134SOL     OW22300   6.181   5.868   3.393
 7134SOL    HW122301   6.236   5.844   3.472
 7134SOL    HW222302   6.240   5.907   3.322
 7135SOL     OW22303   1.265   1.250   3.749
 7135SOL    HW122304   1.234   1.246   3.844
 7135SOL    HW222305   1.189   1.276   3.690
 7136SOL     OW22306   1.920   1.971   0.510
 7136SOL    HW122307   1.852   2.041   0.530
 7136SOL    HW222308   1.968   1.994   0.426
 7137SOL     OW22309   4.406   1.472   4.688
 7137SOL    HW122310   4.361   1.439   4.605
 7137SOL    HW222311   4.405   1.399   4.757
 7138SOL     OW22312   2.943   2.832   1.366
 7138SOL    HW122313   3.022   2.866   1.315
 7138SOL    HW222314   2.859   2.874   1.330
 7139SOL     OW22315   4.916   3.216   2.056
 7139SOL    HW122316   4.863   3.138   2.023
 7139SOL    HW222317   4.903   3.293   1.994
 7140SOL     OW22318   6.196   3.302   4.990
 7140SOL    HW122319   6.247   3.366   4.932
 7140SOL    HW222320   6.218   3.319   5.086
 7141SOL     OW22321   3.258   0.109   1.152
 7141SOL    HW122322   3.167   0.073   1.134
 7141SOL    HW222323   3.271   0.194   1.101
 7142SOL     OW22324   4.174   6.689   3.152
 7142SOL    HW122325   4.198   6.783   3.131
 7142SOL    HW222326   4.244   6.649   3.211
 7143SOL     OW22327   1.528   3.164   6.289
 7143SOL    HW122328   1.451   3.101   6.303
 7143SOL    HW222329   1.581   3.135   6.210
 7144SOL     OW22330   0.855   1.033   2.934
 7144SOL    HW122331   0.772   0.981   2.916
 7144SOL    HW222332   0.832   1.118   2.982
 7145SOL     OW22333   3.810   6.153   6.536
 7145SOL    HW122334   3.874   6.227   6.555
 7145SOL    HW222335   3.720   6.191   6.515
 7146SOL     OW22336   2.281   0.482   0.296
 7146SOL    HW122337   2.286   0.400   0.239
 7146SOL    HW222338   2.186   0.514   0.301
 7147SOL     OW22339   6.332   0.115   3.711
 7147SOL    HW122340   6.245   0.069   3.694
 7147SOL    HW222341   6.395   0.050   3.754
 7148SOL     OW22342   1.099   5.721   1.901
 7148SOL    HW122343   1.054   5.697   1.815
 7148SOL    HW222344   1.070   5.812   1.930
 7149SOL     OW22345   0.047   0.335   3.521
 7149SOL    HW122346   0.126   0.328   3.582
 7149SOL    HW222347   0.019   0.430   3.513
 7150SOL     OW22348   5.197   3.278   1.815
 7150SOL    HW122349   5.138   3.220   1.759
 7150SOL    HW222350   5.276   3.226   1.846
 7151SOL     OW22351   1.087   5.342   0.995
 7151SOL    HW122352   1.142   5.423   1.017
 7151SOL    HW222353   1.013   5.368   0.932
 7152SOL     OW22354   0.233   3.048   5.947
 7152SOL    HW122355   0.275   2.986   5.881
 7152SOL    HW222356   0.213   2.997   6.032
 7153SOL     OW22357   3.270   6.044   5.114
 7153SOL    HW122358   3.339   6.005   5.175
 7153SOL    HW222359   3.295   6.026   5.019
 7154SOL     OW22360   3.994   5.637   4.566
 7154SOL    HW122361   4.059   5.704   4.528
 7154SOL    HW222362   3.902   5.656   4.532
 7155SOL     OW22363   1.811   6.264   1.408
 7155SOL    HW122364   1.737   6.202   1.384
 7155SOL    HW222365   1.777   6.334   1.471
 7156SOL     OW22366   0.648   5.040   4.341
 7156SOL    HW122367   0.697   4.982   4.276
 7156SOL    HW222368   0.714   5.083   4.403
 7157SOL     OW22369   6.093   5.314   1.094
 7157SOL    HW122370   6.179   5.358   1.118
 7157SOL    HW222371   6.107   5.254   1.014
 7158SOL     OW22372   0.481   0.062   3.583
 7158SOL    HW122373   0.401   0.067   3.643
 7158SOL    HW222374   0.456   0.013   3.499
 7159SOL     OW22375   0.291   4.388   2.350
 7159SOL    HW122376   0.355   4.437   2.409
 7159SOL    HW222377   0.291   4.430   2.259
 7160SOL     OW22378   6.638   0.804   2.806
 7160SOL    HW122379   6.612   0.862   2.883
 7160SOL    HW222380   6.715   0.747   2.832
 7161SOL     OW22381   3.376   4.096   4.253
 7161SOL    HW122382   3.474   4.114   4.242
 7161SOL    HW222383   3.343   4.138   4.337
 7162SOL     OW22384   2.654   6.086   5.678
 7162SOL    HW122385   2.612   6.116   5.763
 7162SOL    HW222386   2.632   5.989   5.663
 7163SOL     OW22387   3.706   0.045   4.300
 7163SOL    HW122388   3.795   0.011   4.269
 7163SOL    HW222389   3.688   0.011   4.392
 7164SOL     OW22390   1.539   2.051   2.966
 7164SOL    HW122391   1.527   1.983   2.894
 7164SOL    HW222392   1.457   2.053   3.024
 7165SOL     OW22393   5.967   0.299   0.754
 7165SOL    HW122394   5.921   0.298   0.665
 7165SOL    HW222395   5.901   0.314   0.827
 7166SOL     OW22396   5.321   4.258   1.111
 7166SOL    HW122397   5.390   4.186   1.119
 7166SOL    HW222398   5.269   4.245   1.027
 7167SOL     OW22399   4.896   4.028   5.020
 7167SOL    HW122400   4.943   4.096   4.963
 7167SOL    HW222401   4.799   4.053   5.026
 7168SOL     OW22402   1.228   1.991   4.124
 7168SOL    HW122403   1.303   2.046   4.088
 7168SOL    HW222404   1.261   1.901   4.151
 7169SOL     OW22405   1.169   3.137   4.992
 7169SOL    HW122406   1.094   3.129   4.926
 7169SOL    HW222407   1.251   3.095   4.953
 7170SOL     OW22408   3.917   5.110   3.332
 7170SOL    HW122409   3.966   5.127   3.247
 7170SOL    HW222410   3.897   5.012   3.340
 7171SOL     OW22411   5.951   3.601   6.263
 7171SOL    HW122412   5.864   3.559   6.287
 7171SOL    HW222413   5.949   3.629   6.167
 7172SOL     OW22414   1.654   6.909   6.500
 7172SOL    HW122415   1.686   6.828   6.549
 7172SOL    HW222416   1.558   6.896   6.473
 7173SOL     OW22417   0.395   4.836   5.480
 7173SOL    HW122418   0.312   4.782   5.470
 7173SOL    HW222419   0.413   4.886   5.395
 7174SOL     OW22420   1.332   5.432   6.801
 7174SOL    HW122421   1.409   5.478   6.755
 7174SOL    HW222422   1.246   5.463   6.761
 7175SOL     OW22423   5.761   2.858   1.101
 7175SOL    HW122424   5.791   2.772   1.060
 7175SOL    HW222425   5.693   2.840   1.171
 7176SOL     OW22426   0.449   5.278   2.750
 7176SOL    HW122427   0.522   5.216   2.781
 7176SOL    HW222428   0.363   5.228   2.747
 7177SOL     OW22429   2.151   6.166   3.957
 7177SOL    HW122430   2.174   6.263   3.971
 7177SOL    HW222431   2.130   6.151   3.860
 7178SOL     OW22432   2.146   2.751   5.797
 7178SOL    HW122433   2.059   2.704   5.808
 7178SOL    HW222434   2.130   2.843   5.761
 7179SOL     OW22435   1.720   3.258   5.609
 7179SOL    HW122436   1.719   3.269   5.708
 7179SOL    HW222437   1.664   3.179   5.583
 7180SOL     OW22438   1.147   5.214   6.307
 7180SOL    HW122439   1.144   5.156   6.389
 7180SOL    HW222440   1.091   5.173   6.235
 7181SOL     OW22441   3.732   0.265   0.566
 7181SOL    HW122442   3.741   0.279   0.664
 7181SOL    HW222443   3.741   0.168   0.545
 7182SOL     OW22444   1.402   3.249   5.605
 7182SOL    HW122445   1.345   3.174   5.640
 7182SOL    HW222446   1.383   3.332   5.657
 7183SOL     OW22447   1.439   4.786   2.640
 7183SOL    HW122448   1.526   4.831   2.658
 7183SOL    HW222449   1.449   4.687   2.653
 7184SOL     OW22450   0.446   6.952   3.313
 7184SOL    HW122451   0.374   6.969   3.246
 7184SOL    HW222452   0.531   6.996   3.284
 7185SOL     OW22453   4.978   2.640   6.141
 7185SOL    HW122454   5.052   2.704   6.161
 7185SOL    HW222455   4.984   2.610   6.046
 7186SOL     OW22456   6.757   0.040   5.427
 7186SOL    HW122457   6.803   6.980   5.451
 7186SOL    HW222458   6.820   0.117   5.441
 7187SOL     OW22459   1.644   4.655   1.716
 7187SOL    HW122460   1.631   4.652   1.815
 7187SOL    HW222461   1.556   4.645   1.670
 7188SOL     OW22462   5.636   0.175   0.687
 7188SOL    HW122463   5.592   0.208   0.770
 7188SOL    HW222464   5.680   0.252   0.640
 7189SOL     OW22465   6.298   1.227   6.783
 7189SOL    HW122466   6.324   1.145   6.731
 7189SOL    HW222467   6.377   1.287   6.793
 7190SOL     OW22468   5.185   3.509   3.564
 7190SOL    HW122469   5.217   3.602   3.548
 7190SOL    HW222470   5.207   3.452   3.485
 7191SOL     OW22471   0.645   4.022   2.619
 7191SOL    HW122472   0.548   4.042   2.614
 7191SOL    HW222473   0.671   4.005   2.714
 7192SOL     OW22474   2.160   6.416   5.225
 7192SOL    HW122475   2.084   6.432   5.288
 7192SOL    HW222476   2.125   6.407   5.132
 7193SOL     OW22477   2.947   2.231   3.619
 7193SOL    HW122478   2.997   2.196   3.539
 7193SOL    HW222479   2.920   2.326   3.601
 7194SOL     OW22480   2.411   1.859   1.054
 7194SOL    HW122481   2.441   1.769   1.085
 7194SOL    HW222482   2.457   1.882   0.968
 7195SOL     OW22483   0.144   4.864   0.116
 7195SOL    HW122484   0.049   4.836   0.103
 7195SOL    HW222485   0.204   4.790   0.088
 7196SOL     OW22486   2.843   3.589   2.469
 7196SOL    HW122487   2.856   3.650   2.390
 7196SOL    HW222488   2.870   3.496   2.444
 7197SOL     OW22489   6.545   2.592   6.035
 7197SOL    HW122490   6.505   2.676   5.998
 7197SOL    HW222491   6.474   2.522   6.043
 7198SOL     OW22492   1.185   0.122   5.763
 7198SOL    HW122493   1.110   0.092   5.704
 7198SOL    HW222494   1.149   0.179   5.837
 7199SOL     OW22495   1.335   0.952   2.223
 7199SOL    HW122496   1.239   0.970   2.200
 7199SOL    HW222497   1.364   1.016   2.294
 7200SOL     OW22498   2.504   0.569   0.082
 7200SOL    HW122499   2.508   0.560   7.009
 7200SOL    HW222500   2.460   0.489   0.122
 7201SOL     OW22501   1.565   4.910   3.030
 7201SOL    HW122502   1.489   4.860   2.989
 7201SOL    HW222503   1.536   4.948   3.118
 7202SOL     OW22504   3.844   0.123   6.410
 7202SOL    HW122505   3.747   0.106   6.393
 7202SOL    HW222506   3.887   0.159   6.328
 7203SOL     OW22507   5.974   0.884   0.369
 7203SOL    HW122508   5.946   0.865   0.464
 7203SOL    HW222509   5.921   0.961   0.334
 7204SOL     OW22510   6.092   6.733   4.311
 7204SOL    HW122511   6.028   6.793   4.263
 7204SOL    HW222512   6.093   6.756   4.408
 7205SOL     OW22513   1.294   5.946   3.399
 7205SOL    HW122514   1.195   5.951   3.385
 7205SOL    HW222515   1.323   5.851   3.390
 7206SOL     OW22516   0.809   1.026   1.351
 7206SOL    HW122517   0.724   1.057   1.310
 7206SOL    HW222518   0.886   1.050   1.291
 7207SOL     OW22519   3.717   0.178   1.598
 7207SOL    HW122520   3.631   0.129   1.612
 7207SOL    HW222521   3.704   0.251   1.530
 7208SOL     OW22522   3.990   6.410   4.391
 7208SOL    HW122523   4.007   6.382   4.296
 7208SOL    HW222524   4.027   6.340   4.452
 7209SOL     OW22525   3.048   3.140   3.834
 7209SOL    HW122526   3.141   3.103   3.835
 7209SOL    HW222527   3.000   3.108   3.752
 7210SOL     OW22528   5.083   0.863   3.803
 7210SOL    HW122529   5.017   0.892   3.734
 7210SOL    HW222530   5.042   0.791   3.860
 7211SOL     OW22531   1.008   5.881   3.581
 7211SOL    HW122532   1.067   5.838   3.649
 7211SOL    HW222533   0.922   5.830   3.576
 7212SOL     OW22534   0.448   5.654   3.923
 7212SOL    HW122535   0.368   5.687   3.973
 7212SOL    HW222536   0.492   5.731   3.877
 7213SOL     OW22537   5.665   6.706   5.047
 7213SOL    HW122538   5.638   6.736   5.138
 7213SOL    HW222539   5.601   6.636   5.015
 7214SOL     OW22540   2.395   5.512   4.305
 7214SOL    HW122541   2.368   5.418   4.322
 7214SOL    HW222542   2.491   5.524   4.329
 7215SOL     OW22543   0.757   3.639   4.473
 7215SOL    HW122544   0.819   3.582   4.419
 7215SOL    HW222545   0.752   3.731   4.433
 7216SOL     OW22546   3.153   5.232   0.405
 7216SOL    HW122547   3.134   5.141   0.368
 7216SOL    HW222548   3.216   5.224   0.482
 7217SOL     OW22549   1.559   4.682   1.970
 7217SOL    HW122550   1.471   4.728   1.954
 7217SOL    HW222551   1.567   4.659   2.067
 7218SOL     OW22552   4.621   2.838   5.646
 7218SOL    HW122553   4.565   2.826   5.564
 7218SOL    HW222554   4.564   2.870   5.721
 7219SOL     OW22555   4.465   6.061   3.295
 7219SOL    HW122556   4.375   6.024   3.320
 7219SOL    HW222557   4.511   6.095   3.377
 7220SOL     OW22558   6.603   6.470   3.503
 7220SOL    HW122559   6.552   6.388   3.531
 7220SOL    HW222560   6.666   6.446   3.429
 7221SOL     OW22561   5.755   5.003   5.494
 7221SOL    HW122562   5.783   4.993   5.399
 7221SOL    HW222563   5.801   4.933   5.549
 7222SOL     OW22564   6.303   6.593   0.607
 7222SOL    HW122565   6.376   6.537   0.647
 7222SOL    HW222566   6.338   6.640   0.526
 7223SOL     OW22567   3.109   1.778   1.216
 7223SOL    HW122568   3.137   1.701   1.273
 7223SOL    HW222569   3.113   1.751   1.120
 7224SOL     OW22570   6.018   1.930   4.786
 7224SOL    HW122571   5.931   1.979   4.781
 7224SOL    HW222572   6.001   1.832   4.776
 7225SOL     OW22573   1.762   5.518   6.796
 7225SOL    HW122574   1.750   5.457   6.874
 7225SOL    HW222575   1.853   5.560   6.801
 7226SOL     OW22576   0.324   0.279   0.511
 7226SOL    HW122577   0.273   0.278   0.424
 7226SOL    HW222578   0.296   0.358   0.565
 7227SOL     OW22579   0.872   2.548   0.148
 7227SOL    HW122580   0.934   2.470   0.159
 7227SOL    HW222581   0.805   2.549   0.222
 7228SOL     OW22582   0.217   0.296   1.796
 7228SOL    HW122583   0.252   0.279   1.888
 7228SOL    HW222584   0.151   0.371   1.799
 7229SOL     OW22585   0.908   0.484   4.164
 7229SOL    HW122586   0.989   0.497   4.222
 7229SOL    HW222587   0.932   0.504   4.069
 7230SOL     OW22588   4.350   5.325   5.074
 7230SOL    HW122589   4.324   5.329   4.978
 7230SOL    HW222590   4.280   5.275   5.125
 7231SOL     OW22591   4.694   0.848   6.919
 7231SOL    HW122592   4.767   0.872   6.855
 7231SOL    HW222593   4.624   0.919   6.916
 7232SOL     OW22594   3.800   4.858   3.498
 7232SOL    HW122595   3.844   4.869   3.409
 7232SOL    HW222596   3.867   4.831   3.566
 7233SOL     OW22597   0.299   2.882   4.895
 7233SOL    HW122598   0.247   2.860   4.978
 7233SOL    HW222599   0.396   2.866   4.912
 7234SOL     OW22600   6.169   2.566   1.861
 7234SOL    HW122601   6.127   2.500   1.798
 7234SOL    HW222602   6.253   2.603   1.819
 7235SOL     OW22603   6.523   3.813   3.994
 7235SOL    HW122604   6.556   3.776   3.907
 7235SOL    HW222605   6.474   3.899   3.977
 7236SOL     OW22606   3.303   1.723   3.062
 7236SOL    HW122607   3.395   1.759   3.044
 7236SOL    HW222608   3.293   1.702   3.159
 7237SOL     OW22609   6.676   6.292   5.264
 7237SOL    HW122610   6.692   6.228   5.340
 7237SOL    HW222611   6.681   6.386   5.297
 7238SOL     OW22612   2.634   1.375   1.849
 7238SOL    HW122613   2.635   1.328   1.762
 7238SOL    HW222614   2.549   1.355   1.897
 7239SOL     OW22615   1.756   1.682   3.656
 7239SOL    HW122616   1.844   1.636   3.643
 7239SOL    HW222617   1.757   1.770   3.609
 7240SOL     OW22618   3.061   4.341   0.757
 7240SOL    HW122619   2.997   4.349   0.834
 7240SOL    HW222620   3.010   4.313   0.676
 7241SOL     OW22621   3.228   0.284   5.888
 7241SOL    HW122622   3.261   0.300   5.982
 7241SOL    HW222623   3.263   0.197   5.855
 7242SOL     OW22624   5.722   4.270   6.754
 7242SOL    HW122625   5.740   4.321   6.670
 7242SOL    HW222626   5.801   4.213   6.776
 7243SOL     OW22627   1.530   4.843   6.548
 7243SOL    HW122628   1.528   4.800   6.639
 7243SOL    HW222629   1.624   4.841   6.513
 7244SOL     OW22630   4.618   1.201   0.566
 7244SOL    HW122631   4.555   1.155   0.628
 7244SOL    HW222632   4.712   1.174   0.588
 7245SOL     OW22633   0.127   2.853   5.143
 7245SOL    HW122634   0.063   2.921   5.107
 7245SOL    HW222635   0.087   2.810   5.224
 7246SOL     OW22636   6.844   6.690   4.589
 7246SOL    HW122637   6.790   6.638   4.655
 7246SOL    HW222638   6.789   6.767   4.555
 7247SOL     OW22639   2.357   6.514   2.247
 7247SOL    HW122640   2.322   6.605   2.229
 7247SOL    HW222641   2.342   6.455   2.168
 7248SOL     OW22642   3.320   1.056   3.718
 7248SOL    HW122643   3.344   0.959   3.715
 7248SOL    HW222644   3.401   1.111   3.698
 7249SOL     OW22645   5.679   4.408   0.917
 7249SOL    HW122646   5.656   4.325   0.868
 7249SOL    HW222647   5.760   4.392   0.974
 7250SOL     OW22648   2.570   4.869   6.242
 7250SOL    HW122649   2.605   4.776   6.235
 7250SOL    HW222650   2.645   4.933   6.258
 7251SOL     OW22651   6.363   6.624   5.448
 7251SOL    HW122652   6.422   6.687   5.397
 7251SOL    HW222653   6.356   6.538   5.398
 7252SOL     OW22654   3.217   3.437   4.702
 7252SOL    HW122655   3.135   3.381   4.703
 7252SOL    HW222656   3.195   3.529   4.671
 7253SOL     OW22657   1.666   5.845   0.515
 7253SOL    HW122658   1.655   5.757   0.561
 7253SOL    HW222659   1.749   5.843   0.459
 7254SOL     OW22660   3.279   5.181   4.045
 7254SOL    HW122661   3.238   5.224   4.126
 7254SOL    HW222662   3.336   5.104   4.074
 7255SOL     OW22663   2.807   2.983   1.771
 7255SOL    HW122664   2.833   2.989   1.868
 7255SOL    HW222665   2.857   2.908   1.728
 7256SOL     OW22666   4.299   4.761   4.618
 7256SOL    HW122667   4.234   4.837   4.613
 7256SOL    HW222668   4.311   4.733   4.713
 7257SOL     OW22669   6.061   2.478   3.264
 7257SOL    HW122670   6.085   2.472   3.168
 7257SOL    HW222671   6.142   2.460   3.320
 7258SOL     OW22672   4.307   0.560   4.366
 7258SOL    HW122673   4.257   0.611   4.435
 7258SOL    HW222674   4.308   0.612   4.280
 7259SOL     OW22675   2.727   4.152   0.053
 7259SOL    HW122676   2.722   4.172   0.151
 7259SOL    HW222677   2.667   4.074   0.033
 7260SOL     OW22678   3.743   2.105   2.860
 7260SOL    HW122679   3.809   2.062   2.922
 7260SOL    HW222680   3.656   2.118   2.908
 7261SOL     OW22681   2.293   3.217   1.791
 7261SOL    HW122682   2.243   3.178   1.868
 7261SOL    HW222683   2.329   3.307   1.817
 7262SOL     OW22684   5.943   2.526   4.662
 7262SOL    HW122685   5.844   2.511   4.667
 7262SOL    HW222686   5.986   2.450   4.614
 7263SOL     OW22687   1.458   5.637   1.640
 7263SOL    HW122688   1.403   5.594   1.568
 7263SOL    HW222689   1.485   5.729   1.610
 7264SOL     OW22690   6.823   1.135   6.893
 7264SOL    HW122691   6.770   1.214   6.925
 7264SOL    HW222692   6.760   1.062   6.866
 7265SOL     OW22693   5.356   5.334   5.879
 7265SOL    HW122694   5.345   5.428   5.914
 7265SOL    HW222695   5.291   5.274   5.925
 7266SOL     OW22696   5.262   0.969   1.396
 7266SOL    HW122697   5.235   0.960   1.300
 7266SOL    HW222698   5.201   0.914   1.453
 7267SOL     OW22699   6.909   4.188   4.800
 7267SOL    HW122700   6.930   4.282   4.825
 7267SOL    HW222701   6.828   4.187   4.741
 7268SOL     OW22702   4.291   5.978   1.838
 7268SOL    HW122703   4.263   5.944   1.748
 7268SOL    HW222704   4.381   6.020   1.831
 7269SOL     OW22705   0.648   5.516   1.936
 7269SOL    HW122706   0.679   5.594   1.991
 7269SOL    HW222707   0.708   5.505   1.857
 7270SOL     OW22708   1.958   1.640   3.123
 7270SOL    HW122709   2.013   1.580   3.182
 7270SOL    HW222710   2.019   1.686   3.058
 7271SOL     OW22711   0.344   3.842   2.450
 7271SOL    HW122712   0.252   3.845   2.487
 7271SOL    HW222713   0.397   3.770   2.496
 7272SOL     OW22714   4.949   2.905   2.873
 7272SOL    HW122715   4.968   2.848   2.953
 7272SOL    HW222716   4.929   2.998   2.903
 7273SOL     OW22717   5.754   4.524   1.790
 7273SOL    HW122718   5.838   4.470   1.792
 7273SOL    HW222719   5.732   4.547   1.695
 7274SOL     OW22720   0.402   5.033   5.663
 7274SOL    HW122721   0.324   5.094   5.673
 7274SOL    HW222722   0.376   4.953   5.609
 7275SOL     OW22723   6.779   0.785   0.064
 7275SOL    HW122724   6.775   0.751   6.996
 7275SOL    HW222725   6.856   0.742   0.112
 7276SOL     OW22726   2.242   2.053   4.035
 7276SOL    HW122727   2.188   2.104   3.968
 7276SOL    HW222728   2.182   2.020   4.108
 7277SOL     OW22729   4.566   1.248   5.650
 7277SOL    HW122730   4.611   1.207   5.729
 7277SOL    HW222731   4.514   1.328   5.679
 7278SOL     OW22732   3.634   1.524   3.304
 7278SOL    HW122733   3.604   1.429   3.303
 7278SOL    HW222734   3.685   1.542   3.389
 7279SOL     OW22735   4.307   4.259   0.671
 7279SOL    HW122736   4.311   4.263   0.771
 7279SOL    HW222737   4.215   4.280   0.640
 7280SOL     OW22738   5.159   2.193   5.200
 7280SOL    HW122739   5.179   2.266   5.266
 7280SOL    HW222740   5.244   2.149   5.172
 7281SOL     OW22741   3.776   6.517   1.195
 7281SOL    HW122742   3.748   6.473   1.110
 7281SOL    HW222743   3.700   6.571   1.231
 7282SOL     OW22744   6.667   5.411   2.084
 7282SOL    HW122745   6.686   5.346   2.157
 7282SOL    HW222746   6.736   5.483   2.084
 7283SOL     OW22747   3.591   5.589   2.433
 7283SOL    HW122748   3.509   5.533   2.423
 7283SOL    HW222749   3.573   5.681   2.398
 7284SOL     OW22750   6.674   2.395   3.917
 7284SOL    HW122751   6.719   2.368   3.832
 7284SOL    HW222752   6.623   2.480   3.903
 7285SOL     OW22753   4.853   2.824   1.884
 7285SOL    HW122754   4.811   2.911   1.908
 7285SOL    HW222755   4.930   2.805   1.945
 7286SOL     OW22756   0.689   1.436   0.804
 7286SOL    HW122757   0.745   1.374   0.749
 7286SOL    HW222758   0.596   1.438   0.766
 7287SOL     OW22759   1.155   2.788   3.569
 7287SOL    HW122760   1.137   2.760   3.475
 7287SOL    HW222761   1.191   2.710   3.621
 7288SOL     OW22762   3.079   2.184   3.043
 7288SOL    HW122763   2.988   2.143   3.029
 7288SOL    HW222764   3.116   2.214   2.955
 7289SOL     OW22765   6.073   2.144   2.233
 7289SOL    HW122766   5.995   2.203   2.217
 7289SOL    HW222767   6.157   2.189   2.202
 7290SOL     OW22768   4.347   1.511   5.129
 7290SOL    HW122769   4.395   1.566   5.061
 7290SOL    HW222770   4.373   1.415   5.118
 7291SOL     OW22771   3.385   0.236   6.915
 7291SOL    HW122772   3.428   0.185   6.989
 7291SOL    HW222773   3.400   0.188   6.829
 7292SOL     OW22774   1.584   0.277   3.320
 7292SOL    HW122775   1.569   0.189   3.276
 7292SOL    HW222776   1.556   0.350   3.257
 7293SOL     OW22777   1.342   0.531   5.495
 7293SOL    HW122778   1.248   0.547   5.524
 7293SOL    HW222779   1.383   0.617   5.464
 7294SOL     OW22780   3.234   4.497   1.602
 7294SOL    HW122781   3.293   4.415   1.605
 7294SOL    HW222782   3.284   4.575   1.641
 7295SOL     OW22783   6.375   5.240   1.995
 7295SOL    HW122784   6.401   5.191   1.912
 7295SOL    HW222785   6.423   5.328   1.998
 7296SOL     OW22786   3.905   4.918   2.778
 7296SOL    HW122787   3.940   5.011   2.766
 7296SOL    HW222788   3.841   4.898   2.704
 7297SOL     OW22789   2.944   6.749   1.824
 7297SOL    HW122790   3.016   6.756   1.754
 7297SOL    HW222791   2.976   6.692   1.899
 7298SOL     OW22792   4.987   5.584   6.510
 7298SOL    HW122793   5.042   5.632   6.441
 7298SOL    HW222794   5.003   5.486   6.502
 7299SOL     OW22795   1.200   3.140   6.805
 7299SOL    HW122796   1.200   3.194   6.722
 7299SOL    HW222797   1.199   3.200   6.885
 7300SOL     OW22798   0.796   5.224   1.478
 7300SOL    HW122799   0.744   5.181   1.404
 7300SOL    HW222800   0.772   5.181   1.565
 7301SOL     OW22801   5.582   6.794   5.315
 7301SOL    HW122802   5.526   6.768   5.394
 7301SOL    HW222803   5.631   6.879   5.336
 7302SOL     OW22804   5.170   2.973   5.883
 7302SOL    HW122805   5.074   2.946   5.883
 7302SOL    HW222806   5.205   2.971   5.789
 7303SOL     OW22807   2.300   1.279   0.824
 7303SOL    HW122808   2.368   1.208   0.810
 7303SOL    HW222809   2.254   1.265   0.912
 7304SOL     OW22810   2.709   5.129   1.822
 7304SOL    HW122811   2.768   5.140   1.902
 7304SOL    HW222812   2.755   5.073   1.753
 7305SOL     OW22813   5.923   2.346   0.084
 7305SOL    HW122814   5.871   2.412   0.031
 7305SOL    HW222815   5.867   2.265   0.100
 7306SOL     OW22816   2.860   1.283   1.341
 7306SOL    HW122817   2.878   1.218   1.415
 7306SOL    HW222818   2.846   1.374   1.380
 7307SOL     OW22819   2.787   6.325   1.677
 7307SOL    HW122820   2.878   6.307   1.640
 7307SOL    HW222821   2.777   6.423   1.695
 7308SOL     OW22822   5.038   0.479   1.738
 7308SOL    HW122823   5.042   0.562   1.793
 7308SOL    HW222824   5.082   0.495   1.650
 7309SOL     OW22825   2.444   5.632   2.592
 7309SOL    HW122826   2.436   5.592   2.683
 7309SOL    HW222827   2.396   5.574   2.526
 7310SOL     OW22828   1.741   2.800   0.108
 7310SOL    HW122829   1.779   2.750   0.186
 7310SOL    HW222830   1.727   2.895   0.133
 7311SOL     OW22831   0.235   6.941   0.355
 7311SOL    HW122832   0.284   7.022   0.387
 7311SOL    HW222833   0.205   6.954   0.261
 7312SOL     OW22834   6.889   2.266   5.739
 7312SOL    HW122835   6.847   2.276   5.649
 7312SOL    HW222836   6.848   2.188   5.786
 7313SOL     OW22837   2.316   0.987   1.621
 7313SOL    HW122838   2.218   1.001   1.607
 7313SOL    HW222839   2.345   1.035   1.703
 7314SOL     OW22840   7.018   4.333   6.857
 7314SOL    HW122841   0.091   4.314   6.862
 7314SOL    HW222842   6.979   4.331   6.949
 7315SOL     OW22843   0.203   5.236   1.996
 7315SOL    HW122844   0.194   5.229   2.095
 7315SOL    HW222845   0.158   5.320   1.965
 7316SOL     OW22846   3.072   2.362   6.528
 7316SOL    HW122847   2.974   2.358   6.512
 7316SOL    HW222848   3.121   2.357   6.441
 7317SOL     OW22849   3.609   1.427   1.878
 7317SOL    HW122850   3.621   1.346   1.821
 7317SOL    HW222851   3.678   1.427   1.951
 7318SOL     OW22852   3.638   0.033   2.180
 7318SOL    HW122853   3.555   0.014   2.233
 7318SOL    HW222854   3.634   7.009   2.093
 7319SOL     OW22855   6.477   4.761   0.612
 7319SOL    HW122856   6.471   4.775   0.513
 7319SOL    HW222857   6.462   4.664   0.632
 7320SOL     OW22858   7.013   3.541   0.720
 7320SOL    HW122859   0.001   3.621   0.779
 7320SOL    HW222860   6.930   3.493   0.747
 7321SOL     OW22861   2.698   6.057   6.427
 7321SOL    HW122862   2.738   6.102   6.347
 7321SOL    HW222863   2.674   5.963   6.403
 7322SOL     OW22864   0.860   1.786   2.250
 7322SOL    HW122865   0.815   1.740   2.174
 7322SOL    HW222866   0.953   1.750   2.260
 7323SOL     OW22867   1.742   1.914   1.024
 7323SOL    HW122868   1.822   1.903   1.082
 7323SOL    HW222869   1.757   1.867   0.937
 7324SOL     OW22870   5.604   4.872   3.189
 7324SOL    HW122871   5.611   4.966   3.222
 7324SOL    HW222872   5.601   4.871   3.089
 7325SOL     OW22873   3.991   0.248   5.954
 7325SOL    HW122874   4.016   0.285   6.043
 7325SOL    HW222875   3.930   0.311   5.906
 7326SOL     OW22876   2.965   0.897   6.548
 7326SOL    HW122877   2.953   0.799   6.567
 7326SOL    HW222878   2.917   0.950   6.617
 7327SOL     OW22879   6.065   3.997   3.544
 7327SOL    HW122880   6.120   3.918   3.573
 7327SOL    HW222881   6.126   4.073   3.522
 7328SOL     OW22882   3.886   5.188   5.331
 7328SOL    HW122883   3.880   5.273   5.278
 7328SOL    HW222884   3.795   5.150   5.345
 7329SOL     OW22885   2.313   2.819   0.490
 7329SOL    HW122886   2.292   2.917   0.488
 7329SOL    HW222887   2.228   2.767   0.498
 7330SOL     OW22888   3.479   2.757   1.698
 7330SOL    HW122889   3.556   2.706   1.737
 7330SOL    HW222890   3.466   2.731   1.603
 7331SOL     OW22891   4.674   0.244   1.843
 7331SOL    HW122892   4.648   0.165   1.788
 7331SOL    HW222893   4.632   0.237   1.934
 7332SOL     OW22894   3.538   3.854   0.016
 7332SOL    HW122895   3.548   3.944   0.058
 7332SOL    HW222896   3.583   3.854   6.952
 7333SOL     OW22897   6.327   2.867   1.691
 7333SOL    HW122898   6.248   2.817   1.653
 7333SOL    HW222899   6.294   2.945   1.744
 7334SOL     OW22900   2.664   0.292   5.262
 7334SOL    HW122901   2.712   0.359   5.205
 7334SOL    HW222902   2.695   0.300   5.357
 7335SOL     OW22903   6.992   2.970   2.732
 7335SOL    HW122904   6.980   3.043   2.799
 7335SOL    HW222905   6.970   2.882   2.773
 7336SOL     OW22906   1.352   5.972   0.752
 7336SOL    HW122907   1.253   5.986   0.752
 7336SOL    HW222908   1.372   5.874   0.759
 7337SOL     OW22909   2.604   2.485   1.986
 7337SOL    HW122910   2.699   2.453   1.993
 7337SOL    HW222911   2.578   2.491   1.890
 7338SOL     OW22912   5.692   3.037   1.538
 7338SOL    HW122913   5.618   2.983   1.498
 7338SOL    HW222914   5.662   3.073   1.627
 7339SOL     OW22915   0.012   6.126   5.310
 7339SOL    HW122916   0.003   6.141   5.212
 7339SOL    HW222917   0.037   6.031   5.328
 7340SOL     OW22918   2.705   0.843   6.917
 7340SOL    HW122919   2.648   0.797   6.849
 7340SOL    HW222920   2.760   0.913   6.872
 7341SOL     OW22921   0.231   5.144   3.768
 7341SOL    HW122922   0.281   5.215   3.719
 7341SOL    HW222923   0.286   5.110   3.844
 7342SOL     OW22924   6.828   0.295   0.090
 7342SOL    HW122925   6.736   0.257   0.081
 7342SOL    HW222926   6.828   0.368   0.158
 7343SOL     OW22927   5.704   4.079   2.653
 7343SOL    HW122928   5.782   4.060   2.711
 7343SOL    HW222929   5.660   4.164   2.683
 7344SOL     OW22930   1.935   6.673   6.466
 7344SOL    HW122931   1.904   6.614   6.391
 7344SOL    HW222932   1.881   6.655   6.547
 7345SOL     OW22933   4.036   5.013   5.772
 7345SOL    HW122934   3.995   4.957   5.699
 7345SOL    HW222935   3.986   5.099   5.779
 7346SOL     OW22936   3.696   4.608   0.852
 7346SOL    HW122937   3.612   4.635   0.806
 7346SOL    HW222938   3.687   4.514   0.886
 7347SOL     OW22939   6.350   2.103   2.433
 7347SOL    HW122940   6.430   2.164   2.421
 7347SOL    HW222941   6.337   2.050   2.349
 7348SOL     OW22942   1.307   2.911   3.770
 7348SOL    HW122943   1.230   2.901   3.707
 7348SOL    HW222944   1.285   2.866   3.857
 7349SOL     OW22945   3.656   1.955   1.164
 7349SOL    HW122946   3.601   2.003   1.232
 7349SOL    HW222947   3.626   1.860   1.157
 7350SOL     OW22948   0.614   2.617   3.751
 7350SOL    HW122949   0.633   2.520   3.743
 7350SOL    HW222950   0.666   2.668   3.682
 7351SOL     OW22951   4.191   4.729   6.005
 7351SOL    HW122952   4.272   4.780   5.977
 7351SOL    HW222953   4.218   4.639   6.040
 7352SOL     OW22954   1.529   1.875   2.302
 7352SOL    HW122955   1.566   1.790   2.266
 7352SOL    HW222956   1.554   1.884   2.398
 7353SOL     OW22957   6.320   1.767   4.818
 7353SOL    HW122958   6.276   1.769   4.908
 7353SOL    HW222959   6.354   1.859   4.795
 7354SOL     OW22960   6.486   0.312   6.387
 7354SOL    HW122961   6.529   0.350   6.304
 7354SOL    HW222962   6.389   0.334   6.387
 7355SOL     OW22963   0.762   5.782   1.673
 7355SOL    HW122964   0.781   5.688   1.702
 7355SOL    HW222965   0.790   5.845   1.745
 7356SOL     OW22966   6.331   1.826   6.610
 7356SOL    HW122967   6.260   1.757   6.602
 7356SOL    HW222968   6.398   1.814   6.537
 7357SOL     OW22969   4.827   1.245   0.034
 7357SOL    HW122970   4.836   1.245   0.134
 7357SOL    HW222971   4.897   1.185   7.020
 7358SOL     OW22972   3.742   2.085   3.782
 7358SOL    HW122973   3.748   1.986   3.799
 7358SOL    HW222974   3.748   2.135   3.868
 7359SOL     OW22975   3.836   3.147   2.812
 7359SOL    HW122976   3.837   3.098   2.724
 7359SOL    HW222977   3.913   3.212   2.814
 7360SOL     OW22978   1.476   2.395   5.397
 7360SOL    HW122979   1.554   2.454   5.378
 7360SOL    HW222980   1.396   2.426   5.345
 7361SOL     OW22981   5.198   6.822   0.910
 7361SOL    HW122982   5.199   6.794   0.814
 7361SOL    HW222983   5.158   6.749   0.965
 7362SOL     OW22984   1.135   6.632   4.824
 7362SOL    HW122985   1.107   6.644   4.728
 7362SOL    HW222986   1.054   6.618   4.881
 7363SOL     OW22987   5.733   2.537   0.012
 7363SOL    HW122988   5.680   2.541   0.097
 7363SOL    HW222989   5.775   2.626   7.021
 7364SOL     OW22990   4.374   6.973   0.787
 7364SOL    HW122991   4.421   6.923   0.714
 7364SOL    HW222992   4.304   0.007   0.748
 7365SOL     OW22993   3.148   0.562   2.635
 7365SOL    HW122994   3.155   0.473   2.591
 7365SOL    HW222995   3.093   0.554   2.719
 7366SOL     OW22996   1.139   5.588   6.690
 7366SOL    HW122997   1.111   5.571   6.596
 7366SOL    HW222998   1.191   5.673   6.695
 7367SOL     OW22999   5.259   3.906   1.206
 7367SOL    HW123000   5.305   3.839   1.264
 7367SOL    HW223001   5.327   3.969   1.168
 7368SOL     OW23002   3.282   3.340   4.378
 7368SOL    HW123003   3.189   3.335   4.340
 7368SOL    HW223004   3.336   3.406   4.324
 7369SOL     OW23005   5.081   3.779   1.459
 7369SOL    HW123006   5.161   3.838   1.445
 7369SOL    HW223007   5.069   3.720   1.379
 7370SOL     OW23008   2.259   6.908   0.313
 7370SOL    HW123009   2.274   6.945   0.221
 7370SOL    HW223010   2.338   6.852   0.339
 7371SOL     OW23011   2.930   5.323   3.988
 7371SOL    HW123012   2.929   5.315   3.888
 7371SOL    HW223013   2.957   5.236   4.028
 7372SOL     OW23014   4.186   0.443   5.368
 7372SOL    HW123015   4.091   0.475   5.366
 7372SOL    HW223016   4.205   0.390   5.285
 7373SOL     OW23017   4.008   1.139   3.572
 7373SOL    HW123018   4.062   1.202   3.628
 7373SOL    HW223019   3.982   1.060   3.628
 7374SOL     OW23020   1.478   2.976   5.591
 7374SOL    HW123021   1.494   2.959   5.494
 7374SOL    HW223022   1.383   2.955   5.614
 7375SOL     OW23023   1.283   1.556   5.062
 7375SOL    HW123024   1.327   1.602   4.984
 7375SOL    HW223025   1.233   1.476   5.029
 7376SOL     OW23026   2.887   2.909   0.058
 7376SOL    HW123027   2.924   2.989   0.105
 7376SOL    HW223028   2.814   2.869   0.112
 7377SOL     OW23029   4.792   4.406   1.576
 7377SOL    HW123030   4.765   4.414   1.672
 7377SOL    HW223031   4.768   4.316   1.541
 7378SOL     OW23032   0.377   2.202   4.868
 7378SOL    HW123033   0.342   2.195   4.774
 7378SOL    HW223034   0.369   2.113   4.913
 7379SOL     OW23035   4.169   1.114   2.153
 7379SOL    HW123036   4.196   1.097   2.058
 7379SOL    HW223037   4.086   1.171   2.153
 7380SOL     OW23038   6.557   3.121   5.938
 7380SOL    HW123039   6.641   3.149   5.984
 7380SOL    HW223040   6.540   3.182   5.860
 7381SOL     OW23041   4.946   3.017   2.454
 7381SOL    HW123042   4.926   2.936   2.398
 7381SOL    HW223043   4.991   3.086   2.397
 7382SOL     OW23044   0.531   4.399   4.873
 7382SOL    HW123045   0.571   4.382   4.782
 7382SOL    HW223046   0.435   4.371   4.873
 7383SOL     OW23047   0.625   6.355   2.058
 7383SOL    HW123048   0.678   6.405   1.989
 7383SOL    HW223049   0.562   6.292   2.012
 7384SOL     OW23050   5.102   0.097   2.270
 7384SOL    HW123051   5.132   0.113   2.364
 7384SOL    HW223052   5.175   0.124   2.207
 7385SOL     OW23053   4.572   6.169   2.117
 7385SOL    HW123054   4.517   6.174   2.201
 7385SOL    HW223055   4.668   6.156   2.142
 7386SOL     OW23056   0.878   2.377   5.650
 7386SOL    HW123057   0.908   2.295   5.601
 7386SOL    HW223058   0.950   2.446   5.648
 7387SOL     OW23059   4.173   5.537   4.377
 7387SOL    HW123060   4.137   5.460   4.431
 7387SOL    HW223061   4.100   5.574   4.320
 7388SOL     OW23062   6.837   5.315   4.043
 7388SOL    HW123063   6.744   5.279   4.033
 7388SOL    HW223064   6.902   5.251   4.002
 7389SOL     OW23065   1.382   4.208   7.023
 7389SOL    HW123066   1.442   4.284   6.997
 7389SOL    HW223067   1.298   4.245   0.037
 7390SOL     OW23068   0.128   1.668   6.604
 7390SOL    HW123069   0.028   1.664   6.611
 7390SOL    HW223070   0.157   1.763   6.614
 7391SOL     OW23071   5.601   3.961   6.279
 7391SOL    HW123072   5.671   3.962   6.207
 7391SOL    HW223073   5.517   4.002   6.244
 7392SOL     OW23074   1.741   5.934   5.477
 7392SOL    HW123075   1.790   5.959   5.393
 7392SOL    HW223076   1.644   5.918   5.455
 7393SOL     OW23077   6.211   5.453   2.111
 7393SOL    HW123078   6.151   5.532   2.097
 7393SOL    HW223079   6.306   5.479   2.091
 7394SOL     OW23080   3.600   3.500   6.548
 7394SOL    HW123081   3.508   3.529   6.575
 7394SOL    HW223082   3.594   3.418   6.491
 7395SOL     OW23083   0.493   0.245   6.398
 7395SOL    HW123084   0.589   0.254   6.424
 7395SOL    HW223085   0.460   0.154   6.423
 7396SOL     OW23086   1.710   0.775   5.656
 7396SOL    HW123087   1.722   0.707   5.728
 7396SOL    HW223088   1.752   0.743   5.571
 7397SOL     OW23089   6.541   4.328   4.696
 7397SOL    HW123090   6.552   4.428   4.698
 7397SOL    HW223091   6.447   4.306   4.671
 7398SOL     OW23092   4.372   5.541   3.429
 7398SOL    HW123093   4.303   5.576   3.492
 7398SOL    HW223094   4.456   5.521   3.480
 7399SOL     OW23095   6.336   4.449   5.584
 7399SOL    HW123096   6.413   4.506   5.555
 7399SOL    HW223097   6.285   4.495   5.657
 7400SOL     OW23098   2.928   4.111   6.873
 7400SOL    HW123099   2.853   4.146   6.929
 7400SOL    HW223100   2.916   4.012   6.862
 7401SOL     OW23101   0.086   1.203   4.036
 7401SOL    HW123102   0.057   1.290   4.078
 7401SOL    HW223103   0.090   1.132   4.106
 7402SOL     OW23104   2.239   6.881   3.908
 7402SOL    HW123105   2.162   6.835   3.952
 7402SOL    HW223106   2.317   6.880   3.971
 7403SOL     OW23107   1.711   3.297   3.634
 7403SOL    HW123108   1.685   3.250   3.718
 7403SOL    HW223109   1.738   3.391   3.655
 7404SOL     OW23110   1.739   0.432   0.610
 7404SOL    HW123111   1.821   0.378   0.625
 7404SOL    HW223112   1.685   0.434   0.694
 7405SOL     OW23113   2.192   5.057   4.985
 7405SOL    HW123114   2.188   5.157   4.990
 7405SOL    HW223115   2.201   5.029   4.889
 7406SOL     OW23116   1.513   3.672   2.421
 7406SOL    HW123117   1.587   3.655   2.356
 7406SOL    HW223118   1.548   3.721   2.501
 7407SOL     OW23119   0.568   6.011   4.992
 7407SOL    HW123120   0.500   6.039   5.060
 7407SOL    HW223121   0.629   5.942   5.032
 7408SOL     OW23122   2.376   4.140   6.108
 7408SOL    HW123123   2.392   4.229   6.151
 7408SOL    HW223124   2.294   4.144   6.051
 7409SOL     OW23125   0.882   1.236   4.565
 7409SOL    HW123126   0.850   1.171   4.634
 7409SOL    HW223127   0.923   1.187   4.488
 7410SOL     OW23128   0.228   4.612   1.103
 7410SOL    HW123129   0.180   4.699   1.093
 7410SOL    HW223130   0.314   4.626   1.152
 7411SOL     OW23131   2.581   6.999   4.403
 7411SOL    HW123132   2.511   0.033   4.365
 7411SOL    HW223133   2.538   6.920   4.447
 7412SOL     OW23134   2.431   0.741   0.992
 7412SOL    HW123135   2.358   0.737   0.924
 7412SOL    HW223136   2.516   0.707   0.951
 7413SOL     OW23137   0.555   3.421   3.844
 7413SOL    HW123138   0.506   3.456   3.924
 7413SOL    HW223139   0.536   3.323   3.834
 7414SOL     OW23140   6.027   6.882   2.341
 7414SOL    HW123141   6.110   6.907   2.291
 7414SOL    HW223142   5.947   6.914   2.290
 7415SOL     OW23143   1.461   3.116   2.832
 7415SOL    HW123144   1.554   3.137   2.802
 7415SOL    HW223145   1.416   3.060   2.763
 7416SOL     OW23146   3.511   1.405   4.431
 7416SOL    HW123147   3.509   1.422   4.333
 7416SOL    HW223148   3.505   1.492   4.480
 7417SOL     OW23149   1.543   6.664   6.088
 7417SOL    HW123150   1.476   6.645   6.161
 7417SOL    HW223151   1.517   6.747   6.040
 7418SOL     OW23152   2.828   4.109   1.678
 7418SOL    HW123153   2.901   4.177   1.680
 7418SOL    HW223154   2.852   4.037   1.613
 7419SOL     OW23155   6.008   1.977   4.480
 7419SOL    HW123156   6.009   1.909   4.553
 7419SOL    HW223157   6.070   2.052   4.505
 7420SOL     OW23158   6.674   6.675   2.237
 7420SOL    HW123159   6.584   6.682   2.195
 7420SOL    HW223160   6.694   6.761   2.285
 7421SOL     OW23161   3.484   3.773   1.519
 7421SOL    HW123162   3.471   3.714   1.599
 7421SOL    HW223163   3.576   3.759   1.481
 7422SOL     OW23164   0.164   3.466   1.141
 7422SOL    HW123165   0.156   3.523   1.059
 7422SOL    HW223166   0.186   3.372   1.114
 7423SOL     OW23167   2.113   4.606   6.222
 7423SOL    HW123168   2.025   4.632   6.183
 7423SOL    HW223169   2.172   4.687   6.227
 7424SOL     OW23170   5.931   1.717   4.332
 7424SOL    HW123171   5.972   1.805   4.310
 7424SOL    HW223172   5.885   1.723   4.421
 7425SOL     OW23173   3.749   4.426   6.360
 7425SOL    HW123174   3.836   4.442   6.314
 7425SOL    HW223175   3.725   4.507   6.414
 7426SOL     OW23176   0.230   2.200   0.022
 7426SOL    HW123177   0.190   2.140   0.091
 7426SOL    HW223178   0.195   2.293   0.034
 7427SOL     OW23179   3.107   5.867   4.439
 7427SOL    HW123180   3.107   5.776   4.480
 7427SOL    HW223181   3.040   5.869   4.364
 7428SOL     OW23182   3.511   2.075   5.485
 7428SOL    HW123183   3.609   2.089   5.503
 7428SOL    HW223184   3.476   2.153   5.433
 7429SOL     OW23185   6.884   0.324   2.741
 7429SOL    HW123186   6.928   0.413   2.725
 7429SOL    HW223187   6.888   0.302   2.838
 7430SOL     OW23188   6.928   4.229   5.517
 7430SOL    HW123189   7.020   4.199   5.543
 7430SOL    HW223190   6.905   4.312   5.568
 7431SOL     OW23191   0.911   3.626   1.594
 7431SOL    HW123192   0.835   3.603   1.655
 7431SOL    HW223193   0.875   3.654   1.505
 7432SOL     OW23194   0.990   6.427   3.548
 7432SOL    HW123195   0.899   6.393   3.524
 7432SOL    HW223196   0.981   6.498   3.618
 7433SOL     OW23197   6.351   5.428   1.176
 7433SOL    HW123198   6.311   5.493   1.241
 7433SOL    HW223199   6.435   5.390   1.214
 7434SOL     OW23200   2.686   1.996   0.088
 7434SOL    HW123201   2.783   2.016   0.104
 7434SOL    HW223202   2.656   1.924   0.151
 7435SOL     OW23203   3.623   6.660   5.897
 7435SOL    HW123204   3.598   6.581   5.841
 7435SOL    HW223205   3.546   6.686   5.954
 7436SOL     OW23206   5.870   3.167   0.173
 7436SOL    HW123207   5.938   3.221   0.124
 7436SOL    HW223208   5.907   3.141   0.263
 7437SOL     OW23209   6.762   4.962   6.120
 7437SOL    HW123210   6.709   5.012   6.051
 7437SOL    HW223211   6.858   4.960   6.093
 7438SOL     OW23212   0.826   4.080   2.236
 7438SOL    HW123213   0.800   4.007   2.299
 7438SOL    HW223214   0.884   4.146   2.284
 7439SOL     OW23215   2.549   0.009   3.838
 7439SOL    HW123216   2.621   0.079   3.840
 7439SOL    HW223217   2.527   7.007   3.932
 7440SOL     OW23218   1.347   3.168   4.784
 7440SOL    HW123219   1.412   3.238   4.754
 7440SOL    HW223220   1.284   3.147   4.710
 7441SOL     OW23221   5.279   0.666   3.748
 7441SOL    HW123222   5.233   0.754   3.738
 7441SOL    HW223223   5.211   0.592   3.741
 7442SOL     OW23224   1.013   1.474   6.544
 7442SOL    HW123225   0.944   1.532   6.586
 7442SOL    HW223226   1.095   1.472   6.601
 7443SOL     OW23227   6.819   1.764   0.765
 7443SOL    HW123228   6.908   1.796   0.731
 7443SOL    HW223229   6.786   1.691   0.706
 7444SOL     OW23230   6.839   3.244   6.555
 7444SOL    HW123231   6.779   3.295   6.494
 7444SOL    HW223232   6.831   3.281   6.648
 7445SOL     OW23233   5.014   1.786   1.557
 7445SOL    HW123234   4.995   1.719   1.628
 7445SOL    HW223235   4.928   1.817   1.516
 7446SOL     OW23236   6.158   4.075   6.899
 7446SOL    HW123237   6.132   4.026   6.982
 7446SOL    HW223238   6.234   4.027   6.854
 7447SOL     OW23239   1.955   4.774   0.004
 7447SOL    HW123240   2.002   4.850   0.048
 7447SOL    HW223241   2.022   4.704   7.003
 7448SOL     OW23242   5.404   6.779   5.528
 7448SOL    HW123243   5.430   6.700   5.584
 7448SOL    HW223244   5.341   6.749   5.456
 7449SOL     OW23245   4.839   2.539   1.992
 7449SOL    HW123246   4.771   2.507   2.058
 7449SOL    HW223247   4.795   2.600   1.926
 7450SOL     OW23248   5.069   2.577   3.423
 7450SOL    HW123249   5.121   2.570   3.508
 7450SOL    HW223250   5.110   2.649   3.366
 7451SOL     OW23251   1.696   0.685   4.391
 7451SOL    HW123252   1.792   0.700   4.419
 7451SOL    HW223253   1.661   0.769   4.349
 7452SOL     OW23254   1.969   0.725   4.940
 7452SOL    HW123255   1.882   0.775   4.938
 7452SOL    HW223256   1.960   0.646   5.001
 7453SOL     OW23257   5.774   6.329   5.022
 7453SOL    HW123258   5.837   6.290   5.088
 7453SOL    HW223259   5.816   6.329   4.931
 7454SOL     OW23260   0.734   3.526   1.370
 7454SOL    HW123261   0.749   3.623   1.354
 7454SOL    HW223262   0.742   3.475   1.284
 7455SOL     OW23263   5.403   1.969   0.826
 7455SOL    HW123264   5.340   2.035   0.785
 7455SOL    HW223265   5.482   2.018   0.864
 7456SOL     OW23266   1.470   2.636   4.859
 7456SOL    HW123267   1.492   2.630   4.762
 7456SOL    HW223268   1.456   2.732   4.885
 7457SOL     OW23269   5.856   0.946   5.365
 7457SOL    HW123270   5.835   1.021   5.301
 7457SOL    HW223271   5.771   0.902   5.394
 7458SOL     OW23272   2.539   6.991   0.474
 7458SOL    HW123273   2.490   0.052   0.461
 7458SOL    HW223274   2.636   7.005   0.455
 7459SOL     OW23275   4.535   0.269   6.191
 7459SOL    HW123276   4.487   0.183   6.173
 7459SOL    HW223277   4.632   0.250   6.208
 7460SOL     OW23278   2.358   5.113   0.981
 7460SOL    HW123279   2.386   5.206   0.957
 7460SOL    HW223280   2.329   5.111   1.076
 7461SOL     OW23281   5.096   1.373   5.955
 7461SOL    HW123282   5.095   1.473   5.963
 7461SOL    HW223283   5.185   1.338   5.983
 7462SOL     OW23284   2.127   1.949   1.647
 7462SOL    HW123285   2.043   1.975   1.695
 7462SOL    HW223286   2.167   2.029   1.604
 7463SOL     OW23287   3.386   3.097   1.308
 7463SOL    HW123288   3.371   3.070   1.403
 7463SOL    HW223289   3.449   3.033   1.264
 7464SOL     OW23290   3.516   5.738   0.359
 7464SOL    HW123291   3.533   5.647   0.397
 7464SOL    HW223292   3.448   5.731   0.286
 7465SOL     OW23293   1.562   0.240   0.850
 7465SOL    HW123294   1.493   0.226   0.779
 7465SOL    HW223295   1.584   0.337   0.856
 7466SOL     OW23296   0.784   0.670   6.603
 7466SOL    HW123297   0.780   0.682   6.504
 7466SOL    HW223298   0.877   0.646   6.631
 7467SOL     OW23299   6.913   2.207   1.311
 7467SOL    HW123300   6.950   2.224   1.402
 7467SOL    HW223301   6.816   2.185   1.319
 7468SOL     OW23302   4.847   2.258   2.343
 7468SOL    HW123303   4.786   2.227   2.269
 7468SOL    HW223304   4.885   2.348   2.318
 7469SOL     OW23305   0.924   0.051   6.444
 7469SOL    HW123306   0.879   7.002   6.397
 7469SOL    HW223307   1.012   0.021   6.479
 7470SOL     OW23308   0.724   2.502   2.691
 7470SOL    HW123309   0.700   2.584   2.743
 7470SOL    HW223310   0.661   2.494   2.613
 7471SOL     OW23311   6.682   6.535   5.008
 7471SOL    HW123312   6.600   6.576   5.049
 7471SOL    HW223313   6.680   6.436   5.022
 7472SOL     OW23314   4.238   6.941   4.405
 7472SOL    HW123315   4.233   6.841   4.401
 7472SOL    HW223316   4.208   6.973   4.495
 7473SOL     OW23317   0.281   3.800   3.810
 7473SOL    HW123318   0.221   3.853   3.750
 7473SOL    HW223319   0.333   3.734   3.756
 7474SOL     OW23320   2.697   1.109   3.964
 7474SOL    HW123321   2.601   1.113   3.934
 7474SOL    HW223322   2.757   1.130   3.887
 7475SOL     OW23323   4.912   0.373   2.177
 7475SOL    HW123324   4.843   0.440   2.202
 7475SOL    HW223325   4.917   0.366   2.077
 7476SOL     OW23326   4.582   6.263   4.786
 7476SOL    HW123327   4.600   6.257   4.688
 7476SOL    HW223328   4.647   6.326   4.829
 7477SOL     OW23329   4.095   0.883   4.102
 7477SOL    HW123330   4.177   0.851   4.150
 7477SOL    HW223331   4.112   0.974   4.064
 7478SOL     OW23332   3.551   3.845   6.035
 7478SOL    HW123333   3.494   3.764   6.020
 7478SOL    HW223334   3.554   3.866   6.132
 7479SOL     OW23335   3.965   1.405   0.661
 7479SOL    HW123336   3.907   1.387   0.741
 7479SOL    HW223337   3.997   1.318   0.623
 7480SOL     OW23338   6.068   5.918   1.602
 7480SOL    HW123339   6.110   5.864   1.530
 7480SOL    HW223340   6.027   5.858   1.670
 7481SOL     OW23341   5.471   5.312   1.016
 7481SOL    HW123342   5.538   5.376   0.978
 7481SOL    HW223343   5.418   5.358   1.088
 7482SOL     OW23344   3.914   0.971   1.850
 7482SOL    HW123345   3.871   1.015   1.928
 7482SOL    HW223346   3.857   0.894   1.819
 7483SOL     OW23347   3.759   1.595   4.334
 7483SOL    HW123348   3.849   1.550   4.336
 7483SOL    HW223349   3.742   1.636   4.424
 7484SOL     OW23350   0.730   6.720   1.899
 7484SOL    HW123351   0.666   6.741   1.973
 7484SOL    HW223352   0.787   6.800   1.881
 7485SOL     OW23353   2.703   6.431   5.189
 7485SOL    HW123354   2.622   6.376   5.167
 7485SOL    HW223355   2.785   6.380   5.164
 7486SOL     OW23356   2.829   7.010   5.333
 7486SOL    HW123357   2.888   6.956   5.274
 7486SOL    HW223358   2.743   6.961   5.348
 7487SOL     OW23359   2.095   6.647   2.366
 7487SOL    HW123360   2.042   6.657   2.450
 7487SOL    HW223361   2.063   6.566   2.316
 7488SOL     OW23362   2.469   0.113   5.316
 7488SOL    HW123363   2.545   0.176   5.298
 7488SOL    HW223364   2.504   0.027   5.351
 7489SOL     OW23365   4.811   2.428   5.052
 7489SOL    HW123366   4.902   2.400   5.020
 7489SOL    HW223367   4.749   2.436   4.974
 7490SOL     OW23368   0.292   0.629   0.745
 7490SOL    HW123369   0.315   0.701   0.810
 7490SOL    HW223370   0.277   0.669   0.655
 7491SOL     OW23371   0.711   5.239   6.281
 7491SOL    HW123372   0.659   5.324   6.274
 7491SOL    HW223373   0.698   5.185   6.198
 7492SOL     OW23374   2.461   2.018   5.732
 7492SOL    HW123375   2.365   2.017   5.706
 7492SOL    HW223376   2.480   1.944   5.796
 7493SOL     OW23377   6.384   4.637   6.018
 7493SOL    HW123378   6.405   4.669   5.925
 7493SOL    HW223379   6.438   4.690   6.084
 7494SOL     OW23380   5.397   0.878   2.348
 7494SOL    HW123381   5.322   0.868   2.414
 7494SOL    HW223382   5.408   0.975   2.325
 7495SOL     OW23383   1.508   1.569   1.030
 7495SOL    HW123384   1.478   1.633   1.101
 7495SOL    HW223385   1.495   1.475   1.062
 7496SOL     OW23386   1.854   4.753   5.781
 7496SOL    HW123387   1.823   4.824   5.844
 7496SOL    HW223388   1.855   4.665   5.829
 7497SOL     OW23389   2.795   5.446   2.093
 7497SOL    HW123390   2.855   5.367   2.086
 7497SOL    HW223391   2.738   5.452   2.011
 7498SOL     OW23392   3.027   0.730   4.229
 7498SOL    HW123393   3.065   0.801   4.288
 7498SOL    HW223394   2.979   0.772   4.152
 7499SOL     OW23395   6.293   0.162   3.443
 7499SOL    HW123396   6.209   0.217   3.452
 7499SOL    HW223397   6.329   0.141   3.534
 7500SOL     OW23398   4.078   5.937   2.397
 7500SOL    HW123399   4.072   6.033   2.425
 7500SOL    HW223400   4.005   5.885   2.442
 7501SOL     OW23401   0.231   4.038   3.594
 7501SOL    HW123402   0.192   4.065   3.506
 7501SOL    HW223403   0.327   4.067   3.598
 7502SOL     OW23404   1.744   1.269   5.264
 7502SOL    HW123405   1.684   1.199   5.225
 7502SOL    HW223406   1.697   1.314   5.339
 7503SOL     OW23407   2.595   0.734   6.675
 7503SOL    HW123408   2.603   0.648   6.726
 7503SOL    HW223409   2.640   0.724   6.586
 7504SOL     OW23410   4.010   6.518   3.686
 7504SOL    HW123411   3.952   6.452   3.734
 7504SOL    HW223412   4.091   6.471   3.650
 7505SOL     OW23413   3.231   1.372   5.433
 7505SOL    HW123414   3.230   1.313   5.513
 7505SOL    HW223415   3.229   1.468   5.462
 7506SOL     OW23416   3.700   0.916   2.518
 7506SOL    HW123417   3.761   0.887   2.445
 7506SOL    HW223418   3.723   1.009   2.545
 7507SOL     OW23419   0.369   6.692   6.563
 7507SOL    HW123420   0.381   6.686   6.464
 7507SOL    HW223421   0.457   6.687   6.609
 7508SOL     OW23422   5.541   6.463   2.070
 7508SOL    HW123423   5.485   6.381   2.058
 7508SOL    HW223424   5.549   6.511   1.983
 7509SOL     OW23425   4.815   4.229   0.744
 7509SOL    HW123426   4.772   4.139   0.737
 7509SOL    HW223427   4.766   4.285   0.811
 7510SOL     OW23428   3.235   4.131   4.650
 7510SOL    HW123429   3.135   4.142   4.652
 7510SOL    HW223430   3.259   4.039   4.680
 7511SOL     OW23431   1.520   0.277   2.328
 7511SOL    HW123432   1.577   0.350   2.290
 7511SOL    HW223433   1.579   0.205   2.365
 7512SOL     OW23434   3.072   4.102   1.516
 7512SOL    HW123435   3.057   4.175   1.582
 7512SOL    HW223436   3.162   4.061   1.531
 7513SOL     OW23437   1.437   2.894   0.199
 7513SOL    HW123438   1.434   2.867   0.103
 7513SOL    HW223439   1.458   2.991   0.206
 7514SOL     OW23440   3.058   6.570   2.000
 7514SOL    HW123441   2.984   6.519   2.045
 7514SOL    HW223442   3.127   6.505   1.967
 7515SOL     OW23443   0.808   0.391   3.197
 7515SOL    HW123444   0.760   0.476   3.219
 7515SOL    HW223445   0.880   0.410   3.130
 7516SOL     OW23446   6.444   6.354   4.323
 7516SOL    HW123447   6.421   6.413   4.401
 7516SOL    HW223448   6.448   6.259   4.354
 7517SOL     OW23449   6.881   3.791   1.092
 7517SOL    HW123450   6.831   3.845   1.160
 7517SOL    HW223451   6.978   3.787   1.117
 7518SOL     OW23452   3.893   5.603   3.442
 7518SOL    HW123453   3.897   5.561   3.351
 7518SOL    HW223454   3.897   5.531   3.511
 7519SOL     OW23455   0.996   6.473   4.079
 7519SOL    HW123456   0.994   6.437   4.173
 7519SOL    HW223457   1.012   6.572   4.083
 7520SOL     OW23458   2.089   0.584   2.128
 7520SOL    HW123459   2.134   0.648   2.066
 7520SOL    HW223460   2.137   0.496   2.126
 7521SOL     OW23461   4.425   4.491   5.410
 7521SOL    HW123462   4.401   4.426   5.482
 7521SOL    HW223463   4.505   4.544   5.438
 7522SOL     OW23464   2.665   1.013   6.415
 7522SOL    HW123465   2.753   0.974   6.444
 7522SOL    HW223466   2.650   0.993   6.319
 7523SOL     OW23467   6.339   0.486   5.445
 7523SOL    HW123468   6.245   0.516   5.425
 7523SOL    HW223469   6.337   0.394   5.484
 7524SOL     OW23470   6.877   2.010   6.192
 7524SOL    HW123471   6.881   2.079   6.120
 7524SOL    HW223472   6.844   1.924   6.154
 7525SOL     OW23473   2.021   6.820   6.916
 7525SOL    HW123474   2.017   6.800   6.818
 7525SOL    HW223475   2.104   6.873   6.936
 7526SOL     OW23476   3.288   3.007   3.812
 7526SOL    HW123477   3.375   3.034   3.772
 7526SOL    HW223478   3.303   2.971   3.904
 7527SOL     OW23479   4.637   4.757   2.011
 7527SOL    HW123480   4.637   4.856   2.018
 7527SOL    HW223481   4.730   4.722   2.019
 7528SOL     OW23482   4.546   2.275   0.488
 7528SOL    HW123483   4.615   2.286   0.416
 7528SOL    HW223484   4.572   2.200   0.548
 7529SOL     OW23485   5.116   1.488   3.712
 7529SOL    HW123486   5.103   1.480   3.613
 7529SOL    HW223487   5.211   1.468   3.736
 7530SOL     OW23488   0.103   3.066   2.145
 7530SOL    HW123489   0.098   3.062   2.245
 7530SOL    HW223490   0.012   3.060   2.106
 7531SOL     OW23491   4.693   1.748   3.965
 7531SOL    HW123492   4.728   1.762   3.872
 7531SOL    HW223493   4.746   1.676   4.010
 7532SOL     OW23494   5.261   5.457   2.058
 7532SOL    HW123495   5.206   5.512   1.995
 7532SOL    HW223496   5.273   5.507   2.144
 7533SOL     OW23497   1.732   1.137   3.021
 7533SOL    HW123498   1.657   1.192   3.057
 7533SOL    HW223499   1.762   1.072   3.090
 7534SOL     OW23500   3.758   5.937   4.959
 7534SOL    HW123501   3.746   5.985   4.872
 7534SOL    HW223502   3.749   6.003   5.034
 7535SOL     OW23503   2.544   1.349   6.045
 7535SOL    HW123504   2.497   1.400   5.973
 7535SOL    HW223505   2.503   1.259   6.055
 7536SOL     OW23506   5.189   5.008   5.198
 7536SOL    HW123507   5.157   4.914   5.215
 7536SOL    HW223508   5.239   5.011   5.112
 7537SOL     OW23509   1.858   4.401   4.867
 7537SOL    HW123510   1.839   4.496   4.892
 7537SOL    HW223511   1.781   4.343   4.894
 7538SOL     OW23512   3.206   3.435   2.364
 7538SOL    HW123513   3.248   3.418   2.453
 7538SOL    HW223514   3.115   3.393   2.362
 7539SOL     OW23515   2.550   2.625   5.268
 7539SOL    HW123516   2.613   2.684   5.319
 7539SOL    HW223517   2.536   2.540   5.318
 7540SOL     OW23518   3.259   0.528   6.403
 7540SOL    HW123519   3.318   0.607   6.393
 7540SOL    HW223520   3.278   0.483   6.491
 7541SOL     OW23521   6.717   3.811   5.733
 7541SOL    HW123522   6.773   3.893   5.728
 7541SOL    HW223523   6.623   3.832   5.707
 7542SOL     OW23524   1.345   6.891   6.038
 7542SOL    HW123525   1.366   6.978   5.992
 7542SOL    HW223526   1.257   6.900   6.086
 7543SOL     OW23527   3.806   1.522   0.449
 7543SOL    HW123528   3.861   1.463   0.508
 7543SOL    HW223529   3.791   1.610   0.494
 7544SOL     OW23530   0.008   1.900   3.284
 7544SOL    HW123531   6.939   1.895   3.316
 7544SOL    HW223532   0.031   1.817   3.233
 7545SOL     OW23533   4.565   6.410   3.221
 7545SOL    HW123534   4.663   6.400   3.206
 7545SOL    HW223535   4.523   6.452   3.141
 7546SOL     OW23536   4.560   0.663   0.032
 7546SOL    HW123537   4.610   0.724   6.996
 7546SOL    HW223538   4.513   0.718   0.102
 7547SOL     OW23539   4.162   6.715   0.328
 7547SOL    HW123540   4.213   6.634   0.299
 7547SOL    HW223541   4.223   6.795   0.327
 7548SOL     OW23542   2.160   1.853   0.195
 7548SOL    HW123543   2.103   1.816   0.122
 7548SOL    HW223544   2.123   1.941   0.226
 7549SOL     OW23545   5.911   1.689   2.029
 7549SOL    HW123546   5.895   1.613   1.966
 7549SOL    HW223547   5.864   1.671   2.116
 7550SOL     OW23548   2.063   5.978   2.482
 7550SOL    HW123549   2.123   6.058   2.473
 7550SOL    HW223550   2.108   5.910   2.541
 7551SOL     OW23551   4.894   3.720   0.006
 7551SOL    HW123552   4.852   3.763   0.086
 7551SOL    HW223553   4.847   3.634   7.012
 7552SOL     OW23554   2.497   5.518   3.751
 7552SOL    HW123555   2.426   5.567   3.801
 7552SOL    HW223556   2.467   5.499   3.658
 7553SOL     OW23557   3.656   4.735   5.998
 7553SOL    HW123558   3.661   4.824   5.952
 7553SOL    HW223559   3.583   4.738   6.067
 7554SOL     OW23560   4.952   2.001   0.200
 7554SOL    HW123561   5.017   1.941   0.152
 7554SOL    HW223562   4.864   1.999   0.152
 7555SOL     OW23563   0.791   5.582   5.598
 7555SOL    HW123564   0.769   5.601   5.502
 7555SOL    HW223565   0.713   5.538   5.642
 7556SOL     OW23566   0.177   3.193   5.707
 7556SOL    HW123567   0.189   3.146   5.794
 7556SOL    HW223568   0.111   3.267   5.718
 7557SOL     OW23569   5.051   3.851   6.215
 7557SOL    HW123570   5.143   3.831   6.182
 7557SOL    HW223571   5.031   3.796   6.296
 7558SOL     OW23572   2.521   2.505   3.925
 7558SOL    HW123573   2.596   2.463   3.873
 7558SOL    HW223574   2.490   2.442   3.996
 7559SOL     OW23575   6.315   5.671   1.290
 7559SOL    HW123576   6.226   5.716   1.279
 7559SOL    HW223577   6.344   5.675   1.385
 7560SOL     OW23578   4.919   6.982   6.797
 7560SOL    HW123579   4.969   6.937   6.870
 7560SOL    HW223580   4.945   6.942   6.709
 7561SOL     OW23581   0.534   3.871   0.410
 7561SOL    HW123582   0.480   3.791   0.434
 7561SOL    HW223583   0.583   3.855   0.324
 7562SOL     OW23584   5.270   6.211   4.584
 7562SOL    HW123585   5.290   6.194   4.488
 7562SOL    HW223586   5.259   6.124   4.632
 7563SOL     OW23587   3.105   6.990   1.375
 7563SOL    HW123588   3.040   6.998   1.299
 7563SOL    HW223589   3.136   0.056   1.401
 7564SOL     OW23590   4.763   0.994   3.198
 7564SOL    HW123591   4.694   0.924   3.183
 7564SOL    HW223592   4.852   0.951   3.214
 7565SOL     OW23593   4.455   4.799   6.704
 7565SOL    HW123594   4.553   4.779   6.697
 7565SOL    HW223595   4.433   4.876   6.645
 7566SOL     OW23596   0.973   4.773   3.903
 7566SOL    HW123597   1.064   4.798   3.870
 7566SOL    HW223598   0.906   4.840   3.870
 7567SOL     OW23599   1.838   3.680   5.670
 7567SOL    HW123600   1.757   3.680   5.611
 7567SOL    HW223601   1.918   3.703   5.615
 7568SOL     OW23602   5.389   5.636   4.093
 7568SOL    HW123603   5.417   5.731   4.081
 7568SOL    HW223604   5.314   5.615   4.030
 7569SOL     OW23605   4.660   6.033   6.659
 7569SOL    HW123606   4.703   5.949   6.693
 7569SOL    HW223607   4.705   6.061   6.574
 7570SOL     OW23608   5.799   4.420   5.034
 7570SOL    HW123609   5.748   4.500   5.068
 7570SOL    HW223610   5.895   4.444   5.024
 7571SOL     OW23611   5.070   4.142   2.063
 7571SOL    HW123612   5.074   4.164   1.966
 7571SOL    HW223613   5.149   4.182   2.109
 7572SOL     OW23614   4.840   0.315   4.237
 7572SOL    HW123615   4.913   0.334   4.303
 7572SOL    HW223616   4.754   0.303   4.286
 7573SOL     OW23617   5.544   6.107   3.844
 7573SOL    HW123618   5.629   6.140   3.885
 7573SOL    HW223619   5.502   6.181   3.790
 7574SOL     OW23620   5.913   1.206   4.164
 7574SOL    HW123621   5.960   1.277   4.217
 7574SOL    HW223622   5.815   1.224   4.163
 7575SOL     OW23623   4.286   0.730   5.628
 7575SOL    HW123624   4.314   0.650   5.681
 7575SOL    HW223625   4.197   0.761   5.660
 7576SOL     OW23626   5.777   5.574   6.847
 7576SOL    HW123627   5.724   5.562   6.764
 7576SOL    HW223628   5.772   5.491   6.903
 7577SOL     OW23629   6.638   0.035   4.788
 7577SOL    HW123630   6.726   0.076   4.765
 7577SOL    HW223631   6.649   6.962   4.800
 7578SOL     OW23632   1.717   6.363   4.111
 7578SOL    HW123633   1.813   6.344   4.132
 7578SOL    HW223634   1.712   6.434   4.041
 7579SOL     OW23635   4.668   2.487   2.190
 7579SOL    HW123636   4.574   2.458   2.171
 7579SOL    HW223637   4.669   2.541   2.275
 7580SOL     OW23638   1.425   3.776   3.840
 7580SOL    HW123639   1.499   3.709   3.842
 7580SOL    HW223640   1.463   3.866   3.818
 7581SOL     OW23641   4.266   1.509   0.605
 7581SOL    HW123642   4.366   1.518   0.604
 7581SOL    HW223643   4.229   1.539   0.517
 7582SOL     OW23644   3.591   1.403   0.845
 7582SOL    HW123645   3.589   1.316   0.796
 7582SOL    HW223646   3.574   1.477   0.781
 7583SOL     OW23647   6.289   3.642   1.858
 7583SOL    HW123648   6.285   3.741   1.862
 7583SOL    HW223649   6.366   3.614   1.800
 7584SOL     OW23650   2.268   6.832   1.219
 7584SOL    HW123651   2.209   6.891   1.164
 7584SOL    HW223652   2.358   6.873   1.228
 7585SOL     OW23653   1.569   3.851   5.922
 7585SOL    HW123654   1.511   3.915   5.871
 7585SOL    HW223655   1.527   3.833   6.011
 7586SOL     OW23656   2.671   0.809   2.623
 7586SOL    HW123657   2.690   0.761   2.709
 7586SOL    HW223658   2.733   0.778   2.552
 7587SOL     OW23659   2.197   1.608   6.621
 7587SOL    HW123660   2.282   1.637   6.664
 7587SOL    HW223661   2.209   1.517   6.580
 7588SOL     OW23662   0.648   4.502   1.901
 7588SOL    HW123663   0.611   4.458   1.983
 7588SOL    HW223664   0.741   4.534   1.919
 7589SOL     OW23665   6.061   6.126   0.690
 7589SOL    HW123666   5.993   6.131   0.617
 7589SOL    HW223667   6.061   6.213   0.741
 7590SOL     OW23668   2.783   1.700   5.711
 7590SOL    HW123669   2.776   1.791   5.671
 7590SOL    HW223670   2.848   1.645   5.657
 7591SOL     OW23671   0.316   5.630   0.250
 7591SOL    HW123672   0.363   5.664   0.331
 7591SOL    HW223673   0.226   5.595   0.276
 7592SOL     OW23674   6.818   4.776   6.691
 7592SOL    HW123675   6.731   4.796   6.645
 7592SOL    HW223676   6.800   4.757   6.788
 7593SOL     OW23677   6.194   2.543   6.885
 7593SOL    HW123678   6.191   2.571   6.981
 7593SOL    HW223679   6.132   2.465   6.872
 7594SOL     OW23680   0.779   4.975   2.232
 7594SOL    HW123681   0.702   5.033   2.204
 7594SOL    HW223682   0.754   4.879   2.219
 7595SOL     OW23683   0.381   2.526   6.507
 7595SOL    HW123684   0.316   2.532   6.432
 7595SOL    HW223685   0.384   2.432   6.542
 7596SOL     OW23686   5.260   5.301   2.769
 7596SOL    HW123687   5.282   5.358   2.849
 7596SOL    HW223688   5.291   5.347   2.686
 7597SOL     OW23689   3.047   6.017   2.082
 7597SOL    HW123690   3.049   6.039   1.985
 7597SOL    HW223691   2.961   5.971   2.104
 7598SOL     OW23692   6.314   0.580   3.024
 7598SOL    HW123693   6.264   0.600   2.940
 7598SOL    HW223694   6.377   0.504   3.008
 7599SOL     OW23695   5.346   1.098   3.438
 7599SOL    HW123696   5.391   1.147   3.513
 7599SOL    HW223697   5.333   1.160   3.360
 7600SOL     OW23698   1.415   0.663   2.238
 7600SOL    HW123699   1.436   0.625   2.149
 7600SOL    HW223700   1.388   0.759   2.228
 7601SOL     OW23701   1.489   5.579   3.685
 7601SOL    HW123702   1.498   5.479   3.684
 7601SOL    HW223703   1.428   5.608   3.612
 7602SOL     OW23704   1.957   4.023   4.768
 7602SOL    HW123705   1.876   4.012   4.825
 7602SOL    HW223706   2.021   3.949   4.787
 7603SOL     OW23707   1.557   6.159   6.508
 7603SOL    HW123708   1.499   6.113   6.441
 7603SOL    HW223709   1.627   6.212   6.460
 7604SOL     OW23710   2.641   5.952   4.087
 7604SOL    HW123711   2.655   5.853   4.089
 7604SOL    HW223712   2.578   5.976   4.014
 7605SOL     OW23713   1.552   6.091   0.251
 7605SOL    HW123714   1.503   6.087   0.338
 7605SOL    HW223715   1.651   6.097   0.268
 7606SOL     OW23716   0.015   2.809   2.106
 7606SOL    HW123717   6.944   2.836   2.106
 7606SOL    HW223718   0.069   2.879   2.152
 7607SOL     OW23719   4.265   6.640   6.873
 7607SOL    HW123720   4.281   6.726   6.922
 7607SOL    HW223721   4.256   6.658   6.775
 7608SOL     OW23722   3.508   3.979   3.889
 7608SOL    HW123723   3.492   3.890   3.847
 7608SOL    HW223724   3.428   4.005   3.943
 7609SOL     OW23725   6.716   3.217   3.219
 7609SOL    HW123726   6.738   3.178   3.308
 7609SOL    HW223727   6.666   3.150   3.164
 7610SOL     OW23728   6.190   0.676   0.295
 7610SOL    HW123729   6.097   0.714   0.294
 7610SOL    HW223730   6.238   0.711   0.376
 7611SOL     OW23731   0.791   1.839   0.251
 7611SOL    HW123732   0.814   1.792   0.335
 7611SOL    HW223733   0.734   1.919   0.271
 7612SOL     OW23734   4.194   1.954   4.058
 7612SOL    HW123735   4.149   2.024   4.002
 7612SOL    HW223736   4.240   1.998   4.136
 7613SOL     OW23737   4.895   2.208   1.604
 7613SOL    HW123738   4.970   2.197   1.539
 7613SOL    HW223739   4.840   2.288   1.579
 7614SOL     OW23740   4.025   2.588   1.668
 7614SOL    HW123741   3.996   2.603   1.574
 7614SOL    HW223742   4.048   2.676   1.710
 7615SOL     OW23743   5.369   4.784   6.407
 7615SOL    HW123744   5.462   4.815   6.388
 7615SOL    HW223745   5.311   4.801   6.328
 7616SOL     OW23746   0.807   4.416   4.111
 7616SOL    HW123747   0.893   4.404   4.160
 7616SOL    HW223748   0.769   4.326   4.088
 7617SOL     OW23749   2.811   5.664   3.112
 7617SOL    HW123750   2.851   5.743   3.065
 7617SOL    HW223751   2.880   5.620   3.168
 7618SOL     OW23752   1.295   1.814   6.724
 7618SOL    HW123753   1.242   1.884   6.771
 7618SOL    HW223754   1.243   1.729   6.721
 7619SOL     OW23755   5.899   3.309   5.295
 7619SOL    HW123756   5.951   3.277   5.216
 7619SOL    HW223757   5.960   3.358   5.357
 7620SOL     OW23758   3.704   6.434   0.701
 7620SOL    HW123759   3.695   6.530   0.675
 7620SOL    HW223760   3.690   6.425   0.800
 7621SOL     OW23761   0.945   0.920   0.440
 7621SOL    HW123762   1.003   0.945   0.363
 7621SOL    HW223763   0.849   0.924   0.412
 7622SOL     OW23764   5.388   3.936   1.793
 7622SOL    HW123765   5.333   3.987   1.726
 7622SOL    HW223766   5.347   3.846   1.807
 7623SOL     OW23767   4.871   4.774   6.251
 7623SOL    HW123768   4.808   4.700   6.228
 7623SOL    HW223769   4.839   4.859   6.211
 7624SOL     OW23770   0.658   2.314   4.189
 7624SOL    HW123771   0.669   2.220   4.156
 7624SOL    HW223772   0.716   2.376   4.136
 7625SOL     OW23773   4.740   0.677   0.900
 7625SOL    HW123774   4.834   0.661   0.930
 7625SOL    HW223775   4.713   0.770   0.922
 7626SOL     OW23776   0.027   6.195   5.042
 7626SOL    HW123777   0.112   6.145   5.023
 7626SOL    HW223778   0.039   6.291   5.018
 7627SOL     OW23779   6.355   3.053   0.622
 7627SOL    HW123780   6.344   3.115   0.699
 7627SOL    HW223781   6.308   2.967   0.642
 7628SOL     OW23782   3.555   0.902   1.186
 7628SOL    HW123783   3.562   0.880   1.283
 7628SOL    HW223784   3.610   0.838   1.133
 7629SOL     OW23785   6.382   6.821   2.622
 7629SOL    HW123786   6.339   6.909   2.600
 7629SOL    HW223787   6.336   6.780   2.700
 7630SOL     OW23788   6.373   6.228   2.127
 7630SOL    HW123789   6.444   6.287   2.165
 7630SOL    HW223790   6.361   6.149   2.187
 7631SOL     OW23791   1.085   1.484   5.904
 7631SOL    HW123792   1.010   1.419   5.894
 7631SOL    HW223793   1.071   1.561   5.842
 7632SOL     OW23794   3.899   2.257   1.501
 7632SOL    HW123795   3.941   2.171   1.475
 7632SOL    HW223796   3.930   2.284   1.592
 7633SOL     OW23797   5.366   2.402   0.485
 7633SOL    HW123798   5.381   2.369   0.392
 7633SOL    HW223799   5.454   2.411   0.531
 7634SOL     OW23800   0.965   1.319   1.978
 7634SOL    HW123801   1.035   1.391   1.983
 7634SOL    HW223802   1.002   1.235   2.020
 7635SOL     OW23803   2.649   5.132   5.348
 7635SOL    HW123804   2.622   5.055   5.290
 7635SOL    HW223805   2.664   5.100   5.442
 7636SOL     OW23806   1.072   1.638   3.556
 7636SOL    HW123807   1.099   1.581   3.479
 7636SOL    HW223808   1.095   1.734   3.537
 7637SOL     OW23809   1.954   6.280   2.432
 7637SOL    HW123810   2.048   6.288   2.464
 7637SOL    HW223811   1.948   6.312   2.337
 7638SOL     OW23812   5.287   5.421   1.532
 7638SOL    HW123813   5.211   5.483   1.516
 7638SOL    HW223814   5.313   5.423   1.629
 7639SOL     OW23815   1.240   2.041   6.889
 7639SOL    HW123816   1.274   2.108   6.823
 7639SOL    HW223817   1.307   2.028   6.962
 7640SOL     OW23818   2.712   2.285   0.035
 7640SOL    HW123819   2.810   2.302   0.023
 7640SOL    HW223820   2.695   2.186   0.037
 7641SOL     OW23821   0.751   4.221   1.897
 7641SOL    HW123822   0.731   4.178   1.984
 7641SOL    HW223823   0.705   4.310   1.892
 7642SOL     OW23824   2.333   1.812   3.273
 7642SOL    HW123825   2.382   1.731   3.243
 7642SOL    HW223826   2.269   1.841   3.201
 7643SOL     OW23827   4.818   2.343   3.639
 7643SOL    HW123828   4.741   2.359   3.702
 7643SOL    HW223829   4.847   2.430   3.600
 7644SOL     OW23830   6.454   2.058   2.810
 7644SOL    HW123831   6.415   2.109   2.733
 7644SOL    HW223832   6.489   2.122   2.878
 7645SOL     OW23833   4.571   4.701   5.935
 7645SOL    HW123834   4.613   4.790   5.918
 7645SOL    HW223835   4.500   4.684   5.866
 7646SOL     OW23836   1.902   2.400   2.139
 7646SOL    HW123837   1.967   2.475   2.143
 7646SOL    HW223838   1.906   2.347   2.224
 7647SOL     OW23839   1.071   3.453   1.033
 7647SOL    HW123840   1.041   3.395   1.109
 7647SOL    HW223841   1.159   3.420   0.999
 7648SOL     OW23842   4.062   2.148   3.875
 7648SOL    HW123843   3.966   2.157   3.847
 7648SOL    HW223844   4.114   2.104   3.801
 7649SOL     OW23845   1.312   0.959   2.526
 7649SOL    HW123846   1.228   0.931   2.480
 7649SOL    HW223847   1.307   1.057   2.547
 7650SOL     OW23848   6.513   3.088   1.491
 7650SOL    HW123849   6.575   3.023   1.447
 7650SOL    HW223850   6.433   3.038   1.526
 7651SOL     OW23851   2.371   0.166   6.291
 7651SOL    HW123852   2.407   0.192   6.202
 7651SOL    HW223853   2.340   0.071   6.288
 7652SOL     OW23854   0.206   3.673   4.437
 7652SOL    HW123855   0.203   3.583   4.392
 7652SOL    HW223856   0.122   3.686   4.489
 7653SOL     OW23857   2.039   1.615   0.676
 7653SOL    HW123858   1.966   1.547   0.676
 7653SOL    HW223859   2.079   1.621   0.585
 7654SOL     OW23860   5.185   2.784   3.303
 7654SOL    HW123861   5.171   2.878   3.335
 7654SOL    HW223862   5.175   2.781   3.204
 7655SOL     OW23863   3.417   0.555   3.720
 7655SOL    HW123864   3.425   0.517   3.812
 7655SOL    HW223865   3.506   0.589   3.690
 7656SOL     OW23866   1.201   5.629   6.118
 7656SOL    HW123867   1.115   5.582   6.096
 7656SOL    HW223868   1.214   5.629   6.218
 7657SOL     OW23869   2.651   2.395   2.927
 7657SOL    HW123870   2.573   2.332   2.927
 7657SOL    HW223871   2.617   2.489   2.920
 7658SOL     OW23872   4.358   6.592   5.530
 7658SOL    HW123873   4.262   6.567   5.541
 7658SOL    HW223874   4.374   6.682   5.570
 7659SOL     OW23875   5.418   6.498   6.464
 7659SOL    HW123876   5.452   6.556   6.390
 7659SOL    HW223877   5.414   6.403   6.432
 7660SOL     OW23878   6.001   5.958   4.223
 7660SOL    HW123879   5.979   6.010   4.306
 7660SOL    HW223880   6.093   5.983   4.192
 7661SOL     OW23881   6.269   1.776   4.379
 7661SOL    HW123882   6.213   1.719   4.439
 7661SOL    HW223883   6.360   1.735   4.370
 7662SOL     OW23884   1.343   2.313   2.370
 7662SOL    HW123885   1.314   2.336   2.277
 7662SOL    HW223886   1.389   2.392   2.411
 7663SOL     OW23887   6.348   6.500   6.260
 7663SOL    HW123888   6.265   6.548   6.232
 7663SOL    HW223889   6.368   6.522   6.355
 7664SOL     OW23890   3.392   0.153   2.873
 7664SOL    HW123891   3.432   0.066   2.901
 7664SOL    HW223892   3.448   0.195   2.802
 7665SOL     OW23893   3.786   0.544   3.845
 7665SOL    HW123894   3.756   0.466   3.901
 7665SOL    HW223895   3.864   0.588   3.888
 7666SOL     OW23896   6.682   6.885   1.693
 7666SOL    HW123897   6.669   6.977   1.656
 7666SOL    HW223898   6.598   6.854   1.737
 7667SOL     OW23899   5.482   5.631   0.466
 7667SOL    HW123900   5.450   5.556   0.523
 7667SOL    HW223901   5.442   5.717   0.497
 7668SOL     OW23902   2.461   4.099   1.260
 7668SOL    HW123903   2.524   4.168   1.296
 7668SOL    HW223904   2.460   4.020   1.320
 7669SOL     OW23905   5.201   1.869   4.962
 7669SOL    HW123906   5.210   1.960   4.920
 7669SOL    HW223907   5.258   1.865   5.044
 7670SOL     OW23908   1.759   5.577   6.420
 7670SOL    HW123909   1.836   5.636   6.399
 7670SOL    HW223910   1.791   5.495   6.468
 7671SOL     OW23911   4.353   1.337   4.412
 7671SOL    HW123912   4.261   1.299   4.396
 7671SOL    HW223913   4.419   1.290   4.355
 7672SOL     OW23914   5.477   6.554   3.752
 7672SOL    HW123915   5.564   6.601   3.767
 7672SOL    HW223916   5.467   6.480   3.819
 7673SOL     OW23917   2.155   4.713   0.545
 7673SOL    HW123918   2.120   4.779   0.478
 7673SOL    HW223919   2.230   4.754   0.597
 7674SOL     OW23920   6.527   2.443   4.519
 7674SOL    HW123921   6.462   2.458   4.445
 7674SOL    HW223922   6.490   2.376   4.583
 7675SOL     OW23923   4.987   0.679   2.894
 7675SOL    HW123924   5.043   0.723   2.823
 7675SOL    HW223925   5.016   0.584   2.906
 7676SOL     OW23926   0.745   1.938   0.536
 7676SOL    HW123927   0.835   1.980   0.546
 7676SOL    HW223928   0.688   1.994   0.475
 7677SOL     OW23929   1.647   3.775   1.803
 7677SOL    HW123930   1.556   3.762   1.765
 7677SOL    HW223931   1.706   3.700   1.773
 7678SOL     OW23932   1.166   1.280   6.197
 7678SOL    HW123933   1.194   1.186   6.217
 7678SOL    HW223934   1.233   1.324   6.137
 7679SOL     OW23935   1.189   6.351   4.801
 7679SOL    HW123936   1.193   6.451   4.804
 7679SOL    HW223937   1.243   6.318   4.724
 7680SOL     OW23938   2.101   2.998   0.164
 7680SOL    HW123939   2.129   3.047   0.082
 7680SOL    HW223940   2.121   2.901   0.154
 7681SOL     OW23941   3.399   0.380   0.256
 7681SOL    HW123942   3.337   0.303   0.242
 7681SOL    HW223943   3.421   0.388   0.353
 7682SOL     OW23944   2.539   0.467   2.109
 7682SOL    HW123945   2.568   0.502   2.020
 7682SOL    HW223946   2.517   0.370   2.102
 7683SOL     OW23947   0.007   2.013   3.705
 7683SOL    HW123948   0.103   2.006   3.678
 7683SOL    HW223949   7.024   2.084   3.776
 7684SOL     OW23950   5.666   2.116   6.866
 7684SOL    HW123951   5.574   2.090   6.839
 7684SOL    HW223952   5.678   2.101   6.964
 7685SOL     OW23953   3.820   3.093   0.078
 7685SOL    HW123954   3.756   3.021   0.053
 7685SOL    HW223955   3.787   3.181   0.044
 7686SOL     OW23956   4.391   0.400   3.665
 7686SOL    HW123957   4.391   0.442   3.574
 7686SOL    HW223958   4.367   0.469   3.733
 7687SOL     OW23959   6.122   5.518   5.220
 7687SOL    HW123960   6.075   5.578   5.156
 7687SOL    HW223961   6.125   5.561   5.310
 7688SOL     OW23962   0.252   0.599   6.581
 7688SOL    HW123963   0.326   0.583   6.646
 7688SOL    HW223964   0.284   0.658   6.507
 7689SOL     OW23965   5.235   5.486   3.652
 7689SOL    HW123966   5.251   5.395   3.614
 7689SOL    HW223967   5.175   5.537   3.590
 7690SOL     OW23968   5.877   5.428   1.998
 7690SOL    HW123969   5.885   5.516   2.044
 7690SOL    HW223970   5.969   5.393   1.976
 7691SOL     OW23971   4.793   2.909   4.240
 7691SOL    HW123972   4.771   2.844   4.167
 7691SOL    HW223973   4.889   2.935   4.234
 7692SOL     OW23974   0.464   0.030   1.033
 7692SOL    HW123975   0.508   0.113   0.998
 7692SOL    HW223976   0.533   6.988   1.056
 7693SOL     OW23977   4.367   0.387   0.695
 7693SOL    HW123978   4.355   0.310   0.757
 7693SOL    HW223979   4.305   0.378   0.617
 7694SOL     OW23980   0.518   4.344   4.212
 7694SOL    HW123981   0.596   4.287   4.185
 7694SOL    HW223982   0.549   4.438   4.227
 7695SOL     OW23983   4.005   6.997   1.228
 7695SOL    HW123984   4.026   0.062   1.264
 7695SOL    HW223985   3.940   6.951   1.289
 7696SOL     OW23986   6.916   2.151   4.399
 7696SOL    HW123987   7.007   2.137   4.361
 7696SOL    HW223988   6.920   2.146   4.499
 7697SOL     OW23989   2.548   0.995   2.805
 7697SOL    HW123990   2.511   1.014   2.714
 7697SOL    HW223991   2.517   0.904   2.834
 7698SOL     OW23992   0.368   3.132   4.533
 7698SOL    HW123993   0.462   3.145   4.564
 7698SOL    HW223994   0.305   3.153   4.607
 7699SOL     OW23995   3.442   5.503   6.666
 7699SOL    HW123996   3.512   5.431   6.666
 7699SOL    HW223997   3.443   5.550   6.754
 7700SOL     OW23998   5.074   6.763   5.226
 7700SOL    HW123999   5.170   6.770   5.200
 7700SOL    HW224000   5.066   6.759   5.325
 7701SOL     OW24001   5.889   1.557   6.562
 7701SOL    HW124002   5.838   1.476   6.531
 7701SOL    HW224003   5.849   1.590   6.648
 7702SOL     OW24004   3.593   6.111   5.852
 7702SOL    HW124005   3.593   6.015   5.879
 7702SOL    HW224006   3.550   6.120   5.762
 7703SOL     OW24007   6.652   1.278   4.853
 7703SOL    HW124008   6.647   1.252   4.756
 7703SOL    HW224009   6.696   1.367   4.862
 7704SOL     OW24010   4.231   4.799   5.415
 7704SOL    HW124011   4.216   4.728   5.484
 7704SOL    HW224012   4.186   4.883   5.444
 7705SOL     OW24013   3.532   4.629   5.698
 7705SOL    HW124014   3.546   4.650   5.602
 7705SOL    HW224015   3.575   4.542   5.720
 7706SOL     OW24016   4.797   1.243   5.441
 7706SOL    HW124017   4.792   1.339   5.415
 7706SOL    HW224018   4.749   1.229   5.528
 7707SOL     OW24019   0.522   5.599   6.574
 7707SOL    HW124020   0.492   5.601   6.670
 7707SOL    HW224021   0.509   5.689   6.533
 7708SOL     OW24022   4.984   6.179   4.928
 7708SOL    HW124023   4.953   6.188   4.833
 7708SOL    HW224024   4.948   6.254   4.982
 7709SOL     OW24025   5.548   3.376   1.888
 7709SOL    HW124026   5.603   3.454   1.920
 7709SOL    HW224027   5.530   3.315   1.965
 7710SOL     OW24028   2.033   0.533   0.817
 7710SOL    HW124029   2.102   0.499   0.880
 7710SOL    HW224030   1.964   0.586   0.867
 7711SOL     OW24031   6.475   5.966   4.718
 7711SOL    HW124032   6.452   6.063   4.709
 7711SOL    HW224033   6.557   5.946   4.665
 7712SOL     OW24034   6.607   4.909   1.196
 7712SOL    HW124035   6.554   4.983   1.155
 7712SOL    HW224036   6.677   4.946   1.256
 7713SOL     OW24037   2.195   4.048   0.893
 7713SOL    HW124038   2.283   4.033   0.938
 7713SOL    HW224039   2.129   4.081   0.960
 7714SOL     OW24040   6.803   5.118   5.230
 7714SOL    HW124041   6.841   5.131   5.322
 7714SOL    HW224042   6.721   5.174   5.219
 7715SOL     OW24043   5.253   1.507   1.423
 7715SOL    HW124044   5.230   1.562   1.343
 7715SOL    HW224045   5.169   1.464   1.459
 7716SOL     OW24046   5.427   2.962   3.259
 7716SOL    HW124047   5.439   2.869   3.223
 7716SOL    HW224048   5.464   2.967   3.352
 7717SOL     OW24049   2.638   1.192   4.400
 7717SOL    HW124050   2.585   1.194   4.314
 7717SOL    HW224051   2.631   1.282   4.444
 7718SOL     OW24052   1.720   2.367   3.288
 7718SOL    HW124053   1.712   2.438   3.359
 7718SOL    HW224054   1.632   2.356   3.242
 7719SOL     OW24055   6.883   3.449   3.900
 7719SOL    HW124056   6.855   3.400   3.817
 7719SOL    HW224057   6.924   3.536   3.875
 7720SOL     OW24058   0.160   6.808   0.583
 7720SOL    HW124059   0.064   6.837   0.574
 7720SOL    HW224060   0.211   6.835   0.501
 7721SOL     OW24061   1.824   3.777   3.169
 7721SOL    HW124062   1.904   3.786   3.228
 7721SOL    HW224063   1.802   3.681   3.156
 7722SOL     OW24064   0.248   5.113   2.661
 7722SOL    HW124065   0.272   5.056   2.583
 7722SOL    HW224066   0.151   5.137   2.656
 7723SOL     OW24067   6.783   4.120   0.776
 7723SOL    HW124068   6.852   4.073   0.831
 7723SOL    HW224069   6.828   4.177   0.707
 7724SOL     OW24070   2.382   4.903   2.091
 7724SOL    HW124071   2.451   4.952   2.144
 7724SOL    HW224072   2.291   4.933   2.118
 7725SOL     OW24073   4.989   2.351   3.291
 7725SOL    HW124074   4.978   2.274   3.353
 7725SOL    HW224075   5.011   2.433   3.343
 7726SOL     OW24076   6.771   4.899   3.940
 7726SOL    HW124077   6.783   4.937   4.032
 7726SOL    HW224078   6.829   4.818   3.931
 7727SOL     OW24079   6.005   1.962   3.402
 7727SOL    HW124080   6.077   2.029   3.382
 7727SOL    HW224081   5.959   1.988   3.487
 7728SOL     OW24082   0.996   3.588   3.449
 7728SOL    HW124083   1.075   3.559   3.395
 7728SOL    HW224084   0.967   3.513   3.508
 7729SOL     OW24085   6.445   2.559   1.774
 7729SOL    HW124086   6.422   2.467   1.745
 7729SOL    HW224087   6.480   2.611   1.695
 7730SOL     OW24088   5.701   5.735   2.576
 7730SOL    HW124089   5.644   5.740   2.658
 7730SOL    HW224090   5.725   5.640   2.557
 7731SOL     OW24091   5.768   1.121   1.086
 7731SOL    HW124092   5.856   1.140   1.043
 7731SOL    HW224093   5.695   1.163   1.032
 7732SOL     OW24094   4.614   5.914   0.531
 7732SOL    HW124095   4.705   5.954   0.539
 7732SOL    HW224096   4.574   5.905   0.623
 7733SOL     OW24097   4.416   6.532   1.845
 7733SOL    HW124098   4.446   6.444   1.808
 7733SOL    HW224099   4.383   6.519   1.939
 7734SOL     OW24100   1.467   3.914   3.408
 7734SOL    HW124101   1.407   3.870   3.342
 7734SOL    HW224102   1.464   4.013   3.394
 7735SOL     OW24103   3.815   4.870   6.756
 7735SOL    HW124104   3.898   4.914   6.791
 7735SOL    HW224105   3.750   4.856   6.831
 7736SOL     OW24106   5.367   4.455   0.229
 7736SOL    HW124107   5.386   4.409   0.316
 7736SOL    HW224108   5.311   4.396   0.171
 7737SOL     OW24109   4.652   1.393   0.957
 7737SOL    HW124110   4.584   1.321   0.968
 7737SOL    HW224111   4.659   1.418   0.861
 7738SOL     OW24112   2.382   5.758   0.074
 7738SOL    HW124113   2.368   5.703   0.157
 7738SOL    HW224114   2.456   5.823   0.090
 7739SOL     OW24115   0.117   1.579   1.638
 7739SOL    HW124116   0.149   1.660   1.687
 7739SOL    HW224117   0.101   1.504   1.702
 7740SOL     OW24118   0.503   0.574   2.749
 7740SOL    HW124119   0.591   0.620   2.756
 7740SOL    HW224120   0.506   0.487   2.798
 7741SOL     OW24121   1.337   5.678   4.796
 7741SOL    HW124122   1.419   5.621   4.794
 7741SOL    HW224123   1.352   5.759   4.739
 7742SOL     OW24124   6.353   2.041   3.724
 7742SOL    HW124125   6.393   2.091   3.800
 7742SOL    HW224126   6.257   2.019   3.744
 7743SOL     OW24127   4.770   3.158   6.268
 7743SOL    HW124128   4.772   3.184   6.171
 7743SOL    HW224129   4.858   3.118   6.294
 7744SOL     OW24130   0.094   6.534   3.924
 7744SOL    HW124131   0.061   6.593   3.850
 7744SOL    HW224132   0.140   6.455   3.885
 7745SOL     OW24133   3.558   2.416   5.811
 7745SOL    HW124134   3.612   2.354   5.868
 7745SOL    HW224135   3.595   2.418   5.719
 7746SOL     OW24136   2.686   0.116   6.897
 7746SOL    HW124137   2.708   0.018   6.894
 7746SOL    HW224138   2.591   0.129   6.869
 7747SOL     OW24139   4.929   6.446   0.869
 7747SOL    HW124140   4.891   6.531   0.905
 7747SOL    HW224141   4.897   6.369   0.924
 7748SOL     OW24142   3.172   3.897   5.422
 7748SOL    HW124143   3.093   3.953   5.446
 7748SOL    HW224144   3.157   3.803   5.452
 7749SOL     OW24145   4.533   3.756   6.179
 7749SOL    HW124146   4.509   3.672   6.131
 7749SOL    HW224147   4.474   3.768   6.259
 7750SOL     OW24148   0.540   5.846   1.043
 7750SOL    HW124149   0.592   5.922   1.082
 7750SOL    HW224150   0.472   5.814   1.110
 7751SOL     OW24151   1.675   1.471   2.022
 7751SOL    HW124152   1.761   1.478   1.972
 7751SOL    HW224153   1.602   1.515   1.970
 7752SOL     OW24154   5.147   0.570   4.693
 7752SOL    HW124155   5.238   0.529   4.681
 7752SOL    HW224156   5.148   0.664   4.657
 7753SOL     OW24157   1.866   1.441   4.620
 7753SOL    HW124158   1.801   1.501   4.574
 7753SOL    HW224159   1.921   1.392   4.552
 7754SOL     OW24160   3.892   6.263   1.219
 7754SOL    HW124161   3.851   6.345   1.180
 7754SOL    HW224162   3.946   6.216   1.150
 7755SOL     OW24163   1.449   3.640   6.061
 7755SOL    HW124164   1.494   3.632   5.972
 7755SOL    HW224165   1.467   3.558   6.115
 7756SOL     OW24166   2.379   6.818   1.480
 7756SOL    HW124167   2.380   6.843   1.383
 7756SOL    HW224168   2.352   6.897   1.534
 7757SOL     OW24169   6.889   4.674   1.417
 7757SOL    HW124170   6.869   4.716   1.328
 7757SOL    HW224171   6.985   4.691   1.440
 7758SOL     OW24172   1.528   0.430   6.243
 7758SOL    HW124173   1.569   0.345   6.209
 7758SOL    HW224174   1.577   0.508   6.204
 7759SOL     OW24175   2.594   2.302   5.804
 7759SOL    HW124176   2.670   2.264   5.857
 7759SOL    HW224177   2.538   2.227   5.768
 7760SOL     OW24178   4.810   1.667   2.340
 7760SOL    HW124179   4.876   1.731   2.377
 7760SOL    HW224180   4.823   1.658   2.241
 7761SOL     OW24181   5.322   5.562   4.449
 7761SOL    HW124182   5.318   5.542   4.351
 7761SOL    HW224183   5.314   5.477   4.500
 7762SOL     OW24184   0.703   0.718   4.462
 7762SOL    HW124185   0.683   0.815   4.446
 7762SOL    HW224186   0.801   0.704   4.460
 7763SOL     OW24187   2.326   0.315   5.166
 7763SOL    HW124188   2.384   0.240   5.199
 7763SOL    HW224189   2.230   0.287   5.170
 7764SOL     OW24190   3.293   4.133   5.288
 7764SOL    HW124191   3.312   4.154   5.192
 7764SOL    HW224192   3.253   4.042   5.296
 7765SOL     OW24193   6.872   3.534   4.170
 7765SOL    HW124194   6.857   3.506   4.075
 7765SOL    HW224195   6.817   3.477   4.231
 7766SOL     OW24196   0.518   4.499   0.595
 7766SOL    HW124197   0.486   4.583   0.550
 7766SOL    HW224198   0.564   4.524   0.680
 7767SOL     OW24199   4.173   7.012   2.027
 7767SOL    HW124200   4.200   6.922   2.061
 7767SOL    HW224201   4.225   0.008   1.945
 7768SOL     OW24202   4.589   4.393   2.965
 7768SOL    HW124203   4.560   4.370   3.058
 7768SOL    HW224204   4.549   4.480   2.939
 7769SOL     OW24205   3.989   2.278   5.256
 7769SOL    HW124206   3.997   2.244   5.162
 7769SOL    HW224207   4.007   2.377   5.257
 7770SOL     OW24208   0.788   3.339   5.043
 7770SOL    HW124209   0.713   3.366   4.984
 7770SOL    HW224210   0.753   3.327   5.137
 7771SOL     OW24211   3.064   2.618   6.199
 7771SOL    HW124212   3.074   2.718   6.200
 7771SOL    HW224213   2.972   2.595   6.167
 7772SOL     OW24214   5.345   1.133   1.009
 7772SOL    HW124215   5.359   1.184   1.094
 7772SOL    HW224216   5.430   1.086   0.985
 7773SOL     OW24217   3.223   5.989   0.407
 7773SOL    HW124218   3.305   5.951   0.451
 7773SOL    HW224219   3.148   5.923   0.414
 7774SOL     OW24220   5.031   2.227   3.517
 7774SOL    HW124221   5.117   2.228   3.568
 7774SOL    HW224222   4.956   2.253   3.578
 7775SOL     OW24223   3.694   0.474   6.691
 7775SOL    HW124224   3.738   0.563   6.679
 7775SOL    HW224225   3.764   0.402   6.694
 7776SOL     OW24226   0.493   6.682   5.416
 7776SOL    HW124227   0.434   6.602   5.410
 7776SOL    HW224228   0.573   6.661   5.471
 7777SOL     OW24229   5.705   5.189   3.913
 7777SOL    HW124230   5.801   5.185   3.939
 7777SOL    HW224231   5.694   5.249   3.833
 7778SOL     OW24232   6.298   3.756   2.855
 7778SOL    HW124233   6.284   3.784   2.950
 7778SOL    HW224234   6.278   3.659   2.845
 7779SOL     OW24235   3.438   6.515   2.647
 7779SOL    HW124236   3.367   6.490   2.713
 7779SOL    HW224237   3.525   6.476   2.675
 7780SOL     OW24238   6.925   5.496   6.035
 7780SOL    HW124239   7.014   5.516   5.994
 7780SOL    HW224240   6.901   5.568   6.099
 7781SOL     OW24241   1.802   3.389   0.420
 7781SOL    HW124242   1.840   3.474   0.382
 7781SOL    HW224243   1.877   3.330   0.452
 7782SOL     OW24244   6.259   4.723   3.289
 7782SOL    HW124245   6.168   4.682   3.286
 7782SOL    HW224246   6.272   4.769   3.377
 7783SOL     OW24247   0.724   6.710   5.595
 7783SOL    HW124248   0.715   6.807   5.570
 7783SOL    HW224249   0.682   6.695   5.684
 7784SOL     OW24250   2.489   2.186   1.966
 7784SOL    HW124251   2.529   2.094   1.963
 7784SOL    HW224252   2.539   2.246   1.904
 7785SOL     OW24253   1.585   6.566   2.717
 7785SOL    HW124254   1.521   6.489   2.715
 7785SOL    HW224255   1.553   6.637   2.654
 7786SOL     OW24256   4.349   0.555   6.567
 7786SOL    HW124257   4.431   0.498   6.571
 7786SOL    HW224258   4.314   0.569   6.659
 7787SOL     OW24259   2.753   3.367   0.798
 7787SOL    HW124260   2.810   3.322   0.729
 7787SOL    HW224261   2.675   3.309   0.819
 7788SOL     OW24262   1.576   5.247   1.593
 7788SOL    HW124263   1.478   5.265   1.580
 7788SOL    HW224264   1.628   5.328   1.566
 7789SOL     OW24265   3.428   6.978   6.102
 7789SOL    HW124266   3.400   7.023   6.017
 7789SOL    HW224267   3.350   6.973   6.164
 7790SOL     OW24268   6.306   5.109   2.764
 7790SOL    HW124269   6.355   5.023   2.749
 7790SOL    HW224270   6.212   5.090   2.792
 7791SOL     OW24271   2.110   5.953   1.563
 7791SOL    HW124272   2.202   5.915   1.573
 7791SOL    HW224273   2.084   5.951   1.466
 7792SOL     OW24274   0.622   1.546   2.587
 7792SOL    HW124275   0.647   1.630   2.538
 7792SOL    HW224276   0.698   1.517   2.645
 7793SOL     OW24277   4.138   1.961   6.812
 7793SOL    HW124278   4.124   1.863   6.823
 7793SOL    HW224279   4.195   1.977   6.731
 7794SOL     OW24280   0.908   5.287   2.904
 7794SOL    HW124281   0.864   5.271   2.815
 7794SOL    HW224282   0.844   5.263   2.977
 7795SOL     OW24283   3.275   5.508   5.642
 7795SOL    HW124284   3.266   5.426   5.585
 7795SOL    HW224285   3.269   5.481   5.739
 7796SOL     OW24286   3.514   3.221   5.828
 7796SOL    HW124287   3.428   3.177   5.856
 7796SOL    HW224288   3.570   3.155   5.778
 7797SOL     OW24289   0.758   5.259   2.670
 7797SOL    HW124290   0.711   5.183   2.714
 7797SOL    HW224291   0.828   5.224   2.607
 7798SOL     OW24292   0.370   1.166   1.860
 7798SOL    HW124293   0.446   1.196   1.917
 7798SOL    HW224294   0.405   1.112   1.784
 7799SOL     OW24295   2.910   6.452   2.785
 7799SOL    HW124296   2.987   6.515   2.793
 7799SOL    HW224297   2.875   6.430   2.876
 7800SOL     OW24298   1.012   5.859   1.085
 7800SOL    HW124299   0.956   5.784   1.120
 7800SOL    HW224300   1.071   5.893   1.158
 7801SOL     OW24301   1.733   2.205   2.635
 7801SOL    HW124302   1.663   2.265   2.674
 7801SOL    HW224303   1.786   2.163   2.709
 7802SOL     OW24304   7.022   4.482   5.951
 7802SOL    HW124305   7.004   4.386   5.930
 7802SOL    HW224306   6.999   4.499   6.047
 7803SOL     OW24307   5.634   2.547   6.236
 7803SOL    HW124308   5.671   2.639   6.219
 7803SOL    HW224309   5.708   2.486   6.263
 7804SOL     OW24310   2.287   2.057   4.467
 7804SOL    HW124311   2.301   2.127   4.538
 7804SOL    HW224312   2.255   2.102   4.383
 7805SOL     OW24313   5.363   2.808   1.735
 7805SOL    HW124314   5.397   2.816   1.642
 7805SOL    HW224315   5.263   2.800   1.733
 7806SOL     OW24316   6.631   2.708   5.503
 7806SOL    HW124317   6.595   2.623   5.542
 7806SOL    HW224318   6.599   2.786   5.557
 7807SOL     OW24319   2.193   5.004   6.026
 7807SOL    HW124320   2.159   5.031   5.936
 7807SOL    HW224321   2.119   4.963   6.079
 7808SOL     OW24322   5.255   4.454   3.062
 7808SOL    HW124323   5.316   4.391   3.014
 7808SOL    HW224324   5.178   4.478   3.003
 7809SOL     OW24325   5.019   4.819   3.717
 7809SOL    HW124326   5.038   4.842   3.621
 7809SOL    HW224327   4.956   4.887   3.755
 7810SOL     OW24328   4.229   6.347   4.866
 7810SOL    HW124329   4.298   6.382   4.803
 7810SOL    HW224330   4.255   6.255   4.897
 7811SOL     OW24331   1.147   5.804   2.619
 7811SOL    HW124332   1.237   5.770   2.592
 7811SOL    HW224333   1.155   5.857   2.704
 7812SOL     OW24334   2.329   2.670   5.993
 7812SOL    HW124335   2.262   2.682   5.920
 7812SOL    HW224336   2.352   2.573   6.001
 7813SOL     OW24337   4.961   2.888   1.131
 7813SOL    HW124338   4.865   2.897   1.105
 7813SOL    HW224339   4.973   2.925   1.223
 7814SOL     OW24340   6.388   3.323   1.964
 7814SOL    HW124341   6.483   3.355   1.965
 7814SOL    HW224342   6.363   3.290   2.056
 7815SOL     OW24343   6.227   2.395   5.265
 7815SOL    HW124344   6.306   2.457   5.265
 7815SOL    HW224345   6.143   2.448   5.262
 7816SOL     OW24346   0.165   1.721   5.366
 7816SOL    HW124347   0.113   1.661   5.427
 7816SOL    HW224348   0.133   1.708   5.271
 7817SOL     OW24349   3.366   3.645   5.978
 7817SOL    HW124350   3.430   3.599   5.916
 7817SOL    HW224351   3.293   3.687   5.926
 7818SOL     OW24352   4.987   1.608   1.754
 7818SOL    HW124353   4.991   1.524   1.699
 7818SOL    HW224354   4.896   1.618   1.793
 7819SOL     OW24355   0.840   3.371   3.802
 7819SOL    HW124356   0.754   3.394   3.847
 7819SOL    HW224357   0.916   3.415   3.851
 7820SOL     OW24358   1.793   0.682   5.411
 7820SOL    HW124359   1.863   0.631   5.461
 7820SOL    HW224360   1.831   0.713   5.323
 7821SOL     OW24361   6.214   5.775   0.118
 7821SOL    HW124362   6.227   5.807   0.024
 7821SOL    HW224363   6.303   5.769   0.163
 7822SOL     OW24364   1.330   1.071   5.262
 7822SOL    HW124365   1.276   1.047   5.342
 7822SOL    HW224366   1.352   1.169   5.264
 7823SOL     OW24367   1.592   4.317   6.724
 7823SOL    HW124368   1.511   4.267   6.693
 7823SOL    HW224369   1.669   4.253   6.732
 7824SOL     OW24370   5.796   1.881   3.229
 7824SOL    HW124371   5.804   1.883   3.129
 7824SOL    HW224372   5.886   1.897   3.270
 7825SOL     OW24373   1.952   2.941   1.376
 7825SOL    HW124374   1.968   2.892   1.462
 7825SOL    HW224375   1.948   3.039   1.393
 7826SOL     OW24376   5.493   0.671   0.058
 7826SOL    HW124377   5.399   0.675   0.025
 7826SOL    HW224378   5.524   0.576   0.059
 7827SOL     OW24379   4.674   4.721   1.666
 7827SOL    HW124380   4.703   4.792   1.731
 7827SOL    HW224381   4.666   4.634   1.713
 7828SOL     OW24382   0.865   5.940   0.589
 7828SOL    HW124383   0.766   5.945   0.580
 7828SOL    HW224384   0.896   6.009   0.655
 7829SOL     OW24385   2.620   3.162   1.650
 7829SOL    HW124386   2.578   3.152   1.560
 7829SOL    HW224387   2.663   3.076   1.676
 7830SOL     OW24388   5.635   3.430   6.605
 7830SOL    HW124389   5.693   3.401   6.681
 7830SOL    HW224390   5.669   3.391   6.519
 7831SOL     OW24391   1.273   3.982   0.374
 7831SOL    HW124392   1.231   3.900   0.336
 7831SOL    HW224393   1.368   3.962   0.400
 7832SOL     OW24394   3.002   1.754   5.380
 7832SOL    HW124395   2.961   1.688   5.318
 7832SOL    HW224396   2.930   1.807   5.425
 7833SOL     OW24397   0.378   0.090   0.677
 7833SOL    HW124398   0.293   0.084   0.729
 7833SOL    HW224399   0.365   0.150   0.599
 7834SOL     OW24400   0.464   0.743   2.305
 7834SOL    HW124401   0.496   0.822   2.357
 7834SOL    HW224402   0.379   0.767   2.257
 7835SOL     OW24403   2.306   2.774   4.816
 7835SOL    HW124404   2.373   2.701   4.806
 7835SOL    HW224405   2.342   2.844   4.878
 7836SOL     OW24406   3.365   6.888   6.369
 7836SOL    HW124407   3.333   6.932   6.453
 7836SOL    HW224408   3.464   6.903   6.360
 7837SOL     OW24409   5.956   6.787   2.606
 7837SOL    HW124410   5.974   6.813   2.511
 7837SOL    HW224411   5.859   6.801   2.626
 7838SOL     OW24412   4.440   6.695   4.490
 7838SOL    HW124413   4.373   6.625   4.514
 7838SOL    HW224414   4.511   6.698   4.560
 7839SOL     OW24415   5.802   3.853   4.547
 7839SOL    HW124416   5.802   3.949   4.519
 7839SOL    HW224417   5.728   3.836   4.611
 7840SOL     OW24418   5.080   2.710   4.365
 7840SOL    HW124419   5.179   2.696   4.354
 7840SOL    HW224420   5.055   2.697   4.461
 7841SOL     OW24421   6.081   2.313   6.858
 7841SOL    HW124422   6.022   2.336   6.936
 7841SOL    HW224423   6.032   2.254   6.795
 7842SOL     OW24424   1.460   1.703   3.318
 7842SOL    HW124425   1.524   1.776   3.295
 7842SOL    HW224426   1.511   1.625   3.356
 7843SOL     OW24427   5.551   4.001   0.791
 7843SOL    HW124428   5.605   3.988   0.708
 7843SOL    HW224429   5.509   4.091   0.790
 7844SOL     OW24430   4.218   1.084   3.403
 7844SOL    HW124431   4.136   1.119   3.448
 7844SOL    HW224432   4.278   1.042   3.472
 7845SOL     OW24433   0.395   0.679   4.137
 7845SOL    HW124434   0.460   0.655   4.208
 7845SOL    HW224435   0.429   0.648   4.048
 7846SOL     OW24436   2.001   0.992   1.636
 7846SOL    HW124437   1.982   1.059   1.563
 7846SOL    HW224438   1.949   1.018   1.718
 7847SOL     OW24439   0.374   1.073   0.904
 7847SOL    HW124440   0.328   1.154   0.940
 7847SOL    HW224441   0.400   1.089   0.808
 7848SOL     OW24442   4.046   4.114   1.632
 7848SOL    HW124443   4.052   4.028   1.581
 7848SOL    HW224444   4.024   4.189   1.569
 7849SOL     OW24445   4.847   3.456   4.107
 7849SOL    HW124446   4.770   3.453   4.043
 7849SOL    HW224447   4.931   3.429   4.060
 7850SOL     OW24448   0.098   1.285   4.465
 7850SOL    HW124449   0.126   1.369   4.512
 7850SOL    HW224450   7.024   1.274   4.474
 7851SOL     OW24451   6.177   6.603   0.261
 7851SOL    HW124452   6.180   6.689   0.311
 7851SOL    HW224453   6.267   6.558   0.267
 7852SOL     OW24454   2.689   6.376   0.121
 7852SOL    HW124455   2.643   6.321   0.190
 7852SOL    HW224456   2.726   6.317   0.050
 7853SOL     OW24457   2.968   1.619   0.288
 7853SOL    HW124458   2.964   1.549   0.216
 7853SOL    HW224459   3.025   1.695   0.256
 7854SOL     OW24460   3.712   3.461   2.255
 7854SOL    HW124461   3.616   3.438   2.241
 7854SOL    HW224462   3.734   3.545   2.205
 7855SOL     OW24463   4.479   5.348   6.295
 7855SOL    HW124464   4.442   5.419   6.235
 7855SOL    HW224465   4.412   5.274   6.304
 7856SOL     OW24466   6.264   4.237   4.638
 7856SOL    HW124467   6.313   4.150   4.630
 7856SOL    HW224468   6.217   4.240   4.726
 7857SOL     OW24469   6.008   2.208   6.126
 7857SOL    HW124470   6.086   2.209   6.063
 7857SOL    HW224471   5.935   2.152   6.088
 7858SOL     OW24472   6.093   4.334   3.869
 7858SOL    HW124473   6.009   4.350   3.921
 7858SOL    HW224474   6.072   4.332   3.771
 7859SOL     OW24475   1.189   4.456   6.485
 7859SOL    HW124476   1.153   4.484   6.396
 7859SOL    HW224477   1.289   4.450   6.480
 7860SOL     OW24478   4.113   6.467   1.904
 7860SOL    HW124479   4.130   6.376   1.866
 7860SOL    HW224480   4.124   6.464   2.004
 7861SOL     OW24481   4.578   5.245   1.458
 7861SOL    HW124482   4.532   5.270   1.543
 7861SOL    HW224483   4.599   5.147   1.459
 7862SOL     OW24484   3.016   4.327   1.676
 7862SOL    HW124485   3.092   4.375   1.631
 7862SOL    HW224486   2.969   4.390   1.738
 7863SOL     OW24487   6.369   6.296   2.992
 7863SOL    HW124488   6.364   6.274   3.090
 7863SOL    HW224489   6.316   6.229   2.941
 7864SOL     OW24490   0.244   6.229   5.418
 7864SOL    HW124491   0.152   6.264   5.436
 7864SOL    HW224492   0.246   6.130   5.431
 7865SOL     OW24493   3.527   6.460   3.603
 7865SOL    HW124494   3.557   6.535   3.661
 7865SOL    HW224495   3.430   6.443   3.617
 7866SOL     OW24496   2.725   1.407   3.100
 7866SOL    HW124497   2.724   1.372   3.006
 7866SOL    HW224498   2.793   1.359   3.154
 7867SOL     OW24499   6.275   5.924   2.725
 7867SOL    HW124500   6.257   5.911   2.628
 7867SOL    HW224501   6.230   5.851   2.778
 7868SOL     OW24502   5.132   6.171   1.486
 7868SOL    HW124503   5.036   6.184   1.512
 7868SOL    HW224504   5.184   6.254   1.504
 7869SOL     OW24505   6.477   3.433   1.266
 7869SOL    HW124506   6.517   3.523   1.251
 7869SOL    HW224507   6.462   3.388   1.179
 7870SOL     OW24508   6.546   5.144   3.879
 7870SOL    HW124509   6.564   5.175   3.973
 7870SOL    HW224510   6.600   5.200   3.815
 7871SOL     OW24511   5.487   3.228   3.435
 7871SOL    HW124512   5.576   3.270   3.446
 7871SOL    HW224513   5.494   3.130   3.453
 7872SOL     OW24514   0.680   3.920   3.027
 7872SOL    HW124515   0.777   3.906   3.046
 7872SOL    HW224516   0.631   3.833   3.033
 7873SOL     OW24517   6.692   0.620   6.386
 7873SOL    HW124518   6.792   0.625   6.395
 7873SOL    HW224519   6.668   0.542   6.329
 7874SOL     OW24520   6.428   1.313   0.507
 7874SOL    HW124521   6.411   1.409   0.484
 7874SOL    HW224522   6.480   1.307   0.592
 7875SOL     OW24523   5.104   4.434   0.072
 7875SOL    HW124524   5.017   4.387   0.088
 7875SOL    HW224525   5.095   4.530   0.100
 7876SOL     OW24526   6.617   0.445   4.716
 7876SOL    HW124527   6.555   0.367   4.707
 7876SOL    HW224528   6.705   0.414   4.753
 7877SOL     OW24529   0.178   2.314   3.426
 7877SOL    HW124530   0.177   2.253   3.347
 7877SOL    HW224531   0.222   2.268   3.503
 7878SOL     OW24532   4.490   4.679   2.818
 7878SOL    HW124533   4.398   4.677   2.858
 7878SOL    HW224534   4.483   4.697   2.720
 7879SOL     OW24535   4.927   5.859   3.364
 7879SOL    HW124536   4.929   5.845   3.265
 7879SOL    HW224537   5.021   5.867   3.398
 7880SOL     OW24538   0.308   6.390   0.056
 7880SOL    HW124539   0.298   6.295   0.026
 7880SOL    HW224540   0.357   6.392   0.144
 7881SOL     OW24541   6.639   4.258   4.235
 7881SOL    HW124542   6.664   4.171   4.192
 7881SOL    HW224543   6.557   4.245   4.291
 7882SOL     OW24544   0.958   2.548   2.401
 7882SOL    HW124545   0.874   2.496   2.387
 7882SOL    HW224546   0.996   2.527   2.491
 7883SOL     OW24547   2.809   1.110   2.662
 7883SOL    HW124548   2.819   1.155   2.574
 7883SOL    HW224549   2.815   1.011   2.650
 7884SOL     OW24550   1.635   4.455   3.922
 7884SOL    HW124551   1.574   4.414   3.989
 7884SOL    HW224552   1.720   4.482   3.966
 7885SOL     OW24553   6.324   5.354   2.834
 7885SOL    HW124554   6.415   5.395   2.831
 7885SOL    HW224555   6.332   5.256   2.851
 7886SOL     OW24556   5.212   3.434   1.550
 7886SOL    HW124557   5.271   3.489   1.609
 7886SOL    HW224558   5.154   3.375   1.607
 7887SOL     OW24559   3.437   3.119   6.122
 7887SOL    HW124560   3.532   3.138   6.145
 7887SOL    HW224561   3.433   3.047   6.053
 7888SOL     OW24562   6.453   1.661   4.221
 7888SOL    HW124563   6.408   1.713   4.148
 7888SOL    HW224564   6.424   1.565   4.215
 7889SOL     OW24565   6.337   5.353   0.746
 7889SOL    HW124566   6.432   5.343   0.777
 7889SOL    HW224567   6.293   5.426   0.799
 7890SOL     OW24568   1.417   2.751   4.420
 7890SOL    HW124569   1.472   2.698   4.485
 7890SOL    HW224570   1.404   2.844   4.456
 7891SOL     OW24571   0.749   2.713   4.144
 7891SOL    HW124572   0.670   2.705   4.082
 7891SOL    HW224573   0.752   2.806   4.180
 7892SOL     OW24574   1.806   2.701   4.896
 7892SOL    HW124575   1.794   2.603   4.908
 7892SOL    HW224576   1.901   2.725   4.914
 7893SOL     OW24577   6.496   0.006   1.972
 7893SOL    HW124578   6.432   0.032   1.900
 7893SOL    HW224579   6.529   6.938   1.955
 7894SOL     OW24580   2.500   1.729   6.425
 7894SOL    HW124581   2.448   1.644   6.431
 7894SOL    HW224582   2.457   1.790   6.359
 7895SOL     OW24583   3.846   5.765   3.884
 7895SOL    HW124584   3.916   5.815   3.936
 7895SOL    HW224585   3.868   5.769   3.787
 7896SOL     OW24586   4.294   2.750   1.566
 7896SOL    HW124587   4.231   2.796   1.628
 7896SOL    HW224588   4.350   2.685   1.617
 7897SOL     OW24589   3.518   4.580   6.430
 7897SOL    HW124590   3.455   4.504   6.416
 7897SOL    HW224591   3.521   4.603   6.527
 7898SOL     OW24592   5.017   0.490   4.362
 7898SOL    HW124593   5.071   0.449   4.435
 7898SOL    HW224594   5.077   0.516   4.287
 7899SOL     OW24595   5.411   5.453   1.251
 7899SOL    HW124596   5.508   5.430   1.262
 7899SOL    HW224597   5.369   5.463   1.341
 7900SOL     OW24598   0.303   4.336   0.684
 7900SOL    HW124599   0.363   4.415   0.672
 7900SOL    HW224600   0.279   4.299   0.594
 7901SOL     OW24601   4.946   1.004   6.132
 7901SOL    HW124602   4.910   1.015   6.039
 7901SOL    HW224603   4.879   1.039   6.198
 7902SOL     OW24604   0.138   6.795   2.807
 7902SOL    HW124605   0.078   6.805   2.886
 7902SOL    HW224606   0.096   6.733   2.740
 7903SOL     OW24607   3.129   1.811   4.052
 7903SOL    HW124608   3.071   1.874   4.001
 7903SOL    HW224609   3.160   1.737   3.991
 7904SOL     OW24610   6.000   0.785   2.556
 7904SOL    HW124611   6.068   0.851   2.523
 7904SOL    HW224612   5.955   0.822   2.638
 7905SOL     OW24613   5.587   1.099   0.438
 7905SOL    HW124614   5.529   1.076   0.516
 7905SOL    HW224615   5.544   1.066   0.354
 7906SOL     OW24616   1.589   5.034   1.760
 7906SOL    HW124617   1.634   4.958   1.713
 7906SOL    HW224618   1.587   5.114   1.700
 7907SOL     OW24619   5.820   0.829   2.780
 7907SOL    HW124620   5.724   0.803   2.792
 7907SOL    HW224621   5.873   0.800   2.859
 7908SOL     OW24622   0.498   1.788   6.878
 7908SOL    HW124623   0.536   1.701   6.908
 7908SOL    HW224624   0.466   1.839   6.958
 7909SOL     OW24625   5.129   4.851   2.852
 7909SOL    HW124626   5.205   4.913   2.831
 7909SOL    HW224627   5.149   4.761   2.813
 7910SOL     OW24628   1.939   3.256   0.677
 7910SOL    HW124629   2.024   3.298   0.708
 7910SOL    HW224630   1.952   3.157   0.667
 7911SOL     OW24631   1.015   3.981   1.269
 7911SOL    HW124632   1.076   3.978   1.190
 7911SOL    HW224633   1.068   3.999   1.352
 7912SOL     OW24634   5.295   5.372   0.278
 7912SOL    HW124635   5.251   5.295   0.231
 7912SOL    HW224636   5.280   5.364   0.376
 7913SOL     OW24637   1.094   3.981   0.768
 7913SOL    HW124638   1.063   3.891   0.736
 7913SOL    HW224639   1.191   3.991   0.749
 7914SOL     OW24640   7.005   4.961   5.948
 7914SOL    HW124641   7.002   5.046   5.895
 7914SOL    HW224642   0.073   4.926   5.951
 7915SOL     OW24643   3.930   0.987   3.023
 7915SOL    HW124644   3.950   0.914   3.089
 7915SOL    HW224645   3.831   0.994   3.011
 7916SOL     OW24646   0.719   6.954   4.650
 7916SOL    HW124647   0.691   7.016   4.577
 7916SOL    HW224648   0.810   6.979   4.683
 7917SOL     OW24649   4.108   2.465   6.615
 7917SOL    HW124650   4.029   2.504   6.663
 7917SOL    HW224651   4.090   2.370   6.592
 7918SOL     OW24652   1.690   1.281   4.951
 7918SOL    HW124653   1.694   1.274   5.050
 7918SOL    HW224654   1.728   1.198   4.910
 7919SOL     OW24655   1.211   4.685   3.628
 7919SOL    HW124656   1.291   4.652   3.678
 7919SOL    HW224657   1.234   4.768   3.578
 7920SOL     OW24658   4.741   0.723   1.774
 7920SOL    HW124659   4.702   0.632   1.761
 7920SOL    HW224660   4.825   0.731   1.721
 7921SOL     OW24661   5.220   2.127   1.630
 7921SOL    HW124662   5.229   2.218   1.671
 7921SOL    HW224663   5.188   2.135   1.536
 7922SOL     OW24664   0.863   6.534   6.783
 7922SOL    HW124665   0.937   6.558   6.846
 7922SOL    HW224666   0.881   6.446   6.741
 7923SOL     OW24667   3.390   2.194   6.114
 7923SOL    HW124668   3.335   2.273   6.143
 7923SOL    HW224669   3.374   2.176   6.017
 7924SOL     OW24670   5.956   6.712   1.164
 7924SOL    HW124671   5.894   6.695   1.241
 7924SOL    HW224672   5.927   6.659   1.085
 7925SOL     OW24673   2.676   6.516   0.594
 7925SOL    HW124674   2.626   6.582   0.537
 7925SOL    HW224675   2.683   6.429   0.545
 7926SOL     OW24676   5.382   1.074   6.361
 7926SOL    HW124677   5.452   1.003   6.364
 7926SOL    HW224678   5.419   1.159   6.397
 7927SOL     OW24679   5.455   6.748   1.963
 7927SOL    HW124680   5.402   6.746   2.048
 7927SOL    HW224681   5.544   6.789   1.980
 7928SOL     OW24682   0.120   1.012   3.228
 7928SOL    HW124683   0.166   0.941   3.280
 7928SOL    HW224684   0.159   1.017   3.136
 7929SOL     OW24685   4.660   3.994   6.803
 7929SOL    HW124686   4.616   3.972   6.716
 7929SOL    HW224687   4.755   3.964   6.801
 7930SOL     OW24688   3.542   5.589   6.174
 7930SOL    HW124689   3.467   5.641   6.134
 7930SOL    HW224690   3.597   5.549   6.100
 7931SOL     OW24691   3.085   2.350   0.513
 7931SOL    HW124692   3.034   2.436   0.511
 7931SOL    HW224693   3.086   2.310   0.421
 7932SOL     OW24694   6.955   5.633   0.980
 7932SOL    HW124695   6.962   5.534   0.989
 7932SOL    HW224696   0.004   5.667   0.922
 7933SOL     OW24697   6.321   0.519   5.759
 7933SOL    HW124698   6.368   0.467   5.687
 7933SOL    HW224699   6.262   0.587   5.717
 7934SOL     OW24700   1.626   4.607   1.078
 7934SOL    HW124701   1.628   4.508   1.061
 7934SOL    HW224702   1.711   4.648   1.044
 7935SOL     OW24703   5.637   4.119   2.230
 7935SOL    HW124704   5.673   4.198   2.181
 7935SOL    HW224705   5.565   4.076   2.174
 7936SOL     OW24706   2.763   6.018   3.789
 7936SOL    HW124707   2.834   5.961   3.748
 7936SOL    HW224708   2.753   5.993   3.886
 7937SOL     OW24709   1.799   6.007   4.867
 7937SOL    HW124710   1.750   6.091   4.888
 7937SOL    HW224711   1.772   5.974   4.776
 7938SOL     OW24712   5.311   0.617   4.964
 7938SOL    HW124713   5.255   0.537   4.985
 7938SOL    HW224714   5.260   0.678   4.904
 7939SOL     OW24715   0.663   1.887   5.281
 7939SOL    HW124716   0.668   1.927   5.190
 7939SOL    HW224717   0.567   1.872   5.305
 7940SOL     OW24718   4.453   2.081   2.380
 7940SOL    HW124719   4.401   2.008   2.337
 7940SOL    HW224720   4.395   2.132   2.444
 7941SOL     OW24721   4.278   6.358   3.303
 7941SOL    HW124722   4.213   6.309   3.244
 7941SOL    HW224723   4.370   6.348   3.266
 7942SOL     OW24724   1.239   2.796   2.080
 7942SOL    HW124725   1.289   2.778   2.165
 7942SOL    HW224726   1.201   2.711   2.044
 7943SOL     OW24727   2.104   4.713   5.665
 7943SOL    HW124728   2.014   4.744   5.697
 7943SOL    HW224729   2.139   4.643   5.727
 7944SOL     OW24730   1.037   2.255   1.483
 7944SOL    HW124731   1.110   2.321   1.496
 7944SOL    HW224732   0.949   2.302   1.482
 7945SOL     OW24733   6.575   5.279   3.134
 7945SOL    HW124734   6.505   5.333   3.182
 7945SOL    HW224735   6.660   5.332   3.129
 7946SOL     OW24736   4.013   0.127   5.363
 7946SOL    HW124737   4.054   0.076   5.438
 7946SOL    HW224738   4.085   0.174   5.311
 7947SOL     OW24739   2.072   2.586   5.214
 7947SOL    HW124740   1.987   2.639   5.205
 7947SOL    HW224741   2.123   2.618   5.293
 7948SOL     OW24742   1.336   4.673   2.280
 7948SOL    HW124743   1.291   4.618   2.350
 7948SOL    HW224744   1.427   4.699   2.311
 7949SOL     OW24745   4.701   4.537   5.698
 7949SOL    HW124746   4.654   4.624   5.680
 7949SOL    HW224747   4.634   4.468   5.725
 7950SOL     OW24748   5.787   5.791   5.449
 7950SOL    HW124749   5.812   5.797   5.353
 7950SOL    HW224750   5.868   5.803   5.506
 7951SOL     OW24751   2.824   5.303   2.502
 7951SOL    HW124752   2.760   5.324   2.428
 7951SOL    HW224753   2.824   5.377   2.569
 7952SOL     OW24754   6.041   3.623   6.966
 7952SOL    HW124755   6.045   3.525   6.947
 7952SOL    HW224756   6.034   3.673   6.880
 7953SOL     OW24757   4.012   1.365   1.062
 7953SOL    HW124758   4.041   1.439   1.001
 7953SOL    HW224759   3.973   1.404   1.145
 7954SOL     OW24760   3.571   3.950   6.562
 7954SOL    HW124761   3.617   4.037   6.545
 7954SOL    HW224762   3.601   3.913   6.650
 7955SOL     OW24763   2.145   1.652   5.769
 7955SOL    HW124764   2.157   1.741   5.813
 7955SOL    HW224765   2.064   1.654   5.711
 7956SOL     OW24766   5.891   1.462   1.885
 7956SOL    HW124767   5.916   1.478   1.789
 7956SOL    HW224768   5.811   1.403   1.889
 7957SOL     OW24769   4.309   0.309   5.585
 7957SOL    HW124770   4.234   0.247   5.608
 7957SOL    HW224771   4.282   0.367   5.508
 7958SOL     OW24772   5.827   3.696   6.613
 7958SOL    HW124773   5.733   3.663   6.621
 7958SOL    HW224774   5.839   3.742   6.525
 7959SOL     OW24775   4.821   0.539   6.420
 7959SOL    HW124776   4.886   0.604   6.382
 7959SOL    HW224777   4.790   0.572   6.509
 7960SOL     OW24778   0.406   0.746   6.414
 7960SOL    HW124779   0.466   0.795   6.477
 7960SOL    HW224780   0.351   0.811   6.362
 7961SOL     OW24781   6.651   6.732   0.533
 7961SOL    HW124782   6.735   6.784   0.514
 7961SOL    HW224783   6.572   6.790   0.516
 7962SOL     OW24784   6.977   0.651   6.474
 7962SOL    HW124785   6.995   0.652   6.572
 7962SOL    HW224786   0.014   0.588   6.429
 7963SOL     OW24787   6.274   4.475   4.293
 7963SOL    HW124788   6.325   4.554   4.326
 7963SOL    HW224789   6.282   4.469   4.193
 7964SOL     OW24790   6.795   3.089   1.411
 7964SOL    HW124791   6.770   3.180   1.443
 7964SOL    HW224792   6.864   3.050   1.472
 7965SOL     OW24793   4.721   2.530   6.975
 7965SOL    HW124794   4.769   2.450   7.013
 7965SOL    HW224795   4.786   2.604   6.960
 7966SOL     OW24796   4.150   3.984   5.905
 7966SOL    HW124797   4.183   4.011   5.815
 7966SOL    HW224798   4.158   4.062   5.968
 7967SOL     OW24799   1.364   5.229   2.338
 7967SOL    HW124800   1.337   5.318   2.375
 7967SOL    HW224801   1.463   5.228   2.325
 7968SOL     OW24802   6.640   1.786   4.853
 7968SOL    HW124803   6.731   1.770   4.817
 7968SOL    HW224804   6.577   1.716   4.818
 7969SOL     OW24805   4.894   5.694   0.299
 7969SOL    HW124806   4.973   5.640   0.268
 7969SOL    HW224807   4.905   5.717   0.395
 7970SOL     OW24808   5.866   2.589   2.452
 7970SOL    HW124809   5.838   2.670   2.400
 7970SOL    HW224810   5.965   2.589   2.464
 7971SOL     OW24811   3.427   1.777   1.484
 7971SOL    HW124812   3.347   1.834   1.503
 7971SOL    HW224813   3.428   1.699   1.547
 7972SOL     OW24814   3.865   3.226   1.788
 7972SOL    HW124815   3.904   3.159   1.852
 7972SOL    HW224816   3.938   3.280   1.748
 7973SOL     OW24817   5.936   3.810   3.840
 7973SOL    HW124818   5.951   3.712   3.852
 7973SOL    HW224819   5.997   3.861   3.901
 7974SOL     OW24820   6.335   1.342   4.904
 7974SOL    HW124821   6.237   1.348   4.923
 7974SOL    HW224822   6.367   1.250   4.924
 7975SOL     OW24823   4.143   0.987   0.408
 7975SOL    HW124824   4.212   1.059   0.403
 7975SOL    HW224825   4.073   1.004   0.338
 7976SOL     OW24826   0.853   6.923   5.809
 7976SOL    HW124827   0.896   6.929   5.899
 7976SOL    HW224828   0.768   6.870   5.816
 7977SOL     OW24829   5.787   6.328   2.507
 7977SOL    HW124830   5.751   6.416   2.478
 7977SOL    HW224831   5.723   6.255   2.483
 7978SOL     OW24832   0.386   3.855   0.796
 7978SOL    HW124833   0.406   3.920   0.722
 7978SOL    HW224834   0.468   3.841   0.851
 7979SOL     OW24835   1.626   3.724   5.129
 7979SOL    HW124836   1.661   3.712   5.036
 7979SOL    HW224837   1.701   3.709   5.194
 7980SOL     OW24838   3.382   4.702   5.938
 7980SOL    HW124839   3.425   4.685   5.849
 7980SOL    HW224840   3.357   4.798   5.945
 7981SOL     OW24841   1.506   5.004   3.290
 7981SOL    HW124842   1.560   4.939   3.344
 7981SOL    HW224843   1.487   5.085   3.346
 7982SOL     OW24844   0.909   1.161   6.042
 7982SOL    HW124845   0.843   1.234   6.023
 7982SOL    HW224846   0.989   1.173   5.985
 7983SOL     OW24847   5.741   1.535   1.351
 7983SOL    HW124848   5.691   1.500   1.430
 7983SOL    HW224849   5.829   1.488   1.344
 7984SOL     OW24850   0.637   1.770   1.362
 7984SOL    HW124851   0.569   1.738   1.427
 7984SOL    HW224852   0.681   1.691   1.318
 7985SOL     OW24853   2.344   2.176   5.251
 7985SOL    HW124854   2.441   2.179   5.227
 7985SOL    HW224855   2.294   2.244   5.196
 7986SOL     OW24856   3.994   1.917   5.156
 7986SOL    HW124857   3.914   1.913   5.217
 7986SOL    HW224858   3.970   1.877   5.067
 7987SOL     OW24859   1.683   4.159   0.791
 7987SOL    HW124860   1.645   4.092   0.854
 7987SOL    HW224861   1.756   4.117   0.736
 7988SOL     OW24862   0.200   0.869   1.813
 7988SOL    HW124863   0.182   0.833   1.721
 7988SOL    HW224864   0.276   0.934   1.809
 7989SOL     OW24865   1.633   4.087   0.104
 7989SOL    HW124866   1.552   4.117   0.052
 7989SOL    HW224867   1.682   4.018   0.051
 7990SOL     OW24868   2.611   6.411   4.244
 7990SOL    HW124869   2.608   6.323   4.290
 7990SOL    HW224870   2.520   6.453   4.246
 7991SOL     OW24871   5.522   1.895   4.502
 7991SOL    HW124872   5.436   1.881   4.552
 7991SOL    HW224873   5.506   1.882   4.404
 7992SOL     OW24874   2.368   0.478   0.602
 7992SOL    HW124875   2.274   0.513   0.604
 7992SOL    HW224876   2.428   0.546   0.561
 7993SOL     OW24877   0.038   0.086   2.352
 7993SOL    HW124878   0.096   0.029   2.410
 7993SOL    HW224879   0.094   0.153   2.304
 7994SOL     OW24880   5.135   0.581   3.326
 7994SOL    HW124881   5.196   0.622   3.393
 7994SOL    HW224882   5.063   0.647   3.302
 7995SOL     OW24883   5.818   4.756   2.578
 7995SOL    HW124884   5.771   4.680   2.534
 7995SOL    HW224885   5.856   4.725   2.665
 7996SOL     OW24886   4.116   0.450   4.004
 7996SOL    HW124887   4.077   0.470   4.094
 7996SOL    HW224888   4.046   0.404   3.948
 7997SOL     OW24889   0.455   2.021   0.040
 7997SOL    HW124890   0.429   1.946   0.101
 7997SOL    HW224891   0.386   2.093   0.046
 7998SOL     OW24892   3.148   0.386   0.061
 7998SOL    HW124893   3.154   0.294   0.099
 7998SOL    HW224894   3.120   0.380   6.991
 7999SOL     OW24895   1.085   1.799   6.171
 7999SOL    HW124896   1.037   1.712   6.168
 7999SOL    HW224897   1.174   1.791   6.126
 8000SOL     OW24898   6.363   6.816   6.480
 8000SOL    HW124899   6.263   6.811   6.474
 8000SOL    HW224900   6.391   6.794   6.574
 8001SOL     OW24901   4.606   6.879   1.063
 8001SOL    HW124902   4.511   6.903   1.081
 8001SOL    HW224903   4.632   6.913   0.973
 8002SOL     OW24904   0.423   1.247   5.349
 8002SOL    HW124905   0.408   1.151   5.323
 8002SOL    HW224906   0.340   1.284   5.390
 8003SOL     OW24907   2.001   6.759   1.954
 8003SOL    HW124908   2.026   6.842   2.005
 8003SOL    HW224909   1.902   6.753   1.946
 8004SOL     OW24910   2.179   3.129   3.430
 8004SOL    HW124911   2.170   3.172   3.340
 8004SOL    HW224912   2.153   3.032   3.423
 8005SOL     OW24913   2.938   0.114   3.939
 8005SOL    HW124914   2.869   0.167   3.888
 8005SOL    HW224915   2.984   0.175   4.004
 8006SOL     OW24916   3.387   5.733   5.051
 8006SOL    HW124917   3.350   5.692   5.135
 8006SOL    HW224918   3.312   5.759   4.991
 8007SOL     OW24919   5.480   1.919   6.450
 8007SOL    HW124920   5.450   1.840   6.503
 8007SOL    HW224921   5.509   1.889   6.359
 8008SOL     OW24922   3.316   6.675   0.241
 8008SOL    HW124923   3.314   6.621   0.325
 8008SOL    HW224924   3.367   6.626   0.170
 8009SOL     OW24925   5.149   1.159   0.819
 8009SOL    HW124926   5.221   1.150   0.887
 8009SOL    HW224927   5.125   1.256   0.809
 8010SOL     OW24928   2.957   2.745   5.559
 8010SOL    HW124929   2.982   2.734   5.655
 8010SOL    HW224930   3.010   2.819   5.518
 8011SOL     OW24931   3.851   2.041   1.828
 8011SOL    HW124932   3.817   2.100   1.901
 8011SOL    HW224933   3.779   2.025   1.761
 8012SOL     OW24934   0.557   2.736   5.833
 8012SOL    HW124935   0.615   2.685   5.769
 8012SOL    HW224936   0.614   2.790   5.894
 8013SOL     OW24937   0.966   2.466   3.259
 8013SOL    HW124938   0.890   2.511   3.214
 8013SOL    HW224939   0.949   2.367   3.262
 8014SOL     OW24940   1.726   6.934   3.930
 8014SOL    HW124941   1.712   6.852   3.875
 8014SOL    HW224942   1.659   7.003   3.905
 8015SOL     OW24943   1.800   0.320   5.596
 8015SOL    HW124944   1.796   0.232   5.643
 8015SOL    HW224945   1.743   0.316   5.514
 8016SOL     OW24946   3.787   1.914   4.709
 8016SOL    HW124947   3.836   1.855   4.774
 8016SOL    HW224948   3.844   1.993   4.687
 8017SOL     OW24949   6.848   6.901   0.135
 8017SOL    HW124950   6.881   6.809   0.113
 8017SOL    HW224951   6.749   6.899   0.148
 8018SOL     OW24952   3.769   2.302   6.851
 8018SOL    HW124953   3.748   2.266   6.942
 8018SOL    HW224954   3.859   2.269   6.821
 8019SOL     OW24955   2.388   3.858   0.697
 8019SOL    HW124956   2.403   3.772   0.746
 8019SOL    HW224957   2.456   3.926   0.726
 8020SOL     OW24958   5.896   6.819   6.005
 8020SOL    HW124959   5.904   6.727   5.967
 8020SOL    HW224960   5.813   6.863   5.970
 8021SOL     OW24961   2.466   2.514   1.751
 8021SOL    HW124962   2.470   2.612   1.735
 8021SOL    HW224963   2.373   2.481   1.736
 8022SOL     OW24964   5.986   0.279   1.413
 8022SOL    HW124965   5.978   0.179   1.421
 8022SOL    HW224966   6.019   0.316   1.499
 8023SOL     OW24967   5.873   5.607   2.857
 8023SOL    HW124968   5.855   5.517   2.895
 8023SOL    HW224969   5.841   5.610   2.762
 8024SOL     OW24970   1.656   5.830   6.354
 8024SOL    HW124971   1.741   5.877   6.334
 8024SOL    HW224972   1.676   5.736   6.384
 8025SOL     OW24973   1.842   4.750   1.559
 8025SOL    HW124974   1.786   4.820   1.516
 8025SOL    HW224975   1.791   4.707   1.634
 8026SOL     OW24976   0.038   4.424   1.062
 8026SOL    HW124977   0.097   4.354   1.021
 8026SOL    HW224978   0.094   4.501   1.092
 8027SOL     OW24979   3.599   6.650   5.161
 8027SOL    HW124980   3.540   6.713   5.111
 8027SOL    HW224981   3.543   6.596   5.224
 8028SOL     OW24982   2.370   6.168   4.165
 8028SOL    HW124983   2.281   6.211   4.150
 8028SOL    HW224984   2.379   6.088   4.106
 8029SOL     OW24985   4.962   2.006   1.773
 8029SOL    HW124986   5.008   1.952   1.703
 8029SOL    HW224987   4.924   2.089   1.733
 8030SOL     OW24988   6.232   5.139   0.892
 8030SOL    HW124989   6.243   5.058   0.835
 8030SOL    HW224990   6.270   5.219   0.844
 8031SOL     OW24991   5.926   0.047   3.243
 8031SOL    HW124992   5.925   6.981   3.282
 8031SOL    HW224993   5.942   0.114   3.315
 8032SOL     OW24994   4.955   3.654   1.668
 8032SOL    HW124995   4.979   3.715   1.593
 8032SOL    HW224996   4.864   3.677   1.701
 8033SOL     OW24997   4.212   3.734   0.380
 8033SOL    HW124998   4.293   3.767   0.428
 8033SOL    HW224999   4.154   3.685   0.445
 8034SOL     OW25000   5.659   0.694   5.212
 8034SOL    HW125001   5.720   0.773   5.206
 8034SOL    HW225002   5.637   0.662   5.120
 8035SOL     OW25003   4.519   0.931   2.499
 8035SOL    HW125004   4.478   0.976   2.578
 8035SOL    HW225005   4.454   0.931   2.423
 8036SOL     OW25006   6.642   2.901   3.667
 8036SOL    HW125007   6.560   2.953   3.644
 8036SOL    HW225008   6.625   2.804   3.654
 8037SOL     OW25009   1.305   3.216   0.035
 8037SOL    HW125010   1.242   3.146   0.069
 8037SOL    HW225011   1.396   3.201   0.075
 8038SOL     OW25012   5.893   6.239   1.841
 8038SOL    HW125013   5.808   6.267   1.798
 8038SOL    HW225014   5.890   6.260   1.939
 8039SOL     OW25015   0.257   2.622   5.149
 8039SOL    HW125016   0.209   2.708   5.132
 8039SOL    HW225017   0.315   2.631   5.230
 8040SOL     OW25018   2.256   5.856   6.217
 8040SOL    HW125019   2.188   5.845   6.144
 8040SOL    HW225020   2.229   5.933   6.275
 8041SOL     OW25021   3.350   1.505   2.892
 8041SOL    HW125022   3.272   1.443   2.885
 8041SOL    HW225023   3.319   1.592   2.931
 8042SOL     OW25024   4.425   4.366   5.691
 8042SOL    HW125025   4.429   4.401   5.785
 8042SOL    HW225026   4.331   4.337   5.671
 8043SOL     OW25027   4.337   5.370   1.081
 8043SOL    HW125028   4.321   5.405   0.989
 8043SOL    HW225029   4.436   5.361   1.096
 8044SOL     OW25030   4.117   3.750   1.265
 8044SOL    HW125031   4.161   3.827   1.217
 8044SOL    HW225032   4.028   3.732   1.223
 8045SOL     OW25033   7.023   1.654   3.079
 8045SOL    HW125034   6.971   1.670   2.995
 8045SOL    HW225035   7.017   1.558   3.105
 8046SOL     OW25036   0.289   4.882   1.814
 8046SOL    HW125037   0.219   4.954   1.811
 8046SOL    HW225038   0.245   4.795   1.837
 8047SOL     OW25039   3.780   6.787   6.437
 8047SOL    HW125040   3.790   6.859   6.505
 8047SOL    HW225041   3.851   6.717   6.451
 8048SOL     OW25042   4.019   2.904   0.069
 8048SOL    HW125043   3.922   2.927   0.059
 8048SOL    HW225044   4.072   2.988   0.084
 8049SOL     OW25045   1.282   6.406   0.260
 8049SOL    HW125046   1.189   6.431   0.234
 8049SOL    HW225047   1.345   6.480   0.236
 8050SOL     OW25048   1.792   4.077   4.553
 8050SOL    HW125049   1.818   4.008   4.485
 8050SOL    HW225050   1.851   4.069   4.633
 8051SOL     OW25051   4.708   5.822   4.405
 8051SOL    HW125052   4.680   5.736   4.361
 8051SOL    HW225053   4.745   5.802   4.496
 8052SOL     OW25054   2.622   1.557   2.162
 8052SOL    HW125055   2.623   1.467   2.118
 8052SOL    HW225056   2.529   1.579   2.191
 8053SOL     OW25057   2.886   3.099   5.513
 8053SOL    HW125058   2.888   3.105   5.612
 8053SOL    HW225059   2.792   3.083   5.482
 8054SOL     OW25060   6.125   4.282   5.208
 8054SOL    HW125061   6.144   4.226   5.127
 8054SOL    HW225062   6.068   4.360   5.181
 8055SOL     OW25063   6.981   0.655   5.456
 8055SOL    HW125064   7.017   0.741   5.490
 8055SOL    HW225065   0.025   0.584   5.464
 8056SOL     OW25066   2.826   6.562   3.417
 8056SOL    HW125067   2.787   6.472   3.395
 8056SOL    HW225068   2.871   6.599   3.336
 8057SOL     OW25069   2.595   1.926   1.953
 8057SOL    HW125070   2.692   1.947   1.963
 8057SOL    HW225071   2.579   1.828   1.969
 8058SOL     OW25072   2.709   6.529   3.038
 8058SOL    HW125073   2.754   6.607   2.995
 8058SOL    HW225074   2.678   6.554   3.129
 8059SOL     OW25075   3.456   1.224   5.281
 8059SOL    HW125076   3.406   1.299   5.325
 8059SOL    HW225077   3.467   1.245   5.183
 8060SOL     OW25078   6.770   0.774   6.080
 8060SOL    HW125079   6.816   0.852   6.122
 8060SOL    HW225080   6.833   0.696   6.077
 8061SOL     OW25081   0.366   0.813   2.801
 8061SOL    HW125082   0.424   0.735   2.778
 8061SOL    HW225083   0.289   0.818   2.738
 8062SOL     OW25084   3.877   5.270   4.652
 8062SOL    HW125085   3.895   5.172   4.647
 8062SOL    HW225086   3.964   5.319   4.652
 8063SOL     OW25087   3.340   0.840   2.880
 8063SOL    HW125088   3.435   0.860   2.905
 8063SOL    HW225089   3.284   0.922   2.892
 8064SOL     OW25090   6.408   3.072   0.351
 8064SOL    HW125091   6.392   3.170   0.341
 8064SOL    HW225092   6.400   3.047   0.448
 8065SOL     OW25093   3.737   0.025   4.596
 8065SOL    HW125094   3.702   0.091   4.663
 8065SOL    HW225095   3.711   6.958   4.622
 8066SOL     OW25096   6.942   0.910   4.479
 8066SOL    HW125097   7.012   0.864   4.424
 8066SOL    HW225098   6.956   0.889   4.576
 8067SOL     OW25099   5.312   3.023   3.835
 8067SOL    HW125100   5.215   3.001   3.831
 8067SOL    HW225101   5.327   3.116   3.803
 8068SOL     OW25102   0.623   4.995   0.964
 8068SOL    HW125103   0.623   4.944   1.050
 8068SOL    HW225104   0.584   4.938   0.891
 8069SOL     OW25105   2.879   5.008   2.035
 8069SOL    HW125106   2.804   4.990   2.099
 8069SOL    HW225107   2.905   4.923   1.989
 8070SOL     OW25108   4.076   3.985   0.693
 8070SOL    HW125109   4.040   4.039   0.618
 8070SOL    HW225110   4.042   3.891   0.687
 8071SOL     OW25111   4.123   6.933   5.125
 8071SOL    HW125112   4.027   6.952   5.146
 8071SOL    HW225113   4.144   6.962   5.032
 8072SOL     OW25114   3.420   2.663   0.387
 8072SOL    HW125115   3.325   2.690   0.370
 8072SOL    HW225116   3.451   2.604   0.312
 8073SOL     OW25117   2.958   6.939   5.674
 8073SOL    HW125118   3.027   6.992   5.624
 8073SOL    HW225119   2.934   6.857   5.622
 8074SOL     OW25120   2.084   1.013   1.233
 8074SOL    HW125121   2.040   1.006   1.323
 8074SOL    HW225122   2.107   1.108   1.215
 8075SOL     OW25123   0.528   6.660   0.744
 8075SOL    HW125124   0.524   6.758   0.728
 8075SOL    HW225125   0.524   6.611   0.657
 8076SOL     OW25126   0.388   7.006   6.407
 8076SOL    HW125127   0.292   6.980   6.414
 8076SOL    HW225128   0.436   6.984   6.492
 8077SOL     OW25129   4.156   6.188   1.952
 8077SOL    HW125130   4.082   6.175   1.886
 8077SOL    HW225131   4.225   6.116   1.940
 8078SOL     OW25132   0.797   1.765   0.988
 8078SOL    HW125133   0.874   1.709   1.016
 8078SOL    HW225134   0.712   1.728   1.025
 8079SOL     OW25135   0.080   1.708   4.294
 8079SOL    HW125136   0.053   1.728   4.200
 8079SOL    HW225137   0.061   1.786   4.353
 8080SOL     OW25138   1.450   2.718   2.251
 8080SOL    HW125139   1.408   2.631   2.226
 8080SOL    HW225140   1.546   2.718   2.222
 8081SOL     OW25141   6.113   4.657   5.533
 8081SOL    HW125142   6.129   4.755   5.540
 8081SOL    HW225143   6.109   4.617   5.625
 8082SOL     OW25144   3.424   0.443   2.012
 8082SOL    HW125145   3.506   0.425   2.066
 8082SOL    HW225146   3.362   0.501   2.063
 8083SOL     OW25147   5.459   2.892   4.067
 8083SOL    HW125148   5.444   2.973   4.010
 8083SOL    HW225149   5.553   2.894   4.103
 8084SOL     OW25150   2.751   0.900   5.093
 8084SOL    HW125151   2.709   0.819   5.133
 8084SOL    HW225152   2.841   0.877   5.056
 8085SOL     OW25153   6.580   6.651   2.892
 8085SOL    HW125154   6.528   6.596   2.826
 8085SOL    HW225155   6.678   6.638   2.877
 8086SOL     OW25156   0.026   0.829   1.318
 8086SOL    HW125157   6.972   0.850   1.376
 8086SOL    HW225158   7.020   0.797   1.228
 8087SOL     OW25159   1.614   0.691   6.173
 8087SOL    HW125160   1.587   0.760   6.240
 8087SOL    HW225161   1.651   0.736   6.091
 8088SOL     OW25162   5.942   0.078   6.780
 8088SOL    HW125163   6.013   0.088   6.710
 8088SOL    HW225164   5.969   0.006   6.844
 8089SOL     OW25165   5.884   2.675   6.546
 8089SOL    HW125166   5.946   2.678   6.467
 8089SOL    HW225167   5.938   2.681   6.630
 8090SOL     OW25168   3.710   1.470   6.141
 8090SOL    HW125169   3.649   1.391   6.134
 8090SOL    HW225170   3.776   1.454   6.215
 8091SOL     OW25171   1.290   4.233   4.342
 8091SOL    HW125172   1.385   4.215   4.316
 8091SOL    HW225173   1.280   4.220   4.440
 8092SOL     OW25174   4.705   2.183   5.136
 8092SOL    HW125175   4.776   2.113   5.127
 8092SOL    HW225176   4.742   2.272   5.109
 8093SOL     OW25177   3.450   5.517   3.412
 8093SOL    HW125178   3.466   5.607   3.372
 8093SOL    HW225179   3.473   5.446   3.346
 8094SOL     OW25180   0.456   3.557   5.663
 8094SOL    HW125181   0.551   3.562   5.632
 8094SOL    HW225182   0.454   3.546   5.763
 8095SOL     OW25183   0.750   5.493   4.650
 8095SOL    HW125184   0.767   5.405   4.604
 8095SOL    HW225185   0.783   5.489   4.744
 8096SOL     OW25186   1.484   0.669   2.620
 8096SOL    HW125187   1.539   0.721   2.554
 8096SOL    HW225188   1.536   0.588   2.648
 8097SOL     OW25189   4.181   0.341   4.786
 8097SOL    HW125190   4.171   0.345   4.686
 8097SOL    HW225191   4.116   0.404   4.829
 8098SOL     OW25192   1.766   6.724   3.656
 8098SOL    HW125193   1.757   6.644   3.598
 8098SOL    HW225194   1.676   6.766   3.669
 8099SOL     OW25195   4.197   6.107   4.320
 8099SOL    HW125196   4.178   6.094   4.222
 8099SOL    HW225197   4.256   6.187   4.332
 8100SOL     OW25198   6.562   1.540   0.061
 8100SOL    HW125199   6.554   1.501   6.995
 8100SOL    HW225200   6.519   1.479   0.127
 8101SOL     OW25201   1.745   5.088   0.919
 8101SOL    HW125202   1.671   5.105   0.984
 8101SOL    HW225203   1.748   4.991   0.896
 8102SOL     OW25204   0.910   3.660   3.937
 8102SOL    HW125205   0.910   3.751   3.897
 8102SOL    HW225206   0.993   3.611   3.909
 8103SOL     OW25207   3.653   0.321   2.120
 8103SOL    HW125208   3.652   0.221   2.123
 8103SOL    HW225209   3.665   0.357   2.213
 8104SOL     OW25210   2.035   7.009   5.085
 8104SOL    HW125211   2.109   0.026   5.136
 8104SOL    HW225212   2.005   0.046   5.013
 8105SOL     OW25213   0.198   2.348   2.630
 8105SOL    HW125214   0.134   2.395   2.570
 8105SOL    HW225215   0.229   2.411   2.702
 8106SOL     OW25216   2.344   6.328   3.429
 8106SOL    HW125217   2.393   6.371   3.354
 8106SOL    HW225218   2.390   6.242   3.454
 8107SOL     OW25219   1.256   5.937   4.309
 8107SOL    HW125220   1.306   5.854   4.336
 8107SOL    HW225221   1.305   5.983   4.235
 8108SOL     OW25222   6.705   1.787   0.041
 8108SOL    HW125223   6.695   1.820   6.972
 8108SOL    HW225224   6.646   1.708   0.055
 8109SOL     OW25225   0.391   4.060   6.802
 8109SOL    HW125226   0.309   4.006   6.823
 8109SOL    HW225227   0.458   4.002   6.756
 8110SOL     OW25228   4.123   4.631   1.627
 8110SOL    HW125229   4.186   4.586   1.691
 8110SOL    HW225230   4.154   4.614   1.533
 8111SOL     OW25231   5.003   0.939   4.234
 8111SOL    HW125232   5.088   0.966   4.189
 8111SOL    HW225233   5.019   0.930   4.332
 8112SOL     OW25234   1.459   2.950   4.111
 8112SOL    HW125235   1.516   2.946   4.193
 8112SOL    HW225236   1.504   2.900   4.037
 8113SOL     OW25237   6.367   3.442   0.669
 8113SOL    HW125238   6.359   3.536   0.704
 8113SOL    HW225239   6.370   3.378   0.746
 8114SOL     OW25240   1.413   3.331   1.848
 8114SOL    HW125241   1.409   3.231   1.855
 8114SOL    HW225242   1.354   3.361   1.773
 8115SOL     OW25243   2.845   6.468   5.778
 8115SOL    HW125244   2.760   6.491   5.730
 8115SOL    HW225245   2.922   6.492   5.720
 8116SOL     OW25246   4.439   4.864   0.196
 8116SOL    HW125247   4.522   4.833   0.241
 8116SOL    HW225248   4.395   4.935   0.252
 8117SOL     OW25249   2.515   6.951   3.403
 8117SOL    HW125250   2.468   6.948   3.491
 8117SOL    HW225251   2.452   6.987   3.334
 8118SOL     OW25252   5.831   3.957   6.457
 8118SOL    HW125253   5.891   3.928   6.383
 8118SOL    HW225254   5.738   3.924   6.441
 8119SOL     OW25255   4.811   6.333   5.976
 8119SOL    HW125256   4.801   6.372   6.067
 8119SOL    HW225257   4.878   6.386   5.923
 8120SOL     OW25258   2.683   4.747   0.673
 8120SOL    HW125259   2.780   4.740   0.695
 8120SOL    HW225260   2.642   4.656   0.672
 8121SOL     OW25261   0.663   4.704   2.173
 8121SOL    HW125262   0.748   4.656   2.152
 8121SOL    HW225263   0.638   4.688   2.268
 8122SOL     OW25264   0.694   4.495   3.185
 8122SOL    HW125265   0.759   4.419   3.185
 8122SOL    HW225266   0.601   4.459   3.197
 8123SOL     OW25267   6.961   1.330   0.208
 8123SOL    HW125268   6.925   1.236   0.207
 8123SOL    HW225269   7.018   1.345   0.127
 8124SOL     OW25270   5.103   6.422   3.530
 8124SOL    HW125271   5.016   6.374   3.536
 8124SOL    HW225272   5.170   6.364   3.483
 8125SOL     OW25273   1.279   1.252   2.543
 8125SOL    HW125274   1.334   1.316   2.488
 8125SOL    HW225275   1.268   1.288   2.635
 8126SOL     OW25276   5.025   4.824   3.417
 8126SOL    HW125277   5.055   4.787   3.329
 8126SOL    HW225278   5.009   4.923   3.407
 8127SOL     OW25279   2.962   2.984   6.522
 8127SOL    HW125280   2.874   2.991   6.474
 8127SOL    HW225281   3.005   2.897   6.499
 8128SOL     OW25282   3.175   2.097   2.284
 8128SOL    HW125283   3.099   2.161   2.275
 8128SOL    HW225284   3.235   2.104   2.204
 8129SOL     OW25285   2.977   1.911   6.712
 8129SOL    HW125286   2.883   1.938   6.694
 8129SOL    HW225287   3.037   1.991   6.707
 8130SOL     OW25288   1.342   6.228   6.673
 8130SOL    HW125289   1.313   6.159   6.740
 8130SOL    HW225290   1.409   6.187   6.611
 8131SOL     OW25291   2.989   1.850   1.586
 8131SOL    HW125292   2.942   1.892   1.508
 8131SOL    HW225293   2.932   1.860   1.668
 8132SOL     OW25294   5.620   6.394   4.672
 8132SOL    HW125295   5.619   6.295   4.689
 8132SOL    HW225296   5.527   6.429   4.674
 8133SOL     OW25297   3.560   5.610   2.023
 8133SOL    HW125298   3.539   5.671   2.099
 8133SOL    HW225299   3.533   5.517   2.047
 8134SOL     OW25300   7.007   1.341   6.308
 8134SOL    HW125301   0.054   1.358   6.375
 8134SOL    HW225302   0.005   1.385   6.221
 8135SOL     OW25303   1.577   0.809   1.431
 8135SOL    HW125304   1.522   0.725   1.437
 8135SOL    HW225305   1.516   0.888   1.430
 8136SOL     OW25306   5.567   5.481   2.254
 8136SOL    HW125307   5.537   5.575   2.236
 8136SOL    HW225308   5.667   5.480   2.265
 8137SOL     OW25309   2.937   1.149   5.771
 8137SOL    HW125310   2.868   1.210   5.809
 8137SOL    HW225311   2.896   1.095   5.696
 8138SOL     OW25312   5.507   1.016   1.548
 8138SOL    HW125313   5.431   1.012   1.482
 8138SOL    HW225314   5.490   0.951   1.622
 8139SOL     OW25315   0.187   1.099   2.056
 8139SOL    HW125316   0.148   1.185   2.088
 8139SOL    HW225317   0.271   1.118   2.005
 8140SOL     OW25318   5.041   1.388   4.893
 8140SOL    HW125319   4.949   1.348   4.903
 8140SOL    HW225320   5.045   1.440   4.809
 8141SOL     OW25321   4.600   5.526   5.912
 8141SOL    HW125322   4.676   5.461   5.915
 8141SOL    HW225323   4.635   5.617   5.887
 8142SOL     OW25324   6.501   5.284   6.882
 8142SOL    HW125325   6.429   5.352   6.896
 8142SOL    HW225326   6.588   5.320   6.915
 8143SOL     OW25327   6.510   5.123   0.175
 8143SOL    HW125328   6.529   5.079   0.087
 8143SOL    HW225329   6.426   5.176   0.168
 8144SOL     OW25330   5.658   6.972   6.783
 8144SOL    HW125331   5.756   6.988   6.798
 8144SOL    HW225332   5.640   6.874   6.780
 8145SOL     OW25333   5.901   5.498   2.569
 8145SOL    HW125334   6.000   5.486   2.574
 8145SOL    HW225335   5.867   5.462   2.482
 8146SOL     OW25336   3.867   1.499   4.962
 8146SOL    HW125337   3.924   1.418   4.967
 8146SOL    HW225338   3.806   1.502   5.042
 8147SOL     OW25339   5.867   2.168   3.164
 8147SOL    HW125340   5.951   2.214   3.193
 8147SOL    HW225341   5.804   2.161   3.241
 8148SOL     OW25342   5.821   3.972   2.452
 8148SOL    HW125343   5.781   4.003   2.538
 8148SOL    HW225344   5.788   4.029   2.377
 8149SOL     OW25345   2.981   5.733   2.522
 8149SOL    HW125346   2.891   5.776   2.517
 8149SOL    HW225347   2.996   5.677   2.441
 8150SOL     OW25348   6.934   5.252   0.199
 8150SOL    HW125349   7.024   5.210   0.209
 8150SOL    HW225350   6.890   5.257   0.289
 8151SOL     OW25351   0.301   2.509   2.871
 8151SOL    HW125352   0.349   2.424   2.891
 8151SOL    HW225353   0.212   2.508   2.917
 8152SOL     OW25354   1.071   1.564   2.796
 8152SOL    HW125355   1.161   1.555   2.753
 8152SOL    HW225356   1.027   1.648   2.765
 8153SOL     OW25357   3.242   6.795   3.175
 8153SOL    HW125358   3.317   6.758   3.229
 8153SOL    HW225359   3.277   6.860   3.108
 8154SOL     OW25360   2.011   6.081   4.173
 8154SOL    HW125361   2.024   5.982   4.183
 8154SOL    HW225362   2.065   6.114   4.095
 8155SOL     OW25363   2.876   3.387   1.882
 8155SOL    HW125364   2.785   3.405   1.845
 8155SOL    HW225365   2.943   3.440   1.832
 8156SOL     OW25366   5.974   0.051   5.643
 8156SOL    HW125367   5.946   6.992   5.599
 8156SOL    HW225368   5.901   0.083   5.704
 8157SOL     OW25369   5.907   6.118   5.848
 8157SOL    HW125370   5.953   6.095   5.934
 8157SOL    HW225371   5.811   6.093   5.854
 8158SOL     OW25372   0.820   5.742   0.420
 8158SOL    HW125373   0.899   5.720   0.362
 8158SOL    HW225374   0.843   5.821   0.477
 8159SOL     OW25375   2.169   5.627   2.160
 8159SOL    HW125376   2.087   5.682   2.175
 8159SOL    HW225377   2.243   5.685   2.127
 8160SOL     OW25378   4.479   1.452   1.237
 8160SOL    HW125379   4.525   1.364   1.230
 8160SOL    HW225380   4.381   1.438   1.251
 8161SOL     OW25381   5.128   0.966   1.151
 8161SOL    HW125382   5.124   0.914   1.066
 8161SOL    HW225383   5.190   1.044   1.140
 8162SOL     OW25384   6.343   6.520   6.902
 8162SOL    HW125385   6.412   6.491   6.969
 8162SOL    HW225386   6.268   6.566   6.950
 8163SOL     OW25387   2.721   4.384   5.645
 8163SOL    HW125388   2.667   4.350   5.722
 8163SOL    HW225389   2.674   4.364   5.559
 8164SOL     OW25390   5.736   3.382   1.109
 8164SOL    HW125391   5.676   3.321   1.160
 8164SOL    HW225392   5.691   3.471   1.097
 8165SOL     OW25393   2.002   4.370   0.868
 8165SOL    HW125394   1.980   4.275   0.888
 8165SOL    HW225395   2.080   4.374   0.805
 8166SOL     OW25396   2.415   1.087   1.844
 8166SOL    HW125397   2.407   1.175   1.890
 8166SOL    HW225398   2.453   1.019   1.906
 8167SOL     OW25399   5.481   1.958   4.201
 8167SOL    HW125400   5.519   2.050   4.209
 8167SOL    HW225401   5.510   1.917   4.115
 8168SOL     OW25402   3.637   1.993   2.360
 8168SOL    HW125403   3.612   1.898   2.343
 8168SOL    HW225404   3.617   2.017   2.455
 8169SOL     OW25405   4.392   3.300   0.917
 8169SOL    HW125406   4.342   3.215   0.930
 8169SOL    HW225407   4.402   3.346   1.006
 8170SOL     OW25408   1.456   5.655   3.360
 8170SOL    HW125409   1.451   5.663   3.261
 8170SOL    HW225410   1.403   5.575   3.389
 8171SOL     OW25411   0.379   2.252   6.557
 8171SOL    HW125412   0.458   2.196   6.532
 8171SOL    HW225413   0.318   2.200   6.617
 8172SOL     OW25414   0.059   0.930   0.706
 8172SOL    HW125415   0.052   0.865   0.781
 8172SOL    HW225416   6.998   0.979   0.695
 8173SOL     OW25417   3.291   2.369   6.984
 8173SOL    HW125418   3.308   2.399   6.890
 8173SOL    HW225419   3.262   2.447   0.014
 8174SOL     OW25420   5.360   2.268   1.210
 8174SOL    HW125421   5.356   2.215   1.125
 8174SOL    HW225422   5.364   2.365   1.189
 8175SOL     OW25423   6.686   2.457   6.778
 8175SOL    HW125424   6.689   2.514   6.860
 8175SOL    HW225425   6.771   2.468   6.726
 8176SOL     OW25426   3.533   5.807   2.194
 8176SOL    HW125427   3.441   5.826   2.230
 8176SOL    HW225428   3.561   5.881   2.133
 8177SOL     OW25429   1.494   6.347   3.487
 8177SOL    HW125430   1.420   6.310   3.432
 8177SOL    HW225431   1.546   6.272   3.529
 8178SOL     OW25432   1.689   0.242   6.143
 8178SOL    HW125433   1.782   0.263   6.113
 8178SOL    HW225434   1.687   0.151   6.186
 8179SOL     OW25435   3.403   3.196   0.052
 8179SOL    HW125436   3.465   3.236   0.120
 8179SOL    HW225437   3.453   3.180   6.992
 8180SOL     OW25438   6.720   0.162   3.825
 8180SOL    HW125439   6.811   0.153   3.866
 8180SOL    HW225440   6.669   0.078   3.838
 8181SOL     OW25441   2.517   2.166   2.857
 8181SOL    HW125442   2.426   2.153   2.817
 8181SOL    HW225443   2.513   2.148   2.955
 8182SOL     OW25444   3.066   1.900   5.720
 8182SOL    HW125445   2.992   1.891   5.654
 8182SOL    HW225446   3.147   1.936   5.675
 8183SOL     OW25447   0.811   3.109   5.358
 8183SOL    HW125448   0.758   3.194   5.357
 8183SOL    HW225449   0.765   3.041   5.300
 8184SOL     OW25450   6.206   0.965   5.892
 8184SOL    HW125451   6.167   0.916   5.970
 8184SOL    HW225452   6.268   0.904   5.842
 8185SOL     OW25453   3.047   0.712   0.556
 8185SOL    HW125454   3.133   0.676   0.520
 8185SOL    HW225455   2.975   0.644   0.544
 8186SOL     OW25456   3.180   6.012   5.538
 8186SOL    HW125457   3.191   5.915   5.517
 8186SOL    HW225458   3.113   6.022   5.612
 8187SOL     OW25459   1.320   1.614   5.564
 8187SOL    HW125460   1.239   1.578   5.610
 8187SOL    HW225461   1.345   1.553   5.489
 8188SOL     OW25462   5.020   1.822   2.484
 8188SOL    HW125463   5.004   1.920   2.472
 8188SOL    HW225464   5.115   1.800   2.461
 8189SOL     OW25465   4.972   4.441   2.494
 8189SOL    HW125466   4.894   4.473   2.548
 8189SOL    HW225467   4.959   4.468   2.398
 8190SOL     OW25468   5.610   4.267   4.139
 8190SOL    HW125469   5.691   4.321   4.118
 8190SOL    HW225470   5.531   4.301   4.088
 8191SOL     OW25471   1.242   5.424   3.789
 8191SOL    HW125472   1.210   5.455   3.700
 8191SOL    HW225473   1.306   5.348   3.776
 8192SOL     OW25474   2.687   5.536   1.185
 8192SOL    HW125475   2.748   5.509   1.259
 8192SOL    HW225476   2.697   5.472   1.109
 8193SOL     OW25477   6.092   6.070   4.935
 8193SOL    HW125478   6.001   6.031   4.922
 8193SOL    HW225479   6.152   6.002   4.977
 8194SOL     OW25480   6.506   2.068   0.297
 8194SOL    HW125481   6.458   2.115   0.372
 8194SOL    HW225482   6.514   2.130   0.219
 8195SOL     OW25483   0.138   0.488   0.918
 8195SOL    HW125484   0.200   0.425   0.964
 8195SOL    HW225485   0.187   0.539   0.848
 8196SOL     OW25486   3.849   6.438   5.748
 8196SOL    HW125487   3.798   6.453   5.663
 8196SOL    HW225488   3.798   6.376   5.807
 8197SOL     OW25489   6.474   1.063   6.279
 8197SOL    HW125490   6.459   0.967   6.256
 8197SOL    HW225491   6.562   1.071   6.327
 8198SOL     OW25492   2.646   6.819   2.659
 8198SOL    HW125493   2.599   6.820   2.571
 8198SOL    HW225494   2.588   6.859   2.730
 8199SOL     OW25495   0.400   3.628   0.470
 8199SOL    HW125496   0.306   3.662   0.478
 8199SOL    HW225497   0.401   3.544   0.416
 8200SOL     OW25498   4.474   4.561   1.472
 8200SOL    HW125499   4.507   4.583   1.564
 8200SOL    HW225500   4.551   4.566   1.408
 8201SOL     OW25501   5.341   1.103   4.765
 8201SOL    HW125502   5.335   1.124   4.667
 8201SOL    HW225503   5.328   1.186   4.818
 8202SOL     OW25504   1.643   5.090   3.640
 8202SOL    HW125505   1.612   5.151   3.712
 8202SOL    HW225506   1.737   5.060   3.660
 8203SOL     OW25507   4.751   3.416   1.298
 8203SOL    HW125508   4.723   3.508   1.325
 8203SOL    HW225509   4.845   3.400   1.328
 8204SOL     OW25510   3.634   6.892   1.954
 8204SOL    HW125511   3.544   6.849   1.967
 8204SOL    HW225512   3.671   6.865   1.865
 8205SOL     OW25513   5.390   5.436   1.793
 8205SOL    HW125514   5.346   5.395   1.873
 8205SOL    HW225515   5.485   5.406   1.788
 8206SOL     OW25516   3.658   2.270   6.007
 8206SOL    HW125517   3.690   2.344   6.067
 8206SOL    HW225518   3.597   2.210   6.059
 8207SOL     OW25519   3.138   4.641   5.719
 8207SOL    HW125520   3.114   4.663   5.813
 8207SOL    HW225521   3.058   4.655   5.660
 8208SOL     OW25522   2.342   5.744   1.785
 8208SOL    HW125523   2.400   5.777   1.711
 8208SOL    HW225524   2.266   5.691   1.746
 8209SOL     OW25525   1.872   1.063   5.380
 8209SOL    HW125526   1.827   1.067   5.469
 8209SOL    HW225527   1.859   1.149   5.332
 8210SOL     OW25528   1.957   1.084   0.594
 8210SOL    HW125529   2.043   1.050   0.555
 8210SOL    HW225530   1.880   1.045   0.544
 8211SOL     OW25531   3.389   3.501   4.173
 8211SOL    HW125532   3.328   3.453   4.110
 8211SOL    HW225533   3.425   3.582   4.129
 8212SOL     OW25534   2.283   6.992   0.808
 8212SOL    HW125535   2.228   6.993   0.891
 8212SOL    HW225536   2.305   6.898   0.783
 8213SOL     OW25537   4.076   4.921   2.511
 8213SOL    HW125538   4.151   4.890   2.452
 8213SOL    HW225539   4.102   4.908   2.607
 8214SOL     OW25540   2.667   5.680   3.986
 8214SOL    HW125541   2.710   5.695   3.897
 8214SOL    HW225542   2.661   5.582   4.004
 8215SOL     OW25543   3.818   6.535   6.956
 8215SOL    HW125544   3.781   6.513   6.865
 8215SOL    HW225545   3.756   6.499   0.000
 8216SOL     OW25546   4.766   6.221   2.887
 8216SOL    HW125547   4.828   6.294   2.917
 8216SOL    HW225548   4.695   6.260   2.828
 8217SOL     OW25549   2.328   4.275   3.115
 8217SOL    HW125550   2.379   4.309   3.195
 8217SOL    HW225551   2.293   4.352   3.063
 8218SOL     OW25552   1.804   0.266   4.495
 8218SOL    HW125553   1.870   0.341   4.506
 8218SOL    HW225554   1.809   0.231   4.402
 8219SOL     OW25555   3.494   3.746   1.832
 8219SOL    HW125556   3.410   3.798   1.842
 8219SOL    HW225557   3.490   3.664   1.890
 8220SOL     OW25558   3.171   3.884   5.003
 8220SOL    HW125559   3.107   3.944   5.051
 8220SOL    HW225560   3.120   3.817   4.949
 8221SOL     OW25561   5.967   3.595   3.254
 8221SOL    HW125562   5.971   3.520   3.188
 8221SOL    HW225563   5.941   3.679   3.208
 8222SOL     OW25564   6.449   2.674   1.258
 8222SOL    HW125565   6.471   2.678   1.356
 8222SOL    HW225566   6.362   2.721   1.241
 8223SOL     OW25567   0.033   5.847   5.346
 8223SOL    HW125568   0.069   5.754   5.339
 8223SOL    HW225569   6.983   5.859   5.282
 8224SOL     OW25570   4.313   1.933   0.798
 8224SOL    HW125571   4.397   1.950   0.746
 8224SOL    HW225572   4.332   1.942   0.896
 8225SOL     OW25573   4.216   0.896   6.898
 8225SOL    HW125574   4.235   0.799   6.884
 8225SOL    HW225575   4.179   0.910   6.990
 8226SOL     OW25576   3.498   0.868   6.583
 8226SOL    HW125577   3.493   0.828   6.491
 8226SOL    HW225578   3.586   0.845   6.624
 8227SOL     OW25579   5.381   1.620   2.734
 8227SOL    HW125580   5.425   1.538   2.770
 8227SOL    HW225581   5.447   1.695   2.730
 8228SOL     OW25582   0.605   1.155   5.525
 8228SOL    HW125583   0.567   1.139   5.616
 8228SOL    HW225584   0.547   1.220   5.476
 8229SOL     OW25585   3.889   4.841   1.286
 8229SOL    HW125586   3.828   4.861   1.209
 8229SOL    HW225587   3.976   4.805   1.252
 8230SOL     OW25588   4.317   0.275   5.941
 8230SOL    HW125589   4.417   0.277   5.946
 8230SOL    HW225590   4.288   0.267   5.846
 8231SOL     OW25591   3.261   0.865   1.710
 8231SOL    HW125592   3.346   0.881   1.761
 8231SOL    HW225593   3.185   0.909   1.757
 8232SOL     OW25594   4.245   0.655   2.152
 8232SOL    HW125595   4.207   0.711   2.079
 8232SOL    HW225596   4.318   0.706   2.199
 8233SOL     OW25597   0.404   0.709   5.364
 8233SOL    HW125598   0.402   0.808   5.369
 8233SOL    HW225599   0.494   0.676   5.394
 8234SOL     OW25600   2.509   3.449   0.187
 8234SOL    HW125601   2.427   3.490   0.227
 8234SOL    HW225602   2.589   3.503   0.211
 8235SOL     OW25603   0.062   5.095   6.894
 8235SOL    HW125604   0.147   5.048   6.917
 8235SOL    HW225605   0.079   5.163   6.823
 8236SOL     OW25606   0.616   6.355   6.136
 8236SOL    HW125607   0.517   6.346   6.145
 8236SOL    HW225608   0.637   6.415   6.058
 8237SOL     OW25609   4.752   5.717   6.226
 8237SOL    HW125610   4.824   5.787   6.228
 8237SOL    HW225611   4.763   5.660   6.145
 8238SOL     OW25612   2.640   4.858   0.398
 8238SOL    HW125613   2.704   4.929   0.368
 8238SOL    HW225614   2.659   4.835   0.494
 8239SOL     OW25615   0.724   1.514   5.294
 8239SOL    HW125616   0.794   1.579   5.263
 8239SOL    HW225617   0.687   1.465   5.216
 8240SOL     OW25618   3.804   3.457   4.502
 8240SOL    HW125619   3.903   3.470   4.504
 8240SOL    HW225620   3.760   3.522   4.564
 8241SOL     OW25621   0.838   3.813   6.717
 8241SOL    HW125622   0.813   3.819   6.620
 8241SOL    HW225623   0.936   3.833   6.727
 8242SOL     OW25624   1.171   3.640   4.818
 8242SOL    HW125625   1.087   3.649   4.764
 8242SOL    HW225626   1.151   3.591   4.903
 8243SOL     OW25627   0.706   4.520   5.286
 8243SOL    HW125628   0.664   4.493   5.373
 8243SOL    HW225629   0.675   4.612   5.262
 8244SOL     OW25630   0.918   0.534   3.870
 8244SOL    HW125631   0.961   0.459   3.820
 8244SOL    HW225632   0.948   0.621   3.832
 8245SOL     OW25633   5.221   1.445   4.134
 8245SOL    HW125634   5.306   1.394   4.141
 8245SOL    HW225635   5.237   1.541   4.160
 8246SOL     OW25636   0.948   4.084   6.481
 8246SOL    HW125637   0.906   4.153   6.423
 8246SOL    HW225638   1.040   4.114   6.508
 8247SOL     OW25639   2.995   5.001   3.525
 8247SOL    HW125640   2.987   4.920   3.584
 8247SOL    HW225641   2.972   4.976   3.431
 8248SOL     OW25642   0.466   5.803   2.624
 8248SOL    HW125643   0.563   5.825   2.611
 8248SOL    HW225644   0.421   5.798   2.534
 8249SOL     OW25645   1.895   1.886   6.048
 8249SOL    HW125646   1.874   1.891   5.950
 8249SOL    HW225647   1.951   1.965   6.073
 8250SOL     OW25648   2.031   1.902   6.474
 8250SOL    HW125649   2.084   1.876   6.394
 8250SOL    HW225650   1.965   1.830   6.496
 8251SOL     OW25651   6.998   3.024   5.011
 8251SOL    HW125652   7.005   3.118   5.047
 8251SOL    HW225653   7.003   3.027   4.911
 8252SOL     OW25654   2.225   2.427   6.200
 8252SOL    HW125655   2.210   2.511   6.253
 8252SOL    HW225656   2.184   2.438   6.109
 8253SOL     OW25657   3.541   5.663   6.935
 8253SOL    HW125658   3.552   5.714   6.850
 8253SOL    HW225659   3.626   5.615   6.957
 8254SOL     OW25660   5.501   5.255   0.667
 8254SOL    HW125661   5.537   5.190   0.601
 8254SOL    HW225662   5.575   5.285   0.728
 8255SOL     OW25663   0.116   6.951   5.635
 8255SOL    HW125664   0.058   6.895   5.575
 8255SOL    HW225665   0.147   0.007   5.585
 8256SOL     OW25666   1.380   6.372   2.724
 8256SOL    HW125667   1.366   6.296   2.660
 8256SOL    HW225668   1.292   6.398   2.764
 8257SOL     OW25669   4.973   4.355   4.305
 8257SOL    HW125670   5.060   4.332   4.261
 8257SOL    HW225671   4.931   4.431   4.256
 8258SOL     OW25672   6.211   3.378   1.759
 8258SOL    HW125673   6.283   3.373   1.828
 8258SOL    HW225674   6.154   3.458   1.777
 8259SOL     OW25675   4.606   2.561   4.491
 8259SOL    HW125676   4.613   2.641   4.551
 8259SOL    HW225677   4.536   2.499   4.525
 8260SOL     OW25678   2.800   0.186   0.779
 8260SOL    HW125679   2.819   0.258   0.846
 8260SOL    HW225680   2.702   0.166   0.779
 8261SOL     OW25681   5.031   0.063   3.545
 8261SOL    HW125682   5.112   0.004   3.547
 8261SOL    HW225683   5.059   0.158   3.556
 8262SOL     OW25684   0.545   3.895   1.306
 8262SOL    HW125685   0.626   3.903   1.365
 8262SOL    HW225686   0.571   3.848   1.221
 8263SOL     OW25687   6.779   2.363   0.187
 8263SOL    HW125688   6.835   2.285   0.161
 8263SOL    HW225689   6.684   2.347   0.162
 8264SOL     OW25690   1.696   6.826   2.466
 8264SOL    HW125691   1.619   6.854   2.523
 8264SOL    HW225692   1.669   6.749   2.408
 8265SOL     OW25693   5.174   0.754   0.650
 8265SOL    HW125694   5.096   0.775   0.591
 8265SOL    HW225695   5.201   0.659   0.638
 8266SOL     OW25696   2.430   6.690   3.716
 8266SOL    HW125697   2.457   6.661   3.624
 8266SOL    HW225698   2.452   6.618   3.782
 8267SOL     OW25699   1.103   4.001   2.956
 8267SOL    HW125700   1.173   4.009   2.884
 8267SOL    HW225701   1.119   4.070   3.026
 8268SOL     OW25702   3.257   3.749   6.832
 8268SOL    HW125703   3.266   3.680   6.760
 8268SOL    HW225704   3.328   3.819   6.819
 8269SOL     OW25705   4.485   2.234   2.755
 8269SOL    HW125706   4.410   2.299   2.759
 8269SOL    HW225707   4.563   2.276   2.708
 8270SOL     OW25708   3.807   6.998   5.279
 8270SOL    HW125709   3.888   0.029   5.297
 8270SOL    HW225710   3.736   7.020   5.345
 8271SOL     OW25711   4.683   6.328   4.521
 8271SOL    HW125712   4.700   6.359   4.427
 8271SOL    HW225713   4.653   6.405   4.577
 8272SOL     OW25714   0.538   0.084   2.187
 8272SOL    HW125715   0.520   0.074   2.089
 8272SOL    HW225716   0.561   0.179   2.207
 8273SOL     OW25717   2.786   6.800   0.180
 8273SOL    HW125718   2.768   6.885   0.230
 8273SOL    HW225719   2.884   6.792   0.163
 8274SOL     OW25720   5.090   5.467   6.967
 8274SOL    HW125721   5.029   5.437   6.895
 8274SOL    HW225722   5.174   5.505   6.927
 8275SOL     OW25723   6.660   0.710   4.263
 8275SOL    HW125724   6.695   0.653   4.337
 8275SOL    HW225725   6.577   0.668   4.225
 8276SOL     OW25726   0.026   2.915   6.887
 8276SOL    HW125727   0.096   2.864   6.937
 8276SOL    HW225728   6.966   2.865   6.890
 8277SOL     OW25729   1.008   6.137   6.004
 8277SOL    HW125730   0.919   6.149   5.960
 8277SOL    HW225731   0.997   6.082   6.087
 8278SOL     OW25732   3.296   1.877   6.465
 8278SOL    HW125733   3.301   1.940   6.543
 8278SOL    HW225734   3.202   1.844   6.455
 8279SOL     OW25735   4.254   6.076   6.545
 8279SOL    HW125736   4.245   6.134   6.626
 8279SOL    HW225737   4.244   6.132   6.462
 8280SOL     OW25738   5.228   2.512   0.804
 8280SOL    HW125739   5.292   2.581   0.772
 8280SOL    HW225740   5.136   2.535   0.773
 8281SOL     OW25741   1.811   5.284   0.310
 8281SOL    HW125742   1.896   5.333   0.330
 8281SOL    HW225743   1.827   5.186   0.318
 8282SOL     OW25744   2.781   2.921   1.134
 8282SOL    HW125745   2.813   3.015   1.148
 8282SOL    HW225746   2.814   2.888   1.045
 8283SOL     OW25747   0.551   5.134   3.599
 8283SOL    HW125748   0.561   5.075   3.679
 8283SOL    HW225749   0.508   5.220   3.627
 8284SOL     OW25750   2.468   1.946   2.314
 8284SOL    HW125751   2.427   1.898   2.236
 8284SOL    HW225752   2.479   1.882   2.391
 8285SOL     OW25753   3.586   4.433   5.968
 8285SOL    HW125754   3.585   4.525   5.930
 8285SOL    HW225755   3.539   4.433   6.057
 8286SOL     OW25756   5.442   1.064   4.391
 8286SOL    HW125757   5.437   1.006   4.310
 8286SOL    HW225758   5.525   1.042   4.443
 8287SOL     OW25759   1.255   0.564   3.604
 8287SOL    HW125760   1.229   0.567   3.508
 8287SOL    HW225761   1.343   0.610   3.616
 8288SOL     OW25762   1.519   1.393   2.471
 8288SOL    HW125763   1.582   1.428   2.541
 8288SOL    HW225764   1.566   1.323   2.417
 8289SOL     OW25765   6.558   2.173   5.963
 8289SOL    HW125766   6.482   2.120   5.926
 8289SOL    HW225767   6.644   2.125   5.946
 8290SOL     OW25768   3.740   2.637   1.751
 8290SOL    HW125769   3.703   2.544   1.751
 8290SOL    HW225770   3.821   2.640   1.691
 8291SOL     OW25771   5.761   6.722   6.260
 8291SOL    HW125772   5.799   6.770   6.181
 8291SOL    HW225773   5.664   6.702   6.244
 8292SOL     OW25774   1.190   4.245   5.015
 8292SOL    HW125775   1.111   4.275   4.961
 8292SOL    HW225776   1.203   4.147   5.001
 8293SOL     OW25777   2.543   5.189   2.466
 8293SOL    HW125778   2.550   5.287   2.447
 8293SOL    HW225779   2.535   5.175   2.565
 8294SOL     OW25780   6.708   3.390   6.389
 8294SOL    HW125781   6.735   3.471   6.338
 8294SOL    HW225782   6.609   3.393   6.405
 8295SOL     OW25783   5.103   4.128   2.846
 8295SOL    HW125784   5.071   4.132   2.751
 8295SOL    HW225785   5.032   4.163   2.907
 8296SOL     OW25786   3.467   6.042   0.888
 8296SOL    HW125787   3.462   5.957   0.836
 8296SOL    HW225788   3.380   6.090   0.882
 8297SOL     OW25789   6.508   4.351   2.928
 8297SOL    HW125790   6.459   4.324   2.845
 8297SOL    HW225791   6.541   4.270   2.976
 8298SOL     OW25792   0.049   0.690   6.760
 8298SOL    HW125793   0.087   0.749   6.831
 8298SOL    HW225794   0.113   0.683   6.684
 8299SOL     OW25795   0.636   3.909   1.810
 8299SOL    HW125796   0.615   3.979   1.877
 8299SOL    HW225797   0.685   3.950   1.733
 8300SOL     OW25798   6.059   4.913   3.473
 8300SOL    HW125799   6.021   4.978   3.539
 8300SOL    HW225800   6.152   4.889   3.500
 8301SOL     OW25801   3.977   6.608   0.772
 8301SOL    HW125802   3.967   6.611   0.871
 8301SOL    HW225803   4.017   6.521   0.744
 8302SOL     OW25804   3.519   6.240   4.566
 8302SOL    HW125805   3.439   6.241   4.505
 8302SOL    HW225806   3.514   6.319   4.628
 8303SOL     OW25807   6.284   0.014   2.537
 8303SOL    HW125808   6.192   0.053   2.534
 8303SOL    HW225809   6.350   0.086   2.556
 8304SOL     OW25810   6.277   3.811   3.587
 8304SOL    HW125811   6.345   3.877   3.618
 8304SOL    HW225812   6.282   3.729   3.644
 8305SOL     OW25813   4.606   5.600   4.293
 8305SOL    HW125814   4.516   5.575   4.328
 8305SOL    HW225815   4.667   5.520   4.299
 8306SOL     OW25816   5.915   1.122   2.160
 8306SOL    HW125817   5.952   1.035   2.195
 8306SOL    HW225818   5.847   1.103   2.089
 8307SOL     OW25819   1.621   4.716   2.328
 8307SOL    HW125820   1.626   4.815   2.315
 8307SOL    HW225821   1.692   4.671   2.273
 8308SOL     OW25822   0.795   4.990   0.099
 8308SOL    HW125823   0.882   4.941   0.100
 8308SOL    HW225824   0.734   4.948   0.032
 8309SOL     OW25825   6.953   4.448   4.852
 8309SOL    HW125826   6.907   4.494   4.776
 8309SOL    HW225827   6.929   4.493   4.938
 8310SOL     OW25828   0.647   6.762   0.467
 8310SOL    HW125829   0.628   6.833   0.535
 8310SOL    HW225830   0.622   6.673   0.505
 8311SOL     OW25831   5.721   6.704   4.354
 8311SOL    HW125832   5.641   6.655   4.321
 8311SOL    HW225833   5.699   6.801   4.367
 8312SOL     OW25834   5.096   0.644   6.734
 8312SOL    HW125835   4.996   0.635   6.730
 8312SOL    HW225836   5.123   0.735   6.703
 8313SOL     OW25837   4.639   0.897   4.415
 8313SOL    HW125838   4.681   0.988   4.419
 8313SOL    HW225839   4.670   0.843   4.493
 8314SOL     OW25840   4.886   6.142   5.741
 8314SOL    HW125841   4.867   6.237   5.719
 8314SOL    HW225842   4.915   6.134   5.836
 8315SOL     OW25843   3.523   2.864   4.664
 8315SOL    HW125844   3.475   2.779   4.688
 8315SOL    HW225845   3.590   2.886   4.735
 8316SOL     OW25846   1.047   2.755   0.277
 8316SOL    HW125847   1.120   2.688   0.263
 8316SOL    HW225848   0.965   2.726   0.228
 8317SOL     OW25849   1.750   1.973   4.259
 8317SOL    HW125850   1.815   2.041   4.292
 8317SOL    HW225851   1.792   1.919   4.186
 8318SOL     OW25852   3.660   0.013   6.627
 8318SOL    HW125853   3.606   0.097   6.633
 8318SOL    HW225854   3.757   0.035   6.643
 8319SOL     OW25855   2.057   0.317   6.177
 8319SOL    HW125856   2.026   0.234   6.225
 8319SOL    HW225857   2.022   0.398   6.224
 8320SOL     OW25858   3.480   3.504   4.604
 8320SOL    HW125859   3.422   3.522   4.684
 8320SOL    HW225860   3.571   3.541   4.621
 8321SOL     OW25861   6.876   7.022   0.394
 8321SOL    HW125862   6.881   6.955   0.319
 8321SOL    HW225863   6.903   6.978   0.480
 8322SOL     OW25864   6.811   1.072   0.175
 8322SOL    HW125865   6.777   1.004   0.110
 8322SOL    HW225866   6.778   1.051   0.267
 8323SOL     OW25867   4.692   4.356   0.950
 8323SOL    HW125868   4.608   4.410   0.955
 8323SOL    HW225869   4.671   4.260   0.970
 8324SOL     OW25870   6.618   6.518   6.753
 8324SOL    HW125871   6.636   6.616   6.762
 8324SOL    HW225872   6.625   6.492   6.656
 8325SOL     OW25873   1.268   5.742   5.417
 8325SOL    HW125874   1.321   5.770   5.497
 8325SOL    HW225875   1.282   5.644   5.401
 8326SOL     OW25876   2.088   3.522   1.423
 8326SOL    HW125877   2.045   3.434   1.400
 8326SOL    HW225878   2.156   3.507   1.495
 8327SOL     OW25879   0.900   0.430   5.410
 8327SOL    HW125880   0.984   0.375   5.417
 8327SOL    HW225881   0.878   0.447   5.314
 8328SOL     OW25882   1.085   6.722   6.234
 8328SOL    HW125883   1.024   6.643   6.229
 8328SOL    HW225884   1.066   6.784   6.158
 8329SOL     OW25885   0.960   2.932   5.084
 8329SOL    HW125886   0.960   2.961   5.180
 8329SOL    HW225887   0.950   3.012   5.025
 8330SOL     OW25888   3.754   0.790   6.709
 8330SOL    HW125889   3.748   0.835   6.797
 8330SOL    HW225890   3.846   0.752   6.697
 8331SOL     OW25891   1.661   2.260   0.192
 8331SOL    HW125892   1.693   2.299   0.278
 8331SOL    HW225893   1.581   2.310   0.160
 8332SOL     OW25894   5.468   4.800   2.229
 8332SOL    HW125895   5.471   4.706   2.197
 8332SOL    HW225896   5.422   4.858   2.162
 8333SOL     OW25897   2.771   4.935   1.406
 8333SOL    HW125898   2.862   4.896   1.397
 8333SOL    HW225899   2.751   4.951   1.503
 8334SOL     OW25900   2.991   2.219   6.251
 8334SOL    HW125901   2.895   2.243   6.239
 8334SOL    HW225902   3.011   2.132   6.205
 8335SOL     OW25903   5.300   3.211   5.997
 8335SOL    HW125904   5.218   3.166   5.962
 8335SOL    HW225905   5.379   3.185   5.941
 8336SOL     OW25906   0.810   3.612   3.110
 8336SOL    HW125907   0.808   3.513   3.095
 8336SOL    HW225908   0.722   3.652   3.081
 8337SOL     OW25909   0.844   0.928   4.667
 8337SOL    HW125910   0.779   1.001   4.689
 8337SOL    HW225911   0.799   0.856   4.615
 8338SOL     OW25912   3.720   4.883   2.226
 8338SOL    HW125913   3.700   4.866   2.129
 8338SOL    HW225914   3.642   4.928   2.269
 8339SOL     OW25915   6.511   0.619   0.432
 8339SOL    HW125916   6.513   0.630   0.333
 8339SOL    HW225917   6.604   0.605   0.466
 8340SOL     OW25918   5.189   2.142   0.775
 8340SOL    HW125919   5.119   2.208   0.746
 8340SOL    HW225920   5.157   2.049   0.755
 8341SOL     OW25921   3.680   0.292   0.218
 8341SOL    HW125922   3.747   0.338   0.277
 8341SOL    HW225923   3.611   0.358   0.188
 8342SOL     OW25924   4.106   6.474   6.997
 8342SOL    HW125925   4.166   6.540   6.951
 8342SOL    HW225926   4.016   6.475   6.953
 8343SOL     OW25927   6.872   4.093   3.867
 8343SOL    HW125928   6.841   4.011   3.819
 8343SOL    HW225929   6.970   4.085   3.886
 8344SOL     OW25930   0.899   5.500   4.894
 8344SOL    HW125931   0.908   5.410   4.936
 8344SOL    HW225932   0.971   5.513   4.826
 8345SOL     OW25933   4.700   0.729   2.494
 8345SOL    HW125934   4.624   0.794   2.496
 8345SOL    HW225935   4.766   0.754   2.564
 8346SOL     OW25936   4.301   3.258   5.713
 8346SOL    HW125937   4.205   3.233   5.729
 8346SOL    HW225938   4.319   3.349   5.750
 8347SOL     OW25939   2.129   0.369   5.901
 8347SOL    HW125940   2.195   0.310   5.855
 8347SOL    HW225941   2.128   0.347   5.999
 8348SOL     OW25942   3.824   6.405   1.638
 8348SOL    HW125943   3.793   6.338   1.571
 8348SOL    HW225944   3.851   6.489   1.591
 8349SOL     OW25945   1.152   6.645   2.302
 8349SOL    HW125946   1.073   6.598   2.263
 8349SOL    HW225947   1.149   6.639   2.402
 8350SOL     OW25948   2.631   0.328   6.577
 8350SOL    HW125949   2.565   0.252   6.568
 8350SOL    HW225950   2.688   0.331   6.495
 8351SOL     OW25951   0.137   4.722   4.041
 8351SOL    HW125952   0.072   4.699   4.114
 8351SOL    HW225953   0.091   4.714   3.953
 8352SOL     OW25954   2.732   5.674   1.737
 8352SOL    HW125955   2.665   5.697   1.667
 8352SOL    HW225956   2.700   5.595   1.789
 8353SOL     OW25957   1.168   3.719   2.146
 8353SOL    HW125958   1.174   3.752   2.240
 8353SOL    HW225959   1.188   3.621   2.144
 8354SOL     OW25960   3.543   0.193   4.115
 8354SOL    HW125961   3.459   0.151   4.081
 8354SOL    HW225962   3.583   0.134   4.185
 8355SOL     OW25963   1.679   6.336   5.492
 8355SOL    HW125964   1.672   6.251   5.544
 8355SOL    HW225965   1.637   6.411   5.544
 8356SOL     OW25966   1.960   5.793   1.374
 8356SOL    HW125967   1.980   5.700   1.344
 8356SOL    HW225968   2.006   5.858   1.314
 8357SOL     OW25969   3.811   5.583   5.553
 8357SOL    HW125970   3.900   5.546   5.525
 8357SOL    HW225971   3.758   5.609   5.472
 8358SOL     OW25972   0.992   2.451   5.403
 8358SOL    HW125973   0.956   2.478   5.492
 8358SOL    HW225974   0.919   2.406   5.350
 8359SOL     OW25975   3.439   1.571   5.056
 8359SOL    HW125976   3.394   1.647   5.104
 8359SOL    HW225977   3.387   1.487   5.069
 8360SOL     OW25978   5.117   6.054   0.359
 8360SOL    HW125979   5.147   6.027   0.267
 8360SOL    HW225980   5.193   6.044   0.423
 8361SOL     OW25981   2.790   0.059   0.305
 8361SOL    HW125982   2.793   0.109   0.218
 8361SOL    HW225983   2.877   0.013   0.320
 8362SOL     OW25984   6.698   3.190   0.838
 8362SOL    HW125985   6.688   3.115   0.904
 8362SOL    HW225986   6.680   3.155   0.745
 8363SOL     OW25987   3.544   1.955   0.302
 8363SOL    HW125988   3.600   2.013   0.361
 8363SOL    HW225989   3.467   2.008   0.266
 8364SOL     OW25990   0.671   3.008   3.857
 8364SOL    HW125991   0.655   2.936   3.924
 8364SOL    HW225992   0.762   3.047   3.871
 8365SOL     OW25993   2.566   2.304   2.215
 8365SOL    HW125994   2.529   2.267   2.130
 8365SOL    HW225995   2.656   2.344   2.197
 8366SOL     OW25996   4.647   5.565   1.053
 8366SOL    HW125997   4.647   5.482   1.109
 8366SOL    HW225998   4.559   5.571   1.004
 8367SOL     OW25999   4.388   4.970   5.080
 8367SOL    HW126000   4.415   5.022   5.000
 8367SOL    HW226001   4.317   5.020   5.130
 8368SOL     OW26002   1.278   6.038   6.883
 8368SOL    HW126003   1.328   6.099   6.945
 8368SOL    HW226004   1.232   5.968   6.937
 8369SOL     OW26005   1.334   1.502   0.676
 8369SOL    HW126006   1.319   1.502   0.577
 8369SOL    HW226007   1.401   1.573   0.699
 8370SOL     OW26008   2.894   2.065   0.344
 8370SOL    HW126009   2.935   2.008   0.415
 8370SOL    HW226010   2.910   2.024   0.255
 8371SOL     OW26011   1.463   3.480   5.742
 8371SOL    HW126012   1.554   3.444   5.764
 8371SOL    HW226013   1.472   3.552   5.673
 8372SOL     OW26014   1.993   6.420   2.192
 8372SOL    HW126015   1.960   6.347   2.132
 8372SOL    HW226016   1.916   6.477   2.221
 8373SOL     OW26017   0.680   0.999   4.420
 8373SOL    HW126018   0.584   1.029   4.423
 8373SOL    HW226019   0.719   1.020   4.331
 8374SOL     OW26020   1.441   0.976   4.646
 8374SOL    HW126021   1.454   1.075   4.657
 8374SOL    HW226022   1.489   0.928   4.719
 8375SOL     OW26023   4.158   1.078   5.594
 8375SOL    HW126024   4.163   1.128   5.507
 8375SOL    HW226025   4.193   1.135   5.668
 8376SOL     OW26026   1.884   0.676   3.382
 8376SOL    HW126027   1.956   0.631   3.434
 8376SOL    HW226028   1.856   0.760   3.429
 8377SOL     OW26029   5.614   5.620   6.560
 8377SOL    HW126030   5.533   5.576   6.599
 8377SOL    HW226031   5.665   5.553   6.505
 8378SOL     OW26032   5.405   5.684   3.491
 8378SOL    HW126033   5.451   5.609   3.538
 8378SOL    HW226034   5.460   5.715   3.414
 8379SOL     OW26035   5.556   1.680   2.038
 8379SOL    HW126036   5.625   1.610   2.058
 8379SOL    HW226037   5.476   1.664   2.096
 8380SOL     OW26038   6.720   5.512   6.790
 8380SOL    HW126039   6.759   5.576   6.856
 8380SOL    HW226040   6.672   5.564   6.719
 8381SOL     OW26041   0.084   1.824   2.615
 8381SOL    HW126042   0.088   1.835   2.516
 8381SOL    HW226043   0.102   1.912   2.660
 8382SOL     OW26044   2.849   0.232   0.063
 8382SOL    HW126045   2.773   0.225   7.024
 8382SOL    HW226046   2.865   0.328   0.084
 8383SOL     OW26047   2.951   6.763   4.435
 8383SOL    HW126048   3.005   6.709   4.499
 8383SOL    HW226049   2.876   6.708   4.399
 8384SOL     OW26050   0.149   1.929   1.045
 8384SOL    HW126051   0.055   1.896   1.039
 8384SOL    HW226052   0.180   1.921   1.140
 8385SOL     OW26053   4.650   3.260   0.793
 8385SOL    HW126054   4.646   3.186   0.726
 8385SOL    HW226055   4.569   3.257   0.851
 8386SOL     OW26056   2.200   6.437   1.462
 8386SOL    HW126057   2.260   6.495   1.517
 8386SOL    HW226058   2.120   6.412   1.515
 8387SOL     OW26059   2.313   1.557   0.800
 8387SOL    HW126060   2.322   1.458   0.808
 8387SOL    HW226061   2.226   1.579   0.754
 8388SOL     OW26062   2.909   6.705   0.462
 8388SOL    HW126063   2.955   6.702   0.373
 8388SOL    HW226064   2.818   6.665   0.454
 8389SOL     OW26065   0.965   3.021   4.356
 8389SOL    HW126066   0.988   2.925   4.339
 8389SOL    HW226067   0.878   3.042   4.312
 8390SOL     OW26068   2.511   0.667   6.189
 8390SOL    HW126069   2.449   0.723   6.243
 8390SOL    HW226070   2.561   0.725   6.125
 8391SOL     OW26071   5.237   5.575   2.312
 8391SOL    HW126072   5.182   5.621   2.382
 8391SOL    HW226073   5.326   5.619   2.305
 8392SOL     OW26074   6.115   5.691   4.892
 8392SOL    HW126075   6.165   5.696   4.806
 8392SOL    HW226076   6.038   5.628   4.883
 8393SOL     OW26077   6.612   6.473   3.111
 8393SOL    HW126078   6.597   6.479   3.012
 8393SOL    HW226079   6.527   6.493   3.159
 8394SOL     OW26080   0.794   1.474   2.782
 8394SOL    HW126081   0.758   1.504   2.870
 8394SOL    HW226082   0.892   1.459   2.789
 8395SOL     OW26083   0.595   6.050   4.457
 8395SOL    HW126084   0.584   6.150   4.463
 8395SOL    HW226085   0.687   6.026   4.487
 8396SOL     OW26086   4.811   4.344   2.827
 8396SOL    HW126087   4.726   4.342   2.879
 8396SOL    HW226088   4.819   4.433   2.781
 8397SOL     OW26089   1.705   6.291   2.512
 8397SOL    HW126090   1.704   6.364   2.580
 8397SOL    HW226091   1.798   6.277   2.479
 8398SOL     OW26092   3.904   1.658   6.839
 8398SOL    HW126093   3.832   1.651   6.770
 8398SOL    HW226094   3.892   1.743   6.891
 8399SOL     OW26095   5.832   5.828   0.664
 8399SOL    HW126096   5.843   5.892   0.588
 8399SOL    HW226097   5.919   5.782   0.682
 8400SOL     OW26098   0.216   1.018   2.953
 8400SOL    HW126099   0.133   1.037   2.901
 8400SOL    HW226100   0.277   0.960   2.899
 8401SOL     OW26101   4.193   3.656   6.122
 8401SOL    HW126102   4.214   3.649   6.025
 8401SOL    HW226103   4.095   3.642   6.137
 8402SOL     OW26104   3.670   2.151   6.435
 8402SOL    HW126105   3.763   2.113   6.429
 8402SOL    HW226106   3.607   2.091   6.386
 8403SOL     OW26107   1.116   1.516   3.805
 8403SOL    HW126108   1.198   1.533   3.860
 8403SOL    HW226109   1.120   1.569   3.721
 8404SOL     OW26110   4.743   6.244   5.484
 8404SOL    HW126111   4.801   6.217   5.561
 8404SOL    HW226112   4.745   6.344   5.475
 8405SOL     OW26113   0.950   2.362   6.559
 8405SOL    HW126114   1.012   2.440   6.563
 8405SOL    HW226115   0.990   2.290   6.502
 8406SOL     OW26116   4.358   1.662   1.096
 8406SOL    HW126117   4.374   1.607   1.178
 8406SOL    HW226118   4.404   1.751   1.107
 8407SOL     OW26119   5.862   4.376   4.019
 8407SOL    HW126120   5.815   4.432   3.951
 8407SOL    HW226121   5.886   4.433   4.098
 8408SOL     OW26122   5.067   0.481   3.768
 8408SOL    HW126123   4.997   0.511   3.703
 8408SOL    HW226124   5.026   0.471   3.859
 8409SOL     OW26125   0.976   2.035   3.994
 8409SOL    HW126126   0.976   1.962   3.926
 8409SOL    HW226127   1.068   2.048   4.030
 8410SOL     OW26128   5.272   0.039   1.931
 8410SOL    HW126129   5.305   6.999   1.864
 8410SOL    HW226130   5.244   0.123   1.885
 8411SOL     OW26131   1.519   5.253   3.862
 8411SOL    HW126132   1.542   5.349   3.876
 8411SOL    HW226133   1.531   5.204   3.948
 8412SOL     OW26134   4.438   2.394   1.301
 8412SOL    HW126135   4.475   2.351   1.384
 8412SOL    HW226136   4.513   2.415   1.238
 8413SOL     OW26137   3.870   4.949   0.729
 8413SOL    HW126138   3.874   5.045   0.701
 8413SOL    HW226139   3.808   4.899   0.668
 8414SOL     OW26140   3.737   6.957   2.581
 8414SOL    HW126141   3.798   7.000   2.514
 8414SOL    HW226142   3.772   6.975   2.673
 8415SOL     OW26143   0.307   4.845   3.617
 8415SOL    HW126144   0.208   4.858   3.619
 8415SOL    HW226145   0.330   4.759   3.663
 8416SOL     OW26146   5.557   4.518   2.529
 8416SOL    HW126147   5.509   4.454   2.469
 8416SOL    HW226148   5.507   4.604   2.534
 8417SOL     OW26149   2.626   6.539   5.615
 8417SOL    HW126150   2.574   6.503   5.693
 8417SOL    HW226151   2.580   6.620   5.578
 8418SOL     OW26152   5.929   5.909   2.704
 8418SOL    HW126153   6.012   5.864   2.736
 8418SOL    HW226154   5.884   5.852   2.635
 8419SOL     OW26155   4.825   6.979   1.899
 8419SOL    HW126156   4.733   6.983   1.939
 8419SOL    HW226157   4.853   0.045   1.872
 8420SOL     OW26158   4.511   0.239   0.119
 8420SOL    HW126159   4.461   0.201   0.041
 8420SOL    HW226160   4.535   0.165   0.182
 8421SOL     OW26161   1.905   0.377   1.796
 8421SOL    HW126162   1.969   0.417   1.731
 8421SOL    HW226163   1.953   0.315   1.857
 8422SOL     OW26164   5.441   6.111   0.423
 8422SOL    HW126165   5.422   6.198   0.377
 8422SOL    HW226166   5.444   6.127   0.522
 8423SOL     OW26167   3.682   4.861   0.007
 8423SOL    HW126168   3.599   4.880   0.059
 8423SOL    HW226169   3.761   4.899   0.054
 8424SOL     OW26170   3.892   1.988   2.443
 8424SOL    HW126171   3.942   1.939   2.371
 8424SOL    HW226172   3.795   1.989   2.422
 8425SOL     OW26173   6.788   5.314   1.418
 8425SOL    HW126174   6.846   5.381   1.372
 8425SOL    HW226175   6.785   5.334   1.516
 8426SOL     OW26176   3.527   3.088   3.745
 8426SOL    HW126177   3.490   3.127   3.660
 8426SOL    HW226178   3.626   3.078   3.737
 8427SOL     OW26179   1.756   4.467   6.326
 8427SOL    HW126180   1.801   4.431   6.408
 8427SOL    HW226181   1.778   4.409   6.248
 8428SOL     OW26182   6.932   4.423   1.891
 8428SOL    HW126183   7.023   4.403   1.853
 8428SOL    HW226184   6.863   4.412   1.820
 8429SOL     OW26185   2.794   4.780   4.328
 8429SOL    HW126186   2.771   4.714   4.257
 8429SOL    HW226187   2.749   4.755   4.413
 8430SOL     OW26188   4.859   5.399   2.569
 8430SOL    HW126189   4.853   5.447   2.657
 8430SOL    HW226190   4.948   5.354   2.562
 8431SOL     OW26191   3.223   4.915   1.526
 8431SOL    HW126192   3.163   4.844   1.488
 8431SOL    HW226193   3.294   4.872   1.583
 8432SOL     OW26194   4.386   5.529   6.074
 8432SOL    HW126195   4.359   5.621   6.103
 8432SOL    HW226196   4.468   5.535   6.018
 8433SOL     OW26197   0.999   2.636   6.708
 8433SOL    HW126198   0.910   2.670   6.738
 8433SOL    HW226199   1.060   2.714   6.691
 8434SOL     OW26200   3.710   6.765   5.364
 8434SOL    HW126201   3.653   6.735   5.288
 8434SOL    HW226202   3.758   6.849   5.338
 8435SOL     OW26203   4.533   1.987   1.394
 8435SOL    HW126204   4.448   1.936   1.404
 8435SOL    HW226205   4.521   2.078   1.434
 8436SOL     OW26206   3.632   4.894   3.057
 8436SOL    HW126207   3.581   4.959   3.002
 8436SOL    HW226208   3.640   4.807   3.007
 8437SOL     OW26209   0.499   0.766   1.363
 8437SOL    HW126210   0.425   0.706   1.333
 8437SOL    HW226211   0.556   0.717   1.429
 8438SOL     OW26212   2.706   4.771   2.532
 8438SOL    HW126213   2.767   4.848   2.512
 8438SOL    HW226214   2.710   4.705   2.457
 8439SOL     OW26215   6.453   5.555   2.004
 8439SOL    HW126216   6.523   5.501   2.051
 8439SOL    HW226217   6.493   5.640   1.971
 8440SOL     OW26218   0.215   0.842   2.180
 8440SOL    HW126219   0.219   0.789   2.094
 8440SOL    HW226220   0.208   0.939   2.159
 8441SOL     OW26221   5.602   6.112   6.648
 8441SOL    HW126222   5.570   6.107   6.742
 8441SOL    HW226223   5.686   6.167   6.645
 8442SOL     OW26224   3.310   3.575   0.069
 8442SOL    HW126225   3.309   3.590   0.168
 8442SOL    HW226226   3.296   3.662   0.022
 8443SOL     OW26227   1.142   0.567   3.350
 8443SOL    HW126228   1.153   0.496   3.280
 8443SOL    HW226229   1.118   0.653   3.305
 8444SOL     OW26230   3.328   6.289   3.890
 8444SOL    HW126231   3.291   6.311   3.799
 8444SOL    HW226232   3.279   6.342   3.959
 8445SOL     OW26233   3.279   4.950   2.526
 8445SOL    HW126234   3.209   4.892   2.483
 8445SOL    HW226235   3.243   5.043   2.537
 8446SOL     OW26236   5.263   6.101   2.677
 8446SOL    HW126237   5.355   6.101   2.717
 8446SOL    HW226238   5.245   6.190   2.636
 8447SOL     OW26239   5.211   2.432   2.106
 8447SOL    HW126240   5.283   2.399   2.167
 8447SOL    HW226241   5.245   2.510   2.053
 8448SOL     OW26242   0.251   3.660   6.125
 8448SOL    HW126243   0.248   3.658   6.225
 8448SOL    HW226244   0.170   3.707   6.091
 8449SOL     OW26245   0.348   3.363   4.797
 8449SOL    HW126246   0.448   3.358   4.786
 8449SOL    HW226247   0.311   3.270   4.801
 8450SOL     OW26248   1.832   6.479   2.698
 8450SOL    HW126249   1.880   6.554   2.653
 8450SOL    HW226250   1.746   6.513   2.736
 8451SOL     OW26251   3.726   2.837   0.462
 8451SOL    HW126252   3.690   2.768   0.525
 8451SOL    HW226253   3.787   2.899   0.512
 8452SOL     OW26254   0.122   6.973   1.812
 8452SOL    HW126255   0.039   6.945   1.859
 8452SOL    HW226256   0.130   0.047   1.815
 8453SOL     OW26257   0.009   4.737   6.495
 8453SOL    HW126258   0.048   4.783   6.575
 8453SOL    HW226259   6.959   4.791   6.459
 8454SOL     OW26260   1.802   6.512   2.339
 8454SOL    HW126261   1.746   6.430   2.352
 8454SOL    HW226262   1.744   6.590   2.318
 8455SOL     OW26263   5.080   1.611   1.005
 8455SOL    HW126264   5.119   1.691   1.051
 8455SOL    HW226265   5.001   1.577   1.057
 8456SOL     OW26266   5.824   5.737   3.858
 8456SOL    HW126267   5.806   5.804   3.930
 8456SOL    HW226268   5.918   5.748   3.825
 8457SOL     OW26269   6.527   6.846   5.368
 8457SOL    HW126270   6.532   6.899   5.283
 8457SOL    HW226271   6.589   6.887   5.435
 8458SOL     OW26272   1.737   1.338   0.009
 8458SOL    HW126273   1.720   1.345   6.937
 8458SOL    HW226274   1.831   1.365   0.028
 8459SOL     OW26275   3.719   6.555   2.312
 8459SOL    HW126276   3.670   6.641   2.327
 8459SOL    HW226277   3.692   6.516   2.224
 8460SOL     OW26278   4.405   2.896   6.916
 8460SOL    HW126279   4.307   2.909   6.905
 8460SOL    HW226280   4.422   2.809   6.962
 8461SOL     OW26281   0.758   3.581   1.863
 8461SOL    HW126282   0.807   3.642   1.925
 8461SOL    HW226283   0.682   3.630   1.820
 8462SOL     OW26284   4.108   3.327   0.552
 8462SOL    HW126285   4.021   3.337   0.599
 8462SOL    HW226286   4.156   3.245   0.586
 8463SOL     OW26287   6.285   2.445   0.457
 8463SOL    HW126288   6.190   2.440   0.425
 8463SOL    HW226289   6.346   2.457   0.379
 8464SOL     OW26290   0.039   3.278   6.099
 8464SOL    HW126291   0.101   3.228   6.160
 8464SOL    HW226292   0.092   3.342   6.044
 8465SOL     OW26293   2.837   2.606   1.073
 8465SOL    HW126294   2.831   2.691   1.126
 8465SOL    HW226295   2.773   2.539   1.109
 8466SOL     OW26296   5.806   0.535   5.376
 8466SOL    HW126297   5.835   0.459   5.318
 8466SOL    HW226298   5.755   0.601   5.320
 8467SOL     OW26299   4.019   0.580   0.576
 8467SOL    HW126300   4.071   0.666   0.566
 8467SOL    HW226301   3.991   0.569   0.671
 8468SOL     OW26302   6.206   3.648   6.359
 8468SOL    HW126303   6.110   3.637   6.336
 8468SOL    HW226304   6.243   3.561   6.391
 8469SOL     OW26305   3.805   2.782   6.312
 8469SOL    HW126306   3.777   2.832   6.395
 8469SOL    HW226307   3.853   2.699   6.338
 8470SOL     OW26308   0.929   4.953   0.415
 8470SOL    HW126309   0.872   4.893   0.471
 8470SOL    HW226310   0.934   4.917   0.322
 8471SOL     OW26311   3.533   0.453   5.285
 8471SOL    HW126312   3.491   0.416   5.202
 8471SOL    HW226313   3.614   0.399   5.308
 8472SOL     OW26314   6.103   1.852   5.659
 8472SOL    HW126315   6.049   1.813   5.734
 8472SOL    HW226316   6.135   1.943   5.686
 8473SOL     OW26317   4.271   4.413   0.011
 8473SOL    HW126318   4.186   4.408   6.984
 8473SOL    HW226319   4.317   4.324   0.007
 8474SOL     OW26320   3.021   3.916   2.870
 8474SOL    HW126321   2.952   3.969   2.821
 8474SOL    HW226322   2.985   3.888   2.959
 8475SOL     OW26323   0.404   3.185   1.370
 8475SOL    HW126324   0.321   3.239   1.380
 8475SOL    HW226325   0.392   3.118   1.297
 8476SOL     OW26326   6.583   0.701   1.027
 8476SOL    HW126327   6.516   0.673   1.095
 8476SOL    HW226328   6.582   0.801   1.019
 8477SOL     OW26329   5.579   5.917   1.999
 8477SOL    HW126330   5.671   5.927   1.960
 8477SOL    HW226331   5.533   5.840   1.954
 8478SOL     OW26332   0.892   0.875   5.657
 8478SOL    HW126333   0.836   0.902   5.735
 8478SOL    HW226334   0.840   0.813   5.598
 8479SOL     OW26335   1.828   2.657   1.314
 8479SOL    HW126336   1.804   2.602   1.234
 8479SOL    HW226337   1.813   2.753   1.294
 8480SOL     OW26338   5.074   2.798   6.496
 8480SOL    HW126339   5.113   2.733   6.561
 8480SOL    HW226340   4.991   2.837   6.534
 8481SOL     OW26341   3.863   2.183   4.612
 8481SOL    HW126342   3.938   2.223   4.665
 8481SOL    HW226343   3.879   2.199   4.514
 8482SOL     OW26344   4.351   1.103   0.119
 8482SOL    HW126345   4.369   1.143   0.209
 8482SOL    HW226346   4.377   1.007   0.119
 8483SOL     OW26347   2.908   6.339   3.620
 8483SOL    HW126348   2.900   6.431   3.659
 8483SOL    HW226349   2.828   6.285   3.644
 8484SOL     OW26350   6.478   5.996   5.010
 8484SOL    HW126351   6.501   6.045   4.926
 8484SOL    HW226352   6.396   5.941   4.996
 8485SOL     OW26353   4.076   2.648   7.004
 8485SOL    HW126354   4.175   2.635   7.013
 8485SOL    HW226355   4.050   2.734   0.021
 8486SOL     OW26356   1.859   1.409   2.441
 8486SOL    HW126357   1.949   1.387   2.480
 8486SOL    HW226358   1.796   1.334   2.459
 8487SOL     OW26359   4.842   1.442   6.056
 8487SOL    HW126360   4.909   1.372   6.030
 8487SOL    HW226361   4.814   1.494   5.976
 8488SOL     OW26362   5.756   5.594   3.445
 8488SOL    HW126363   5.758   5.686   3.484
 8488SOL    HW226364   5.700   5.534   3.501
 8489SOL     OW26365   6.048   0.311   1.716
 8489SOL    HW126366   5.966   0.254   1.721
 8489SOL    HW226367   6.044   0.382   1.786
 8490SOL     OW26368   3.556   6.770   5.586
 8490SOL    HW126369   3.601   6.767   5.675
 8490SOL    HW226370   3.623   6.754   5.513
 8491SOL     OW26371   2.231   5.992   2.840
 8491SOL    HW126372   2.227   6.089   2.862
 8491SOL    HW226373   2.305   5.976   2.774
 8492SOL     OW26374   6.063   4.609   3.658
 8492SOL    HW126375   5.995   4.659   3.605
 8492SOL    HW226376   6.038   4.513   3.664
 8493SOL     OW26377   2.571   1.302   0.175
 8493SOL    HW126378   2.612   1.272   0.261
 8493SOL    HW226379   2.529   1.224   0.129
 8494SOL     OW26380   5.214   4.632   1.988
 8494SOL    HW126381   5.198   4.731   1.991
 8494SOL    HW226382   5.211   4.601   1.893
 8495SOL     OW26383   7.017   5.753   0.499
 8495SOL    HW126384   0.078   5.711   0.525
 8495SOL    HW226385   6.971   5.788   0.581
 8496SOL     OW26386   5.105   1.019   2.290
 8496SOL    HW126387   5.066   1.070   2.213
 8496SOL    HW226388   5.158   1.081   2.347
 8497SOL     OW26389   0.656   0.297   3.575
 8497SOL    HW126390   0.639   0.356   3.655
 8497SOL    HW226391   0.580   0.233   3.565
 8498SOL     OW26392   5.728   0.384   3.413
 8498SOL    HW126393   5.683   0.377   3.502
 8498SOL    HW226394   5.660   0.410   3.344
 8499SOL     OW26395   0.791   5.334   0.495
 8499SOL    HW126396   0.705   5.316   0.447
 8499SOL    HW226397   0.867   5.295   0.443
 8500SOL     OW26398   1.826   6.946   5.948
 8500SOL    HW126399   1.819   6.855   5.906
 8500SOL    HW226400   1.760   6.954   6.022
 8501SOL     OW26401   0.455   2.270   0.356
 8501SOL    HW126402   0.413   2.313   0.437
 8501SOL    HW226403   0.454   2.335   0.280
 8502SOL     OW26404   0.679   2.613   0.341
 8502SOL    HW126405   0.604   2.572   0.288
 8502SOL    HW226406   0.672   2.712   0.338
 8503SOL     OW26407   6.673   5.436   5.038
 8503SOL    HW126408   6.701   5.427   4.942
 8503SOL    HW226409   6.604   5.508   5.045
 8504SOL     OW26410   1.722   5.581   2.467
 8504SOL    HW126411   1.817   5.564   2.496
 8504SOL    HW226412   1.720   5.593   2.367
 8505SOL     OW26413   5.251   3.922   2.297
 8505SOL    HW126414   5.326   3.864   2.266
 8505SOL    HW226415   5.166   3.891   2.256
 8506SOL     OW26416   1.707   1.407   6.739
 8506SOL    HW126417   1.805   1.429   6.733
 8506SOL    HW226418   1.685   1.333   6.675
 8507SOL     OW26419   4.419   0.502   4.753
 8507SOL    HW126420   4.341   0.442   4.768
 8507SOL    HW226421   4.390   0.583   4.701
 8508SOL     OW26422   4.072   1.603   5.931
 8508SOL    HW126423   3.973   1.617   5.935
 8508SOL    HW226424   4.108   1.644   5.847
 8509SOL     OW26425   5.207   6.829   3.577
 8509SOL    HW126426   5.303   6.843   3.553
 8509SOL    HW226427   5.201   6.786   3.668
 8510SOL     OW26428   5.497   2.834   3.774
 8510SOL    HW126429   5.459   2.777   3.701
 8510SOL    HW226430   5.427   2.896   3.808
 8511SOL     OW26431   6.019   3.391   2.187
 8511SOL    HW126432   6.101   3.428   2.143
 8511SOL    HW226433   6.013   3.424   2.281
 8512SOL     OW26434   2.166   0.133   3.020
 8512SOL    HW126435   2.238   0.104   3.083
 8512SOL    HW226436   2.204   0.139   2.927
 8513SOL     OW26437   6.439   6.548   0.325
 8513SOL    HW126438   6.516   6.575   0.268
 8513SOL    HW226439   6.443   6.450   0.343
 8514SOL     OW26440   3.508   6.323   2.946
 8514SOL    HW126441   3.475   6.395   3.008
 8514SOL    HW226442   3.481   6.234   2.981
 8515SOL     OW26443   5.421   2.779   1.058
 8515SOL    HW126444   5.482   2.755   0.982
 8515SOL    HW226445   5.409   2.878   1.061
 8516SOL     OW26446   6.375   1.895   3.035
 8516SOL    HW126447   6.396   1.931   2.944
 8516SOL    HW226448   6.280   1.916   3.057
 8517SOL     OW26449   0.637   2.240   6.935
 8517SOL    HW126450   0.674   2.148   6.944
 8517SOL    HW226451   0.538   2.238   6.953
 8518SOL     OW26452   4.216   5.221   0.580
 8518SOL    HW126453   4.191   5.184   0.669
 8518SOL    HW226454   4.309   5.257   0.584
 8519SOL     OW26455   1.990   5.920   2.213
 8519SOL    HW126456   2.045   5.923   2.297
 8519SOL    HW226457   2.043   5.955   2.136
 8520SOL     OW26458   3.918   0.910   0.811
 8520SOL    HW126459   3.820   0.910   0.792
 8520SOL    HW226460   3.935   0.956   0.898
 8521SOL     OW26461   0.787   6.104   6.198
 8521SOL    HW126462   0.718   6.171   6.171
 8521SOL    HW226463   0.773   6.079   6.294
 8522SOL     OW26464   1.433   6.810   2.568
 8522SOL    HW126465   1.411   6.867   2.488
 8522SOL    HW226466   1.348   6.776   2.608
 8523SOL     OW26467   2.253   0.218   5.520
 8523SOL    HW126468   2.229   0.123   5.501
 8523SOL    HW226469   2.326   0.246   5.458
 8524SOL     OW26470   1.632   3.341   4.755
 8524SOL    HW126471   1.586   3.428   4.735
 8524SOL    HW226472   1.653   3.294   4.669
 8525SOL     OW26473   6.019   3.094   2.853
 8525SOL    HW126474   6.053   3.011   2.897
 8525SOL    HW226475   6.086   3.126   2.786
 8526SOL     OW26476   2.510   2.772   1.637
 8526SOL    HW126477   2.444   2.793   1.710
 8526SOL    HW226478   2.480   2.814   1.552
 8527SOL     OW26479   4.553   0.545   3.969
 8527SOL    HW126480   4.618   0.598   4.023
 8527SOL    HW226481   4.584   0.450   3.964
 8528SOL     OW26482   5.019   3.592   6.531
 8528SOL    HW126483   4.941   3.542   6.568
 8528SOL    HW226484   5.064   3.536   6.461
 8529SOL     OW26485   1.922   5.824   0.040
 8529SOL    HW126486   1.873   5.904   0.005
 8529SOL    HW226487   2.014   5.821   0.002
 8530SOL     OW26488   1.705   4.763   5.317
 8530SOL    HW126489   1.641   4.692   5.287
 8530SOL    HW226490   1.672   4.802   5.403
 8531SOL     OW26491   5.451   3.904   3.044
 8531SOL    HW126492   5.352   3.896   3.049
 8531SOL    HW226493   5.488   3.839   2.978
 8532SOL     OW26494   3.921   4.848   5.116
 8532SOL    HW126495   3.905   4.884   5.023
 8532SOL    HW226496   4.015   4.816   5.124
 8533SOL     OW26497   2.559   1.098   4.705
 8533SOL    HW126498   2.621   1.128   4.777
 8533SOL    HW226499   2.526   1.006   4.725
 8534SOL     OW26500   0.841   3.762   2.750
 8534SOL    HW126501   0.920   3.701   2.762
 8534SOL    HW226502   0.873   3.854   2.729
 8535SOL     OW26503   0.959   2.430   4.734
 8535SOL    HW126504   0.983   2.360   4.667
 8535SOL    HW226505   1.040   2.483   4.757
 8536SOL     OW26506   6.668   2.338   5.268
 8536SOL    HW126507   6.755   2.387   5.262
 8536SOL    HW226508   6.596   2.395   5.228
 8537SOL     OW26509   5.916   0.663   0.777
 8537SOL    HW126510   5.938   0.654   0.874
 8537SOL    HW226511   5.996   0.637   0.723
 8538SOL     OW26512   6.967   0.137   5.096
 8538SOL    HW126513   6.998   0.078   5.171
 8538SOL    HW226514   0.016   0.148   5.029
 8539SOL     OW26515   7.023   2.130   1.905
 8539SOL    HW126516   0.025   2.036   1.929
 8539SOL    HW226517   7.012   2.183   1.989
 8540SOL     OW26518   2.732   1.013   0.470
 8540SOL    HW126519   2.737   1.112   0.459
 8540SOL    HW226520   2.806   0.982   0.530
 8541SOL     OW26521   2.910   1.586   5.187
 8541SOL    HW126522   2.816   1.594   5.220
 8541SOL    HW226523   2.940   1.491   5.194
 8542SOL     OW26524   2.792   4.533   6.762
 8542SOL    HW126525   2.759   4.448   6.804
 8542SOL    HW226526   2.726   4.606   6.776
 8543SOL     OW26527   2.878   2.207   5.706
 8543SOL    HW126528   2.849   2.283   5.648
 8543SOL    HW226529   2.956   2.236   5.762
 8544SOL     OW26530   4.744   3.890   5.277
 8544SOL    HW126531   4.740   3.845   5.367
 8544SOL    HW226532   4.682   3.968   5.276
 8545SOL     OW26533   3.705   6.766   4.672
 8545SOL    HW126534   3.689   6.669   4.653
 8545SOL    HW226535   3.737   6.777   4.766
 8546SOL     OW26536   5.806   0.155   1.708
 8546SOL    HW126537   5.774   0.226   1.645
 8546SOL    HW226538   5.729   0.095   1.732
 8547SOL     OW26539   6.686   6.888   6.031
 8547SOL    HW126540   6.744   6.968   6.015
 8547SOL    HW226541   6.598   6.918   6.068
 8548SOL     OW26542   0.384   2.754   6.214
 8548SOL    HW126543   0.422   2.845   6.223
 8548SOL    HW226544   0.426   2.693   6.281
 8549SOL     OW26545   1.487   1.131   3.669
 8549SOL    HW126546   1.399   1.175   3.685
 8549SOL    HW226547   1.552   1.199   3.635
 8550SOL     OW26548   0.727   4.585   6.764
 8550SOL    HW126549   0.665   4.654   6.802
 8550SOL    HW226550   0.704   4.495   6.801
 8551SOL     OW26551   1.750   2.302   6.523
 8551SOL    HW126552   1.690   2.326   6.599
 8551SOL    HW226553   1.789   2.211   6.538
 8552SOL     OW26554   3.070   1.131   2.342
 8552SOL    HW126555   2.974   1.134   2.372
 8552SOL    HW226556   3.124   1.080   2.409
 8553SOL     OW26557   4.496   2.813   1.234
 8553SOL    HW126558   4.550   2.869   1.171
 8553SOL    HW226559   4.423   2.868   1.274
 8554SOL     OW26560   0.900   6.820   0.934
 8554SOL    HW126561   0.882   6.725   0.958
 8554SOL    HW226562   0.997   6.832   0.914
 8555SOL     OW26563   4.284   1.432   3.665
 8555SOL    HW126564   4.193   1.455   3.631
 8555SOL    HW226565   4.346   1.417   3.588
 8556SOL     OW26566   2.175   6.063   6.454
 8556SOL    HW126567   2.166   6.123   6.533
 8556SOL    HW226568   2.121   5.979   6.468
 8557SOL     OW26569   6.678   0.975   0.381
 8557SOL    HW126570   6.603   1.031   0.417
 8557SOL    HW226571   6.640   0.890   0.342
 8558SOL     OW26572   2.755   5.106   3.183
 8558SOL    HW126573   2.723   5.114   3.277
 8558SOL    HW226574   2.790   5.195   3.152
 8559SOL     OW26575   0.941   5.370   1.925
 8559SOL    HW126576   1.036   5.353   1.898
 8559SOL    HW226577   0.886   5.288   1.908
 8560SOL     OW26578   2.109   4.957   1.459
 8560SOL    HW126579   2.050   5.016   1.515
 8560SOL    HW226580   2.201   4.954   1.500
 8561SOL     OW26581   3.510   0.393   3.045
 8561SOL    HW126582   3.459   0.403   2.960
 8561SOL    HW226583   3.470   0.318   3.099
 8562SOL     OW26584   3.723   1.158   0.198
 8562SOL    HW126585   3.730   1.251   0.162
 8562SOL    HW226586   3.665   1.104   0.137
 8563SOL     OW26587   1.602   5.515   2.739
 8563SOL    HW126588   1.617   5.506   2.640
 8563SOL    HW226589   1.526   5.577   2.755
 8564SOL     OW26590   3.539   6.433   0.196
 8564SOL    HW126591   3.625   6.463   0.238
 8564SOL    HW226592   3.512   6.345   0.235
 8565SOL     OW26593   3.914   5.402   1.245
 8565SOL    HW126594   3.845   5.378   1.313
 8565SOL    HW226595   3.946   5.318   1.200
 8566SOL     OW26596   2.768   0.954   2.983
 8566SOL    HW126597   2.692   0.975   2.922
 8566SOL    HW226598   2.853   0.952   2.931
 8567SOL     OW26599   1.534   1.801   1.462
 8567SOL    HW126600   1.470   1.878   1.460
 8567SOL    HW226601   1.611   1.823   1.522
 8568SOL     OW26602   0.245   1.325   0.530
 8568SOL    HW126603   0.153   1.351   0.561
 8568SOL    HW226604   0.242   1.305   0.432
 8569SOL     OW26605   5.367   2.562   5.903
 8569SOL    HW126606   5.347   2.645   5.955
 8569SOL    HW226607   5.427   2.585   5.826
 8570SOL     OW26608   1.157   2.245   5.262
 8570SOL    HW126609   1.109   2.314   5.317
 8570SOL    HW226610   1.231   2.205   5.316
 8571SOL     OW26611   1.572   0.982   4.329
 8571SOL    HW126612   1.567   1.067   4.276
 8571SOL    HW226613   1.600   1.003   4.422
 8572SOL     OW26614   3.348   4.016   5.645
 8572SOL    HW126615   3.433   3.976   5.613
 8572SOL    HW226616   3.271   3.969   5.602
 8573SOL     OW26617   3.068   5.842   0.686
 8573SOL    HW126618   3.081   5.939   0.708
 8573SOL    HW226619   3.157   5.797   0.677
 8574SOL     OW26620   6.891   6.530   5.858
 8574SOL    HW126621   6.796   6.514   5.832
 8574SOL    HW226622   6.913   6.476   5.940
 8575SOL     OW26623   3.733   6.994   2.921
 8575SOL    HW126624   3.718   0.049   2.863
 8575SOL    HW226625   3.673   6.999   3.001
 8576SOL     OW26626   0.998   3.872   4.165
 8576SOL    HW126627   1.029   3.881   4.071
 8576SOL    HW226628   1.060   3.812   4.216
 8577SOL     OW26629   1.908   0.943   5.963
 8577SOL    HW126630   1.899   0.923   6.060
 8577SOL    HW226631   1.864   0.871   5.910
 8578SOL     OW26632   6.204   6.221   5.131
 8578SOL    HW126633   6.182   6.174   5.217
 8578SOL    HW226634   6.149   6.182   5.057
 8579SOL     OW26635   2.705   6.181   2.338
 8579SOL    HW126636   2.788   6.234   2.357
 8579SOL    HW226637   2.715   6.133   2.251
 8580SOL     OW26638   1.388   6.123   1.525
 8580SOL    HW126639   1.334   6.147   1.444
 8580SOL    HW226640   1.475   6.085   1.496
 8581SOL     OW26641   3.684   5.074   1.375
 8581SOL    HW126642   3.773   5.090   1.333
 8581SOL    HW226643   3.686   4.988   1.426
 8582SOL     OW26644   4.169   4.555   5.607
 8582SOL    HW126645   4.093   4.599   5.655
 8582SOL    HW226646   4.162   4.456   5.617
 8583SOL     OW26647   4.087   0.843   3.212
 8583SOL    HW126648   4.117   0.922   3.265
 8583SOL    HW226649   4.080   0.763   3.272
 8584SOL     OW26650   6.127   1.559   4.723
 8584SOL    HW126651   6.137   1.477   4.779
 8584SOL    HW226652   6.185   1.632   4.759
 8585SOL     OW26653   5.817   2.097   1.356
 8585SOL    HW126654   5.767   2.030   1.412
 8585SOL    HW226655   5.907   2.060   1.334
 8586SOL     OW26656   5.762   5.937   1.196
 8586SOL    HW126657   5.753   5.985   1.109
 8586SOL    HW226658   5.720   5.847   1.189
 8587SOL     OW26659   1.048   1.478   5.546
 8587SOL    HW126660   1.011   1.402   5.599
 8587SOL    HW226661   0.975   1.519   5.492
 8588SOL     OW26662   3.733   1.602   6.622
 8588SOL    HW126663   3.651   1.630   6.572
 8588SOL    HW226664   3.754   1.507   6.600
 8589SOL     OW26665   6.748   3.453   5.500
 8589SOL    HW126666   6.803   3.372   5.482
 8589SOL    HW226667   6.681   3.433   5.571
 8590SOL     OW26668   6.750   1.318   2.952
 8590SOL    HW126669   6.683   1.353   3.017
 8590SOL    HW226670   6.829   1.283   3.001
 8591SOL     OW26671   6.661   5.052   0.478
 8591SOL    HW126672   6.590   4.986   0.502
 8591SOL    HW226673   6.649   5.083   0.384
 8592SOL     OW26674   0.528   2.530   6.861
 8592SOL    HW126675   0.570   2.607   6.908
 8592SOL    HW226676   0.584   2.504   6.782
 8593SOL     OW26677   3.004   0.639   6.623
 8593SOL    HW126678   2.997   0.563   6.559
 8593SOL    HW226679   3.096   0.642   6.662
 8594SOL     OW26680   6.033   2.777   6.321
 8594SOL    HW126681   6.099   2.750   6.251
 8594SOL    HW226682   5.946   2.802   6.278
 8595SOL     OW26683   5.226   0.127   2.776
 8595SOL    HW126684   5.143   0.097   2.823
 8595SOL    HW226685   5.278   0.187   2.836
 8596SOL     OW26686   0.824   3.136   3.389
 8596SOL    HW126687   0.807   3.145   3.487
 8596SOL    HW226688   0.899   3.196   3.363
 8597SOL     OW26689   6.677   2.752   0.816
 8597SOL    HW126690   6.612   2.794   0.880
 8597SOL    HW226691   6.749   2.706   0.868
 8598SOL     OW26692   5.797   0.862   5.044
 8598SOL    HW126693   5.843   0.783   5.004
 8598SOL    HW226694   5.708   0.875   5.000
 8599SOL     OW26695   1.274   3.485   3.291
 8599SOL    HW126696   1.325   3.406   3.255
 8599SOL    HW226697   1.288   3.563   3.231
 8600SOL     OW26698   4.670   3.871   1.092
 8600SOL    HW126699   4.747   3.876   1.029
 8600SOL    HW226700   4.606   3.800   1.061
 8601SOL     OW26701   0.542   1.372   4.056
 8601SOL    HW126702   0.488   1.309   4.001
 8601SOL    HW226703   0.590   1.436   3.996
 8602SOL     OW26704   2.760   6.830   3.747
 8602SOL    HW126705   2.829   6.869   3.808
 8602SOL    HW226706   2.673   6.876   3.761
 8603SOL     OW26707   6.191   1.055   0.282
 8603SOL    HW126708   6.113   0.994   0.294
 8603SOL    HW226709   6.211   1.065   0.185
 8604SOL     OW26710   0.520   3.426   6.247
 8604SOL    HW126711   0.471   3.490   6.305
 8604SOL    HW226712   0.467   3.411   6.163
 8605SOL     OW26713   0.344   4.624   4.324
 8605SOL    HW126714   0.412   4.618   4.251
 8605SOL    HW226715   0.379   4.577   4.406
 8606SOL     OW26716   2.691   1.903   6.479
 8606SOL    HW126717   2.646   1.943   6.559
 8606SOL    HW226718   2.639   1.823   6.448
 8607SOL     OW26719   1.982   4.923   1.216
 8607SOL    HW126720   1.996   4.826   1.197
 8607SOL    HW226721   2.022   4.947   1.304
 8608SOL     OW26722   2.383   4.473   2.538
 8608SOL    HW126723   2.387   4.534   2.459
 8608SOL    HW226724   2.464   4.414   2.539
 8609SOL     OW26725   4.815   1.171   3.882
 8609SOL    HW126726   4.875   1.228   3.827
 8609SOL    HW226727   4.768   1.228   3.950
 8610SOL     OW26728   6.887   7.004   2.921
 8610SOL    HW126729   6.922   6.921   2.963
 8610SOL    HW226730   6.787   6.998   2.913
 8611SOL     OW26731   3.045   1.487   3.704
 8611SOL    HW126732   3.121   1.542   3.739
 8611SOL    HW226733   3.054   1.393   3.735
 8612SOL     OW26734   3.118   3.089   2.781
 8612SOL    HW126735   3.121   3.034   2.697
 8612SOL    HW226736   3.094   3.183   2.757
 8613SOL     OW26737   3.035   2.822   1.638
 8613SOL    HW126738   3.052   2.726   1.663
 8613SOL    HW226739   2.999   2.826   1.545
 8614SOL     OW26740   1.406   2.259   2.006
 8614SOL    HW126741   1.452   2.227   2.089
 8614SOL    HW226742   1.470   2.257   1.929
 8615SOL     OW26743   4.783   2.188   4.433
 8615SOL    HW126744   4.799   2.286   4.442
 8615SOL    HW226745   4.870   2.140   4.424
 8616SOL     OW26746   3.622   5.279   2.325
 8616SOL    HW126747   3.585   5.192   2.355
 8616SOL    HW226748   3.555   5.352   2.342
 8617SOL     OW26749   5.499   7.004   3.692
 8617SOL    HW126750   5.515   6.922   3.637
 8617SOL    HW226751   5.571   7.013   3.760
 8618SOL     OW26752   6.655   3.719   0.936
 8618SOL    HW126753   6.699   3.682   0.854
 8618SOL    HW226754   6.721   3.725   1.010
 8619SOL     OW26755   5.110   4.907   1.990
 8619SOL    HW126756   5.046   4.920   2.066
 8619SOL    HW226757   5.080   4.962   1.912
 8620SOL     OW26758   2.249   0.395   4.637
 8620SOL    HW126759   2.230   0.395   4.735
 8620SOL    HW226760   2.343   0.424   4.620
 8621SOL     OW26761   4.822   2.907   2.220
 8621SOL    HW126762   4.744   2.848   2.241
 8621SOL    HW226763   4.808   2.948   2.130
 8622SOL     OW26764   6.318   5.293   2.396
 8622SOL    HW126765   6.340   5.211   2.450
 8622SOL    HW226766   6.401   5.344   2.378
 8623SOL     OW26767   6.923   3.372   4.872
 8623SOL    HW126768   6.962   3.445   4.928
 8623SOL    HW226769   6.920   3.401   4.776
 8624SOL     OW26770   3.161   3.678   5.798
 8624SOL    HW126771   3.125   3.596   5.844
 8624SOL    HW226772   3.131   3.678   5.703
 8625SOL     OW26773   3.680   1.440   5.151
 8625SOL    HW126774   3.600   1.402   5.106
 8625SOL    HW226775   3.655   1.523   5.202
 8626SOL     OW26776   4.383   2.703   0.727
 8626SOL    HW126777   4.420   2.741   0.811
 8626SOL    HW226778   4.458   2.670   0.669
 8627SOL     OW26779   1.884   1.667   2.321
 8627SOL    HW126780   1.786   1.682   2.307
 8627SOL    HW226781   1.899   1.574   2.356
 8628SOL     OW26782   6.894   6.602   0.144
 8628SOL    HW126783   6.976   6.609   0.202
 8628SOL    HW226784   6.917   6.554   0.060
 8629SOL     OW26785   0.977   6.964   4.716
 8629SOL    HW126786   1.018   0.004   4.653
 8629SOL    HW226787   1.042   6.890   4.735
 8630SOL     OW26788   4.940   3.550   3.639
 8630SOL    HW126789   5.034   3.545   3.605
 8630SOL    HW226790   4.883   3.483   3.591
 8631SOL     OW26791   2.403   5.627   0.306
 8631SOL    HW126792   2.415   5.528   0.293
 8631SOL    HW226793   2.474   5.660   0.369
 8632SOL     OW26794   4.112   4.426   5.335
 8632SOL    HW126795   4.140   4.447   5.429
 8632SOL    HW226796   4.181   4.461   5.271
 8633SOL     OW26797   5.574   4.186   5.471
 8633SOL    HW126798   5.647   4.239   5.429
 8633SOL    HW226799   5.579   4.091   5.441
 8634SOL     OW26800   5.475   4.883   0.452
 8634SOL    HW126801   5.414   4.824   0.398
 8634SOL    HW226802   5.477   4.851   0.546
 8635SOL     OW26803   6.186   2.860   6.909
 8635SOL    HW126804   6.212   2.883   7.003
 8635SOL    HW226805   6.267   2.829   6.859
 8636SOL     OW26806   4.153   5.931   0.560
 8636SOL    HW126807   4.227   5.935   0.493
 8636SOL    HW226808   4.180   5.983   0.642
 8637SOL     OW26809   1.590   1.622   6.633
 8637SOL    HW126810   1.602   1.530   6.670
 8637SOL    HW226811   1.516   1.622   6.566
 8638SOL     OW26812   4.119   2.974   5.413
 8638SOL    HW126813   4.062   3.010   5.340
 8638SOL    HW226814   4.188   3.043   5.438
 8639SOL     OW26815   5.154   3.279   0.134
 8639SOL    HW126816   5.120   3.350   0.197
 8639SOL    HW226817   5.114   3.294   0.044
 8640SOL     OW26818   3.631   2.922   1.177
 8640SOL    HW126819   3.717   2.957   1.215
 8640SOL    HW226820   3.605   2.976   1.097
 8641SOL     OW26821   4.168   5.566   3.089
 8641SOL    HW126822   4.209   5.519   3.167
 8641SOL    HW226823   4.226   5.554   3.008
 8642SOL     OW26824   1.200   6.692   3.715
 8642SOL    HW126825   1.184   6.718   3.619
 8642SOL    HW226826   1.282   6.635   3.720
 8643SOL     OW26827   2.774   0.264   0.488
 8643SOL    HW126828   2.823   0.203   0.425
 8643SOL    HW226829   2.801   0.243   0.582
 8644SOL     OW26830   5.959   1.902   6.515
 8644SOL    HW126831   5.889   1.856   6.460
 8644SOL    HW226832   6.036   1.840   6.530
 8645SOL     OW26833   5.585   4.673   1.239
 8645SOL    HW126834   5.587   4.601   1.170
 8645SOL    HW226835   5.581   4.762   1.194
 8646SOL     OW26836   0.151   2.310   5.816
 8646SOL    HW126837   0.057   2.326   5.845
 8646SOL    HW226838   0.209   2.295   5.897
 8647SOL     OW26839   3.020   5.391   1.228
 8647SOL    HW126840   3.107   5.427   1.262
 8647SOL    HW226841   3.026   5.380   1.128
 8648SOL     OW26842   5.361   6.816   1.221
 8648SOL    HW126843   5.413   6.896   1.193
 8648SOL    HW226844   5.330   6.766   1.139
 8649SOL     OW26845   4.458   6.408   6.902
 8649SOL    HW126846   4.444   6.310   6.889
 8649SOL    HW226847   4.370   6.455   6.893
 8650SOL     OW26848   1.902   0.209   4.011
 8650SOL    HW126849   1.843   0.161   4.076
 8650SOL    HW226850   1.861   0.206   3.920
 8651SOL     OW26851   2.734   1.647   0.743
 8651SOL    HW126852   2.716   1.549   0.757
 8651SOL    HW226853   2.658   1.701   0.779
 8652SOL     OW26854   0.778   4.884   4.152
 8652SOL    HW126855   0.775   4.935   4.066
 8652SOL    HW226856   0.837   4.804   4.142
 8653SOL     OW26857   6.801   1.771   6.115
 8653SOL    HW126858   6.877   1.729   6.065
 8653SOL    HW226859   6.745   1.699   6.157
 8654SOL     OW26860   0.886   4.618   2.008
 8654SOL    HW126861   0.932   4.547   2.063
 8654SOL    HW226862   0.955   4.669   1.957
 8655SOL     OW26863   6.628   1.433   5.168
 8655SOL    HW126864   6.571   1.486   5.105
 8655SOL    HW226865   6.693   1.495   5.213
 8656SOL     OW26866   5.677   6.912   1.978
 8656SOL    HW126867   5.734   6.866   1.909
 8656SOL    HW226868   5.616   6.976   1.932
 8657SOL     OW26869   5.545   6.790   0.914
 8657SOL    HW126870   5.632   6.821   0.953
 8657SOL    HW226871   5.481   6.867   0.909
 8658SOL     OW26872   6.069   5.832   1.278
 8658SOL    HW126873   6.048   5.927   1.252
 8658SOL    HW226874   5.984   5.780   1.283
 8659SOL     OW26875   4.601   2.658   2.768
 8659SOL    HW126876   4.616   2.576   2.713
 8659SOL    HW226877   4.644   2.736   2.723
 8660SOL     OW26878   0.715   2.543   1.779
 8660SOL    HW126879   0.738   2.593   1.695
 8660SOL    HW226880   0.749   2.449   1.772
 8661SOL     OW26881   6.311   3.048   3.376
 8661SOL    HW126882   6.214   3.027   3.388
 8661SOL    HW226883   6.334   3.130   3.427
 8662SOL     OW26884   3.687   5.915   2.383
 8662SOL    HW126885   3.629   5.864   2.319
 8662SOL    HW226886   3.740   5.983   2.333
 8663SOL     OW26887   3.303   5.419   2.960
 8663SOL    HW126888   3.402   5.421   2.942
 8663SOL    HW226889   3.287   5.415   3.059
 8664SOL     OW26890   2.048   5.794   2.861
 8664SOL    HW126891   2.123   5.859   2.868
 8664SOL    HW226892   1.962   5.843   2.847
 8665SOL     OW26893   6.381   4.777   5.781
 8665SOL    HW126894   6.412   4.847   5.846
 8665SOL    HW226895   6.320   4.819   5.714
 8666SOL     OW26896   5.478   0.431   4.151
 8666SOL    HW126897   5.570   0.400   4.174
 8666SOL    HW226898   5.484   0.514   4.095
 8667SOL     OW26899   5.419   1.483   4.545
 8667SOL    HW126900   5.412   1.499   4.643
 8667SOL    HW226901   5.386   1.563   4.495
 8668SOL     OW26902   5.250   2.997   4.647
 8668SOL    HW126903   5.275   2.917   4.701
 8668SOL    HW226904   5.155   3.021   4.667
 8669SOL     OW26905   6.692   6.195   6.213
 8669SOL    HW126906   6.606   6.221   6.168
 8669SOL    HW226907   6.691   6.226   6.308
 8670SOL     OW26908   5.417   4.777   5.950
 8670SOL    HW126909   5.494   4.806   5.892
 8670SOL    HW226910   5.450   4.719   6.024
 8671SOL     OW26911   0.267   2.001   2.356
 8671SOL    HW126912   0.292   2.096   2.341
 8671SOL    HW226913   0.170   1.989   2.335
 8672SOL     OW26914   0.115   0.501   3.882
 8672SOL    HW126915   0.156   0.592   3.884
 8672SOL    HW226916   0.022   0.508   3.845
 8673SOL     OW26917   6.994   1.600   0.246
 8673SOL    HW126918   6.966   1.505   0.233
 8673SOL    HW226919   0.038   1.624   0.179
 8674SOL     OW26920   0.309   4.465   3.479
 8674SOL    HW126921   0.232   4.458   3.542
 8674SOL    HW226922   0.379   4.397   3.503
 8675SOL     OW26923   3.335   1.340   5.882
 8675SOL    HW126924   3.407   1.279   5.849
 8675SOL    HW226925   3.324   1.327   5.981
 8676SOL     OW26926   5.785   1.000   1.519
 8676SOL    HW126927   5.847   1.056   1.466
 8676SOL    HW226928   5.692   1.010   1.483
 8677SOL     OW26929   1.744   6.138   5.671
 8677SOL    HW126930   1.749   6.095   5.761
 8677SOL    HW226931   1.745   6.067   5.600
 8678SOL     OW26932   1.177   6.991   0.413
 8678SOL    HW126933   1.138   6.909   0.373
 8678SOL    HW226934   1.167   0.042   0.350
 8679SOL     OW26935   2.111   1.136   3.883
 8679SOL    HW126936   2.136   1.039   3.893
 8679SOL    HW226937   2.097   1.157   3.787
 8680SOL     OW26938   6.278   2.751   6.169
 8680SOL    HW126939   6.335   2.739   6.250
 8680SOL    HW226940   6.330   2.802   6.100
 8681SOL     OW26941   4.788   6.054   1.220
 8681SOL    HW126942   4.776   5.969   1.169
 8681SOL    HW226943   4.812   6.032   1.315
 8682SOL     OW26944   6.800   0.380   1.092
 8682SOL    HW126945   6.879   0.368   1.152
 8682SOL    HW226946   6.749   0.294   1.088
 8683SOL     OW26947   1.779   3.467   4.952
 8683SOL    HW126948   1.720   3.489   5.030
 8683SOL    HW226949   1.730   3.406   4.889
 8684SOL     OW26950   0.436   3.593   4.545
 8684SOL    HW126951   0.518   3.649   4.551
 8684SOL    HW226952   0.368   3.640   4.488
 8685SOL     OW26953   5.526   2.117   6.110
 8685SOL    HW126954   5.531   2.215   6.092
 8685SOL    HW226955   5.587   2.093   6.185
 8686SOL     OW26956   6.448   6.820   3.066
 8686SOL    HW126957   6.485   6.741   3.018
 8686SOL    HW226958   6.423   6.890   2.999
 8687SOL     OW26959   6.569   3.622   3.112
 8687SOL    HW126960   6.510   3.675   3.051
 8687SOL    HW226961   6.629   3.564   3.058
 8688SOL     OW26962   1.570   3.818   6.610
 8688SOL    HW126963   1.579   3.733   6.662
 8688SOL    HW226964   1.528   3.798   6.521
 8689SOL     OW26965   4.575   3.001   0.672
 8689SOL    HW126966   4.618   2.952   0.596
 8689SOL    HW226967   4.486   3.036   0.643
 8690SOL     OW26968   1.114   2.077   2.730
 8690SOL    HW126969   1.076   2.133   2.657
 8690SOL    HW226970   1.213   2.069   2.718
 8691SOL     OW26971   3.280   1.548   4.827
 8691SOL    HW126972   3.351   1.550   4.897
 8691SOL    HW226973   3.265   1.640   4.792
 8692SOL     OW26974   4.208   1.918   5.650
 8692SOL    HW126975   4.278   1.946   5.584
 8692SOL    HW226976   4.128   1.977   5.642
 8693SOL     OW26977   6.674   1.048   6.481
 8693SOL    HW126978   6.765   1.077   6.511
 8693SOL    HW226979   6.652   0.960   6.523
 8694SOL     OW26980   6.183   2.972   4.170
 8694SOL    HW126981   6.132   3.042   4.220
 8694SOL    HW226982   6.247   2.928   4.232
 8695SOL     OW26983   3.970   3.231   6.494
 8695SOL    HW126984   3.958   3.229   6.593
 8695SOL    HW226985   4.027   3.309   6.468
 8696SOL     OW26986   2.653   5.835   5.451
 8696SOL    HW126987   2.555   5.842   5.434
 8696SOL    HW226988   2.701   5.907   5.401
 8697SOL     OW26989   1.795   4.312   5.672
 8697SOL    HW126990   1.849   4.372   5.612
 8697SOL    HW226991   1.713   4.281   5.624
 8698SOL     OW26992   4.939   5.948   6.296
 8698SOL    HW126993   4.957   5.999   6.211
 8698SOL    HW226994   4.887   6.005   6.359
 8699SOL     OW26995   2.631   3.045   6.184
 8699SOL    HW126996   2.589   2.955   6.171
 8699SOL    HW226997   2.622   3.071   6.280
 8700SOL     OW26998   1.089   0.255   5.387
 8700SOL    HW126999   1.153   0.282   5.314
 8700SOL    HW227000   1.095   0.156   5.402
 8701SOL     OW27001   1.236   1.715   0.145
 8701SOL    HW127002   1.146   1.677   0.123
 8701SOL    HW227003   1.240   1.734   0.243
 8702SOL     OW27004   5.217   4.712   1.439
 8702SOL    HW127005   5.129   4.666   1.447
 8702SOL    HW227006   5.272   4.666   1.369
 8703SOL     OW27007   2.544   4.731   0.036
 8703SOL    HW127008   2.485   4.700   0.111
 8703SOL    HW227009   2.589   4.653   7.019
 8704SOL     OW27010   0.341   2.664   4.071
 8704SOL    HW127011   0.295   2.632   3.988
 8704SOL    HW227012   0.305   2.614   4.150
 8705SOL     OW27013   4.546   2.521   6.749
 8705SOL    HW127014   4.599   2.536   6.833
 8705SOL    HW227015   4.596   2.557   6.671
 8706SOL     OW27016   5.515   2.845   0.052
 8706SOL    HW127017   5.444   2.909   0.022
 8706SOL    HW227018   5.605   2.888   0.039
 8707SOL     OW27019   1.076   1.977   4.421
 8707SOL    HW127020   1.023   2.053   4.381
 8707SOL    HW227021   1.159   1.962   4.368
 8708SOL     OW27022   4.956   2.362   3.914
 8708SOL    HW127023   4.969   2.443   3.971
 8708SOL    HW227024   4.940   2.390   3.820
 8709SOL     OW27025   6.921   0.056   6.936
 8709SOL    HW127026   6.881   7.015   6.998
 8709SOL    HW227027   6.906   0.149   6.971
 8710SOL     OW27028   1.996   1.541   4.172
 8710SOL    HW127029   1.957   1.457   4.135
 8710SOL    HW227030   2.083   1.561   4.126
 8711SOL     OW27031   0.588   1.239   1.983
 8711SOL    HW127032   0.609   1.299   2.060
 8711SOL    HW227033   0.640   1.267   1.903
 8712SOL     OW27034   2.509   2.394   5.447
 8712SOL    HW127035   2.499   2.447   5.531
 8712SOL    HW227036   2.443   2.319   5.446
 8713SOL     OW27037   1.198   4.094   2.267
 8713SOL    HW127038   1.134   4.135   2.332
 8713SOL    HW227039   1.255   4.026   2.313
 8714SOL     OW27040   0.066   6.332   0.345
 8714SOL    HW127041   0.144   6.270   0.341
 8714SOL    HW227042   7.021   6.301   0.282
 8715SOL     OW27043   2.447   1.764   0.196
 8715SOL    HW127044   2.459   1.685   0.137
 8715SOL    HW227045   2.349   1.776   0.216
 8716SOL     OW27046   0.032   6.376   1.604
 8716SOL    HW127047   6.984   6.376   1.672
 8716SOL    HW227048   0.020   6.453   1.542
 8717SOL     OW27049   2.548   3.822   6.437
 8717SOL    HW127050   2.489   3.881   6.381
 8717SOL    HW227051   2.493   3.770   6.501
 8718SOL     OW27052   1.454   3.429   6.249
 8718SOL    HW127053   1.427   3.489   6.324
 8718SOL    HW227054   1.510   3.354   6.284
 8719SOL     OW27055   3.907   1.136   6.795
 8719SOL    HW127056   3.950   1.072   6.732
 8719SOL    HW227057   3.860   1.086   6.867
 8720SOL     OW27058   6.341   4.494   5.068
 8720SOL    HW127059   6.329   4.513   5.166
 8720SOL    HW227060   6.438   4.480   5.048
 8721SOL     OW27061   0.188   5.904   6.552
 8721SOL    HW127062   0.105   5.848   6.554
 8721SOL    HW227063   0.163   5.998   6.528
 8722SOL     OW27064   3.324   0.347   1.022
 8722SOL    HW127065   3.256   0.407   0.980
 8722SOL    HW227066   3.383   0.402   1.082
 8723SOL     OW27067   5.485   7.007   2.294
 8723SOL    HW127068   5.584   6.998   2.285
 8723SOL    HW227069   5.452   0.048   2.226
 8724SOL     OW27070   4.421   0.302   4.336
 8724SOL    HW127071   4.387   0.393   4.362
 8724SOL    HW227072   4.415   0.292   4.236
 8725SOL     OW27073   0.340   6.347   4.963
 8725SOL    HW127074   0.282   6.427   4.978
 8725SOL    HW227075   0.416   6.372   4.903
 8726SOL     OW27076   0.193   1.155   0.319
 8726SOL    HW127077   0.281   1.193   0.291
 8726SOL    HW227078   0.138   1.133   0.239
 8727SOL     OW27079   6.014   6.579   6.586
 8727SOL    HW127080   6.103   6.546   6.619
 8727SOL    HW227081   5.989   6.662   6.635
 8728SOL     OW27082   5.313   1.155   3.182
 8728SOL    HW127083   5.406   1.133   3.153
 8728SOL    HW227084   5.259   1.071   3.189
 8729SOL     OW27085   3.540   5.206   5.654
 8729SOL    HW127086   3.593   5.135   5.607
 8729SOL    HW227087   3.454   5.167   5.687
 8730SOL     OW27088   5.568   4.166   3.440
 8730SOL    HW127089   5.557   4.178   3.538
 8730SOL    HW227090   5.651   4.112   3.423
 8731SOL     OW27091   0.428   2.281   2.977
 8731SOL    HW127092   0.371   2.198   2.971
 8731SOL    HW227093   0.434   2.310   3.072
 8732SOL     OW27094   5.507   4.878   1.018
 8732SOL    HW127095   5.559   4.865   0.934
 8732SOL    HW227096   5.518   4.973   1.050
 8733SOL     OW27097   0.866   5.362   0.813
 8733SOL    HW127098   0.940   5.316   0.764
 8733SOL    HW227099   0.818   5.423   0.750
 8734SOL     OW27100   7.020   3.383   2.207
 8734SOL    HW127101   0.088   3.347   2.205
 8734SOL    HW227102   7.023   3.483   2.210
 8735SOL     OW27103   1.741   3.469   5.434
 8735SOL    HW127104   1.751   3.386   5.489
 8735SOL    HW227105   1.694   3.447   5.348
 8736SOL     OW27106   0.759   5.707   2.114
 8736SOL    HW127107   0.723   5.676   2.201
 8736SOL    HW227108   0.845   5.756   2.129
 8737SOL     OW27109   2.166   5.504   6.566
 8737SOL    HW127110   2.182   5.436   6.638
 8737SOL    HW227111   2.155   5.458   6.478
 8738SOL     OW27112   1.005   3.325   3.563
 8738SOL    HW127113   1.083   3.271   3.531
 8738SOL    HW227114   0.974   3.290   3.651
 8739SOL     OW27115   5.216   4.092   5.133
 8739SOL    HW127116   5.201   4.095   5.034
 8739SOL    HW227117   5.312   4.068   5.152
 8740SOL     OW27118   3.863   2.167   3.298
 8740SOL    HW127119   3.938   2.173   3.364
 8740SOL    HW227120   3.893   2.116   3.218
 8741SOL     OW27121   2.058   6.997   2.096
 8741SOL    HW127122   2.137   0.034   2.095
 8741SOL    HW227123   2.004   7.012   2.178
 8742SOL     OW27124   3.676   0.613   2.572
 8742SOL    HW127125   3.646   0.603   2.667
 8742SOL    HW227126   3.674   0.710   2.547
 8743SOL     OW27127   1.294   0.985   1.766
 8743SOL    HW127128   1.195   0.979   1.762
 8743SOL    HW227129   1.334   0.898   1.737
 8744SOL     OW27130   4.488   3.300   6.811
 8744SOL    HW127131   4.530   3.382   6.774
 8744SOL    HW227132   4.409   3.275   6.756
 8745SOL     OW27133   6.606   2.186   6.657
 8745SOL    HW127134   6.689   2.139   6.627
 8745SOL    HW227135   6.541   2.191   6.581
 8746SOL     OW27136   4.882   5.024   3.875
 8746SOL    HW127137   4.786   5.051   3.880
 8746SOL    HW227138   4.936   5.098   3.837
 8747SOL     OW27139   6.475   1.071   2.167
 8747SOL    HW127140   6.482   1.112   2.076
 8747SOL    HW227141   6.495   0.973   2.160
 8748SOL     OW27142   0.870   1.711   4.036
 8748SOL    HW127143   0.921   1.744   3.957
 8748SOL    HW227144   0.929   1.712   4.117
 8749SOL     OW27145   2.469   0.972   5.320
 8749SOL    HW127146   2.556   1.017   5.337
 8749SOL    HW227147   2.395   1.024   5.362
 8750SOL     OW27148   4.351   2.719   5.724
 8750SOL    HW127149   4.266   2.730   5.672
 8750SOL    HW227150   4.337   2.752   5.817
 8751SOL     OW27151   6.792   6.876   0.972
 8751SOL    HW127152   6.825   6.901   1.063
 8751SOL    HW227153   6.766   6.779   0.971
 8752SOL     OW27154   5.040   2.852   0.548
 8752SOL    HW127155   5.112   2.782   0.551
 8752SOL    HW227156   5.076   2.939   0.581
 8753SOL     OW27157   1.442   3.540   0.174
 8753SOL    HW127158   1.479   3.500   0.258
 8753SOL    HW227159   1.343   3.528   0.171
 8754SOL     OW27160   2.818   4.986   6.255
 8754SOL    HW127161   2.838   4.921   6.328
 8754SOL    HW227162   2.900   4.999   6.199
 8755SOL     OW27163   0.601   1.376   1.521
 8755SOL    HW127164   0.642   1.449   1.466
 8755SOL    HW227165   0.502   1.381   1.515
 8756SOL     OW27166   2.149   2.766   3.849
 8756SOL    HW127167   2.146   2.856   3.805
 8756SOL    HW227168   2.218   2.767   3.921
 8757SOL     OW27169   5.170   6.227   5.260
 8757SOL    HW127170   5.196   6.193   5.170
 8757SOL    HW227171   5.084   6.187   5.289
 8758SOL     OW27172   3.635   7.015   3.273
 8758SOL    HW127173   3.642   0.048   3.354
 8758SOL    HW227174   3.727   6.989   3.242
 8759SOL     OW27175   6.459   1.052   6.667
 8759SOL    HW127176   6.488   0.986   6.737
 8759SOL    HW227177   6.538   1.078   6.612
 8760SOL     OW27178   1.872   1.792   4.072
 8760SOL    HW127179   1.885   1.694   4.090
 8760SOL    HW227180   1.955   1.841   4.097
 8761SOL     OW27181   5.199   1.350   1.752
 8761SOL    HW127182   5.288   1.354   1.707
 8761SOL    HW227183   5.126   1.348   1.683
 8762SOL     OW27184   1.724   5.620   4.113
 8762SOL    HW127185   1.670   5.577   4.041
 8762SOL    HW227186   1.679   5.705   4.142
 8763SOL     OW27187   6.825   0.506   5.273
 8763SOL    HW127188   6.730   0.531   5.257
 8763SOL    HW227189   6.864   0.566   5.343
 8764SOL     OW27190   4.191   5.343   6.014
 8764SOL    HW127191   4.270   5.404   6.003
 8764SOL    HW227192   4.109   5.398   6.028
 8765SOL     OW27193   5.375   0.655   5.237
 8765SOL    HW127194   5.470   0.653   5.268
 8765SOL    HW227195   5.371   0.634   5.140
 8766SOL     OW27196   4.819   4.343   6.059
 8766SOL    HW127197   4.744   4.291   6.018
 8766SOL    HW227198   4.884   4.280   6.102
 8767SOL     OW27199   2.967   0.495   3.585
 8767SOL    HW127200   2.972   0.398   3.610
 8767SOL    HW227201   2.904   0.506   3.509
 8768SOL     OW27202   0.218   2.175   6.771
 8768SOL    HW127203   0.154   2.252   6.768
 8768SOL    HW227204   0.251   2.164   6.865
 8769SOL     OW27205   6.095   0.902   1.586
 8769SOL    HW127206   6.147   0.825   1.622
 8769SOL    HW227207   6.065   0.960   1.663
 8770SOL     OW27208   5.492   3.984   2.043
 8770SOL    HW127209   5.479   3.906   2.104
 8770SOL    HW227210   5.455   3.963   1.953
 8771SOL     OW27211   0.297   3.689   6.654
 8771SOL    HW127212   0.321   3.760   6.587
 8771SOL    HW227213   0.261   3.733   6.736
 8772SOL     OW27214   5.689   0.490   4.592
 8772SOL    HW127215   5.712   0.429   4.515
 8772SOL    HW227216   5.716   0.583   4.570
 8773SOL     OW27217   6.646   2.354   4.166
 8773SOL    HW127218   6.653   2.357   4.066
 8773SOL    HW227219   6.601   2.270   4.194
 8774SOL     OW27220   1.053   6.657   6.918
 8774SOL    HW127221   1.065   6.751   6.947
 8774SOL    HW227222   1.132   6.628   6.864
 8775SOL     OW27223   5.777   2.022   4.756
 8775SOL    HW127224   5.698   1.970   4.788
 8775SOL    HW227225   5.752   2.076   4.676
 8776SOL     OW27226   4.643   3.007   1.061
 8776SOL    HW127227   4.626   3.102   1.088
 8776SOL    HW227228   4.685   3.005   0.970
 8777SOL     OW27229   1.070   3.518   2.922
 8777SOL    HW127230   1.156   3.468   2.906
 8777SOL    HW227231   0.994   3.463   2.888
 8778SOL     OW27232   4.164   4.301   5.634
 8778SOL    HW127233   4.198   4.207   5.640
 8778SOL    HW227234   4.078   4.309   5.685
 8779SOL     OW27235   3.060   5.182   2.526
 8779SOL    HW127236   2.972   5.226   2.544
 8779SOL    HW227237   3.088   5.130   2.607
 8780SOL     OW27238   0.410   5.707   2.347
 8780SOL    HW127239   0.329   5.755   2.381
 8780SOL    HW227240   0.433   5.632   2.410
 8781SOL     OW27241   4.386   0.008   2.567
 8781SOL    HW127242   4.330   0.078   2.523
 8781SOL    HW227243   4.368   6.945   2.525
 8782SOL     OW27244   5.366   0.794   1.827
 8782SOL    HW127245   5.377   0.880   1.876
 8782SOL    HW227246   5.295   0.803   1.757
 8783SOL     OW27247   5.288   3.382   4.659
 8783SOL    HW127248   5.248   3.471   4.682
 8783SOL    HW227249   5.250   3.349   4.573
 8784SOL     OW27250   6.085   6.434   0.630
 8784SOL    HW127251   6.066   6.398   0.539
 8784SOL    HW227252   6.167   6.491   0.627
 8785SOL     OW27253   0.310   5.526   6.104
 8785SOL    HW127254   0.225   5.574   6.086
 8785SOL    HW227255   0.380   5.556   6.039
 8786SOL     OW27256   4.421   2.386   2.116
 8786SOL    HW127257   4.455   2.369   2.024
 8786SOL    HW227258   4.321   2.378   2.117
 8787SOL     OW27259   3.395   0.606   1.615
 8787SOL    HW127260   3.404   0.650   1.704
 8787SOL    HW227261   3.428   0.667   1.544
 8788SOL     OW27262   0.229   0.113   5.422
 8788SOL    HW127263   0.299   0.183   5.407
 8788SOL    HW227264   0.269   0.023   5.405
 8789SOL     OW27265   0.171   3.895   5.521
 8789SOL    HW127266   0.148   3.953   5.599
 8789SOL    HW227267   0.192   3.951   5.442
 8790SOL     OW27268   6.045   2.382   0.337
 8790SOL    HW127269   5.972   2.389   0.269
 8790SOL    HW227270   6.040   2.292   0.382
 8791SOL     OW27271   4.642   6.300   5.157
 8791SOL    HW127272   4.694   6.332   5.077
 8791SOL    HW227273   4.669   6.354   5.237
 8792SOL     OW27274   4.272   4.928   1.558
 8792SOL    HW127275   4.307   4.923   1.651
 8792SOL    HW227276   4.249   5.023   1.536
 8793SOL     OW27277   1.071   5.486   4.015
 8793SOL    HW127278   1.115   5.466   3.927
 8793SOL    HW227279   1.102   5.420   4.083
 8794SOL     OW27280   6.136   1.067   2.882
 8794SOL    HW127281   6.233   1.068   2.907
 8794SOL    HW227282   6.090   1.142   2.929
 8795SOL     OW27283   1.183   5.099   5.241
 8795SOL    HW127284   1.279   5.077   5.255
 8795SOL    HW227285   1.156   5.072   5.148
 8796SOL     OW27286   6.240   3.526   3.380
 8796SOL    HW127287   6.160   3.560   3.330
 8796SOL    HW227288   6.313   3.594   3.377
 8797SOL     OW27289   6.933   6.739   3.356
 8797SOL    HW127290   6.876   6.743   3.274
 8797SOL    HW227291   6.875   6.739   3.437
 8798SOL     OW27292   4.509   6.831   4.982
 8798SOL    HW127293   4.504   6.875   5.071
 8798SOL    HW227294   4.559   6.890   4.918
 8799SOL     OW27295   2.039   5.111   2.106
 8799SOL    HW127296   1.965   5.088   2.043
 8799SOL    HW227297   2.053   5.210   2.106
 8800SOL     OW27298   6.696   6.277   5.643
 8800SOL    HW127299   6.708   6.198   5.703
 8800SOL    HW227300   6.785   6.302   5.604
 8801SOL     OW27301   6.166   1.974   5.218
 8801SOL    HW127302   6.239   1.945   5.155
 8801SOL    HW227303   6.127   1.894   5.262
 8802SOL     OW27304   1.410   5.758   6.025
 8802SOL    HW127305   1.340   5.725   6.088
 8802SOL    HW227306   1.374   5.834   5.971
 8803SOL     OW27307   6.279   0.785   6.879
 8803SOL    HW127308   6.203   0.840   6.912
 8803SOL    HW227309   6.267   0.765   6.782
 8804SOL     OW27310   1.784   6.048   0.878
 8804SOL    HW127311   1.780   6.135   0.927
 8804SOL    HW227312   1.715   5.985   0.915
 8805SOL     OW27313   4.637   5.700   3.314
 8805SOL    HW127314   4.600   5.644   3.240
 8805SOL    HW227315   4.564   5.721   3.380
 8806SOL     OW27316   2.639   6.271   0.480
 8806SOL    HW127317   2.577   6.226   0.545
 8806SOL    HW227318   2.622   6.236   0.388
 8807SOL     OW27319   4.577   2.050   0.668
 8807SOL    HW127320   4.602   2.034   0.763
 8807SOL    HW227321   4.627   1.985   0.609
 8808SOL     OW27322   1.912   2.725   0.690
 8808SOL    HW127323   1.969   2.661   0.742
 8808SOL    HW227324   1.818   2.693   0.691
 8809SOL     OW27325   2.031   3.841   3.356
 8809SOL    HW127326   1.942   3.872   3.390
 8809SOL    HW227327   2.100   3.911   3.375
 8810SOL     OW27328   6.377   1.482   5.667
 8810SOL    HW127329   6.409   1.523   5.753
 8810SOL    HW227330   6.389   1.383   5.671
 8811SOL     OW27331   4.620   6.966   2.803
 8811SOL    HW127332   4.602   0.031   2.763
 8811SOL    HW227333   4.706   6.969   2.852
 8812SOL     OW27334   3.487   0.751   6.335
 8812SOL    HW127335   3.405   0.803   6.307
 8812SOL    HW227336   3.554   0.753   6.261
 8813SOL     OW27337   2.173   4.053   2.840
 8813SOL    HW127338   2.186   3.973   2.781
 8813SOL    HW227339   2.234   4.126   2.811
 8814SOL     OW27340   5.674   6.821   0.192
 8814SOL    HW127341   5.637   6.837   0.283
 8814SOL    HW227342   5.766   6.858   0.186
 8815SOL     OW27343   5.575   0.795   0.777
 8815SOL    HW127344   5.569   0.740   0.861
 8815SOL    HW227345   5.549   0.738   0.699
 8816SOL     OW27346   7.016   6.291   6.011
 8816SOL    HW127347   0.018   6.323   5.920
 8816SOL    HW227348   0.034   6.203   6.029
 8817SOL     OW27349   0.860   3.272   4.616
 8817SOL    HW127350   0.926   3.321   4.560
 8817SOL    HW227351   0.791   3.336   4.651
 8818SOL     OW27352   1.934   6.616   3.929
 8818SOL    HW127353   1.952   6.711   3.953
 8818SOL    HW227354   1.973   6.596   3.839
 8819SOL     OW27355   5.665   4.498   5.892
 8819SOL    HW127356   5.619   4.494   5.804
 8819SOL    HW227357   5.709   4.410   5.910
 8820SOL     OW27358   3.940   1.019   5.051
 8820SOL    HW127359   3.921   0.959   5.129
 8820SOL    HW227360   4.025   1.069   5.066
 8821SOL     OW27361   1.083   5.075   0.948
 8821SOL    HW127362   1.100   5.168   0.980
 8821SOL    HW227363   1.040   5.078   0.858
 8822SOL     OW27364   6.737   7.008   4.038
 8822SOL    HW127365   6.652   0.020   4.075
 8822SOL    HW227366   6.814   0.011   4.094
 8823SOL     OW27367   2.766   1.309   2.818
 8823SOL    HW127368   2.841   1.373   2.804
 8823SOL    HW227369   2.783   1.225   2.766
 8824SOL     OW27370   1.628   0.508   0.861
 8824SOL    HW127371   1.707   0.541   0.912
 8824SOL    HW227372   1.547   0.559   0.889
 8825SOL     OW27373   0.326   0.312   1.073
 8825SOL    HW127374   0.362   0.271   0.989
 8825SOL    HW227375   0.372   0.272   1.152
 8826SOL     OW27376   0.831   3.766   0.756
 8826SOL    HW127377   0.900   3.722   0.814
 8826SOL    HW227378   0.765   3.813   0.814
 8827SOL     OW27379   4.075   0.327   2.666
 8827SOL    HW127380   4.073   0.286   2.757
 8827SOL    HW227381   4.095   0.257   2.598
 8828SOL     OW27382   4.678   3.995   6.148
 8828SOL    HW127383   4.654   3.899   6.164
 8828SOL    HW227384   4.776   4.009   6.162
 8829SOL     OW27385   0.254   1.361   2.339
 8829SOL    HW127386   0.226   1.347   2.245
 8829SOL    HW227387   0.354   1.349   2.346
 8830SOL     OW27388   2.576   1.518   2.814
 8830SOL    HW127389   2.597   1.420   2.820
 8830SOL    HW227390   2.656   1.567   2.779
 8831SOL     OW27391   0.202   2.090   2.683
 8831SOL    HW127392   0.265   2.053   2.614
 8831SOL    HW227393   0.181   2.185   2.662
 8832SOL     OW27394   6.428   6.946   3.886
 8832SOL    HW127395   6.365   6.869   3.891
 8832SOL    HW227396   6.510   6.919   3.837
 8833SOL     OW27397   4.129   2.079   1.018
 8833SOL    HW127398   4.164   2.160   1.065
 8833SOL    HW227399   4.062   2.033   1.076
 8834SOL     OW27400   5.866   3.806   5.377
 8834SOL    HW127401   5.865   3.737   5.305
 8834SOL    HW227402   5.920   3.885   5.347
 8835SOL     OW27403   5.505   0.623   5.845
 8835SOL    HW127404   5.479   0.719   5.857
 8835SOL    HW227405   5.604   0.617   5.831
 8836SOL     OW27406   5.274   2.508   0.083
 8836SOL    HW127407   5.328   2.565   0.020
 8836SOL    HW227408   5.335   2.446   0.132
 8837SOL     OW27409   0.123   6.511   2.062
 8837SOL    HW127410   0.219   6.516   2.091
 8837SOL    HW227411   0.066   6.566   2.123
 8838SOL     OW27412   0.500   4.059   2.882
 8838SOL    HW127413   0.433   3.986   2.869
 8838SOL    HW227414   0.575   4.025   2.939
 8839SOL     OW27415   5.330   5.714   2.599
 8839SOL    HW127416   5.360   5.783   2.533
 8839SOL    HW227417   5.404   5.695   2.663
 8840SOL     OW27418   0.227   0.497   1.411
 8840SOL    HW127419   0.307   0.465   1.461
 8840SOL    HW227420   0.254   0.527   1.320
 8841SOL     OW27421   4.118   0.784   1.961
 8841SOL    HW127422   4.148   0.725   1.886
 8841SOL    HW227423   4.051   0.849   1.926
 8842SOL     OW27424   3.739   3.815   4.024
 8842SOL    HW127425   3.792   3.896   3.996
 8842SOL    HW227426   3.783   3.772   4.103
 8843SOL     OW27427   1.980   3.434   5.760
 8843SOL    HW127428   2.070   3.405   5.729
 8843SOL    HW227429   1.955   3.520   5.715
 8844SOL     OW27430   6.150   1.737   5.036
 8844SOL    HW127431   6.054   1.761   5.042
 8844SOL    HW227432   6.172   1.668   5.105
 8845SOL     OW27433   2.127   5.563   1.261
 8845SOL    HW127434   2.150   5.619   1.181
 8845SOL    HW227435   2.123   5.467   1.235
 8846SOL     OW27436   5.059   4.340   4.012
 8846SOL    HW127437   5.040   4.346   3.914
 8846SOL    HW227438   4.999   4.272   4.054
 8847SOL     OW27439   1.895   1.945   2.755
 8847SOL    HW127440   1.915   1.847   2.750
 8847SOL    HW227441   1.946   1.985   2.831
 8848SOL     OW27442   3.230   2.017   1.401
 8848SOL    HW127443   3.162   2.081   1.437
 8848SOL    HW227444   3.183   1.938   1.360
 8849SOL     OW27445   2.938   5.720   4.297
 8849SOL    HW127446   2.983   5.761   4.218
 8849SOL    HW227447   2.846   5.691   4.272
 8850SOL     OW27448   2.755   1.927   0.584
 8850SOL    HW127449   2.748   1.889   0.492
 8850SOL    HW227450   2.852   1.940   0.608
 8851SOL     OW27451   1.076   4.398   3.050
 8851SOL    HW127452   1.001   4.364   2.993
 8851SOL    HW227453   1.039   4.444   3.130
 8852SOL     OW27454   5.325   2.798   6.034
 8852SOL    HW127455   5.275   2.802   6.121
 8852SOL    HW227456   5.275   2.850   5.965
 8853SOL     OW27457   3.659   1.639   5.370
 8853SOL    HW127458   3.757   1.628   5.387
 8853SOL    HW227459   3.639   1.736   5.353
 8854SOL     OW27460   1.691   0.501   5.758
 8854SOL    HW127461   1.730   0.459   5.676
 8854SOL    HW227462   1.621   0.441   5.796
 8855SOL     OW27463   6.036   5.616   6.528
 8855SOL    HW127464   5.971   5.688   6.502
 8855SOL    HW227465   6.129   5.646   6.504
 8856SOL     OW27466   6.731   0.549   4.480
 8856SOL    HW127467   6.818   0.590   4.509
 8856SOL    HW227468   6.678   0.523   4.561
 8857SOL     OW27469   6.773   1.838   3.354
 8857SOL    HW127470   6.750   1.851   3.258
 8857SOL    HW227471   6.729   1.756   3.389
 8858SOL     OW27472   0.853   4.180   5.664
 8858SOL    HW127473   0.817   4.153   5.575
 8858SOL    HW227474   0.924   4.116   5.692
 8859SOL     OW27475   0.807   6.639   5.162
 8859SOL    HW127476   0.708   6.628   5.146
 8859SOL    HW227477   0.827   6.618   5.258
 8860SOL     OW27478   1.193   2.684   2.478
 8860SOL    HW127479   1.113   2.643   2.434
 8860SOL    HW227480   1.231   2.756   2.419
 8861SOL     OW27481   3.243   2.991   0.178
 8861SOL    HW127482   3.196   2.932   0.112
 8861SOL    HW227483   3.279   3.071   0.130
 8862SOL     OW27484   5.884   1.668   4.810
 8862SOL    HW127485   5.899   1.694   4.906
 8862SOL    HW227486   5.966   1.623   4.776
 8863SOL     OW27487   1.851   5.538   4.777
 8863SOL    HW127488   1.921   5.529   4.706
 8863SOL    HW227489   1.892   5.574   4.861
 8864SOL     OW27490   2.224   3.458   6.670
 8864SOL    HW127491   2.232   3.398   6.590
 8864SOL    HW227492   2.270   3.545   6.652
 8865SOL     OW27493   2.906   1.472   4.536
 8865SOL    HW127494   2.962   1.554   4.551
 8865SOL    HW227495   2.893   1.459   4.438
 8866SOL     OW27496   3.958   6.238   3.414
 8866SOL    HW127497   4.026   6.237   3.487
 8866SOL    HW227498   3.895   6.314   3.428
 8867SOL     OW27499   6.141   2.266   2.569
 8867SOL    HW127500   6.204   2.208   2.517
 8867SOL    HW227501   6.058   2.214   2.591
 8868SOL     OW27502   5.197   3.657   0.451
 8868SOL    HW127503   5.198   3.729   0.382
 8868SOL    HW227504   5.274   3.595   0.435
 8869SOL     OW27505   4.882   4.193   3.096
 8869SOL    HW127506   4.850   4.207   3.190
 8869SOL    HW227507   4.887   4.281   3.049
 8870SOL     OW27508   3.926   0.860   1.179
 8870SOL    HW127509   3.836   0.821   1.163
 8870SOL    HW227510   3.940   0.939   1.120
 8871SOL     OW27511   1.868   1.316   4.029
 8871SOL    HW127512   1.814   1.377   3.972
 8871SOL    HW227513   1.839   1.221   4.014
 8872SOL     OW27514   1.908   4.493   4.040
 8872SOL    HW127515   2.006   4.475   4.034
 8872SOL    HW227516   1.874   4.461   4.129
 8873SOL     OW27517   0.334   5.934   3.135
 8873SOL    HW127518   0.379   5.912   3.048
 8873SOL    HW227519   0.237   5.912   3.129
 8874SOL     OW27520   1.815   6.878   1.006
 8874SOL    HW127521   1.741   6.916   1.061
 8874SOL    HW227522   1.829   6.935   0.925
 8875SOL     OW27523   1.186   2.523   4.896
 8875SOL    HW127524   1.280   2.533   4.865
 8875SOL    HW227525   1.153   2.611   4.931
 8876SOL     OW27526   7.026   0.738   4.707
 8876SOL    HW127527   7.001   0.648   4.745
 8876SOL    HW227528   0.075   0.726   4.642
 8877SOL     OW27529   2.990   0.789   3.958
 8877SOL    HW127530   2.900   0.784   3.914
 8877SOL    HW227531   3.039   0.703   3.943
 8878SOL     OW27532   6.955   4.967   0.734
 8878SOL    HW127533   6.862   4.937   0.756
 8878SOL    HW227534   7.006   4.983   0.818
 8879SOL     OW27535   4.912   5.363   0.404
 8879SOL    HW127536   4.957   5.275   0.414
 8879SOL    HW227537   4.940   5.407   0.319
 8880SOL     OW27538   0.124   5.429   4.617
 8880SOL    HW127539   0.139   5.526   4.599
 8880SOL    HW227540   0.166   5.375   4.544
 8881SOL     OW27541   6.520   0.960   3.129
 8881SOL    HW127542   6.465   0.958   3.045
 8881SOL    HW227543   6.528   0.867   3.165
 8882SOL     OW27544   5.355   0.839   6.777
 8882SOL    HW127545   5.442   0.886   6.761
 8882SOL    HW227546   5.335   0.839   6.875
 8883SOL     OW27547   0.518   1.213   6.032
 8883SOL    HW127548   0.521   1.168   6.121
 8883SOL    HW227549   0.438   1.272   6.026
 8884SOL     OW27550   5.826   6.497   6.397
 8884SOL    HW127551   5.811   6.577   6.340
 8884SOL    HW227552   5.908   6.509   6.452
 8885SOL     OW27553   6.561   3.710   1.279
 8885SOL    HW127554   6.544   3.712   1.378
 8885SOL    HW227555   6.632   3.776   1.256
 8886SOL     OW27556   2.679   6.285   5.499
 8886SOL    HW127557   2.655   6.203   5.551
 8886SOL    HW227558   2.650   6.367   5.549
 8887SOL     OW27559   2.831   1.145   0.795
 8887SOL    HW127560   2.762   1.074   0.808
 8887SOL    HW227561   2.893   1.117   0.721
 8888SOL     OW27562   0.881   2.275   1.199
 8888SOL    HW127563   0.934   2.206   1.249
 8888SOL    HW227564   0.849   2.237   1.113
 8889SOL     OW27565   5.974   6.842   5.039
 8889SOL    HW127566   5.927   6.761   5.075
 8889SOL    HW227567   5.913   6.920   5.041
 8890SOL     OW27568   6.436   6.074   4.414
 8890SOL    HW127569   6.429   6.013   4.335
 8890SOL    HW227570   6.523   6.056   4.461
 8891SOL     OW27571   6.072   3.102   6.889
 8891SOL    HW127572   6.125   3.022   6.917
 8891SOL    HW227573   5.980   3.072   6.862
 8892SOL     OW27574   2.818   6.739   2.880
 8892SOL    HW127575   2.772   6.811   2.932
 8892SOL    HW227576   2.811   6.758   2.783
 8893SOL     OW27577   7.009   1.034   1.835
 8893SOL    HW127578   0.034   1.119   1.848
 8893SOL    HW227579   0.047   0.957   1.840
 8894SOL     OW27580   4.359   3.279   6.062
 8894SOL    HW127581   4.274   3.289   6.011
 8894SOL    HW227582   4.348   3.315   6.154
 8895SOL     OW27583   0.481   6.992   1.939
 8895SOL    HW127584   0.503   6.988   1.842
 8895SOL    HW227585   0.403   6.933   1.959
 8896SOL     OW27586   1.189   3.460   5.525
 8896SOL    HW127587   1.217   3.539   5.580
 8896SOL    HW227588   1.222   3.472   5.431
 8897SOL     OW27589   1.627   1.195   2.162
 8897SOL    HW127590   1.655   1.270   2.102
 8897SOL    HW227591   1.588   1.121   2.106
 8898SOL     OW27592   6.363   3.402   4.478
 8898SOL    HW127593   6.393   3.318   4.524
 8898SOL    HW227594   6.444   3.455   4.451
 8899SOL     OW27595   2.071   4.323   6.758
 8899SOL    HW127596   2.029   4.334   6.848
 8899SOL    HW227597   2.165   4.358   6.761
 8900SOL     OW27598   5.172   3.060   3.340
 8900SOL    HW127599   5.182   3.094   3.433
 8900SOL    HW227600   5.261   3.028   3.306
 8901SOL     OW27601   1.948   0.713   2.776
 8901SOL    HW127602   1.951   0.623   2.819
 8901SOL    HW227603   2.038   0.756   2.780
 8902SOL     OW27604   3.038   5.591   6.445
 8902SOL    HW127605   3.091   5.548   6.519
 8902SOL    HW227606   2.983   5.665   6.483
 8903SOL     OW27607   2.241   1.332   4.043
 8903SOL    HW127608   2.226   1.255   3.981
 8903SOL    HW227609   2.223   1.304   4.137
 8904SOL     OW27610   0.059   5.436   3.626
 8904SOL    HW127611   0.115   5.507   3.583
 8904SOL    HW227612   0.065   5.445   3.725
 8905SOL     OW27613   2.149   3.392   5.072
 8905SOL    HW127614   2.123   3.466   5.135
 8905SOL    HW227615   2.120   3.304   5.110
 8906SOL     OW27616   6.914   6.699   6.694
 8906SOL    HW127617   6.884   6.641   6.618
 8906SOL    HW227618   7.007   6.730   6.678
 8907SOL     OW27619   3.255   2.802   5.230
 8907SOL    HW127620   3.220   2.714   5.199
 8907SOL    HW227621   3.230   2.816   5.326
 8908SOL     OW27622   1.543   2.514   0.560
 8908SOL    HW127623   1.546   2.541   0.656
 8908SOL    HW227624   1.511   2.590   0.504
 8909SOL     OW27625   2.802   0.194   5.495
 8909SOL    HW127626   2.800   0.115   5.434
 8909SOL    HW227627   2.811   0.163   5.589
 8910SOL     OW27628   2.834   3.435   6.029
 8910SOL    HW127629   2.800   3.453   6.121
 8910SOL    HW227630   2.801   3.346   5.998
 8911SOL     OW27631   3.160   2.134   4.335
 8911SOL    HW127632   3.202   2.141   4.244
 8911SOL    HW227633   3.230   2.107   4.401
 8912SOL     OW27634   4.073   1.547   6.403
 8912SOL    HW127635   4.033   1.455   6.405
 8912SOL    HW227636   4.000   1.615   6.391
 8913SOL     OW27637   5.402   4.414   1.488
 8913SOL    HW127638   5.348   4.386   1.409
 8913SOL    HW227639   5.342   4.451   1.559
 8914SOL     OW27640   4.721   1.388   5.113
 8914SOL    HW127641   4.623   1.373   5.118
 8914SOL    HW227642   4.759   1.400   5.205
 8915SOL     OW27643   1.807   2.703   3.814
 8915SOL    HW127644   1.853   2.763   3.748
 8915SOL    HW227645   1.718   2.741   3.838
 8916SOL     OW27646   0.547   4.035   2.075
 8916SOL    HW127647   0.536   4.100   2.150
 8916SOL    HW227648   0.484   3.958   2.089
 8917SOL     OW27649   6.147   5.228   6.657
 8917SOL    HW127650   6.191   5.161   6.717
 8917SOL    HW227651   6.209   5.304   6.641
 8918SOL     OW27652   6.179   6.228   0.290
 8918SOL    HW127653   6.091   6.261   0.323
 8918SOL    HW227654   6.252   6.262   0.349
 8919SOL     OW27655   3.456   3.758   0.750
 8919SOL    HW127656   3.440   3.819   0.672
 8919SOL    HW227657   3.463   3.664   0.718
 8920SOL     OW27658   6.394   5.937   6.289
 8920SOL    HW127659   6.479   5.912   6.243
 8920SOL    HW227660   6.384   6.037   6.290
 8921SOL     OW27661   1.511   1.308   3.089
 8921SOL    HW127662   1.463   1.285   3.174
 8921SOL    HW227663   1.483   1.245   3.017
 8922SOL     OW27664   2.563   4.981   1.251
 8922SOL    HW127665   2.577   4.934   1.164
 8922SOL    HW227666   2.630   4.949   1.318
 8923SOL     OW27667   1.663   3.680   6.842
 8923SOL    HW127668   1.619   3.623   6.910
 8923SOL    HW227669   1.749   3.638   6.813
 8924SOL     OW27670   2.637   5.352   5.875
 8924SOL    HW127671   2.659   5.306   5.961
 8924SOL    HW227672   2.720   5.391   5.836
 8925SOL     OW27673   0.745   0.274   2.266
 8925SOL    HW127674   0.735   0.363   2.310
 8925SOL    HW227675   0.809   0.281   2.190
 8926SOL     OW27676   5.785   2.519   1.753
 8926SOL    HW127677   5.709   2.471   1.710
 8926SOL    HW227678   5.754   2.560   1.839
 8927SOL     OW27679   2.591   2.449   5.044
 8927SOL    HW127680   2.595   2.533   5.097
 8927SOL    HW227681   2.606   2.370   5.104
 8928SOL     OW27682   0.027   0.981   5.277
 8928SOL    HW127683   6.957   0.978   5.249
 8928SOL    HW227684   0.075   0.902   5.238
 8929SOL     OW27685   0.167   3.503   3.690
 8929SOL    HW127686   0.143   3.537   3.781
 8929SOL    HW227687   0.257   3.539   3.664
 8930SOL     OW27688   1.429   5.005   5.278
 8930SOL    HW127689   1.480   5.091   5.272
 8930SOL    HW227690   1.469   4.948   5.350
 8931SOL     OW27691   4.707   2.370   1.190
 8931SOL    HW127692   4.671   2.410   1.105
 8931SOL    HW227693   4.778   2.430   1.227
 8932SOL     OW27694   5.473   6.679   6.249
 8932SOL    HW127695   5.386   6.727   6.254
 8932SOL    HW227696   5.464   6.599   6.189
 8933SOL     OW27697   1.020   0.833   5.376
 8933SOL    HW127698   0.927   0.816   5.341
 8933SOL    HW227699   1.080   0.854   5.299
 8934SOL     OW27700   3.366   5.227   2.647
 8934SOL    HW127701   3.440   5.162   2.632
 8934SOL    HW227702   3.372   5.264   2.740
 8935SOL     OW27703   4.959   3.321   2.317
 8935SOL    HW127704   4.953   3.275   2.228
 8935SOL    HW227705   4.883   3.385   2.326
 8936SOL     OW27706   0.654   3.862   0.957
 8936SOL    HW127707   0.671   3.939   1.019
 8936SOL    HW227708   0.645   3.778   1.010
 8937SOL     OW27709   0.464   0.280   4.287
 8937SOL    HW127710   0.389   0.270   4.221
 8937SOL    HW227711   0.506   0.370   4.277
 8938SOL     OW27712   5.624   0.753   0.307
 8938SOL    HW127713   5.674   0.839   0.294
 8938SOL    HW227714   5.595   0.719   0.217
 8939SOL     OW27715   6.483   3.137   4.636
 8939SOL    HW127716   6.545   3.173   4.706
 8939SOL    HW227717   6.509   3.044   4.613
 8940SOL     OW27718   6.219   2.798   0.571
 8940SOL    HW127719   6.239   2.729   0.640
 8940SOL    HW227720   6.268   2.774   0.486
 8941SOL     OW27721   5.311   1.934   2.191
 8941SOL    HW127722   5.387   1.978   2.143
 8941SOL    HW227723   5.225   1.959   2.147
 8942SOL     OW27724   7.011   5.124   3.898
 8942SOL    HW127725   0.076   5.149   3.865
 8942SOL    HW227726   6.973   5.052   3.841
 8943SOL     OW27727   4.570   3.816   6.991
 8943SOL    HW127728   4.598   3.890   6.930
 8943SOL    HW227729   4.616   3.826   0.053
 8944SOL     OW27730   4.663   5.184   4.378
 8944SOL    HW127731   4.701   5.273   4.351
 8944SOL    HW227732   4.714   5.148   4.455
 8945SOL     OW27733   6.072   3.436   5.465
 8945SOL    HW127734   6.140   3.507   5.483
 8945SOL    HW227735   6.025   3.412   5.550
 8946SOL     OW27736   4.904   0.747   4.058
 8946SOL    HW127737   4.831   0.723   4.122
 8946SOL    HW227738   4.960   0.819   4.098
 8947SOL     OW27739   1.273   4.750   6.475
 8947SOL    HW127740   1.238   4.687   6.545
 8947SOL    HW227741   1.369   4.769   6.492
 8948SOL     OW27742   6.333   6.697   3.950
 8948SOL    HW127743   6.302   6.639   4.025
 8948SOL    HW227744   6.408   6.652   3.902
 8949SOL     OW27745   3.436   6.188   0.256
 8949SOL    HW127746   3.419   6.115   0.323
 8949SOL    HW227747   3.458   6.147   0.168
 8950SOL     OW27748   4.544   3.906   1.348
 8950SOL    HW127749   4.626   3.927   1.401
 8950SOL    HW227750   4.558   3.935   1.253
 8951SOL     OW27751   2.256   1.175   4.280
 8951SOL    HW127752   2.354   1.172   4.264
 8951SOL    HW227753   2.220   1.082   4.285
 8952SOL     OW27754   2.316   4.909   3.544
 8952SOL    HW127755   2.260   4.968   3.486
 8952SOL    HW227756   2.401   4.956   3.567
 8953SOL     OW27757   2.493   5.158   2.119
 8953SOL    HW127758   2.466   5.116   2.032
 8953SOL    HW227759   2.444   5.244   2.132
 8954SOL     OW27760   1.039   5.688   4.443
 8954SOL    HW127761   0.977   5.656   4.372
 8954SOL    HW227762   1.038   5.788   4.446
 8955SOL     OW27763   6.399   3.035   2.636
 8955SOL    HW127764   6.473   3.017   2.570
 8955SOL    HW227765   6.378   2.950   2.685
 8956SOL     OW27766   0.652   6.651   6.652
 8956SOL    HW127767   0.712   6.585   6.697
 8956SOL    HW227768   0.687   6.743   6.665
 8957SOL     OW27769   1.633   5.408   2.115
 8957SOL    HW127770   1.666   5.335   2.175
 8957SOL    HW227771   1.658   5.497   2.153
 8958SOL     OW27772   1.541   3.689   5.574
 8958SOL    HW127773   1.565   3.639   5.491
 8958SOL    HW227774   1.447   3.720   5.568
 8959SOL     OW27775   0.731   3.259   2.283
 8959SOL    HW127776   0.693   3.348   2.261
 8959SOL    HW227777   0.817   3.246   2.233
 8960SOL     OW27778   6.552   3.714   4.263
 8960SOL    HW127779   6.565   3.767   4.180
 8960SOL    HW227780   6.562   3.617   4.242
 8961SOL     OW27781   2.799   6.592   4.242
 8961SOL    HW127782   2.725   6.526   4.255
 8961SOL    HW227783   2.794   6.629   4.149
 8962SOL     OW27784   1.430   5.862   1.273
 8962SOL    HW127785   1.482   5.869   1.359
 8962SOL    HW227786   1.433   5.768   1.240
 8963SOL     OW27787   3.450   6.035   4.190
 8963SOL    HW127788   3.409   5.953   4.229
 8963SOL    HW227789   3.495   6.013   4.104
 8964SOL     OW27790   6.081   3.895   3.278
 8964SOL    HW127791   6.086   3.917   3.375
 8964SOL    HW227792   5.985   3.897   3.248
 8965SOL     OW27793   4.262   5.067   0.363
 8965SOL    HW127794   4.177   5.016   0.347
 8965SOL    HW227795   4.261   5.104   0.456
 8966SOL     OW27796   5.270   5.190   6.079
 8966SOL    HW127797   5.255   5.095   6.052
 8966SOL    HW227798   5.302   5.193   6.174
 8967SOL     OW27799   3.436   0.821   2.602
 8967SOL    HW127800   3.425   0.793   2.698
 8967SOL    HW227801   3.524   0.867   2.591
 8968SOL     OW27802   2.746   4.916   1.679
 8968SOL    HW127803   2.833   4.870   1.663
 8968SOL    HW227804   2.706   4.881   1.764
 8969SOL     OW27805   0.095   0.280   3.221
 8969SOL    HW127806   0.055   0.297   3.311
 8969SOL    HW227807   0.148   0.360   3.192
 8970SOL     OW27808   1.335   1.363   5.871
 8970SOL    HW127809   1.392   1.415   5.935
 8970SOL    HW227810   1.252   1.414   5.851
 8971SOL     OW27811   4.255   6.437   0.958
 8971SOL    HW127812   4.190   6.438   0.882
 8971SOL    HW227813   4.333   6.495   0.936
 8972SOL     OW27814   5.691   5.284   0.230
 8972SOL    HW127815   5.677   5.374   0.273
 8972SOL    HW227816   5.663   5.213   0.294
 8973SOL     OW27817   1.168   2.182   1.907
 8973SOL    HW127818   1.127   2.146   1.991
 8973SOL    HW227819   1.265   2.202   1.923
 8974SOL     OW27820   2.275   4.224   4.658
 8974SOL    HW127821   2.348   4.284   4.626
 8974SOL    HW227822   2.271   4.226   4.757
 8975SOL     OW27823   0.727   0.382   6.723
 8975SOL    HW127824   0.655   0.435   6.767
 8975SOL    HW227825   0.816   0.416   6.753
 8976SOL     OW27826   6.134   6.779   1.490
 8976SOL    HW127827   6.091   6.703   1.539
 8976SOL    HW227828   6.228   6.754   1.466
 8977SOL     OW27829   0.355   5.062   6.065
 8977SOL    HW127830   0.357   5.022   6.157
 8977SOL    HW227831   0.319   5.155   6.071
 8978SOL     OW27832   5.999   6.040   5.383
 8978SOL    HW127833   6.091   6.043   5.421
 8978SOL    HW227834   5.988   5.958   5.328
 8979SOL     OW27835   0.772   5.553   6.364
 8979SOL    HW127836   0.803   5.635   6.412
 8979SOL    HW227837   0.674   5.541   6.378
 8980SOL     OW27838   4.190   1.848   5.319
 8980SOL    HW127839   4.114   1.856   5.255
 8980SOL    HW227840   4.277   1.854   5.269
 8981SOL     OW27841   4.261   1.931   6.146
 8981SOL    HW127842   4.234   1.842   6.183
 8981SOL    HW227843   4.179   1.985   6.127
 8982SOL     OW27844   6.300   0.878   2.021
 8982SOL    HW127845   6.287   0.970   2.057
 8982SOL    HW227846   6.393   0.868   1.987
 8983SOL     OW27847   1.023   4.788   2.269
 8983SOL    HW127848   1.026   4.762   2.172
 8983SOL    HW227849   1.099   4.849   2.289
 8984SOL     OW27850   6.261   0.658   4.495
 8984SOL    HW127851   6.280   0.560   4.490
 8984SOL    HW227852   6.281   0.691   4.587
 8985SOL     OW27853   4.616   1.655   0.655
 8985SOL    HW127854   4.593   1.696   0.566
 8985SOL    HW227855   4.636   1.728   0.720
 8986SOL     OW27856   6.240   4.336   1.938
 8986SOL    HW127857   6.331   4.364   1.908
 8986SOL    HW227858   6.217   4.248   1.897
 8987SOL     OW27859   2.653   0.150   1.302
 8987SOL    HW127860   2.748   0.179   1.319
 8987SOL    HW227861   2.616   0.202   1.225
 8988SOL     OW27862   2.463   5.390   0.938
 8988SOL    HW127863   2.413   5.437   0.865
 8988SOL    HW227864   2.561   5.395   0.919
 8989SOL     OW27865   5.182   2.624   2.614
 8989SOL    HW127866   5.200   2.718   2.643
 8989SOL    HW227867   5.161   2.568   2.695
 8990SOL     OW27868   3.658   6.380   0.968
 8990SOL    HW127869   3.561   6.393   0.988
 8990SOL    HW227870   3.677   6.283   0.956
 8991SOL     OW27871   2.184   2.608   0.791
 8991SOL    HW127872   2.235   2.646   0.868
 8991SOL    HW227873   2.240   2.540   0.745
 8992SOL     OW27874   0.751   2.957   0.045
 8992SOL    HW127875   0.843   2.981   0.013
 8992SOL    HW227876   0.684   2.990   7.004
 8993SOL     OW27877   5.249   2.197   3.679
 8993SOL    HW127878   5.268   2.146   3.762
 8993SOL    HW227879   5.314   2.170   3.608
 8994SOL     OW27880   1.533   5.533   3.944
 8994SOL    HW127881   1.512   5.566   3.852
 8994SOL    HW227882   1.459   5.558   4.007
 8995SOL     OW27883   1.412   3.280   5.318
 8995SOL    HW127884   1.330   3.223   5.307
 8995SOL    HW227885   1.442   3.278   5.413
 8996SOL     OW27886   0.598   3.683   1.634
 8996SOL    HW127887   0.588   3.757   1.701
 8996SOL    HW227888   0.621   3.723   1.545
 8997SOL     OW27889   4.317   1.105   6.292
 8997SOL    HW127890   4.399   1.096   6.235
 8997SOL    HW227891   4.290   1.201   6.296
 8998SOL     OW27892   1.226   2.952   5.316
 8998SOL    HW127893   1.174   3.030   5.282
 8998SOL    HW227894   1.209   2.940   5.413
 8999SOL     OW27895   4.910   1.786   6.030
 8999SOL    HW127896   4.818   1.788   6.070
 8999SOL    HW227897   4.969   1.850   6.079
 9000SOL     OW27898   3.127   3.325   0.071
 9000SOL    HW127899   3.199   3.353   0.008
 9000SOL    HW227900   3.163   3.322   0.165
 9001SOL     OW27901   1.965   4.931   3.465
 9001SOL    HW127902   2.042   4.992   3.446
 9001SOL    HW227903   1.928   4.896   3.379
 9002SOL     OW27904   6.186   4.916   5.633
 9002SOL    HW127905   6.170   4.998   5.579
 9002SOL    HW227906   6.099   4.879   5.665
 9003SOL     OW27907   5.966   2.582   0.503
 9003SOL    HW127908   6.008   2.531   0.428
 9003SOL    HW227909   6.033   2.645   0.542
 9004SOL     OW27910   5.027   6.700   1.096
 9004SOL    HW127911   5.033   6.793   1.132
 9004SOL    HW227912   4.994   6.638   1.168
 9005SOL     OW27913   4.690   2.183   3.479
 9005SOL    HW127914   4.738   2.239   3.547
 9005SOL    HW227915   4.675   2.091   3.516
 9006SOL     OW27916   1.407   4.810   0.994
 9006SOL    HW127917   1.477   4.757   1.042
 9006SOL    HW227918   1.354   4.749   0.936
 9007SOL     OW27919   3.045   5.561   3.933
 9007SOL    HW127920   3.023   5.466   3.954
 9007SOL    HW227921   2.967   5.605   3.888
 9008SOL     OW27922   0.226   4.110   2.173
 9008SOL    HW127923   0.196   4.201   2.202
 9008SOL    HW227924   0.292   4.075   2.240
 9009SOL     OW27925   2.309   6.493   0.668
 9009SOL    HW127926   2.267   6.573   0.623
 9009SOL    HW227927   2.249   6.414   0.658
 9010SOL     OW27928   0.638   6.344   4.772
 9010SOL    HW127929   0.695   6.265   4.793
 9010SOL    HW227930   0.671   6.386   4.687
 9011SOL     OW27931   3.931   1.952   1.167
 9011SOL    HW127932   3.940   1.871   1.109
 9011SOL    HW227933   3.834   1.965   1.190
 9012SOL     OW27934   0.894   4.807   1.345
 9012SOL    HW127935   0.930   4.726   1.392
 9012SOL    HW227936   0.966   4.875   1.337
 9013SOL     OW27937   6.024   6.277   4.344
 9013SOL    HW127938   6.043   6.186   4.380
 9013SOL    HW227939   6.097   6.339   4.372
 9014SOL     OW27940   1.166   0.755   0.567
 9014SOL    HW127941   1.130   0.664   0.591
 9014SOL    HW227942   1.096   0.805   0.516
 9015SOL     OW27943   7.019   1.246   5.890
 9015SOL    HW127944   0.027   1.182   5.960
 9015SOL    HW227945   6.984   1.194   5.812
 9016SOL     OW27946   6.562   6.055   5.939
 9016SOL    HW127947   6.512   6.137   5.966
 9016SOL    HW227948   6.649   6.082   5.897
 9017SOL     OW27949   5.777   2.145   4.114
 9017SOL    HW127950   5.843   2.217   4.095
 9017SOL    HW227951   5.803   2.062   4.065
 9018SOL     OW27952   3.731   1.175   4.912
 9018SOL    HW127953   3.814   1.144   4.959
 9018SOL    HW227954   3.753   1.254   4.854
 9019SOL     OW27955   3.123   6.254   0.362
 9019SOL    HW127956   3.070   6.302   0.431
 9019SOL    HW227957   3.178   6.183   0.406
 9020SOL     OW27958   1.947   4.637   3.068
 9020SOL    HW127959   1.886   4.701   3.022
 9020SOL    HW227960   2.030   4.685   3.096
 9021SOL     OW27961   6.909   6.129   4.332
 9021SOL    HW127962   7.000   6.129   4.290
 9021SOL    HW227963   6.840   6.107   4.264
 9022SOL     OW27964   2.813   0.513   0.177
 9022SOL    HW127965   2.717   0.525   0.154
 9022SOL    HW227966   2.844   0.590   0.232
 9023SOL     OW27967   3.574   3.516   3.639
 9023SOL    HW127968   3.624   3.560   3.564
 9023SOL    HW227969   3.638   3.472   3.701
 9024SOL     OW27970   1.606   6.255   5.993
 9024SOL    HW127971   1.604   6.194   5.914
 9024SOL    HW227972   1.554   6.214   6.068
 9025SOL     OW27973   6.260   5.085   1.780
 9025SOL    HW127974   6.227   4.997   1.814
 9025SOL    HW227975   6.332   5.070   1.712
 9026SOL     OW27976   3.741   2.896   4.481
 9026SOL    HW127977   3.655   2.873   4.528
 9026SOL    HW227978   3.810   2.920   4.549
 9027SOL     OW27979   2.212   1.858   3.049
 9027SOL    HW127980   2.140   1.926   3.062
 9027SOL    HW227981   2.273   1.889   2.975
 9028SOL     OW27982   2.473   4.384   5.884
 9028SOL    HW127983   2.550   4.425   5.934
 9028SOL    HW227984   2.487   4.286   5.876
 9029SOL     OW27985   4.555   5.390   3.938
 9029SOL    HW127986   4.466   5.347   3.920
 9029SOL    HW227987   4.620   5.320   3.966
 9030SOL     OW27988   2.135   1.063   2.657
 9030SOL    HW127989   2.093   1.085   2.745
 9030SOL    HW227990   2.231   1.041   2.670
 9031SOL     OW27991   2.562   6.133   5.934
 9031SOL    HW127992   2.606   6.215   5.970
 9031SOL    HW227993   2.622   6.054   5.947
 9032SOL     OW27994   2.639   2.254   1.763
 9032SOL    HW127995   2.602   2.344   1.739
 9032SOL    HW227996   2.738   2.255   1.750
 9033SOL     OW27997   1.856   3.409   4.271
 9033SOL    HW127998   1.904   3.416   4.184
 9033SOL    HW227999   1.901   3.466   4.339
 9034SOL     OW28000   2.500   6.289   4.987
 9034SOL    HW128001   2.557   6.221   4.939
 9034SOL    HW228002   2.414   6.246   5.015
 9035SOL     OW28003   6.844   0.153   4.638
 9035SOL    HW128004   6.944   0.150   4.636
 9035SOL    HW228005   6.809   0.161   4.545
 9036SOL     OW28006   1.773   2.475   5.403
 9036SOL    HW128007   1.808   2.549   5.461
 9036SOL    HW228008   1.714   2.514   5.333
 9037SOL     OW28009   2.365   3.973   6.328
 9037SOL    HW128010   2.288   3.910   6.314
 9037SOL    HW228011   2.367   4.039   6.253
 9038SOL     OW28012   5.300   0.464   5.455
 9038SOL    HW128013   5.201   0.478   5.463
 9038SOL    HW228014   5.321   0.420   5.369
 9039SOL     OW28015   2.318   4.671   5.439
 9039SOL    HW128016   2.266   4.704   5.518
 9039SOL    HW228017   2.415   4.665   5.462
 9040SOL     OW28018   2.919   1.450   2.514
 9040SOL    HW128019   2.925   1.525   2.580
 9040SOL    HW228020   2.985   1.379   2.539
 9041SOL     OW28021   1.082   2.420   1.757
 9041SOL    HW128022   0.985   2.399   1.751
 9041SOL    HW228023   1.132   2.340   1.790
 9042SOL     OW28024   2.840   5.335   3.105
 9042SOL    HW128025   2.853   5.356   3.008
 9042SOL    HW228026   2.898   5.394   3.160
 9043SOL     OW28027   1.016   2.560   6.131
 9043SOL    HW128028   0.920   2.560   6.160
 9043SOL    HW228029   1.052   2.466   6.135
 9044SOL     OW28030   5.819   0.323   0.516
 9044SOL    HW128031   5.745   0.389   0.500
 9044SOL    HW228032   5.907   0.367   0.500
 9045SOL     OW28033   3.646   0.519   3.341
 9045SOL    HW128034   3.737   0.479   3.328
 9045SOL    HW228035   3.603   0.531   3.252
 9046SOL     OW28036   3.385   4.292   5.522
 9046SOL    HW128037   3.368   4.202   5.561
 9046SOL    HW228038   3.376   4.288   5.423
 9047SOL     OW28039   1.886   4.117   4.171
 9047SOL    HW128040   1.810   4.142   4.230
 9047SOL    HW228041   1.916   4.024   4.193
 9048SOL     OW28042   1.701   3.971   5.584
 9048SOL    HW128043   1.676   3.903   5.653
 9048SOL    HW228044   1.798   3.962   5.561
 9049SOL     OW28045   5.492   5.971   6.073
 9049SOL    HW128046   5.425   5.980   5.999
 9049SOL    HW228047   5.459   5.904   6.139
 9050SOL     OW28048   0.235   5.321   7.001
 9050SOL    HW128049   0.317   5.336   0.031
 9050SOL    HW228050   0.198   5.230   7.020
 9051SOL     OW28051   4.896   6.440   0.478
 9051SOL    HW128052   4.810   6.392   0.492
 9051SOL    HW228053   4.910   6.507   0.551
 9052SOL     OW28054   2.631   4.718   4.544
 9052SOL    HW128055   2.579   4.802   4.560
 9052SOL    HW228056   2.673   4.688   4.629
 9053SOL     OW28057   1.910   2.886   3.622
 9053SOL    HW128058   1.986   2.909   3.561
 9053SOL    HW228059   1.909   2.950   3.699
 9054SOL     OW28060   1.804   0.557   1.324
 9054SOL    HW128061   1.904   0.564   1.325
 9054SOL    HW228062   1.765   0.624   1.386
 9055SOL     OW28063   0.978   2.936   3.946
 9055SOL    HW128064   1.057   2.879   3.968
 9055SOL    HW228065   0.967   2.940   3.846
 9056SOL     OW28066   5.236   0.274   1.759
 9056SOL    HW128067   5.271   0.257   1.668
 9056SOL    HW228068   5.163   0.343   1.755
 9057SOL     OW28069   6.251   5.417   6.936
 9057SOL    HW128070   6.328   5.477   6.957
 9057SOL    HW228071   6.178   5.470   6.893
 9058SOL     OW28072   2.070   2.774   4.954
 9058SOL    HW128073   2.151   2.754   4.899
 9058SOL    HW228074   2.097   2.824   5.037
 9059SOL     OW28075   6.528   1.129   3.644
 9059SOL    HW128076   6.553   1.197   3.575
 9059SOL    HW228077   6.597   1.130   3.717
 9060SOL     OW28078   6.506   3.520   2.241
 9060SOL    HW128079   6.597   3.481   2.228
 9060SOL    HW228080   6.501   3.562   2.332
 9061SOL     OW28081   4.685   5.957   3.200
 9061SOL    HW128082   4.593   5.994   3.217
 9061SOL    HW228083   4.696   5.872   3.252
 9062SOL     OW28084   1.187   4.709   2.718
 9062SOL    HW128085   1.103   4.716   2.664
 9062SOL    HW228086   1.263   4.745   2.665
 9063SOL     OW28087   3.084   1.781   2.583
 9063SOL    HW128088   3.180   1.783   2.554
 9063SOL    HW228089   3.077   1.820   2.676
 9064SOL     OW28090   0.144   4.354   3.700
 9064SOL    HW128091   0.122   4.256   3.707
 9064SOL    HW228092   0.204   4.380   3.775
 9065SOL     OW28093   2.789   6.031   5.033
 9065SOL    HW128094   2.818   5.935   5.032
 9065SOL    HW228095   2.759   6.058   4.941
 9066SOL     OW28096   6.483   6.504   6.495
 9066SOL    HW128097   6.544   6.427   6.476
 9066SOL    HW228098   6.520   6.587   6.454
 9067SOL     OW28099   6.719   6.558   4.340
 9067SOL    HW128100   6.631   6.520   4.369
 9067SOL    HW228101   6.728   6.651   4.376
 9068SOL     OW28102   5.013   0.495   5.500
 9068SOL    HW128103   4.972   0.553   5.429
 9068SOL    HW228104   4.993   0.535   5.590
 9069SOL     OW28105   4.641   2.674   2.388
 9069SOL    HW128106   4.547   2.701   2.412
 9069SOL    HW228107   4.705   2.716   2.452
 9070SOL     OW28108   1.496   1.986   6.644
 9070SOL    HW128109   1.442   1.907   6.671
 9070SOL    HW228110   1.523   1.977   6.548
 9071SOL     OW28111   4.180   1.264   5.810
 9071SOL    HW128112   4.184   1.355   5.769
 9071SOL    HW228113   4.198   1.271   5.908
 9072SOL     OW28114   5.283   6.834   1.777
 9072SOL    HW128115   5.317   6.799   1.690
 9072SOL    HW228116   5.338   6.797   1.851
 9073SOL     OW28117   4.625   0.045   0.302
 9073SOL    HW128118   4.660   0.128   0.346
 9073SOL    HW228119   4.701   7.006   0.291
 9074SOL     OW28120   1.399   0.265   1.093
 9074SOL    HW128121   1.423   0.205   1.016
 9074SOL    HW228122   1.483   0.302   1.133
 9075SOL     OW28123   6.769   0.884   2.364
 9075SOL    HW128124   6.698   0.815   2.349
 9075SOL    HW228125   6.839   0.874   2.293
 9076SOL     OW28126   4.756   1.487   3.035
 9076SOL    HW128127   4.669   1.487   3.084
 9076SOL    HW228128   4.761   1.567   2.974
 9077SOL     OW28129   4.918   1.240   5.832
 9077SOL    HW128130   4.986   1.297   5.878
 9077SOL    HW228131   4.964   1.162   5.789
 9078SOL     OW28132   5.413   4.998   6.626
 9078SOL    HW128133   5.430   5.038   6.716
 9078SOL    HW228134   5.329   4.944   6.629
 9079SOL     OW28135   1.371   0.573   5.057
 9079SOL    HW128136   1.349   0.612   4.967
 9079SOL    HW228137   1.337   0.634   5.128
 9080SOL     OW28138   6.180   3.227   0.152
 9080SOL    HW128139   6.181   3.258   0.247
 9080SOL    HW228140   6.192   3.127   0.149
 9081SOL     OW28141   4.017   1.504   1.334
 9081SOL    HW128142   4.093   1.525   1.395
 9081SOL    HW228143   3.958   1.435   1.376
 9082SOL     OW28144   2.575   6.873   5.388
 9082SOL    HW128145   2.609   6.789   5.347
 9082SOL    HW228146   2.582   6.867   5.488
 9083SOL     OW28147   4.733   4.592   6.127
 9083SOL    HW128148   4.771   4.501   6.107
 9083SOL    HW228149   4.665   4.615   6.057
 9084SOL     OW28150   0.301   2.539   5.541
 9084SOL    HW128151   0.300   2.595   5.458
 9084SOL    HW228152   0.224   2.564   5.599
 9085SOL     OW28153   2.873   5.273   0.517
 9085SOL    HW128154   2.958   5.221   0.518
 9085SOL    HW228155   2.894   5.370   0.532
 9086SOL     OW28156   6.108   4.442   1.083
 9086SOL    HW128157   6.143   4.394   1.163
 9086SOL    HW228158   6.031   4.392   1.045
 9087SOL     OW28159   5.745   3.052   2.794
 9087SOL    HW128160   5.843   3.042   2.810
 9087SOL    HW228161   5.717   3.146   2.811
 9088SOL     OW28162   6.143   0.240   2.185
 9088SOL    HW128163   6.235   0.245   2.146
 9088SOL    HW228164   6.082   0.196   2.119
 9089SOL     OW28165   4.013   5.333   4.001
 9089SOL    HW128166   4.100   5.376   4.023
 9089SOL    HW228167   3.942   5.403   3.993
 9090SOL     OW28168   5.071   6.522   4.758
 9090SOL    HW128169   5.088   6.545   4.854
 9090SOL    HW228170   5.029   6.432   4.752
 9091SOL     OW28171   3.337   2.263   0.584
 9091SOL    HW128172   3.241   2.280   0.561
 9091SOL    HW228173   3.395   2.297   0.510
 9092SOL     OW28174   1.342   0.438   5.762
 9092SOL    HW128175   1.365   0.453   5.666
 9092SOL    HW228176   1.257   0.485   5.785
 9093SOL     OW28177   1.721   6.513   6.881
 9093SOL    HW128178   1.764   6.494   6.970
 9093SOL    HW228179   1.763   6.455   6.812
 9094SOL     OW28180   0.388   6.099   2.144
 9094SOL    HW128181   0.397   6.013   2.094
 9094SOL    HW228182   0.381   6.175   2.079
 9095SOL     OW28183   5.671   3.547   6.266
 9095SOL    HW128184   5.648   3.584   6.175
 9095SOL    HW228185   5.606   3.583   6.333
 9096SOL     OW28186   5.465   3.560   2.438
 9096SOL    HW128187   5.427   3.518   2.356
 9096SOL    HW228188   5.541   3.620   2.412
 9097SOL     OW28189   0.611   3.816   0.151
 9097SOL    HW128190   0.690   3.873   0.127
 9097SOL    HW228191   0.602   3.742   0.084
 9098SOL     OW28192   4.093   3.346   1.025
 9098SOL    HW128193   3.999   3.359   0.991
 9098SOL    HW228194   4.131   3.262   0.986
 9099SOL     OW28195   3.459   3.512   0.633
 9099SOL    HW128196   3.539   3.465   0.595
 9099SOL    HW228197   3.393   3.445   0.667
 9100SOL     OW28198   1.027   2.432   2.131
 9100SOL    HW128199   0.964   2.489   2.079
 9100SOL    HW228200   0.995   2.424   2.225
 9101SOL     OW28201   2.011   3.091   2.550
 9101SOL    HW128202   1.978   3.071   2.458
 9101SOL    HW228203   2.021   3.006   2.601
 9102SOL     OW28204   3.842   6.478   1.920
 9102SOL    HW128205   3.800   6.453   1.833
 9102SOL    HW228206   3.941   6.486   1.908
 9103SOL     OW28207   7.020   3.442   0.387
 9103SOL    HW128208   6.926   3.414   0.403
 9103SOL    HW228209   0.010   3.453   0.289
 9104SOL     OW28210   4.415   6.448   2.129
 9104SOL    HW128211   4.362   6.363   2.126
 9104SOL    HW228212   4.438   6.470   2.224
 9105SOL     OW28213   1.563   0.659   0.157
 9105SOL    HW128214   1.508   0.651   0.240
 9105SOL    HW228215   1.570   0.756   0.132
 9106SOL     OW28216   5.981   3.542   0.337
 9106SOL    HW128217   5.958   3.572   0.245
 9106SOL    HW228218   5.986   3.621   0.398
 9107SOL     OW28219   4.008   6.656   6.519
 9107SOL    HW128220   4.097   6.692   6.547
 9107SOL    HW228221   4.015   6.618   6.427
 9108SOL     OW28222   4.990   4.506   5.342
 9108SOL    HW128223   5.061   4.545   5.401
 9108SOL    HW228224   5.018   4.415   5.313
 9109SOL     OW28225   1.534   2.376   2.673
 9109SOL    HW128226   1.485   2.394   2.759
 9109SOL    HW228227   1.497   2.436   2.602
 9110SOL     OW28228   2.190   4.386   4.076
 9110SOL    HW128229   2.272   4.358   4.026
 9110SOL    HW228230   2.161   4.312   4.137
 9111SOL     OW28231   4.346   3.472   0.646
 9111SOL    HW128232   4.389   3.413   0.714
 9111SOL    HW228233   4.265   3.426   0.609
 9112SOL     OW28234   0.375   4.512   4.568
 9112SOL    HW128235   0.418   4.572   4.635
 9112SOL    HW228236   0.282   4.491   4.598
 9113SOL     OW28237   4.576   0.185   0.650
 9113SOL    HW128238   4.641   0.207   0.577
 9113SOL    HW228239   4.487   0.224   0.627
 9114SOL     OW28240   1.429   5.078   2.585
 9114SOL    HW128241   1.412   4.985   2.617
 9114SOL    HW228242   1.391   5.090   2.493
 9115SOL     OW28243   0.472   5.788   5.336
 9115SOL    HW128244   0.541   5.856   5.313
 9115SOL    HW228245   0.503   5.698   5.306
 9116SOL     OW28246   6.570   1.831   0.609
 9116SOL    HW128247   6.496   1.850   0.544
 9116SOL    HW228248   6.584   1.732   0.615
 9117SOL     OW28249   5.909   2.725   6.922
 9117SOL    HW128250   5.877   2.673   6.842
 9117SOL    HW228251   6.008   2.712   6.933
 9118SOL     OW28252   5.914   6.149   0.480
 9118SOL    HW128253   5.921   6.236   0.432
 9118SOL    HW228254   5.881   6.079   0.417
 9119SOL     OW28255   5.480   1.282   2.667
 9119SOL    HW128256   5.525   1.315   2.584
 9119SOL    HW228257   5.515   1.332   2.746
 9120SOL     OW28258   5.370   3.140   5.431
 9120SOL    HW128259   5.403   3.089   5.510
 9120SOL    HW228260   5.327   3.078   5.365
 9121SOL     OW28261   0.730   2.842   6.287
 9121SOL    HW128262   0.640   2.885   6.283
 9121SOL    HW228263   0.738   2.788   6.371
 9122SOL     OW28264   1.628   2.603   1.504
 9122SOL    HW128265   1.612   2.527   1.567
 9122SOL    HW228266   1.726   2.609   1.483
 9123SOL     OW28267   3.739   0.512   4.525
 9123SOL    HW128268   3.774   0.585   4.467
 9123SOL    HW228269   3.671   0.459   4.474
 9124SOL     OW28270   5.929   6.509   5.415
 9124SOL    HW128271   6.015   6.517   5.464
 9124SOL    HW228272   5.928   6.573   5.338
 9125SOL     OW28273   4.749   4.005   2.967
 9125SOL    HW128274   4.749   3.934   3.037
 9125SOL    HW228275   4.787   4.089   3.006
 9126SOL     OW28276   5.494   1.970   1.971
 9126SOL    HW128277   5.560   1.907   2.010
 9126SOL    HW228278   5.542   2.049   1.932
 9127SOL     OW28279   6.279   1.019   6.480
 9127SOL    HW128280   6.330   1.008   6.565
 9127SOL    HW228281   6.339   1.057   6.410
 9128SOL     OW28282   3.514   1.938   5.128
 9128SOL    HW128283   3.451   2.009   5.161
 9128SOL    HW228284   3.566   1.973   5.050
 9129SOL     OW28285   1.703   2.944   1.247
 9129SOL    HW128286   1.684   2.902   1.158
 9129SOL    HW228287   1.801   2.941   1.265
 9130SOL     OW28288   6.860   3.211   0.378
 9130SOL    HW128289   6.952   3.201   0.339
 9130SOL    HW228290   6.795   3.228   0.304
 9131SOL     OW28291   0.126   4.041   5.745
 9131SOL    HW128292   0.039   4.014   5.786
 9131SOL    HW228293   0.149   4.133   5.776
 9132SOL     OW28294   0.374   4.943   4.288
 9132SOL    HW128295   0.455   4.993   4.316
 9132SOL    HW228296   0.399   4.849   4.265
 9133SOL     OW28297   3.264   5.486   1.324
 9133SOL    HW128298   3.332   5.416   1.304
 9133SOL    HW228299   3.268   5.510   1.421
 9134SOL     OW28300   3.276   6.284   0.749
 9134SOL    HW128301   3.345   6.300   0.678
 9134SOL    HW228302   3.302   6.333   0.832
 9135SOL     OW28303   6.604   6.386   2.180
 9135SOL    HW128304   6.673   6.333   2.230
 9135SOL    HW228305   6.589   6.473   2.227
 9136SOL     OW28306   4.826   5.478   5.411
 9136SOL    HW128307   4.859   5.440   5.324
 9136SOL    HW228308   4.727   5.461   5.419
 9137SOL     OW28309   4.829   1.829   1.166
 9137SOL    HW128310   4.794   1.922   1.178
 9137SOL    HW228311   4.927   1.828   1.183
 9138SOL     OW28312   6.182   5.259   5.684
 9138SOL    HW128313   6.240   5.225   5.758
 9138SOL    HW228314   6.142   5.181   5.635
 9139SOL     OW28315   2.260   1.273   4.756
 9139SOL    HW128316   2.291   1.309   4.668
 9139SOL    HW228317   2.208   1.189   4.742
 9140SOL     OW28318   6.158   3.170   2.577
 9140SOL    HW128319   6.244   3.127   2.603
 9140SOL    HW228320   6.156   3.264   2.610
 9141SOL     OW28321   5.480   0.394   6.444
 9141SOL    HW128322   5.506   0.384   6.541
 9141SOL    HW228323   5.381   0.391   6.436
 9142SOL     OW28324   0.655   2.082   0.322
 9142SOL    HW128325   0.742   2.131   0.327
 9142SOL    HW228326   0.582   2.146   0.299
 9143SOL     OW28327   5.057   3.679   1.200
 9143SOL    HW128328   5.110   3.683   1.116
 9143SOL    HW228329   4.962   3.657   1.178
 9144SOL     OW28330   2.252   5.545   5.321
 9144SOL    HW128331   2.270   5.594   5.406
 9144SOL    HW228332   2.169   5.582   5.279
 9145SOL     OW28333   6.705   5.411   0.039
 9145SOL    HW128334   6.693   5.392   0.136
 9145SOL    HW228335   6.791   5.369   0.008
 9146SOL     OW28336   5.167   2.330   2.743
 9146SOL    HW128337   5.076   2.288   2.736
 9146SOL    HW228338   5.211   2.329   2.653
 9147SOL     OW28339   5.735   0.243   3.975
 9147SOL    HW128340   5.783   0.314   4.026
 9147SOL    HW228341   5.735   0.158   4.029
 9148SOL     OW28342   4.935   6.691   0.632
 9148SOL    HW128343   5.033   6.680   0.649
 9148SOL    HW228344   4.886   6.694   0.720
 9149SOL     OW28345   5.114   3.111   3.604
 9149SOL    HW128346   5.023   3.146   3.626
 9149SOL    HW228347   5.183   3.172   3.641
 9150SOL     OW28348   3.230   5.121   3.557
 9150SOL    HW128349   3.152   5.058   3.562
 9150SOL    HW228350   3.225   5.186   3.632
 9151SOL     OW28351   1.577   4.203   3.582
 9151SOL    HW128352   1.627   4.288   3.568
 9151SOL    HW228353   1.599   4.139   3.508
 9152SOL     OW28354   2.444   4.818   4.909
 9152SOL    HW128355   2.400   4.771   4.985
 9152SOL    HW228356   2.374   4.851   4.845
 9153SOL     OW28357   1.176   3.110   1.035
 9153SOL    HW128358   1.209   3.093   1.128
 9153SOL    HW228359   1.244   3.163   0.985
 9154SOL     OW28360   4.653   5.411   6.519
 9154SOL    HW128361   4.593   5.385   6.444
 9154SOL    HW228362   4.748   5.410   6.487
 9155SOL     OW28363   0.773   2.953   1.188
 9155SOL    HW128364   0.819   3.020   1.129
 9155SOL    HW228365   0.690   2.921   1.143
 9156SOL     OW28366   2.005   2.627   6.984
 9156SOL    HW128367   1.963   2.537   6.998
 9156SOL    HW228368   2.086   2.618   6.925
 9157SOL     OW28369   6.311   4.513   6.645
 9157SOL    HW128370   6.252   4.443   6.686
 9157SOL    HW228371   6.315   4.499   6.546
 9158SOL     OW28372   5.888   3.586   4.449
 9158SOL    HW128373   5.824   3.544   4.385
 9158SOL    HW228374   5.848   3.671   4.484
 9159SOL     OW28375   1.709   0.159   2.863
 9159SOL    HW128376   1.711   0.255   2.893
 9159SOL    HW228377   1.615   0.124   2.871
 9160SOL     OW28378   6.485   0.212   4.618
 9160SOL    HW128379   6.514   0.174   4.530
 9160SOL    HW228380   6.519   0.156   4.692
 9161SOL     OW28381   4.808   4.422   4.765
 9161SOL    HW128382   4.712   4.448   4.760
 9161SOL    HW228383   4.827   4.352   4.697
 9162SOL     OW28384   4.764   1.467   4.084
 9162SOL    HW128385   4.783   1.515   4.169
 9162SOL    HW228386   4.672   1.428   4.087
 9163SOL     OW28387   2.159   3.281   4.589
 9163SOL    HW128388   2.134   3.196   4.542
 9163SOL    HW228389   2.220   3.260   4.665
 9164SOL     OW28390   2.329   0.676   6.822
 9164SOL    HW128391   2.422   0.644   6.801
 9164SOL    HW228392   2.285   0.613   6.885
 9165SOL     OW28393   5.948   1.863   5.443
 9165SOL    HW128394   6.005   1.847   5.523
 9165SOL    HW228395   5.946   1.960   5.421
 9166SOL     OW28396   4.300   6.181   0.751
 9166SOL    HW128397   4.398   6.200   0.758
 9166SOL    HW228398   4.277   6.105   0.812
 9167SOL     OW28399   1.776   2.731   6.599
 9167SOL    HW128400   1.716   2.654   6.579
 9167SOL    HW228401   1.871   2.706   6.579
 9168SOL     OW28402   0.928   0.539   6.956
 9168SOL    HW128403   0.835   0.576   6.956
 9168SOL    HW228404   0.974   0.564   0.015
 9169SOL     OW28405   5.927   1.277   5.446
 9169SOL    HW128406   6.027   1.276   5.453
 9169SOL    HW228407   5.897   1.211   5.377
 9170SOL     OW28408   1.324   5.153   0.163
 9170SOL    HW128409   1.396   5.208   0.120
 9170SOL    HW228410   1.359   5.115   0.249
 9171SOL     OW28411   3.685   4.806   0.592
 9171SOL    HW128412   3.674   4.831   0.496
 9171SOL    HW228413   3.623   4.731   0.615
 9172SOL     OW28414   3.476   0.683   4.334
 9172SOL    HW128415   3.387   0.671   4.377
 9172SOL    HW228416   3.466   0.681   4.235
 9173SOL     OW28417   6.430   3.832   5.108
 9173SOL    HW128418   6.424   3.907   5.043
 9173SOL    HW228419   6.426   3.745   5.059
 9174SOL     OW28420   6.129   4.507   1.579
 9174SOL    HW128421   6.147   4.488   1.483
 9174SOL    HW228422   6.100   4.602   1.590
 9175SOL     OW28423   0.363   6.842   3.953
 9175SOL    HW128424   0.307   6.903   3.898
 9175SOL    HW228425   0.401   6.892   4.031
 9176SOL     OW28426   3.008   1.349   5.273
 9176SOL    HW128427   2.933   1.296   5.314
 9176SOL    HW228428   3.082   1.359   5.340
 9177SOL     OW28429   0.641   5.221   4.885
 9177SOL    HW128430   0.562   5.161   4.887
 9177SOL    HW228431   0.658   5.258   4.977
 9178SOL     OW28432   2.052   5.398   0.411
 9178SOL    HW128433   2.106   5.472   0.372
 9178SOL    HW228434   2.102   5.312   0.406
 9179SOL     OW28435   2.629   5.544   4.445
 9179SOL    HW128436   2.677   5.570   4.530
 9179SOL    HW228437   2.695   5.501   4.383
 9180SOL     OW28438   6.105   2.460   2.786
 9180SOL    HW128439   6.114   2.404   2.703
 9180SOL    HW228440   6.083   2.400   2.863
 9181SOL     OW28441   3.935   2.206   4.308
 9181SOL    HW128442   3.941   2.106   4.310
 9181SOL    HW228443   4.021   2.245   4.343
 9182SOL     OW28444   2.212   6.460   2.015
 9182SOL    HW128445   2.187   6.502   1.927
 9182SOL    HW228446   2.130   6.450   2.072
 9183SOL     OW28447   5.007   5.821   0.606
 9183SOL    HW128448   5.077   5.769   0.556
 9183SOL    HW228449   4.973   5.895   0.548
 9184SOL     OW28450   4.878   2.028   0.741
 9184SOL    HW128451   4.811   2.025   0.815
 9184SOL    HW228452   4.888   2.122   0.709
 9185SOL     OW28453   4.177   6.623   4.380
 9185SOL    HW128454   4.103   6.556   4.384
 9185SOL    HW228455   4.227   6.612   4.294
 9186SOL     OW28456   5.879   0.109   4.183
 9186SOL    HW128457   5.824   0.035   4.223
 9186SOL    HW228458   5.886   0.184   4.248
 9187SOL     OW28459   2.520   1.675   1.199
 9187SOL    HW128460   2.594   1.735   1.227
 9187SOL    HW228461   2.490   1.621   1.277
 9188SOL     OW28462   1.422   6.386   1.996
 9188SOL    HW128463   1.396   6.356   1.905
 9188SOL    HW228464   1.405   6.312   2.061
 9189SOL     OW28465   4.749   6.501   1.281
 9189SOL    HW128466   4.848   6.493   1.291
 9189SOL    HW228467   4.711   6.410   1.261
 9190SOL     OW28468   2.384   4.528   6.667
 9190SOL    HW128469   2.331   4.511   6.584
 9190SOL    HW228470   2.464   4.468   6.670
 9191SOL     OW28471   6.417   2.039   5.436
 9191SOL    HW128472   6.501   2.010   5.482
 9191SOL    HW228473   6.358   1.959   5.421
 9192SOL     OW28474   0.338   3.459   6.490
 9192SOL    HW128475   0.322   3.538   6.549
 9192SOL    HW228476   0.261   3.396   6.497
 9193SOL     OW28477   4.837   4.313   0.084
 9193SOL    HW128478   4.835   4.233   0.143
 9193SOL    HW228479   4.851   4.284   7.015
 9194SOL     OW28480   2.939   0.194   3.526
 9194SOL    HW128481   2.979   0.158   3.442
 9194SOL    HW228482   2.839   0.193   3.518
 9195SOL     OW28483   1.328   1.515   3.973
 9195SOL    HW128484   1.389   1.501   3.894
 9195SOL    HW228485   1.335   1.437   4.034
 9196SOL     OW28486   4.373   6.555   3.504
 9196SOL    HW128487   4.285   6.603   3.513
 9196SOL    HW228488   4.360   6.471   3.453
 9197SOL     OW28489   1.699   4.987   2.282
 9197SOL    HW128490   1.683   5.068   2.337
 9197SOL    HW228491   1.665   5.001   2.190
 9198SOL     OW28492   6.468   5.178   6.522
 9198SOL    HW128493   6.401   5.134   6.463
 9198SOL    HW228494   6.556   5.185   6.474
 9199SOL     OW28495   1.168   4.197   5.701
 9199SOL    HW128496   1.127   4.212   5.611
 9199SOL    HW228497   1.222   4.277   5.727
 9200SOL     OW28498   2.493   0.254   0.432
 9200SOL    HW128499   2.586   0.255   0.469
 9200SOL    HW228500   2.438   0.323   0.479
 9201SOL     OW28501   0.965   2.603   0.856
 9201SOL    HW128502   1.007   2.693   0.848
 9201SOL    HW228503   0.907   2.586   0.776
 9202SOL     OW28504   1.366   6.902   2.313
 9202SOL    HW128505   1.408   6.940   2.230
 9202SOL    HW228506   1.270   6.930   2.318
 9203SOL     OW28507   0.943   4.404   6.648
 9203SOL    HW128508   1.017   4.417   6.582
 9203SOL    HW228509   0.881   4.482   6.643
 9204SOL     OW28510   4.976   3.384   6.177
 9204SOL    HW128511   4.903   3.401   6.243
 9204SOL    HW228512   5.020   3.297   6.197
 9205SOL     OW28513   6.587   4.636   3.320
 9205SOL    HW128514   6.609   4.616   3.225
 9205SOL    HW228515   6.505   4.693   3.325
 9206SOL     OW28516   4.109   5.430   2.196
 9206SOL    HW128517   4.134   5.336   2.219
 9206SOL    HW228518   4.078   5.434   2.101
 9207SOL     OW28519   5.091   4.190   6.376
 9207SOL    HW128520   5.052   4.165   6.288
 9207SOL    HW228521   5.167   4.129   6.398
 9208SOL     OW28522   6.304   4.103   3.881
 9208SOL    HW128523   6.266   4.184   3.837
 9208SOL    HW228524   6.230   4.045   3.915
 9209SOL     OW28525   3.494   0.261   6.649
 9209SOL    HW128526   3.582   0.310   6.648
 9209SOL    HW228527   3.419   0.326   6.655
 9210SOL     OW28528   0.018   1.204   2.909
 9210SOL    HW128529   0.029   1.297   2.873
 9210SOL    HW228530   7.007   1.145   2.837
 9211SOL     OW28531   0.101   2.331   5.451
 9211SOL    HW128532   0.103   2.239   5.490
 9211SOL    HW228533   0.185   2.379   5.476
 9212SOL     OW28534   4.895   5.330   4.063
 9212SOL    HW128535   4.843   5.259   4.016
 9212SOL    HW228536   4.993   5.309   4.057
 9213SOL     OW28537   5.320   3.555   5.860
 9213SOL    HW128538   5.397   3.506   5.900
 9213SOL    HW228539   5.304   3.521   5.767
 9214SOL     OW28540   6.698   3.794   6.821
 9214SOL    HW128541   6.621   3.789   6.883
 9214SOL    HW228542   6.706   3.708   6.770
 9215SOL     OW28543   0.760   2.353   1.466
 9215SOL    HW128544   0.675   2.323   1.510
 9215SOL    HW228545   0.755   2.334   1.368
 9216SOL     OW28546   3.014   0.604   2.110
 9216SOL    HW128547   2.984   0.700   2.106
 9216SOL    HW228548   2.938   0.546   2.138
 9217SOL     OW28549   0.707   1.981   6.986
 9217SOL    HW128550   0.619   2.008   7.025
 9217SOL    HW228551   0.765   1.941   0.031
 9218SOL     OW28552   2.507   6.730   0.469
 9218SOL    HW128553   2.530   6.691   0.379
 9218SOL    HW228554   2.497   6.829   0.460
 9219SOL     OW28555   6.930   2.591   1.708
 9219SOL    HW128556   6.875   2.507   1.716
 9219SOL    HW228557   7.019   2.568   1.668
 9220SOL     OW28558   1.710   6.600   1.072
 9220SOL    HW128559   1.629   6.636   1.120
 9220SOL    HW228560   1.692   6.598   0.974
 9221SOL     OW28561   2.888   0.788   3.410
 9221SOL    HW128562   2.968   0.774   3.352
 9221SOL    HW228563   2.917   0.811   3.503
 9222SOL     OW28564   1.851   0.293   6.452
 9222SOL    HW128565   1.782   0.253   6.512
 9222SOL    HW228566   1.809   0.365   6.397
 9223SOL     OW28567   1.004   1.034   4.297
 9223SOL    HW128568   1.020   0.968   4.224
 9223SOL    HW228569   1.071   1.019   4.370
 9224SOL     OW28570   1.905   4.786   4.700
 9224SOL    HW128571   1.932   4.724   4.627
 9224SOL    HW228572   1.883   4.734   4.783
 9225SOL     OW28573   3.200   6.619   5.986
 9225SOL    HW128574   3.281   6.639   6.041
 9225SOL    HW228575   3.201   6.523   5.958
 9226SOL     OW28576   6.228   6.696   1.123
 9226SOL    HW128577   6.138   6.715   1.162
 9226SOL    HW228578   6.227   6.718   1.025
 9227SOL     OW28579   0.998   5.144   0.699
 9227SOL    HW128580   1.069   5.180   0.639
 9227SOL    HW228581   0.927   5.099   0.644
 9228SOL     OW28582   1.721   1.046   5.620
 9228SOL    HW128583   1.696   0.950   5.627
 9228SOL    HW228584   1.646   1.102   5.656
 9229SOL     OW28585   0.439   5.693   4.415
 9229SOL    HW128586   0.517   5.746   4.382
 9229SOL    HW228587   0.452   5.670   4.511
 9230SOL     OW28588   4.704   1.777   3.170
 9230SOL    HW128589   4.695   1.719   3.251
 9230SOL    HW228590   4.712   1.872   3.197
 9231SOL     OW28591   0.671   4.255   4.659
 9231SOL    HW128592   0.591   4.237   4.602
 9231SOL    HW228593   0.754   4.246   4.603
 9232SOL     OW28594   3.966   5.448   0.375
 9232SOL    HW128595   3.918   5.523   0.329
 9232SOL    HW228596   3.980   5.373   0.311
 9233SOL     OW28597   5.391   5.254   2.235
 9233SOL    HW128598   5.321   5.294   2.176
 9233SOL    HW228599   5.474   5.311   2.231
 9234SOL     OW28600   3.871   5.239   5.769
 9234SOL    HW128601   3.840   5.304   5.838
 9234SOL    HW228602   3.867   5.282   5.678
 9235SOL     OW28603   1.661   3.044   3.285
 9235SOL    HW128604   1.584   3.100   3.314
 9235SOL    HW228605   1.728   3.102   3.238
 9236SOL     OW28606   2.948   4.078   5.513
 9236SOL    HW128607   2.929   4.116   5.603
 9236SOL    HW228608   2.966   4.152   5.448
 9237SOL     OW28609   1.708   5.232   4.931
 9237SOL    HW128610   1.766   5.153   4.913
 9237SOL    HW228611   1.683   5.234   5.028
 9238SOL     OW28612   3.931   1.942   6.579
 9238SOL    HW128613   3.961   1.862   6.630
 9238SOL    HW228614   3.964   1.935   6.485
 9239SOL     OW28615   7.013   4.556   0.651
 9239SOL    HW128616   0.048   4.525   0.724
 9239SOL    HW228617   6.958   4.480   0.618
 9240SOL     OW28618   4.858   1.512   1.120
 9240SOL    HW128619   4.779   1.502   1.058
 9240SOL    HW228620   4.826   1.510   1.215
 9241SOL     OW28621   0.560   5.440   5.630
 9241SOL    HW128622   0.463   5.417   5.633
 9241SOL    HW228623   0.614   5.356   5.626
 9242SOL     OW28624   0.066   5.460   0.798
 9242SOL    HW128625   0.071   5.495   0.704
 9242SOL    HW228626   0.099   5.365   0.799
 9243SOL     OW28627   6.072   6.959   2.044
 9243SOL    HW128628   6.170   6.940   2.043
 9243SOL    HW228629   6.022   6.873   2.049
 9244SOL     OW28630   4.522   4.938   6.358
 9244SOL    HW128631   4.573   5.015   6.397
 9244SOL    HW228632   4.424   4.952   6.375
 9245SOL     OW28633   1.554   4.849   3.519
 9245SOL    HW128634   1.618   4.778   3.547
 9245SOL    HW228635   1.577   4.934   3.566
 9246SOL     OW28636   0.266   4.238   2.914
 9246SOL    HW128637   0.346   4.191   2.952
 9246SOL    HW228638   0.183   4.187   2.936
 9247SOL     OW28639   1.049   0.040   3.096
 9247SOL    HW128640   0.955   0.005   3.102
 9247SOL    HW228641   1.089   0.043   3.187
 9248SOL     OW28642   1.584   2.588   5.230
 9248SOL    HW128643   1.571   2.516   5.162
 9248SOL    HW228644   1.514   2.659   5.217
 9249SOL     OW28645   4.806   3.484   0.014
 9249SOL    HW128646   4.752   3.420   0.068
 9249SOL    HW228647   4.894   3.442   7.016
 9250SOL     OW28648   5.235   3.194   4.914
 9250SOL    HW128649   5.250   3.177   4.817
 9250SOL    HW228650   5.260   3.288   4.936
 9251SOL     OW28651   4.199   2.275   3.494
 9251SOL    HW128652   4.128   2.326   3.445
 9251SOL    HW228653   4.286   2.285   3.446
 9252SOL     OW28654   5.769   0.512   4.127
 9252SOL    HW128655   5.813   0.537   4.041
 9252SOL    HW228656   5.775   0.588   4.191
 9253SOL     OW28657   5.798   6.438   5.651
 9253SOL    HW128658   5.719   6.400   5.603
 9253SOL    HW228659   5.860   6.480   5.585
 9254SOL     OW28660   6.304   4.115   2.967
 9254SOL    HW128661   6.340   4.103   2.874
 9254SOL    HW228662   6.210   4.147   2.963
 9255SOL     OW28663   4.865   4.081   0.198
 9255SOL    HW128664   4.808   4.105   0.276
 9255SOL    HW228665   4.950   4.040   0.231
 9256SOL     OW28666   3.907   6.674   2.519
 9256SOL    HW128667   3.831   6.713   2.466
 9256SOL    HW228668   3.893   6.575   2.529
 9257SOL     OW28669   0.542   3.678   3.111
 9257SOL    HW128670   0.511   3.692   3.205
 9257SOL    HW228671   0.508   3.590   3.077
 9258SOL     OW28672   3.324   3.398   3.491
 9258SOL    HW128673   3.367   3.313   3.459
 9258SOL    HW228674   3.389   3.449   3.548
 9259SOL     OW28675   1.204   2.191   0.537
 9259SOL    HW128676   1.210   2.185   0.438
 9259SOL    HW228677   1.184   2.285   0.564
 9260SOL     OW28678   4.985   1.692   5.630
 9260SOL    HW128679   5.002   1.634   5.550
 9260SOL    HW228680   4.933   1.773   5.602
 9261SOL     OW28681   4.311   0.349   6.770
 9261SOL    HW128682   4.329   0.281   6.841
 9261SOL    HW228683   4.252   0.311   6.700
 9262SOL     OW28684   6.444   3.369   5.391
 9262SOL    HW128685   6.427   3.329   5.301
 9262SOL    HW228686   6.455   3.468   5.381
 9263SOL     OW28687   5.445   5.148   1.842
 9263SOL    HW128688   5.531   5.189   1.872
 9263SOL    HW228689   5.464   5.070   1.783
 9264SOL     OW28690   5.523   4.102   0.218
 9264SOL    HW128691   5.623   4.109   0.222
 9264SOL    HW228692   5.495   4.073   0.127
 9265SOL     OW28693   3.052   1.604   6.708
 9265SOL    HW128694   3.042   1.703   6.706
 9265SOL    HW228695   3.057   1.569   6.614
 9266SOL     OW28696   1.861   6.253   2.024
 9266SOL    HW128697   1.818   6.166   1.998
 9266SOL    HW228698   1.800   6.328   2.000
 9267SOL     OW28699   0.059   4.001   6.167
 9267SOL    HW128700   0.152   4.031   6.185
 9267SOL    HW228701   0.034   3.928   6.231
 9268SOL     OW28702   1.694   4.953   1.457
 9268SOL    HW128703   1.737   5.002   1.381
 9268SOL    HW228704   1.601   4.927   1.431
 9269SOL     OW28705   3.331   2.268   5.860
 9269SOL    HW128706   3.418   2.317   5.852
 9269SOL    HW228707   3.344   2.173   5.832
 9270SOL     OW28708   4.715   0.043   5.846
 9270SOL    HW128709   4.647   0.026   5.917
 9270SOL    HW228710   4.684   0.118   5.787
 9271SOL     OW28711   2.355   5.703   6.608
 9271SOL    HW128712   2.282   5.635   6.594
 9271SOL    HW228713   2.317   5.784   6.652
 9272SOL     OW28714   2.204   5.872   5.686
 9272SOL    HW128715   2.138   5.804   5.656
 9272SOL    HW228716   2.163   5.963   5.683
 9273SOL     OW28717   5.256   5.927   4.197
 9273SOL    HW128718   5.207   5.903   4.113
 9273SOL    HW228719   5.353   5.939   4.176
 9274SOL     OW28720   6.729   2.591   0.430
 9274SOL    HW128721   6.791   2.630   0.361
 9274SOL    HW228722   6.783   2.555   0.506
 9275SOL     OW28723   6.965   2.092   0.258
 9275SOL    HW128724   6.889   2.028   0.249
 9275SOL    HW228725   6.976   2.117   0.355
 9276SOL     OW28726   2.060   4.940   3.047
 9276SOL    HW128727   2.097   4.878   3.116
 9276SOL    HW228728   2.089   4.910   2.956
 9277SOL     OW28729   5.399   3.486   0.385
 9277SOL    HW128730   5.483   3.501   0.438
 9277SOL    HW228731   5.375   3.389   0.388
 9278SOL     OW28732   1.290   0.660   4.778
 9278SOL    HW128733   1.200   0.702   4.769
 9278SOL    HW228734   1.332   0.651   4.688
 9279SOL     OW28735   4.606   0.709   2.013
 9279SOL    HW128736   4.662   0.699   2.095
 9279SOL    HW228737   4.663   0.696   1.932
 9280SOL     OW28738   1.635   1.263   2.765
 9280SOL    HW128739   1.566   1.209   2.813
 9280SOL    HW228740   1.680   1.206   2.695
 9281SOL     OW28741   3.118   4.270   1.071
 9281SOL    HW128742   3.136   4.336   1.145
 9281SOL    HW228743   3.036   4.299   1.021
 9282SOL     OW28744   4.753   1.620   4.925
 9282SOL    HW128745   4.827   1.637   4.859
 9282SOL    HW228746   4.780   1.545   4.985
 9283SOL     OW28747   5.434   0.708   3.963
 9283SOL    HW128748   5.359   0.663   3.915
 9283SOL    HW228749   5.492   0.756   3.898
 9284SOL     OW28750   3.360   4.846   5.611
 9284SOL    HW128751   3.271   4.802   5.621
 9284SOL    HW228752   3.430   4.792   5.659
 9285SOL     OW28753   5.408   3.066   1.040
 9285SOL    HW128754   5.325   3.114   1.067
 9285SOL    HW228755   5.487   3.105   1.087
 9286SOL     OW28756   5.219   6.800   6.309
 9286SOL    HW128757   5.218   6.752   6.397
 9286SOL    HW228758   5.142   6.863   6.305
 9287SOL     OW28759   3.547   5.551   0.918
 9287SOL    HW128760   3.546   5.482   0.990
 9287SOL    HW228761   3.556   5.505   0.829
 9288SOL     OW28762   4.055   1.344   4.618
 9288SOL    HW128763   4.103   1.417   4.571
 9288SOL    HW228764   3.956   1.358   4.611
 9289SOL     OW28765   3.609   2.066   2.626
 9289SOL    HW128766   3.650   2.064   2.717
 9289SOL    HW228767   3.545   2.144   2.620
 9290SOL     OW28768   4.632   1.931   3.682
 9290SOL    HW128769   4.720   1.933   3.731
 9290SOL    HW228770   4.612   1.837   3.655
 9291SOL     OW28771   2.573   6.977   4.859
 9291SOL    HW128772   2.633   6.934   4.927
 9291SOL    HW228773   2.482   6.990   4.898
 9292SOL     OW28774   0.262   2.921   6.717
 9292SOL    HW128775   0.263   2.979   6.635
 9292SOL    HW228776   0.171   2.922   6.758
 9293SOL     OW28777   5.430   3.665   0.184
 9293SOL    HW128778   5.441   3.574   0.224
 9293SOL    HW228779   5.352   3.664   0.121
 9294SOL     OW28780   3.259   6.489   5.093
 9294SOL    HW128781   3.187   6.419   5.094
 9294SOL    HW228782   3.325   6.468   5.021
 9295SOL     OW28783   4.938   2.514   4.487
 9295SOL    HW128784   4.864   2.552   4.433
 9295SOL    HW228785   4.919   2.527   4.585
 9296SOL     OW28786   0.432   6.712   6.123
 9296SOL    HW128787   0.340   6.719   6.084
 9296SOL    HW228788   0.476   6.802   6.119
 9297SOL     OW28789   6.206   1.318   0.659
 9297SOL    HW128790   6.123   1.263   0.668
 9297SOL    HW228791   6.260   1.285   0.582
 9298SOL     OW28792   1.671   0.626   4.729
 9298SOL    HW128793   1.579   0.631   4.691
 9298SOL    HW228794   1.716   0.715   4.720
 9299SOL     OW28795   0.620   2.776   4.565
 9299SOL    HW128796   0.601   2.823   4.479
 9299SOL    HW228797   0.657   2.685   4.547
 9300SOL     OW28798   0.326   4.419   5.192
 9300SOL    HW128799   0.305   4.440   5.288
 9300SOL    HW228800   0.264   4.348   5.159
 9301SOL     OW28801   4.978   4.138   3.721
 9301SOL    HW128802   4.995   4.046   3.686
 9301SOL    HW228803   5.064   4.188   3.728
 9302SOL     OW28804   2.188   3.329   4.291
 9302SOL    HW128805   2.147   3.381   4.366
 9302SOL    HW228806   2.230   3.391   4.225
 9303SOL     OW28807   4.177   5.982   0.232
 9303SOL    HW128808   4.134   6.065   0.268
 9303SOL    HW228809   4.274   5.982   0.256
 9304SOL     OW28810   4.828   3.928   1.465
 9304SOL    HW128811   4.846   4.024   1.484
 9304SOL    HW228812   4.913   3.884   1.437
 9305SOL     OW28813   3.472   1.263   2.189
 9305SOL    HW128814   3.429   1.280   2.278
 9305SOL    HW228815   3.569   1.284   2.195
 9306SOL     OW28816   0.259   4.289   4.776
 9306SOL    HW128817   0.210   4.277   4.862
 9306SOL    HW228818   0.193   4.289   4.700
 9307SOL     OW28819   1.535   3.497   0.892
 9307SOL    HW128820   1.498   3.520   0.982
 9307SOL    HW228821   1.500   3.560   0.824
 9308SOL     OW28822   1.067   4.342   0.981
 9308SOL    HW128823   1.162   4.314   0.988
 9308SOL    HW228824   1.020   4.285   0.913
 9309SOL     OW28825   3.718   5.016   5.498
 9309SOL    HW128826   3.792   4.953   5.523
 9309SOL    HW228827   3.694   5.002   5.402
 9310SOL     OW28828   4.368   5.213   5.650
 9310SOL    HW128829   4.453   5.265   5.652
 9310SOL    HW228830   4.303   5.256   5.587
 9311SOL     OW28831   4.930   5.287   1.755
 9311SOL    HW128832   4.889   5.311   1.667
 9311SOL    HW228833   5.018   5.242   1.740
 9312SOL     OW28834   1.345   3.710   1.282
 9312SOL    HW128835   1.274   3.725   1.351
 9312SOL    HW228836   1.310   3.737   1.193
 9313SOL     OW28837   6.812   0.581   0.906
 9313SOL    HW128838   6.811   0.490   0.949
 9313SOL    HW228839   6.727   0.629   0.927
 9314SOL     OW28840   4.589   5.968   6.272
 9314SOL    HW128841   4.633   5.885   6.237
 9314SOL    HW228842   4.553   6.021   6.195
 9315SOL     OW28843   6.446   0.803   5.369
 9315SOL    HW128844   6.465   0.829   5.274
 9315SOL    HW228845   6.470   0.706   5.382
 9316SOL     OW28846   4.529   6.050   5.165
 9316SOL    HW128847   4.572   5.987   5.230
 9316SOL    HW228848   4.583   6.134   5.159
 9317SOL     OW28849   6.340   5.128   3.229
 9317SOL    HW128850   6.260   5.077   3.197
 9317SOL    HW228851   6.377   5.183   3.153
 9318SOL     OW28852   6.008   0.423   5.685
 9318SOL    HW128853   6.083   0.375   5.730
 9318SOL    HW228854   5.929   0.425   5.747
 9319SOL     OW28855   1.083   2.586   6.991
 9319SOL    HW128856   1.040   2.580   6.900
 9319SOL    HW228857   1.018   2.554   0.034
 9320SOL     OW28858   3.565   1.253   6.144
 9320SOL    HW128859   3.477   1.205   6.141
 9320SOL    HW228860   3.630   1.206   6.085
 9321SOL     OW28861   6.383   0.187   3.179
 9321SOL    HW128862   6.293   0.215   3.144
 9321SOL    HW228863   6.381   0.184   3.279
 9322SOL     OW28864   1.173   4.796   6.234
 9322SOL    HW128865   1.170   4.896   6.236
 9322SOL    HW228866   1.210   4.762   6.321
 9323SOL     OW28867   1.590   0.233   5.402
 9323SOL    HW128868   1.530   0.197   5.331
 9323SOL    HW228869   1.549   0.218   5.492
 9324SOL     OW28870   1.705   4.939   0.585
 9324SOL    HW128871   1.734   4.887   0.665
 9324SOL    HW228872   1.748   5.030   0.588
 9325SOL     OW28873   5.097   0.890   6.621
 9325SOL    HW128874   5.107   0.928   6.529
 9325SOL    HW228875   5.178   0.913   6.675
 9326SOL     OW28876   2.021   6.479   0.816
 9326SOL    HW128877   1.947   6.532   0.777
 9326SOL    HW228878   2.040   6.510   0.909
 9327SOL     OW28879   4.886   6.982   2.836
 9327SOL    HW128880   4.913   6.923   2.912
 9327SOL    HW228881   4.897   6.933   2.750
 9328SOL     OW28882   3.302   0.572   5.594
 9328SOL    HW128883   3.250   0.644   5.548
 9328SOL    HW228884   3.393   0.605   5.616
 9329SOL     OW28885   6.648   4.265   2.560
 9329SOL    HW128886   6.578   4.240   2.493
 9329SOL    HW228887   6.665   4.363   2.556
 9330SOL     OW28888   6.909   6.300   6.598
 9330SOL    HW128889   7.004   6.278   6.576
 9330SOL    HW228890   6.887   6.390   6.559
 9331SOL     OW28891   1.425   1.287   6.447
 9331SOL    HW128892   1.519   1.269   6.476
 9331SOL    HW228893   1.413   1.385   6.431
 9332SOL     OW28894   3.866   4.036   1.872
 9332SOL    HW128895   3.933   4.069   1.806
 9332SOL    HW228896   3.838   3.943   1.848
 9333SOL     OW28897   4.290   3.543   1.421
 9333SOL    HW128898   4.207   3.512   1.466
 9333SOL    HW228899   4.268   3.618   1.358
 9334SOL     OW28900   5.002   5.748   3.756
 9334SOL    HW128901   4.964   5.704   3.675
 9334SOL    HW228902   4.985   5.691   3.836
 9335SOL     OW28903   0.814   1.569   6.128
 9335SOL    HW128904   0.805   1.486   6.073
 9335SOL    HW228905   0.900   1.567   6.178
 9336SOL     OW28906   3.033   5.081   5.362
 9336SOL    HW128907   2.940   5.045   5.352
 9336SOL    HW228908   3.098   5.018   5.317
 9337SOL     OW28909   5.481   1.835   3.637
 9337SOL    HW128910   5.541   1.807   3.562
 9337SOL    HW228911   5.388   1.848   3.602
 9338SOL     OW28912   3.875   0.283   1.931
 9338SOL    HW128913   3.874   0.374   1.890
 9338SOL    HW228914   3.869   0.214   1.859
 9339SOL     OW28915   5.661   0.203   1.365
 9339SOL    HW128916   5.661   0.269   1.440
 9339SOL    HW228917   5.598   0.233   1.293
 9340SOL     OW28918   5.631   3.582   4.137
 9340SOL    HW128919   5.655   3.672   4.173
 9340SOL    HW228920   5.534   3.565   4.153
 9341SOL     OW28921   0.289   6.176   0.299
 9341SOL    HW128922   0.383   6.150   0.278
 9341SOL    HW228923   0.230   6.152   0.222
 9342SOL     OW28924   1.809   6.973   3.467
 9342SOL    HW128925   1.722   6.944   3.506
 9342SOL    HW228926   1.810   6.951   3.369
 9343SOL     OW28927   5.879   4.361   2.707
 9343SOL    HW128928   5.785   4.373   2.677
 9343SOL    HW228929   5.885   4.371   2.806
 9344SOL     OW28930   4.571   6.344   1.751
 9344SOL    HW128931   4.559   6.403   1.671
 9344SOL    HW228932   4.669   6.338   1.773
 9345SOL     OW28933   6.591   4.579   2.681
 9345SOL    HW128934   6.563   4.603   2.773
 9345SOL    HW228935   6.512   4.548   2.628
 9346SOL     OW28936   5.949   0.584   1.074
 9346SOL    HW128937   5.898   0.605   1.157
 9346SOL    HW228938   6.024   0.649   1.063
 9347SOL     OW28939   0.901   4.183   0.814
 9347SOL    HW128940   0.945   4.093   0.817
 9347SOL    HW228941   0.894   4.213   0.718
 9348SOL     OW28942   4.053   5.908   1.674
 9348SOL    HW128943   4.001   5.990   1.695
 9348SOL    HW228944   4.137   5.933   1.624
 9349SOL     OW28945   0.991   6.365   2.539
 9349SOL    HW128946   0.939   6.420   2.474
 9349SOL    HW228947   1.004   6.273   2.502
 9350SOL     OW28948   0.127   3.294   5.217
 9350SOL    HW128949   0.154   3.347   5.297
 9350SOL    HW228950   0.165   3.201   5.223
 9351SOL     OW28951   2.880   0.215   6.698
 9351SOL    HW128952   2.826   0.297   6.679
 9351SOL    HW228953   2.824   0.148   6.746
 9352SOL     OW28954   3.349   2.099   6.974
 9352SOL    HW128955   3.346   2.064   6.880
 9352SOL    HW228956   3.334   2.197   6.973
 9353SOL     OW28957   0.488   5.004   0.620
 9353SOL    HW128958   0.540   4.995   0.536
 9353SOL    HW228959   0.519   4.936   0.686
 9354SOL     OW28960   6.518   1.785   6.420
 9354SOL    HW128961   6.557   1.711   6.365
 9354SOL    HW228962   6.550   1.873   6.386
 9355SOL     OW28963   0.480   2.499   4.969
 9355SOL    HW128964   0.428   2.540   5.045
 9355SOL    HW228965   0.575   2.529   4.973
 9356SOL     OW28966   4.528   0.078   1.619
 9356SOL    HW128967   4.569   0.160   1.579
 9356SOL    HW228968   4.588   7.025   1.601
 9357SOL     OW28969   0.784   3.679   6.254
 9357SOL    HW128970   0.821   3.612   6.190
 9357SOL    HW228971   0.689   3.700   6.229
 9358SOL     OW28972   0.067   3.931   2.462
 9358SOL    HW128973   0.065   4.005   2.394
 9358SOL    HW228974   7.007   3.930   2.513
 9359SOL     OW28975   1.593   4.943   0.109
 9359SOL    HW128976   1.606   4.844   0.104
 9359SOL    HW228977   1.538   4.965   0.190
 9360SOL     OW28978   1.864   5.317   6.214
 9360SOL    HW128979   1.857   5.257   6.294
 9360SOL    HW228980   1.778   5.364   6.200
 9361SOL     OW28981   1.573   5.357   3.189
 9361SOL    HW128982   1.484   5.336   3.148
 9361SOL    HW228983   1.645   5.341   3.121
 9362SOL     OW28984   0.939   1.071   2.432
 9362SOL    HW128985   0.871   1.094   2.363
 9362SOL    HW228986   0.930   1.134   2.510
 9363SOL     OW28987   3.974   5.458   1.860
 9363SOL    HW128988   3.923   5.524   1.915
 9363SOL    HW228989   3.910   5.395   1.816
 9364SOL     OW28990   2.245   2.022   0.518
 9364SOL    HW128991   2.211   1.949   0.459
 9364SOL    HW228992   2.259   1.987   0.610
 9365SOL     OW28993   2.801   1.856   3.648
 9365SOL    HW128994   2.830   1.853   3.552
 9365SOL    HW228995   2.725   1.793   3.662
 9366SOL     OW28996   3.338   5.252   0.626
 9366SOL    HW128997   3.369   5.158   0.638
 9366SOL    HW228998   3.415   5.315   0.642
 9367SOL     OW28999   6.287   0.286   1.592
 9367SOL    HW129000   6.285   0.202   1.536
 9367SOL    HW229001   6.221   0.278   1.666
 9368SOL     OW29002   3.636   6.437   2.067
 9368SOL    HW129003   3.719   6.443   2.012
 9368SOL    HW229004   3.559   6.475   2.015
 9369SOL     OW29005   0.247   6.008   4.981
 9369SOL    HW129006   0.274   5.913   4.965
 9369SOL    HW229007   0.292   6.042   5.064
 9370SOL     OW29008   5.136   0.319   3.533
 9370SOL    HW129009   5.149   0.407   3.578
 9370SOL    HW229010   5.216   0.297   3.478
 9371SOL     OW29011   2.577   5.789   1.152
 9371SOL    HW129012   2.595   5.691   1.157
 9371SOL    HW229013   2.576   5.818   1.057
 9372SOL     OW29014   5.010   6.859   1.740
 9372SOL    HW129015   5.105   6.856   1.772
 9372SOL    HW229016   4.956   6.914   1.803
 9373SOL     OW29017   5.537   1.953   0.522
 9373SOL    HW129018   5.550   2.029   0.586
 9373SOL    HW229019   5.460   1.897   0.552
 9374SOL     OW29020   6.494   3.183   5.596
 9374SOL    HW129021   6.457   3.241   5.669
 9374SOL    HW229022   6.470   3.222   5.508
 9375SOL     OW29023   6.926   1.802   1.047
 9375SOL    HW129024   6.890   1.746   1.122
 9375SOL    HW229025   6.853   1.820   0.981
 9376SOL     OW29026   2.172   3.531   1.676
 9376SOL    HW129027   2.166   3.631   1.678
 9376SOL    HW229028   2.237   3.501   1.746
 9377SOL     OW29029   2.283   5.245   3.226
 9377SOL    HW129030   2.218   5.321   3.228
 9377SOL    HW229031   2.363   5.271   3.172
 9378SOL     OW29032   3.097   1.190   3.767
 9378SOL    HW129033   3.062   1.144   3.849
 9378SOL    HW229034   3.184   1.148   3.740
 9379SOL     OW29035   5.402   0.178   4.872
 9379SOL    HW129036   5.478   0.243   4.859
 9379SOL    HW229037   5.371   0.146   4.783
 9380SOL     OW29038   3.442   5.749   5.587
 9380SOL    HW129039   3.502   5.724   5.511
 9380SOL    HW229040   3.385   5.670   5.610
 9381SOL     OW29041   4.977   2.759   4.908
 9381SOL    HW129042   4.982   2.858   4.897
 9381SOL    HW229043   5.062   2.725   4.949
 9382SOL     OW29044   3.930   1.071   3.922
 9382SOL    HW129045   3.878   1.011   3.861
 9382SOL    HW229046   3.998   1.121   3.868
 9383SOL     OW29047   5.101   4.465   4.598
 9383SOL    HW129048   5.008   4.428   4.602
 9383SOL    HW229049   5.129   4.472   4.502
 9384SOL     OW29050   2.970   6.805   2.201
 9384SOL    HW129051   2.891   6.743   2.205
 9384SOL    HW229052   3.052   6.751   2.179
 9385SOL     OW29053   4.388   1.755   4.009
 9385SOL    HW129054   4.483   1.773   4.035
 9385SOL    HW229055   4.330   1.830   4.040
 9386SOL     OW29056   2.719   5.642   5.263
 9386SOL    HW129057   2.635   5.588   5.255
 9386SOL    HW229058   2.701   5.723   5.319
 9387SOL     OW29059   3.732   2.151   0.413
 9387SOL    HW129060   3.782   2.120   0.493
 9387SOL    HW229061   3.713   2.249   0.421
 9388SOL     OW29062   2.129   6.644   3.213
 9388SOL    HW129063   2.036   6.607   3.204
 9388SOL    HW229064   2.180   6.627   3.129
 9389SOL     OW29065   3.275   6.029   2.693
 9389SOL    HW129066   3.310   6.038   2.599
 9389SOL    HW229067   3.350   6.044   2.757
 9390SOL     OW29068   5.758   5.052   5.928
 9390SOL    HW129069   5.807   5.100   5.855
 9390SOL    HW229070   5.682   5.108   5.960
 9391SOL     OW29071   0.887   0.039   4.954
 9391SOL    HW129072   0.920   7.005   4.881
 9391SOL    HW229073   0.844   7.009   5.025
 9392SOL     OW29074   4.715   4.304   4.017
 9392SOL    HW129075   4.718   4.301   3.917
 9392SOL    HW229076   4.757   4.221   4.053
 9393SOL     OW29077   2.635   0.066   6.142
 9393SOL    HW129078   2.634   6.995   6.116
 9393SOL    HW229079   2.670   0.076   6.235
 9394SOL     OW29080   5.818   0.504   1.318
 9394SOL    HW129081   5.811   0.567   1.395
 9394SOL    HW229082   5.854   0.416   1.350
 9395SOL     OW29083   2.560   1.556   0.969
 9395SOL    HW129084   2.543   1.608   1.053
 9395SOL    HW229085   2.475   1.551   0.917
 9396SOL     OW29086   2.120   4.951   5.210
 9396SOL    HW129087   2.165   4.987   5.129
 9396SOL    HW229088   2.157   4.995   5.292
 9397SOL     OW29089   2.932   6.721   5.522
 9397SOL    HW129090   3.021   6.753   5.490
 9397SOL    HW229091   2.916   6.628   5.487
 9398SOL     OW29092   6.103   1.284   5.750
 9398SOL    HW129093   6.120   1.256   5.655
 9398SOL    HW229094   6.187   1.272   5.803
 9399SOL     OW29095   0.995   2.690   4.532
 9399SOL    HW129096   0.994   2.761   4.603
 9399SOL    HW229097   0.934   2.616   4.559
 9400SOL     OW29098   4.972   0.551   0.102
 9400SOL    HW129099   4.944   0.642   0.134
 9400SOL    HW229100   4.895   0.488   0.111
 9401SOL     OW29101   0.093   2.749   1.842
 9401SOL    HW129102   0.019   2.694   1.803
 9401SOL    HW229103   0.071   2.770   1.938
 9402SOL     OW29104   1.931   5.279   3.486
 9402SOL    HW129105   1.872   5.319   3.555
 9402SOL    HW229106   1.875   5.240   3.412
 9403SOL     OW29107   0.361   1.469   2.622
 9403SOL    HW129108   0.453   1.508   2.630
 9403SOL    HW229109   0.337   1.462   2.526
 9404SOL     OW29110   0.346   2.156   1.353
 9404SOL    HW129111   0.273   2.224   1.356
 9404SOL    HW229112   0.327   2.089   1.281
 9405SOL     OW29113   0.903   4.474   4.692
 9405SOL    HW129114   0.891   4.410   4.616
 9405SOL    HW229115   0.833   4.545   4.687
 9406SOL     OW29116   1.004   3.261   6.397
 9406SOL    HW129117   0.952   3.210   6.465
 9406SOL    HW229118   0.992   3.359   6.413
 9407SOL     OW29119   2.826   5.037   4.697
 9407SOL    HW129120   2.822   5.074   4.605
 9407SOL    HW229121   2.738   5.051   4.743
 9408SOL     OW29122   6.874   2.877   5.746
 9408SOL    HW129123   6.874   2.831   5.658
 9408SOL    HW229124   6.930   2.825   5.811
 9409SOL     OW29125   6.501   5.504   2.344
 9409SOL    HW129126   6.564   5.502   2.422
 9409SOL    HW229127   6.471   5.597   2.327
 9410SOL     OW29128   5.041   1.110   1.684
 9410SOL    HW129129   5.045   1.126   1.585
 9410SOL    HW229130   4.962   1.158   1.722
 9411SOL     OW29131   3.118   3.295   2.996
 9411SOL    HW129132   3.108   3.321   2.900
 9411SOL    HW229133   3.141   3.197   3.001
 9412SOL     OW29134   0.941   0.436   1.189
 9412SOL    HW129135   0.925   0.338   1.171
 9412SOL    HW229136   0.933   0.487   1.103
 9413SOL     OW29137   5.011   4.914   4.847
 9413SOL    HW129138   5.019   4.827   4.798
 9413SOL    HW229139   5.087   4.974   4.822
 9414SOL     OW29140   2.457   2.065   4.768
 9414SOL    HW129141   2.535   2.024   4.720
 9414SOL    HW229142   2.412   2.130   4.707
 9415SOL     OW29143   2.851   0.052   1.520
 9415SOL    HW129144   2.801   0.087   1.600
 9415SOL    HW229145   2.949   0.068   1.533
 9416SOL     OW29146   0.430   0.185   5.119
 9416SOL    HW129147   0.418   0.281   5.092
 9416SOL    HW229148   0.450   0.181   5.217
 9417SOL     OW29149   3.376   6.642   1.571
 9417SOL    HW129150   3.431   6.725   1.579
 9417SOL    HW229151   3.283   6.666   1.544
 9418SOL     OW29152   3.055   1.625   3.009
 9418SOL    HW129153   3.138   1.679   3.020
 9418SOL    HW229154   2.991   1.647   3.083
 9419SOL     OW29155   2.406   2.563   6.543
 9419SOL    HW129156   2.339   2.593   6.474
 9419SOL    HW229157   2.406   2.628   6.619
 9420SOL     OW29158   6.038   4.543   0.735
 9420SOL    HW129159   6.018   4.553   0.833
 9420SOL    HW229160   5.997   4.619   0.685
 9421SOL     OW29161   3.220   5.561   4.296
 9421SOL    HW129162   3.142   5.611   4.259
 9421SOL    HW229163   3.188   5.485   4.352
 9422SOL     OW29164   2.484   6.445   3.847
 9422SOL    HW129165   2.532   6.364   3.814
 9422SOL    HW229166   2.523   6.475   3.934
 9423SOL     OW29167   3.921   6.157   2.552
 9423SOL    HW129168   3.947   6.249   2.523
 9423SOL    HW229169   3.823   6.144   2.539
 9424SOL     OW29170   5.213   1.683   4.749
 9424SOL    HW129171   5.224   1.740   4.830
 9424SOL    HW229172   5.295   1.627   4.737
 9425SOL     OW29173   6.052   4.780   1.610
 9425SOL    HW129174   6.145   4.803   1.581
 9425SOL    HW229175   6.006   4.862   1.643
 9426SOL     OW29176   1.482   1.914   6.349
 9426SOL    HW129177   1.386   1.894   6.370
 9426SOL    HW229178   1.513   1.856   6.273
 9427SOL     OW29179   2.268   5.800   3.140
 9427SOL    HW129180   2.220   5.749   3.212
 9427SOL    HW229181   2.209   5.874   3.107
 9428SOL     OW29182   6.401   6.299   0.475
 9428SOL    HW129183   6.387   6.338   0.565
 9428SOL    HW229184   6.435   6.205   0.484
 9429SOL     OW29185   1.510   2.279   4.220
 9429SOL    HW129186   1.536   2.205   4.158
 9429SOL    HW229187   1.556   2.267   4.308
 9430SOL     OW29188   0.166   2.328   4.566
 9430SOL    HW129189   0.082   2.360   4.609
 9430SOL    HW229190   0.244   2.377   4.606
 9431SOL     OW29191   6.867   4.646   0.974
 9431SOL    HW129192   6.786   4.594   1.003
 9431SOL    HW229193   6.935   4.583   0.936
 9432SOL     OW29194   6.716   1.730   4.156
 9432SOL    HW129195   6.621   1.705   4.171
 9432SOL    HW229196   6.741   1.804   4.218
 9433SOL     OW29197   4.280   5.889   2.591
 9433SOL    HW129198   4.368   5.847   2.565
 9433SOL    HW229199   4.217   5.884   2.513
 9434SOL     OW29200   5.581   5.536   3.893
 9434SOL    HW129201   5.539   5.561   3.980
 9434SOL    HW229202   5.628   5.615   3.854
 9435SOL     OW29203   0.258   2.585   2.375
 9435SOL    HW129204   0.306   2.646   2.311
 9435SOL    HW229205   0.214   2.640   2.446
 9436SOL     OW29206   1.082   1.002   2.148
 9436SOL    HW129207   1.077   0.902   2.150
 9436SOL    HW229208   1.009   1.039   2.206
 9437SOL     OW29209   0.683   5.591   3.160
 9437SOL    HW129210   0.700   5.512   3.102
 9437SOL    HW229211   0.768   5.619   3.205
 9438SOL     OW29212   1.532   7.003   1.719
 9438SOL    HW129213   1.589   0.055   1.690
 9438SOL    HW229214   1.443   7.009   1.674
 9439SOL     OW29215   0.673   2.961   0.921
 9439SOL    HW129216   0.762   3.005   0.906
 9439SOL    HW229217   0.602   3.014   0.875
 9440SOL     OW29218   2.656   4.770   3.383
 9440SOL    HW129219   2.629   4.864   3.405
 9440SOL    HW229220   2.628   4.748   3.290
 9441SOL     OW29221   6.845   5.521   5.218
 9441SOL    HW129222   6.866   5.475   5.304
 9441SOL    HW229223   6.783   5.464   5.164
 9442SOL     OW29224   4.684   3.657   1.400
 9442SOL    HW129225   4.598   3.686   1.359
 9442SOL    HW229226   4.741   3.737   1.418
 9443SOL     OW29227   2.827   5.891   1.882
 9443SOL    HW129228   2.753   5.945   1.921
 9443SOL    HW229229   2.790   5.826   1.816
 9444SOL     OW29230   1.822   3.604   0.605
 9444SOL    HW129231   1.872   3.537   0.660
 9444SOL    HW229232   1.887   3.670   0.566
 9445SOL     OW29233   0.275   1.874   3.746
 9445SOL    HW129234   0.322   1.810   3.807
 9445SOL    HW229235   0.263   1.832   3.656
 9446SOL     OW29236   6.275   5.162   4.239
 9446SOL    HW129237   6.180   5.179   4.213
 9446SOL    HW229238   6.291   5.063   4.241
 9447SOL     OW29239   4.769   5.294   2.879
 9447SOL    HW129240   4.792   5.389   2.858
 9447SOL    HW229241   4.851   5.237   2.872
 9448SOL     OW29242   6.118   6.578   5.653
 9448SOL    HW129243   6.156   6.666   5.625
 9448SOL    HW229244   6.036   6.594   5.708
 9449SOL     OW29245   5.376   6.725   6.612
 9449SOL    HW129246   5.429   6.730   6.696
 9449SOL    HW229247   5.377   6.631   6.577
 9450SOL     OW29248   1.835   5.570   4.360
 9450SOL    HW129249   1.811   5.579   4.264
 9450SOL    HW229250   1.935   5.563   4.368
 9451SOL     OW29251   3.593   5.688   6.417
 9451SOL    HW129252   3.533   5.768   6.415
 9451SOL    HW229253   3.580   5.635   6.334
 9452SOL     OW29254   0.478   4.249   1.033
 9452SOL    HW129255   0.517   4.334   1.069
 9452SOL    HW229256   0.521   4.227   0.946
 9453SOL     OW29257   2.890   4.896   3.296
 9453SOL    HW129258   2.850   4.960   3.230
 9453SOL    HW229259   2.817   4.849   3.345
 9454SOL     OW29260   4.496   4.081   1.047
 9454SOL    HW129261   4.412   4.059   1.098
 9454SOL    HW229262   4.567   4.014   1.070
 9455SOL     OW29263   2.586   2.315   2.629
 9455SOL    HW129264   2.533   2.269   2.558
 9455SOL    HW229265   2.587   2.259   2.711
 9456SOL     OW29266   6.370   3.924   2.450
 9456SOL    HW129267   6.317   3.879   2.378
 9456SOL    HW229268   6.406   4.010   2.415
 9457SOL     OW29269   0.845   5.315   4.470
 9457SOL    HW129270   0.879   5.225   4.443
 9457SOL    HW229271   0.867   5.382   4.400
 9458SOL     OW29272   6.887   4.314   0.579
 9458SOL    HW129273   6.822   4.346   0.510
 9458SOL    HW229274   6.943   4.240   0.540
 9459SOL     OW29275   5.234   4.126   4.217
 9459SOL    HW129276   5.151   4.069   4.211
 9459SOL    HW229277   5.265   4.129   4.311
 9460SOL     OW29278   1.738   3.116   4.563
 9460SOL    HW129279   1.799   3.038   4.555
 9460SOL    HW229280   1.773   3.179   4.632
 9461SOL     OW29281   1.198   1.572   1.235
 9461SOL    HW129282   1.110   1.557   1.191
 9461SOL    HW229283   1.248   1.486   1.240
 9462SOL     OW29284   1.499   3.182   3.465
 9462SOL    HW129285   1.573   3.227   3.515
 9462SOL    HW229286   1.428   3.250   3.444
 9463SOL     OW29287   5.013   6.433   1.296
 9463SOL    HW129288   5.059   6.401   1.378
 9463SOL    HW229289   5.049   6.384   1.217
 9464SOL     OW29290   6.484   0.476   1.620
 9464SOL    HW129291   6.410   0.409   1.623
 9464SOL    HW229292   6.529   0.472   1.531
 9465SOL     OW29293   0.435   4.172   1.651
 9465SOL    HW129294   0.427   4.212   1.743
 9465SOL    HW229295   0.356   4.114   1.633
 9466SOL     OW29296   4.396   5.755   6.580
 9466SOL    HW129297   4.361   5.826   6.520
 9466SOL    HW229298   4.494   5.744   6.565
 9467SOL     OW29299   1.761   2.920   0.946
 9467SOL    HW129300   1.724   2.835   0.909
 9467SOL    HW229301   1.857   2.907   0.971
 9468SOL     OW29302   6.464   3.546   6.545
 9468SOL    HW129303   6.419   3.634   6.563
 9468SOL    HW229304   6.397   3.473   6.555
 9469SOL     OW29305   6.658   6.301   0.242
 9469SOL    HW129306   6.646   6.327   0.147
 9469SOL    HW229307   6.752   6.271   0.257
 9470SOL     OW29308   4.726   3.769   0.224
 9470SOL    HW129309   4.708   3.834   0.298
 9470SOL    HW229310   4.736   3.677   0.262
 9471SOL     OW29311   5.990   2.359   5.702
 9471SOL    HW129312   6.069   2.307   5.734
 9471SOL    HW229313   5.907   2.320   5.742
 9472SOL     OW29314   1.410   4.233   6.352
 9472SOL    HW129315   1.389   4.253   6.256
 9472SOL    HW229316   1.456   4.312   6.393
 9473SOL     OW29317   3.271   3.961   6.613
 9473SOL    HW129318   3.224   3.880   6.578
 9473SOL    HW229319   3.362   3.967   6.574
 9474SOL     OW29320   5.997   3.574   1.836
 9474SOL    HW129321   6.078   3.631   1.846
 9474SOL    HW229322   5.937   3.613   1.766
 9475SOL     OW29323   4.392   3.609   6.594
 9475SOL    HW129324   4.423   3.527   6.546
 9475SOL    HW229325   4.327   3.583   6.666
 9476SOL     OW29326   3.891   4.268   5.746
 9476SOL    HW129327   3.821   4.280   5.675
 9476SOL    HW229328   3.854   4.213   5.820
 9477SOL     OW29329   1.662   3.304   0.760
 9477SOL    HW129330   1.637   3.374   0.826
 9477SOL    HW229331   1.739   3.336   0.705
 9478SOL     OW29332   4.247   2.582   1.181
 9478SOL    HW129333   4.215   2.517   1.113
 9478SOL    HW229334   4.312   2.537   1.243
 9479SOL     OW29335   4.012   0.570   1.302
 9479SOL    HW129336   4.084   0.632   1.332
 9479SOL    HW229337   3.934   0.623   1.268
 9480SOL     OW29338   5.751   5.980   7.007
 9480SOL    HW129339   5.798   6.040   0.046
 9480SOL    HW229340   5.660   6.016   6.988
 9481SOL     OW29341   4.854   2.201   3.063
 9481SOL    HW129342   4.757   2.225   3.064
 9481SOL    HW229343   4.905   2.267   3.117
 9482SOL     OW29344   5.868   0.014   1.413
 9482SOL    HW129345   5.801   0.074   1.370
 9482SOL    HW229346   5.821   6.961   1.454
 9483SOL     OW29347   1.344   0.748   6.830
 9483SOL    HW129348   1.247   0.760   6.809
 9483SOL    HW229349   1.377   0.825   6.884
 9484SOL     OW29350   2.820   7.011   4.250
 9484SOL    HW129351   2.874   6.943   4.298
 9484SOL    HW229352   2.737   0.006   4.303
 9485SOL     OW29353   5.878   1.764   1.434
 9485SOL    HW129354   5.825   1.822   1.495
 9485SOL    HW229355   5.824   1.683   1.410
 9486SOL     OW29356   4.859   5.499   0.874
 9486SOL    HW129357   4.807   5.494   0.959
 9486SOL    HW229358   4.934   5.433   0.876
 9487SOL     OW29359   3.200   3.705   4.645
 9487SOL    HW129360   3.246   3.717   4.557
 9487SOL    HW229361   3.114   3.756   4.644
 9488SOL     OW29362   1.799   1.391   1.660
 9488SOL    HW129363   1.866   1.318   1.649
 9488SOL    HW229364   1.709   1.358   1.633
 9489SOL     OW29365   5.474   4.494   1.060
 9489SOL    HW129366   5.403   4.426   1.081
 9489SOL    HW229367   5.528   4.463   0.982
 9490SOL     OW29368   6.414   5.718   3.781
 9490SOL    HW129369   6.367   5.777   3.716
 9490SOL    HW229370   6.513   5.734   3.775
 9491SOL     OW29371   5.481   5.905   4.027
 9491SOL    HW129372   5.493   5.984   3.966
 9491SOL    HW229373   5.568   5.884   4.072
 9492SOL     OW29374   4.708   3.183   5.268
 9492SOL    HW129375   4.736   3.154   5.177
 9492SOL    HW229376   4.757   3.266   5.293
 9493SOL     OW29377   3.242   6.516   4.046
 9493SOL    HW129378   3.321   6.495   4.103
 9493SOL    HW229379   3.162   6.531   4.104
 9494SOL     OW29380   5.549   2.936   2.060
 9494SOL    HW129381   5.642   2.899   2.065
 9494SOL    HW229382   5.500   2.912   2.143
 9495SOL     OW29383   6.672   1.233   2.343
 9495SOL    HW129384   6.679   1.212   2.245
 9495SOL    HW229385   6.683   1.148   2.395
 9496SOL     OW29386   4.886   2.039   2.162
 9496SOL    HW129387   4.907   2.109   2.230
 9496SOL    HW229388   4.788   2.042   2.140
 9497SOL     OW29389   5.507   5.837   5.467
 9497SOL    HW129390   5.467   5.883   5.388
 9497SOL    HW229391   5.606   5.835   5.459
 9498SOL     OW29392   0.172   4.834   4.657
 9498SOL    HW129393   0.205   4.757   4.712
 9498SOL    HW229394   0.129   4.799   4.574
 9499SOL     OW29395   0.050   5.256   5.116
 9499SOL    HW129396   6.988   5.262   5.164
 9499SOL    HW229397   0.039   5.287   5.022
 9500SOL     OW29398   4.000   6.607   1.045
 9500SOL    HW129399   3.929   6.599   1.115
 9500SOL    HW229400   4.089   6.625   1.089
 9501SOL     OW29401   1.690   1.654   4.514
 9501SOL    HW129402   1.651   1.718   4.446
 9501SOL    HW229403   1.615   1.603   4.557
 9502SOL     OW29404   5.506   4.100   4.762
 9502SOL    HW129405   5.485   4.150   4.678
 9502SOL    HW229406   5.541   4.009   4.740
 9503SOL     OW29407   0.755   2.254   0.691
 9503SOL    HW129408   0.766   2.352   0.710
 9503SOL    HW229409   0.774   2.237   0.594
 9504SOL     OW29410   6.785   3.641   1.923
 9504SOL    HW129411   6.757   3.716   1.862
 9504SOL    HW229412   6.872   3.604   1.891
 9505SOL     OW29413   4.926   5.210   5.716
 9505SOL    HW129414   4.970   5.129   5.754
 9505SOL    HW229415   4.835   5.185   5.683
 9506SOL     OW29416   2.319   2.423   0.293
 9506SOL    HW129417   2.387   2.468   0.235
 9506SOL    HW229418   2.364   2.382   0.372
 9507SOL     OW29419   6.394   0.363   0.603
 9507SOL    HW129420   6.397   0.410   0.514
 9507SOL    HW229421   6.449   0.414   0.669
 9508SOL     OW29422   5.587   1.849   2.418
 9508SOL    HW129423   5.598   1.937   2.372
 9508SOL    HW229424   5.489   1.827   2.424
 9509SOL     OW29425   6.573   0.343   3.327
 9509SOL    HW129426   6.476   0.355   3.307
 9509SOL    HW229427   6.584   0.310   3.421
 9510SOL     OW29428   0.795   3.760   3.338
 9510SOL    HW129429   0.793   3.751   3.238
 9510SOL    HW229430   0.849   3.686   3.377
 9511SOL     OW29431   0.951   1.117   1.626
 9511SOL    HW129432   0.968   1.081   1.718
 9511SOL    HW229433   0.856   1.100   1.601
 9512SOL     OW29434   6.852   2.647   1.002
 9512SOL    HW129435   6.882   2.558   0.968
 9512SOL    HW229436   6.824   2.638   1.097
 9513SOL     OW29437   3.367   4.979   5.923
 9513SOL    HW129438   3.315   5.045   5.869
 9513SOL    HW229439   3.439   5.026   5.975
 9514SOL     OW29440   2.836   3.239   6.634
 9514SOL    HW129441   2.888   3.164   6.676
 9514SOL    HW229442   2.896   3.317   6.620
 9515SOL     OW29443   2.654   5.033   3.475
 9515SOL    HW129444   2.593   5.015   3.552
 9515SOL    HW229445   2.748   5.038   3.508
 9516SOL     OW29446   5.882   4.772   0.666
 9516SOL    HW129447   5.855   4.862   0.630
 9516SOL    HW229448   5.804   4.731   0.714
 9517SOL     OW29449   1.079   4.366   1.527
 9517SOL    HW129450   1.080   4.304   1.605
 9517SOL    HW229451   1.172   4.398   1.508
 9518SOL     OW29452   2.808   1.259   0.419
 9518SOL    HW129453   2.890   1.283   0.367
 9518SOL    HW229454   2.758   1.342   0.443
 9519SOL     OW29455   1.244   2.056   6.015
 9519SOL    HW129456   1.172   2.080   6.080
 9519SOL    HW229457   1.204   2.034   5.926
 9520SOL     OW29458   2.896   0.466   2.455
 9520SOL    HW129459   2.873   0.371   2.434
 9520SOL    HW229460   2.991   0.484   2.427
 9521SOL     OW29461   5.569   5.984   3.519
 9521SOL    HW129462   5.473   5.984   3.548
 9521SOL    HW229463   5.605   6.077   3.525
 9522SOL     OW29464   3.477   5.846   1.089
 9522SOL    HW129465   3.576   5.850   1.095
 9522SOL    HW229466   3.445   5.907   1.017
 9523SOL     OW29467   3.303   5.656   3.954
 9523SOL    HW129468   3.326   5.726   4.022
 9523SOL    HW229469   3.211   5.621   3.972
 9524SOL     OW29470   3.801   2.609   1.478
 9524SOL    HW129471   3.722   2.550   1.497
 9524SOL    HW229472   3.825   2.602   1.381
 9525SOL     OW29473   2.379   1.169   6.140
 9525SOL    HW129474   2.304   1.211   6.088
 9525SOL    HW229475   2.388   1.214   6.229
 9526SOL     OW29476   5.554   5.798   3.304
 9526SOL    HW129477   5.632   5.777   3.245
 9526SOL    HW229478   5.580   5.869   3.369
 9527SOL     OW29479   0.775   0.908   1.883
 9527SOL    HW129480   0.696   0.961   1.914
 9527SOL    HW229481   0.752   0.811   1.886
 9528SOL     OW29482   6.583   0.149   0.779
 9528SOL    HW129483   6.555   0.187   0.691
 9528SOL    HW229484   6.569   0.218   0.850
 9529SOL     OW29485   1.216   3.286   6.168
 9529SOL    HW129486   1.166   3.248   6.245
 9529SOL    HW229487   1.310   3.306   6.195
 9530SOL     OW29488   1.570   2.893   3.027
 9530SOL    HW129489   1.663   2.859   3.043
 9530SOL    HW229490   1.567   2.990   3.051
 9531SOL     OW29491   4.244   6.062   2.797
 9531SOL    HW129492   4.239   6.011   2.711
 9531SOL    HW229493   4.154   6.060   2.842
 9532SOL     OW29494   1.645   6.069   1.312
 9532SOL    HW129495   1.662   6.002   1.239
 9532SOL    HW229496   1.566   6.126   1.287
 9533SOL     OW29497   0.258   1.408   5.482
 9533SOL    HW129498   0.324   1.481   5.501
 9533SOL    HW229499   0.165   1.443   5.496
 9534SOL     OW29500   5.430   2.351   5.287
 9534SOL    HW129501   5.503   2.339   5.219
 9534SOL    HW229502   5.461   2.315   5.375
 9535SOL     OW29503   2.898   0.672   5.484
 9535SOL    HW129504   2.885   0.585   5.531
 9535SOL    HW229505   2.846   0.672   5.399
 9536SOL     OW29506   2.134   6.017   5.326
 9536SOL    HW129507   2.196   6.072   5.271
 9536SOL    HW229508   2.040   6.034   5.297
 9537SOL     OW29509   3.477   0.260   2.576
 9537SOL    HW129510   3.413   0.199   2.531
 9537SOL    HW229511   3.544   0.293   2.510
 9538SOL     OW29512   6.649   1.952   4.595
 9538SOL    HW129513   6.642   1.854   4.609
 9538SOL    HW229514   6.565   1.997   4.626
 9539SOL     OW29515   2.284   4.824   6.215
 9539SOL    HW129516   2.263   4.888   6.141
 9539SOL    HW229517   2.378   4.838   6.246
 9540SOL     OW29518   4.800   4.809   5.392
 9540SOL    HW129519   4.737   4.837   5.320
 9540SOL    HW229520   4.753   4.815   5.481
 9541SOL     OW29521   1.588   2.420   5.014
 9541SOL    HW129522   1.580   2.337   4.960
 9541SOL    HW229523   1.561   2.499   4.959
 9542SOL     OW29524   5.015   3.491   4.943
 9542SOL    HW129525   5.026   3.415   5.008
 9542SOL    HW229526   4.941   3.550   4.975
 9543SOL     OW29527   4.674   0.713   4.206
 9543SOL    HW129528   4.664   0.806   4.243
 9543SOL    HW229529   4.708   0.652   4.278
 9544SOL     OW29530   5.767   6.978   2.235
 9544SOL    HW129531   5.747   6.946   2.142
 9544SOL    HW229532   5.784   0.051   2.233
 9545SOL     OW29533   6.748   6.716   3.165
 9545SOL    HW129534   6.663   6.761   3.138
 9545SOL    HW229535   6.750   6.623   3.129
 9546SOL     OW29536   2.931   3.844   6.795
 9546SOL    HW129537   2.898   3.870   6.704
 9546SOL    HW229538   3.023   3.806   6.789
 9547SOL     OW29539   1.944   6.365   4.263
 9547SOL    HW129540   1.985   6.273   4.270
 9547SOL    HW229541   2.001   6.430   4.313
 9548SOL     OW29542   6.142   5.556   4.546
 9548SOL    HW129543   6.197   5.639   4.545
 9548SOL    HW229544   6.186   5.486   4.490
 9549SOL     OW29545   3.846   5.282   0.788
 9549SOL    HW129546   3.904   5.258   0.711
 9549SOL    HW229547   3.898   5.336   0.854
 9550SOL     OW29548   0.595   1.516   0.139
 9550SOL    HW129549   0.577   1.612   0.162
 9550SOL    HW229550   0.672   1.511   0.076
 9551SOL     OW29551   0.175   0.123   4.905
 9551SOL    HW129552   0.111   0.064   4.856
 9551SOL    HW229553   0.249   0.151   4.844
 9552SOL     OW29554   1.100   0.076   3.373
 9552SOL    HW129555   1.029   0.145   3.388
 9552SOL    HW229556   1.098   0.010   3.448
 9553SOL     OW29557   6.410   4.559   6.951
 9553SOL    HW129558   6.312   4.559   6.934
 9553SOL    HW229559   6.439   4.468   6.981
 9554SOL     OW29560   2.501   0.841   1.939
 9554SOL    HW129561   2.442   0.778   1.888
 9554SOL    HW229562   2.594   0.836   1.904
 9555SOL     OW29563   6.642   2.158   1.384
 9555SOL    HW129564   6.594   2.244   1.366
 9555SOL    HW229565   6.614   2.090   1.317
 9556SOL     OW29566   2.588   0.985   1.251
 9556SOL    HW129567   2.587   1.085   1.248
 9556SOL    HW229568   2.497   0.950   1.230
 9557SOL     OW29569   6.194   0.623   2.779
 9557SOL    HW129570   6.157   0.550   2.722
 9557SOL    HW229571   6.276   0.661   2.737
 9558SOL     OW29572   6.847   4.840   3.163
 9558SOL    HW129573   6.901   4.910   3.115
 9558SOL    HW229574   6.759   4.879   3.189
 9559SOL     OW29575   0.428   3.470   1.604
 9559SOL    HW129576   0.497   3.542   1.611
 9559SOL    HW229577   0.454   3.393   1.662
 9560SOL     OW29578   2.288   1.463   3.413
 9560SOL    HW129579   2.286   1.545   3.469
 9560SOL    HW229580   2.338   1.391   3.460
 9561SOL     OW29581   3.403   6.465   0.997
 9561SOL    HW129582   3.422   6.546   0.941
 9561SOL    HW229583   3.339   6.489   1.069
 9562SOL     OW29584   4.385   5.802   3.421
 9562SOL    HW129585   4.318   5.868   3.387
 9562SOL    HW229586   4.367   5.713   3.379
 9563SOL     OW29587   0.055   6.443   6.237
 9563SOL    HW129588   0.012   6.532   6.249
 9563SOL    HW229589   0.017   6.397   6.157
 9564SOL     OW29590   2.791   6.416   6.523
 9564SOL    HW129591   2.855   6.479   6.478
 9564SOL    HW229592   2.824   6.395   6.615
 9565SOL     OW29593   3.828   5.968   4.542
 9565SOL    HW129594   3.831   5.885   4.486
 9565SOL    HW229595   3.915   5.981   4.589
 9566SOL     OW29596   3.257   4.586   6.129
 9566SOL    HW129597   3.281   4.625   6.040
 9566SOL    HW229598   3.310   4.502   6.144
 9567SOL     OW29599   5.918   5.953   6.484
 9567SOL    HW129600   5.857   5.898   6.541
 9567SOL    HW229601   5.865   6.008   6.421
 9568SOL     OW29602   5.490   3.869   6.511
 9568SOL    HW129603   5.472   3.775   6.481
 9568SOL    HW229604   5.536   3.919   6.438
 9569SOL     OW29605   6.464   1.593   0.414
 9569SOL    HW129606   6.547   1.593   0.359
 9569SOL    HW229607   6.427   1.685   0.419
 9570SOL     OW29608   0.028   1.395   0.678
 9570SOL    HW129609   0.065   1.473   0.728
 9570SOL    HW229610   0.019   1.317   0.739
 9571SOL     OW29611   2.228   3.850   0.474
 9571SOL    HW129612   2.231   3.937   0.425
 9571SOL    HW229613   2.282   3.857   0.558
 9572SOL     OW29614   0.925   4.557   0.802
 9572SOL    HW129615   0.961   4.626   0.865
 9572SOL    HW229616   0.994   4.487   0.785
 9573SOL     OW29617   1.377   1.363   0.095
 9573SOL    HW129618   1.465   1.363   0.143
 9573SOL    HW229619   1.394   1.379   7.023
 9574SOL     OW29620   3.697   3.592   5.615
 9574SOL    HW129621   3.673   3.524   5.546
 9574SOL    HW229622   3.775   3.647   5.582
 9575SOL     OW29623   5.542   0.609   1.897
 9575SOL    HW129624   5.553   0.633   1.993
 9575SOL    HW229625   5.481   0.675   1.853
 9576SOL     OW29626   3.073   1.581   4.309
 9576SOL    HW129627   3.147   1.643   4.338
 9576SOL    HW229628   3.107   1.487   4.310
 9577SOL     OW29629   0.109   6.833   2.417
 9577SOL    HW129630   0.028   6.874   2.458
 9577SOL    HW229631   0.187   6.843   2.479
 9578SOL     OW29632   6.702   2.842   2.689
 9578SOL    HW129633   6.751   2.863   2.774
 9578SOL    HW229634   6.697   2.925   2.632
 9579SOL     OW29635   1.556   6.787   1.398
 9579SOL    HW129636   1.550   6.882   1.369
 9579SOL    HW229637   1.633   6.743   1.353
 9580SOL     OW29638   4.810   3.504   0.416
 9580SOL    HW129639   4.805   3.415   0.460
 9580SOL    HW229640   4.725   3.554   0.434
 9581SOL     OW29641   1.328   4.830   5.988
 9581SOL    HW129642   1.302   4.911   5.936
 9581SOL    HW229643   1.272   4.823   6.070
 9582SOL     OW29644   4.212   4.991   4.224
 9582SOL    HW129645   4.205   4.977   4.125
 9582SOL    HW229646   4.254   4.911   4.267
 9583SOL     OW29647   2.144   3.673   2.185
 9583SOL    HW129648   2.054   3.686   2.143
 9583SOL    HW229649   2.201   3.617   2.124
 9584SOL     OW29650   6.195   5.097   6.405
 9584SOL    HW129651   6.126   5.026   6.392
 9584SOL    HW229652   6.195   5.128   6.500
 9585SOL     OW29653   6.035   0.091   2.952
 9585SOL    HW129654   6.041   0.189   2.938
 9585SOL    HW229655   6.023   0.072   3.050
 9586SOL     OW29656   4.996   3.156   2.945
 9586SOL    HW129657   4.979   3.222   2.872
 9586SOL    HW229658   5.094   3.132   2.947
 9587SOL     OW29659   5.927   0.166   2.012
 9587SOL    HW129660   5.968   0.075   2.020
 9587SOL    HW229661   5.849   0.162   1.950
 9588SOL     OW29662   6.892   0.673   1.574
 9588SOL    HW129663   6.876   0.670   1.475
 9588SOL    HW229664   6.968   0.737   1.593
 9589SOL     OW29665   2.337   0.181   5.838
 9589SOL    HW129666   2.425   0.221   5.864
 9589SOL    HW229667   2.343   0.142   5.747
 9590SOL     OW29668   0.071   4.422   3.139
 9590SOL    HW129669   0.119   4.487   3.198
 9590SOL    HW229670   0.120   4.414   3.052
 9591SOL     OW29671   2.576   5.856   0.863
 9591SOL    HW129672   2.648   5.856   0.794
 9591SOL    HW229673   2.557   5.950   0.892
 9592SOL     OW29674   4.494   5.354   2.611
 9592SOL    HW129675   4.538   5.443   2.623
 9592SOL    HW229676   4.531   5.289   2.677
 9593SOL     OW29677   6.241   2.751   4.404
 9593SOL    HW129678   6.232   2.715   4.497
 9593SOL    HW229679   6.226   2.677   4.338
 9594SOL     OW29680   6.663   6.711   2.525
 9594SOL    HW129681   6.579   6.762   2.537
 9594SOL    HW229682   6.644   6.627   2.474
 9595SOL     OW29683   1.990   6.010   4.503
 9595SOL    HW129684   1.965   6.035   4.410
 9595SOL    HW229685   2.078   5.963   4.504
 9596SOL     OW29686   6.371   5.861   5.309
 9596SOL    HW129687   6.312   5.876   5.388
 9596SOL    HW229688   6.449   5.924   5.314
 9597SOL     OW29689   1.110   4.222   1.745
 9597SOL    HW129690   1.138   4.311   1.781
 9597SOL    HW229691   1.115   4.153   1.817
 9598SOL     OW29692   0.152   4.465   6.435
 9598SOL    HW129693   0.074   4.525   6.450
 9598SOL    HW229694   0.236   4.519   6.429
 9599SOL     OW29695   3.758   0.486   5.626
 9599SOL    HW129696   3.721   0.418   5.561
 9599SOL    HW229697   3.803   0.559   5.575
 9600SOL     OW29698   1.374   6.801   5.764
 9600SOL    HW129699   1.317   6.836   5.839
 9600SOL    HW229700   1.340   6.711   5.737
 9601SOL     OW29701   0.614   4.748   5.254
 9601SOL    HW129702   0.529   4.785   5.216
 9601SOL    HW229703   0.669   4.823   5.293
 9602SOL     OW29704   0.811   5.106   6.733
 9602SOL    HW129705   0.817   5.185   6.673
 9602SOL    HW229706   0.848   5.129   6.823
 9603SOL     OW29707   1.770   6.377   4.583
 9603SOL    HW129708   1.728   6.442   4.646
 9603SOL    HW229709   1.786   6.422   4.494
 9604SOL     OW29710   4.916   1.600   6.603
 9604SOL    HW129711   4.949   1.647   6.685
 9604SOL    HW229712   4.840   1.540   6.628
 9605SOL     OW29713   2.576   5.792   6.424
 9605SOL    HW129714   2.505   5.743   6.476
 9605SOL    HW229715   2.536   5.828   6.340
 9606SOL     OW29716   0.463   6.132   3.618
 9606SOL    HW129717   0.428   6.058   3.560
 9606SOL    HW229718   0.530   6.186   3.567
 9607SOL     OW29719   1.104   1.642   2.281
 9607SOL    HW129720   1.188   1.694   2.264
 9607SOL    HW229721   1.128   1.547   2.301
 9608SOL     OW29722   0.291   0.180   2.663
 9608SOL    HW129723   0.214   0.230   2.625
 9608SOL    HW229724   0.295   0.194   2.762
 9609SOL     OW29725   2.046   4.395   4.678
 9609SOL    HW129726   1.969   4.396   4.742
 9609SOL    HW229727   2.105   4.316   4.698
 9610SOL     OW29728   2.352   1.887   6.271
 9610SOL    HW129729   2.269   1.838   6.244
 9610SOL    HW229730   2.402   1.917   6.190
 9611SOL     OW29731   6.449   0.524   0.831
 9611SOL    HW129732   6.497   0.597   0.879
 9611SOL    HW229733   6.396   0.470   0.897
 9612SOL     OW29734   5.918   3.075   1.374
 9612SOL    HW129735   5.954   3.162   1.408
 9612SOL    HW229736   5.836   3.051   1.426
 9613SOL     OW29737   6.395   6.289   4.938
 9613SOL    HW129738   6.494   6.290   4.953
 9613SOL    HW229739   6.350   6.243   5.015
 9614SOL     OW29740   3.489   3.846   2.165
 9614SOL    HW129741   3.536   3.792   2.096
 9614SOL    HW229742   3.411   3.795   2.200
 9615SOL     OW29743   1.377   6.201   2.501
 9615SOL    HW129744   1.294   6.159   2.536
 9615SOL    HW229745   1.440   6.130   2.470
 9616SOL     OW29746   3.525   2.277   0.791
 9616SOL    HW129747   3.593   2.204   0.801
 9616SOL    HW229748   3.466   2.256   0.712
 9617SOL     OW29749   1.131   3.184   3.815
 9617SOL    HW129750   1.146   3.155   3.910
 9617SOL    HW229751   1.064   3.123   3.772
 9618SOL     OW29752   3.552   6.261   6.463
 9618SOL    HW129753   3.512   6.189   6.406
 9618SOL    HW229754   3.507   6.348   6.444
 9619SOL     OW29755   2.505   5.841   0.530
 9619SOL    HW129756   2.570   5.897   0.582
 9619SOL    HW229757   2.413   5.880   0.539
 9620SOL     OW29758   3.238   0.941   0.143
 9620SOL    HW129759   3.224   1.039   0.124
 9620SOL    HW229760   3.232   0.890   0.057
 9621SOL     OW29761   0.352   1.026   2.564
 9621SOL    HW129762   0.397   1.038   2.475
 9621SOL    HW229763   0.380   1.100   2.625
 9622SOL     OW29764   5.686   0.063   6.448
 9622SOL    HW129765   5.749   0.022   6.514
 9622SOL    HW229766   5.612   7.024   6.427
 9623SOL     OW29767   4.760   6.110   6.403
 9623SOL    HW129768   4.732   6.203   6.382
 9623SOL    HW229769   4.691   6.046   6.370
 9624SOL     OW29770   4.658   5.920   4.775
 9624SOL    HW129771   4.655   5.996   4.711
 9624SOL    HW229772   4.586   5.931   4.844
 9625SOL     OW29773   5.281   4.233   6.602
 9625SOL    HW129774   5.313   4.240   6.696
 9625SOL    HW229775   5.255   4.324   6.568
 9626SOL     OW29776   1.937   4.474   5.851
 9626SOL    HW129777   2.037   4.468   5.845
 9626SOL    HW229778   1.896   4.391   5.814
 9627SOL     OW29779   1.105   5.002   6.498
 9627SOL    HW129780   1.041   4.965   6.565
 9627SOL    HW229781   1.199   4.983   6.528
 9628SOL     OW29782   5.620   3.889   6.824
 9628SOL    HW129783   5.568   3.889   6.739
 9628SOL    HW229784   5.627   3.796   6.859
 9629SOL     OW29785   0.088   5.902   2.699
 9629SOL    HW129786   7.024   5.942   2.684
 9629SOL    HW229787   0.135   5.951   2.772
 9630SOL     OW29788   6.288   6.395   5.850
 9630SOL    HW129789   6.254   6.332   5.780
 9630SOL    HW229790   6.314   6.482   5.807
 9631SOL     OW29791   4.404   1.254   0.971
 9631SOL    HW129792   4.354   1.241   0.885
 9631SOL    HW229793   4.340   1.286   1.041
 9632SOL     OW29794   3.201   6.113   1.003
 9632SOL    HW129795   3.132   6.045   0.978
 9632SOL    HW229796   3.159   6.204   1.002
 9633SOL     OW29797   3.903   3.065   2.384
 9633SOL    HW129798   3.897   3.023   2.293
 9633SOL    HW229799   3.988   3.117   2.391
 9634SOL     OW29800   5.314   5.009   2.734
 9634SOL    HW129801   5.407   4.975   2.721
 9634SOL    HW229802   5.316   5.108   2.747
 9635SOL     OW29803   1.540   4.127   4.279
 9635SOL    HW129804   1.525   4.100   4.183
 9635SOL    HW229805   1.576   4.049   4.330
 9636SOL     OW29806   4.270   2.286   4.924
 9636SOL    HW129807   4.322   2.212   4.967
 9636SOL    HW229808   4.271   2.367   4.982
 9637SOL     OW29809   2.253   2.990   0.887
 9637SOL    HW129810   2.288   2.955   0.800
 9637SOL    HW229811   2.311   2.960   0.962
 9638SOL     OW29812   0.380   4.510   6.102
 9638SOL    HW129813   0.377   4.433   6.038
 9638SOL    HW229814   0.292   4.558   6.101
 9639SOL     OW29815   4.695   1.936   1.811
 9639SOL    HW129816   4.787   1.958   1.777
 9639SOL    HW229817   4.667   1.846   1.777
 9640SOL     OW29818   3.889   0.867   2.324
 9640SOL    HW129819   3.989   0.877   2.319
 9640SOL    HW229820   3.856   0.818   2.244
 9641SOL     OW29821   5.535   4.900   2.634
 9641SOL    HW129822   5.627   4.885   2.597
 9641SOL    HW229823   5.473   4.831   2.599
 9642SOL     OW29824   1.469   0.447   3.807
 9642SOL    HW129825   1.376   0.463   3.774
 9642SOL    HW229826   1.502   0.527   3.857
 9643SOL     OW29827   5.271   3.780   4.072
 9643SOL    HW129828   5.231   3.786   4.163
 9643SOL    HW229829   5.200   3.799   4.003
 9644SOL     OW29830   1.247   5.963   5.201
 9644SOL    HW129831   1.272   5.892   5.266
 9644SOL    HW229832   1.216   5.921   5.116
 9645SOL     OW29833   1.405   5.304   6.353
 9645SOL    HW129834   1.310   5.279   6.333
 9645SOL    HW229835   1.445   5.235   6.414
 9646SOL     OW29836   2.956   6.729   4.814
 9646SOL    HW129837   2.940   6.687   4.903
 9646SOL    HW229838   2.896   6.688   4.746
 9647SOL     OW29839   6.466   6.235   3.409
 9647SOL    HW129840   6.389   6.191   3.455
 9647SOL    HW229841   6.437   6.324   3.374
 9648SOL     OW29842   5.079   2.193   1.406
 9648SOL    HW129843   5.098   2.283   1.366
 9648SOL    HW229844   5.055   2.128   1.334
 9649SOL     OW29845   2.260   3.540   0.568
 9649SOL    HW129846   2.176   3.546   0.622
 9649SOL    HW229847   2.238   3.517   0.474
 9650SOL     OW29848   6.536   4.816   4.141
 9650SOL    HW129849   6.521   4.810   4.042
 9650SOL    HW229850   6.457   4.861   4.184
 9651SOL     OW29851   2.508   1.536   0.032
 9651SOL    HW129852   2.430   1.492   7.012
 9651SOL    HW229853   2.555   1.469   0.089
 9652SOL     OW29854   0.127   3.761   1.104
 9652SOL    HW129855   0.177   3.756   1.190
 9652SOL    HW229856   0.189   3.740   1.029
 9653SOL     OW29857   4.588   4.225   5.994
 9653SOL    HW129858   4.594   4.185   6.086
 9653SOL    HW229859   4.565   4.153   5.928
 9654SOL     OW29860   3.794   3.077   3.732
 9654SOL    HW129861   3.815   3.033   3.819
 9654SOL    HW229862   3.877   3.087   3.678
 9655SOL     OW29863   5.791   0.618   1.738
 9655SOL    HW129864   5.708   0.585   1.783
 9655SOL    HW229865   5.870   0.573   1.779
 9656SOL     OW29866   5.888   3.679   0.740
 9656SOL    HW129867   5.903   3.697   0.643
 9656SOL    HW229868   5.974   3.649   0.782
 9657SOL     OW29869   5.848   3.842   3.154
 9657SOL    HW129870   5.838   3.803   3.063
 9657SOL    HW229871   5.777   3.805   3.214
 9658SOL     OW29872   4.245   1.474   2.632
 9658SOL    HW129873   4.194   1.408   2.687
 9658SOL    HW229874   4.187   1.508   2.558
 9659SOL     OW29875   3.509   2.522   0.889
 9659SOL    HW129876   3.506   2.427   0.856
 9659SOL    HW229877   3.449   2.578   0.832
 9660SOL     OW29878   0.574   5.982   0.569
 9660SOL    HW129879   0.566   5.924   0.488
 9660SOL    HW229880   0.501   5.959   0.633
 9661SOL     OW29881   5.175   4.971   1.535
 9661SOL    HW129882   5.240   5.034   1.493
 9661SOL    HW229883   5.194   4.878   1.504
 9662SOL     OW29884   5.450   4.886   6.983
 9662SOL    HW129885   5.505   4.882   6.900
 9662SOL    HW229886   5.498   4.939   0.027
 9663SOL     OW29887   1.216   4.118   4.077
 9663SOL    HW129888   1.244   4.185   4.146
 9663SOL    HW229889   1.176   4.165   3.999
 9664SOL     OW29890   5.262   3.780   3.513
 9664SOL    HW129891   5.321   3.813   3.440
 9664SOL    HW229892   5.187   3.845   3.528
 9665SOL     OW29893   6.521   6.928   6.280
 9665SOL    HW129894   6.593   6.996   6.291
 9665SOL    HW229895   6.472   6.915   6.367
 9666SOL     OW29896   6.406   4.479   1.313
 9666SOL    HW129897   6.328   4.434   1.269
 9666SOL    HW229898   6.489   4.426   1.299
 9667SOL     OW29899   4.292   5.628   0.646
 9667SOL    HW129900   4.386   5.649   0.622
 9667SOL    HW229901   4.254   5.702   0.701
 9668SOL     OW29902   1.259   6.494   5.745
 9668SOL    HW129903   1.351   6.498   5.785
 9668SOL    HW229904   1.265   6.460   5.652
 9669SOL     OW29905   2.507   6.945   1.254
 9669SOL    HW129906   2.533   0.004   1.299
 9669SOL    HW229907   2.580   6.916   1.192
 9670SOL     OW29908   0.367   0.212   5.983
 9670SOL    HW129909   0.457   0.179   6.011
 9670SOL    HW229910   0.323   0.145   5.925
 9671SOL     OW29911   1.247   4.804   6.787
 9671SOL    HW129912   1.236   4.852   6.874
 9671SOL    HW229913   1.175   4.832   6.724
 9672SOL     OW29914   0.417   4.569   3.733
 9672SOL    HW129915   0.392   4.533   3.642
 9672SOL    HW229916   0.362   4.522   3.803
 9673SOL     OW29917   3.351   4.264   1.584
 9673SOL    HW129918   3.443   4.301   1.596
 9673SOL    HW229919   3.356   4.179   1.533
 9674SOL     OW29920   3.682   6.443   2.789
 9674SOL    HW129921   3.753   6.497   2.834
 9674SOL    HW229922   3.627   6.397   2.858
 9675SOL     OW29923   4.660   3.997   0.736
 9675SOL    HW129924   4.732   3.929   0.746
 9675SOL    HW229925   4.571   3.951   0.730
 9676SOL     OW29926   1.119   2.785   6.268
 9676SOL    HW129927   1.063   2.717   6.221
 9676SOL    HW229928   1.159   2.848   6.201
 9677SOL     OW29929   6.032   5.100   0.421
 9677SOL    HW129930   6.091   5.168   0.378
 9677SOL    HW229931   6.087   5.033   0.470
 9678SOL     OW29932   3.357   3.921   4.805
 9678SOL    HW129933   3.350   3.823   4.787
 9678SOL    HW229934   3.298   3.945   4.882
 9679SOL     OW29935   2.679   1.709   4.550
 9679SOL    HW129936   2.607   1.724   4.618
 9679SOL    HW229937   2.650   1.640   4.484
 9680SOL     OW29938   4.516   6.316   4.129
 9680SOL    HW129939   4.502   6.216   4.131
 9680SOL    HW229940   4.464   6.355   4.053
 9681SOL     OW29941   2.345   0.878   1.234
 9681SOL    HW129942   2.389   0.828   1.160
 9681SOL    HW229943   2.258   0.916   1.202
 9682SOL     OW29944   5.369   5.265   4.416
 9682SOL    HW129945   5.406   5.318   4.340
 9682SOL    HW229946   5.322   5.184   4.381
 9683SOL     OW29947   1.657   6.528   0.815
 9683SOL    HW129948   1.661   6.430   0.794
 9683SOL    HW229949   1.719   6.577   0.754
 9684SOL     OW29950   1.668   4.167   5.190
 9684SOL    HW129951   1.760   4.168   5.229
 9684SOL    HW229952   1.614   4.096   5.234
 9685SOL     OW29953   4.595   3.651   0.951
 9685SOL    HW129954   4.503   3.679   0.980
 9685SOL    HW229955   4.588   3.600   0.865
 9686SOL     OW29956   6.769   2.215   6.910
 9686SOL    HW129957   6.734   2.303   6.879
 9686SOL    HW229958   6.707   2.176   6.978
 9687SOL     OW29959   6.382   6.743   1.344
 9687SOL    HW129960   6.336   6.753   1.256
 9687SOL    HW229961   6.475   6.709   1.329
 9688SOL     OW29962   1.475   4.723   1.303
 9688SOL    HW129963   1.464   4.667   1.386
 9688SOL    HW229964   1.498   4.665   1.226
 9689SOL     OW29965   1.583   5.923   6.664
 9689SOL    HW129966   1.555   5.988   6.593
 9689SOL    HW229967   1.680   5.902   6.652
 9690SOL     OW29968   4.715   5.479   4.727
 9690SOL    HW129969   4.753   5.393   4.692
 9690SOL    HW229970   4.671   5.462   4.815
 9691SOL     OW29971   3.302   4.111   2.126
 9691SOL    HW129972   3.266   4.152   2.041
 9691SOL    HW229973   3.227   4.099   2.191
 9692SOL     OW29974   4.413   5.259   6.996
 9692SOL    HW129975   4.432   5.164   6.970
 9692SOL    HW229976   4.371   5.260   0.062
 9693SOL     OW29977   6.021   3.616   4.175
 9693SOL    HW129978   5.999   3.692   4.235
 9693SOL    HW229979   5.966   3.536   4.200
 9694SOL     OW29980   2.814   0.049   1.876
 9694SOL    HW129981   2.769   6.989   1.852
 9694SOL    HW229982   2.841   0.047   1.972
 9695SOL     OW29983   0.169   3.780   3.308
 9695SOL    HW129984   0.203   3.855   3.364
 9695SOL    HW229985   0.221   3.697   3.329
 9696SOL     OW29986   5.992   1.666   3.484
 9696SOL    HW129987   5.984   1.764   3.465
 9696SOL    HW229988   6.071   1.650   3.544
 9697SOL     OW29989   6.923   6.205   0.181
 9697SOL    HW129990   6.917   6.231   0.084
 9697SOL    HW229991   6.891   6.111   0.192
 9698SOL     OW29992   5.806   3.353   6.792
 9698SOL    HW129993   5.740   3.325   6.862
 9698SOL    HW229994   5.895   3.367   6.835
 9699SOL     OW29995   1.215   5.498   0.069
 9699SOL    HW129996   1.249   5.477   7.003
 9699SOL    HW229997   1.132   5.446   0.087
 9700SOL     OW29998   6.074   6.870   3.980
 9700SOL    HW129999   6.160   6.823   3.999
 9700SOL    HW230000   5.999   6.825   4.029
 9701SOL     OW30001   5.027   3.235   6.600
 9701SOL    HW130002   5.024   3.199   6.507
 9701SOL    HW230003   4.938   3.274   6.624
 9702SOL     OW30004   3.611   3.103   0.411
 9702SOL    HW130005   3.705   3.074   0.394
 9702SOL    HW230006   3.548   3.029   0.389
 9703SOL     OW30007   6.435   4.020   4.664
 9703SOL    HW130008   6.528   4.001   4.698
 9703SOL    HW230009   6.388   3.935   4.645
 9704SOL     OW30010   2.977   4.838   2.634
 9704SOL    HW130011   3.032   4.765   2.675
 9704SOL    HW230012   2.923   4.883   2.705
 9705SOL     OW30013   6.124   4.284   5.494
 9705SOL    HW130014   6.143   4.373   5.537
 9705SOL    HW230015   6.109   4.298   5.396
 9706SOL     OW30016   1.915   1.580   1.868
 9706SOL    HW130017   1.921   1.662   1.924
 9706SOL    HW230018   1.836   1.587   1.807
 9707SOL     OW30019   6.040   4.850   2.070
 9707SOL    HW130020   5.969   4.849   2.140
 9707SOL    HW230021   6.126   4.882   2.110
 9708SOL     OW30022   1.942   1.150   2.158
 9708SOL    HW130023   2.006   1.204   2.214
 9708SOL    HW230024   1.848   1.178   2.180
 9709SOL     OW30025   5.778   3.158   2.262
 9709SOL    HW130026   5.841   3.161   2.184
 9709SOL    HW230027   5.830   3.169   2.347
 9710SOL     OW30028   6.366   0.193   6.639
 9710SOL    HW130029   6.442   0.190   6.574
 9710SOL    HW230030   6.395   0.155   6.727
 9711SOL     OW30031   3.935   5.963   6.382
 9711SOL    HW130032   4.021   6.014   6.377
 9711SOL    HW230033   3.870   6.012   6.440
 9712SOL     OW30034   6.017   2.960   1.151
 9712SOL    HW130035   5.988   3.003   1.236
 9712SOL    HW230036   5.937   2.936   1.096
 9713SOL     OW30037   1.905   6.359   3.378
 9713SOL    HW130038   1.821   6.313   3.347
 9713SOL    HW230039   1.930   6.430   3.311
 9714SOL     OW30040   3.598   5.318   4.722
 9714SOL    HW130041   3.563   5.359   4.638
 9714SOL    HW230042   3.675   5.258   4.700
 9715SOL     OW30043   6.297   4.702   1.415
 9715SOL    HW130044   6.355   4.639   1.364
 9715SOL    HW230045   6.301   4.793   1.373
 9716SOL     OW30046   4.064   4.038   6.426
 9716SOL    HW130047   4.133   3.972   6.395
 9716SOL    HW230048   4.085   4.065   6.521
 9717SOL     OW30049   4.148   6.738   6.184
 9717SOL    HW130050   4.125   6.825   6.228
 9717SOL    HW230051   4.223   6.752   6.120
 9718SOL     OW30052   3.612   1.850   0.560
 9718SOL    HW130053   3.581   1.882   0.470
 9718SOL    HW230054   3.711   1.836   0.558
 9719SOL     OW30055   5.092   6.570   5.023
 9719SOL    HW130056   5.191   6.572   5.009
 9719SOL    HW230057   5.067   6.639   5.091
 9720SOL     OW30058   1.504   4.097   2.799
 9720SOL    HW130059   1.599   4.098   2.771
 9720SOL    HW230060   1.498   4.081   2.898
 9721SOL     OW30061   0.318   1.725   0.875
 9721SOL    HW130062   0.235   1.680   0.843
 9721SOL    HW230063   0.296   1.788   0.949
 9722SOL     OW30064   3.575   2.348   5.456
 9722SOL    HW130065   3.481   2.369   5.429
 9722SOL    HW230066   3.620   2.431   5.489
 9723SOL     OW30067   6.030   4.753   4.860
 9723SOL    HW130068   6.108   4.777   4.802
 9723SOL    HW230069   5.994   4.836   4.903
 9724SOL     OW30070   2.121   5.365   6.333
 9724SOL    HW130071   2.027   5.388   6.310
 9724SOL    HW230072   2.168   5.331   6.251
 9725SOL     OW30073   3.977   5.507   4.797
 9725SOL    HW130074   3.983   5.534   4.701
 9725SOL    HW230075   3.882   5.513   4.828
 9726SOL     OW30076   5.229   1.042   4.085
 9726SOL    HW130077   5.221   1.027   3.986
 9726SOL    HW230078   5.240   1.140   4.103
 9727SOL     OW30079   0.464   2.473   0.124
 9727SOL    HW130080   0.376   2.521   0.126
 9727SOL    HW230081   0.504   2.481   0.033
 9728SOL     OW30082   5.940   1.057   5.946
 9728SOL    HW130083   5.919   1.119   5.871
 9728SOL    HW230084   6.037   1.034   5.944
 9729SOL     OW30085   1.759   3.727   3.868
 9729SOL    HW130086   1.796   3.802   3.922
 9729SOL    HW230087   1.731   3.652   3.929
 9730SOL     OW30088   0.385   4.215   4.455
 9730SOL    HW130089   0.315   4.284   4.474
 9730SOL    HW230090   0.438   4.243   4.374
 9731SOL     OW30091   4.968   4.425   2.201
 9731SOL    HW130092   4.895   4.357   2.189
 9731SOL    HW230093   5.057   4.382   2.188
 9732SOL     OW30094   1.006   3.161   1.736
 9732SOL    HW130095   0.945   3.163   1.815
 9732SOL    HW230096   1.030   3.254   1.710
 9733SOL     OW30097   6.351   5.670   2.555
 9733SOL    HW130098   6.365   5.572   2.540
 9733SOL    HW230099   6.412   5.701   2.628
 9734SOL     OW30100   6.410   6.761   6.759
 9734SOL    HW130101   6.507   6.785   6.752
 9734SOL    HW230102   6.401   6.669   6.795
 9735SOL     OW30103   1.491   2.056   3.705
 9735SOL    HW130104   1.530   1.967   3.680
 9735SOL    HW230105   1.546   2.129   3.665
 9736SOL     OW30106   5.040   2.028   6.152
 9736SOL    HW130107   4.964   2.092   6.143
 9736SOL    HW230108   5.126   2.075   6.131
 9737SOL     OW30109   5.896   2.158   2.581
 9737SOL    HW130110   5.863   2.150   2.487
 9737SOL    HW230111   5.840   2.102   2.642
 9738SOL     OW30112   1.851   6.645   0.660
 9738SOL    HW130113   1.881   6.740   0.661
 9738SOL    HW230114   1.829   6.617   0.567
 9739SOL     OW30115   4.406   6.118   6.823
 9739SOL    HW130116   4.396   6.022   6.850
 9739SOL    HW230117   4.461   6.123   6.739
 9740SOL     OW30118   5.808   0.718   2.340
 9740SOL    HW130119   5.858   0.701   2.255
 9740SOL    HW230120   5.873   0.726   2.416
 9741SOL     OW30121   2.891   1.120   4.152
 9741SOL    HW130122   2.811   1.140   4.096
 9741SOL    HW230123   2.873   1.038   4.207
 9742SOL     OW30124   4.527   1.566   6.745
 9742SOL    HW130125   4.446   1.596   6.793
 9742SOL    HW230126   4.501   1.501   6.673
 9743SOL     OW30127   0.455   3.134   3.445
 9743SOL    HW130128   0.384   3.156   3.379
 9743SOL    HW230129   0.516   3.065   3.408
 9744SOL     OW30130   2.362   6.876   2.501
 9744SOL    HW130131   2.285   6.886   2.438
 9744SOL    HW230132   2.351   6.793   2.555
 9745SOL     OW30133   5.461   1.853   6.026
 9745SOL    HW130134   5.387   1.828   6.089
 9745SOL    HW230135   5.496   1.943   6.051
 9746SOL     OW30136   4.931   6.752   6.607
 9746SOL    HW130137   4.875   6.778   6.529
 9746SOL    HW230138   4.956   6.655   6.601
 9747SOL     OW30139   2.671   1.806   1.511
 9747SOL    HW130140   2.659   1.885   1.572
 9747SOL    HW230141   2.708   1.837   1.424
 9748SOL     OW30142   0.181   0.545   3.179
 9748SOL    HW130143   0.117   0.612   3.217
 9748SOL    HW230144   0.161   0.532   3.081
 9749SOL     OW30145   0.451   2.198   2.252
 9749SOL    HW130146   0.546   2.166   2.251
 9749SOL    HW230147   0.442   2.275   2.187
 9750SOL     OW30148   6.194   4.809   3.787
 9750SOL    HW130149   6.143   4.742   3.732
 9750SOL    HW230150   6.159   4.901   3.769
 9751SOL     OW30151   2.906   0.271   1.310
 9751SOL    HW130152   2.952   0.320   1.236
 9751SOL    HW230153   2.967   0.263   1.388
 9752SOL     OW30154   4.336   2.347   6.746
 9752SOL    HW130155   4.413   2.410   6.754
 9752SOL    HW230156   4.259   2.394   6.702
 9753SOL     OW30157   0.898   5.544   6.115
 9753SOL    HW130158   0.836   5.571   6.041
 9753SOL    HW230159   0.846   5.531   6.199
 9754SOL     OW30160   3.911   0.385   0.372
 9754SOL    HW130161   3.848   0.335   0.431
 9754SOL    HW230162   3.943   0.467   0.420
 9755SOL     OW30163   2.989   4.062   5.122
 9755SOL    HW130164   2.916   4.074   5.055
 9755SOL    HW230165   3.002   4.146   5.174
 9756SOL     OW30166   5.430   1.476   5.927
 9756SOL    HW130167   5.415   1.410   6.000
 9756SOL    HW230168   5.384   1.562   5.949
 9757SOL     OW30169   5.820   4.821   3.845
 9757SOL    HW130170   5.870   4.737   3.822
 9757SOL    HW230171   5.778   4.811   3.935
 9758SOL     OW30172   1.247   1.214   0.504
 9758SOL    HW130173   1.260   1.180   0.411
 9758SOL    HW230174   1.169   1.277   0.506
 9759SOL     OW30175   1.021   1.694   0.563
 9759SOL    HW130176   1.056   1.603   0.539
 9759SOL    HW230177   0.921   1.694   0.557
 9760SOL     OW30178   5.123   2.631   6.735
 9760SOL    HW130179   5.157   2.555   6.790
 9760SOL    HW230180   5.125   2.715   6.789
 9761SOL     OW30181   1.336   1.279   1.815
 9761SOL    HW130182   1.407   1.301   1.747
 9761SOL    HW230183   1.366   1.200   1.869
 9762SOL     OW30184   2.990   1.758   4.547
 9762SOL    HW130185   2.938   1.775   4.631
 9762SOL    HW230186   2.994   1.842   4.493
 9763SOL     OW30187   6.276   1.732   2.685
 9763SOL    HW130188   6.361   1.730   2.737
 9763SOL    HW230189   6.280   1.665   2.610
 9764SOL     OW30190   6.369   2.580   2.742
 9764SOL    HW130191   6.276   2.542   2.738
 9764SOL    HW230192   6.399   2.603   2.649
 9765SOL     OW30193   6.344   1.303   2.318
 9765SOL    HW130194   6.285   1.226   2.296
 9765SOL    HW230195   6.380   1.344   2.234
 9766SOL     OW30196   2.310   0.048   3.259
 9766SOL    HW130197   2.214   0.026   3.273
 9766SOL    HW230198   2.324   0.147   3.268
 9767SOL     OW30199   2.064   3.018   5.496
 9767SOL    HW130200   1.969   3.033   5.468
 9767SOL    HW230201   2.075   3.045   5.592
 9768SOL     OW30202   5.571   2.217   0.654
 9768SOL    HW130203   5.507   2.239   0.728
 9768SOL    HW230204   5.664   2.235   0.684
 9769SOL     OW30205   3.563   0.739   5.183
 9769SOL    HW130206   3.543   0.653   5.230
 9769SOL    HW230207   3.513   0.742   5.096
 9770SOL     OW30208   3.389   1.980   5.884
 9770SOL    HW130209   3.348   1.953   5.797
 9770SOL    HW230210   3.489   1.976   5.877
 9771SOL     OW30211   2.181   6.953   1.803
 9771SOL    HW130212   2.258   6.910   1.851
 9771SOL    HW230213   2.116   6.882   1.774
 9772SOL     OW30214   1.984   6.412   1.625
 9772SOL    HW130215   1.899   6.461   1.646
 9772SOL    HW230216   1.967   6.313   1.629
 9773SOL     OW30217   5.585   5.138   3.294
 9773SOL    HW130218   5.618   5.230   3.271
 9773SOL    HW230219   5.535   5.141   3.380
 9774SOL     OW30220   0.963   4.803   3.563
 9774SOL    HW130221   1.043   4.743   3.559
 9774SOL    HW230222   0.885   4.752   3.600
 9775SOL     OW30223   2.904   0.422   3.205
 9775SOL    HW130224   2.991   0.455   3.243
 9775SOL    HW230225   2.858   0.498   3.159
 9776SOL     OW30226   1.978   4.912   6.183
 9776SOL    HW130227   1.908   4.841   6.191
 9776SOL    HW230228   1.994   4.954   6.272
 9777SOL     OW30229   5.092   6.251   6.635
 9777SOL    HW130230   5.184   6.231   6.599
 9777SOL    HW230231   5.030   6.177   6.610
 9778SOL     OW30232   0.275   2.082   4.614
 9778SOL    HW130233   0.236   2.172   4.594
 9778SOL    HW230234   0.279   2.028   4.531
 9779SOL     OW30235   0.546   2.785   3.969
 9779SOL    HW130236   0.562   2.749   3.878
 9779SOL    HW230237   0.458   2.753   4.004
 9780SOL     OW30238   1.758   1.553   1.296
 9780SOL    HW130239   1.816   1.579   1.373
 9780SOL    HW230240   1.811   1.558   1.211
 9781SOL     OW30241   2.030   3.502   4.509
 9781SOL    HW130242   1.941   3.524   4.549
 9781SOL    HW230243   2.072   3.428   4.561
 9782SOL     OW30244   0.618   1.896   0.802
 9782SOL    HW130245   0.650   1.889   0.708
 9782SOL    HW230246   0.692   1.869   0.864
 9783SOL     OW30247   4.449   1.856   3.108
 9783SOL    HW130248   4.420   1.826   3.017
 9783SOL    HW230249   4.543   1.824   3.125
 9784SOL     OW30250   3.718   1.168   6.405
 9784SOL    HW130251   3.660   1.147   6.326
 9784SOL    HW230252   3.772   1.087   6.430
 9785SOL     OW30253   6.328   2.275   5.503
 9785SOL    HW130254   6.294   2.333   5.429
 9785SOL    HW230255   6.346   2.183   5.467
 9786SOL     OW30256   2.693   4.414   0.671
 9786SOL    HW130257   2.624   4.367   0.615
 9786SOL    HW230258   2.784   4.390   0.638
 9787SOL     OW30259   3.833   3.703   4.266
 9787SOL    HW130260   3.753   3.707   4.326
 9787SOL    HW230261   3.900   3.640   4.304
 9788SOL     OW30262   1.074   5.685   2.256
 9788SOL    HW130263   1.017   5.605   2.277
 9788SOL    HW230264   1.038   5.765   2.305
 9789SOL     OW30265   3.095   0.075   0.012
 9789SOL    HW130266   3.004   0.116   0.009
 9789SOL    HW230267   3.141   0.101   0.097
 9790SOL     OW30268   6.527   4.642   5.522
 9790SOL    HW130269   6.626   4.653   5.514
 9790SOL    HW230270   6.499   4.663   5.615
 9791SOL     OW30271   0.610   0.371   0.216
 9791SOL    HW130272   0.577   0.402   0.305
 9791SOL    HW230273   0.620   0.272   0.217
 9792SOL     OW30274   4.100   5.038   1.110
 9792SOL    HW130275   4.092   4.941   1.132
 9792SOL    HW230276   4.187   5.073   1.145
 9793SOL     OW30277   4.065   0.242   1.375
 9793SOL    HW130278   3.989   0.281   1.323
 9793SOL    HW230279   4.083   0.298   1.456
 9794SOL     OW30280   4.993   4.667   4.739
 9794SOL    HW130281   5.035   4.598   4.679
 9794SOL    HW230282   4.904   4.634   4.770
 9795SOL     OW30283   1.123   3.151   4.083
 9795SOL    HW130284   1.194   3.155   4.154
 9795SOL    HW230285   1.099   3.056   4.065
 9796SOL     OW30286   4.018   3.901   3.837
 9796SOL    HW130287   4.055   3.940   3.752
 9796SOL    HW230288   4.030   3.802   3.836
 9797SOL     OW30289   2.574   6.148   0.237
 9797SOL    HW130290   2.609   6.061   0.203
 9797SOL    HW230291   2.475   6.152   0.223
 9798SOL     OW30292   1.934   1.842   1.199
 9798SOL    HW130293   1.975   1.771   1.256
 9798SOL    HW230294   1.892   1.912   1.258
 9799SOL     OW30295   2.966   3.987   6.395
 9799SOL    HW130296   2.991   3.945   6.308
 9799SOL    HW230297   2.971   4.086   6.387
 9800SOL     OW30298   5.710   3.411   4.315
 9800SOL    HW130299   5.657   3.328   4.299
 9800SOL    HW230300   5.712   3.466   4.231
 9801SOL     OW30301   5.066   4.712   0.145
 9801SOL    HW130302   5.124   4.708   0.227
 9801SOL    HW230303   5.102   4.780   0.082
 9802SOL     OW30304   4.162   4.536   0.401
 9802SOL    HW130305   4.145   4.475   0.479
 9802SOL    HW230306   4.218   4.488   0.333
 9803SOL     OW30307   1.888   3.504   6.770
 9803SOL    HW130308   1.874   3.479   6.675
 9803SOL    HW230309   1.985   3.492   6.794
 9804SOL     OW30310   6.720   6.109   2.908
 9804SOL    HW130311   6.744   6.020   2.947
 9804SOL    HW230312   6.798   6.171   2.918
 9805SOL     OW30313   1.443   0.094   2.943
 9805SOL    HW130314   1.369   0.160   2.961
 9805SOL    HW230315   1.403   0.007   2.915
 9806SOL     OW30316   2.927   2.911   6.071
 9806SOL    HW130317   2.863   2.854   6.021
 9806SOL    HW230318   2.877   2.967   6.137
 9807SOL     OW30319   3.315   2.848   2.415
 9807SOL    HW130320   3.311   2.880   2.320
 9807SOL    HW230321   3.265   2.762   2.423
 9808SOL     OW30322   3.825   5.517   3.976
 9808SOL    HW130323   3.756   5.460   3.932
 9808SOL    HW230324   3.839   5.600   3.922
 9809SOL     OW30325   0.920   3.335   0.134
 9809SOL    HW130326   0.847   3.280   0.093
 9809SOL    HW230327   0.916   3.428   0.097
 9810SOL     OW30328   2.721   2.047   4.908
 9810SOL    HW130329   2.661   1.989   4.853
 9810SOL    HW230330   2.715   2.020   5.004
 9811SOL     OW30331   5.908   3.554   3.534
 9811SOL    HW130332   5.929   3.599   3.447
 9811SOL    HW230333   5.987   3.501   3.564
 9812SOL     OW30334   2.730   0.221   4.120
 9812SOL    HW130335   2.648   0.227   4.177
 9812SOL    HW230336   2.760   0.126   4.115
 9813SOL     OW30337   5.850   2.241   0.700
 9813SOL    HW130338   5.890   2.272   0.787
 9813SOL    HW230339   5.919   2.247   0.628
 9814SOL     OW30340   5.155   1.433   6.910
 9814SOL    HW130341   5.201   1.521   6.897
 9814SOL    HW230342   5.060   1.440   6.879
 9815SOL     OW30343   4.967   2.587   4.131
 9815SOL    HW130344   5.004   2.669   4.175
 9815SOL    HW230345   4.881   2.561   4.175
 9816SOL     OW30346   1.243   0.016   6.470
 9816SOL    HW130347   1.300   0.080   6.522
 9816SOL    HW230348   1.186   6.989   6.532
 9817SOL     OW30349   0.661   6.767   3.050
 9817SOL    HW130350   0.719   6.771   2.969
 9817SOL    HW230351   0.568   6.796   3.027
 9818SOL     OW30352   6.187   2.158   4.800
 9818SOL    HW130353   6.196   2.204   4.889
 9818SOL    HW230354   6.110   2.094   4.804
 9819SOL     OW30355   4.532   2.554   3.436
 9819SOL    HW130356   4.504   2.530   3.528
 9819SOL    HW230357   4.608   2.619   3.439
 9820SOL     OW30358   3.710   3.320   6.994
 9820SOL    HW130359   3.648   3.313   6.915
 9820SOL    HW230360   3.791   3.372   6.968
 9821SOL     OW30361   5.689   0.309   6.287
 9821SOL    HW130362   5.631   0.355   6.354
 9821SOL    HW230363   5.723   0.223   6.325
 9822SOL     OW30364   0.636   6.936   2.784
 9822SOL    HW130365   0.631   0.010   2.798
 9822SOL    HW230366   0.730   6.911   2.762
 9823SOL     OW30367   3.418   0.139   1.359
 9823SOL    HW130368   3.416   0.234   1.391
 9823SOL    HW230369   3.349   0.128   1.287
 9824SOL     OW30370   2.069   4.169   5.734
 9824SOL    HW130371   1.971   4.151   5.727
 9824SOL    HW230372   2.096   4.233   5.662
 9825SOL     OW30373   3.347   5.370   5.289
 9825SOL    HW130374   3.445   5.382   5.309
 9825SOL    HW230375   3.336   5.315   5.207
 9826SOL     OW30376   4.348   5.779   6.156
 9826SOL    HW130377   4.382   5.870   6.133
 9826SOL    HW230378   4.296   5.783   6.242
 9827SOL     OW30379   2.103   4.449   4.426
 9827SOL    HW130380   2.096   4.371   4.364
 9827SOL    HW230381   2.093   4.417   4.520
 9828SOL     OW30382   3.033   2.757   6.811
 9828SOL    HW130383   3.018   2.734   6.714
 9828SOL    HW230384   2.970   2.705   6.867
 9829SOL     OW30385   2.933   6.519   0.801
 9829SOL    HW130386   2.848   6.481   0.837
 9829SOL    HW230387   2.978   6.574   0.871
 9830SOL     OW30388   5.568   2.415   1.576
 9830SOL    HW130389   5.558   2.318   1.600
 9830SOL    HW230390   5.487   2.465   1.607
 9831SOL     OW30391   1.959   6.334   0.439
 9831SOL    HW130392   2.022   6.395   0.390
 9831SOL    HW230393   2.005   6.298   0.520
 9832SOL     OW30394   5.050   5.357   2.248
 9832SOL    HW130395   5.111   5.434   2.269
 9832SOL    HW230396   5.076   5.278   2.303
 9833SOL     OW30397   3.403   2.894   4.985
 9833SOL    HW130398   3.363   2.896   5.077
 9833SOL    HW230399   3.352   2.830   4.928
 9834SOL     OW30400   2.581   3.756   6.031
 9834SOL    HW130401   2.613   3.717   6.117
 9834SOL    HW230402   2.606   3.695   5.956
 9835SOL     OW30403   3.725   2.747   5.809
 9835SOL    HW130404   3.641   2.707   5.846
 9835SOL    HW230405   3.794   2.751   5.881
 9836SOL     OW30406   6.358   4.433   3.652
 9836SOL    HW130407   6.450   4.471   3.664
 9836SOL    HW230408   6.293   4.508   3.636
 9837SOL     OW30409   2.247   0.150   2.460
 9837SOL    HW130410   2.182   0.222   2.482
 9837SOL    HW230411   2.280   0.162   2.366
 9838SOL     OW30412   0.620   6.741   5.828
 9838SOL    HW130413   0.602   6.668   5.893
 9838SOL    HW230414   0.540   6.801   5.822
 9839SOL     OW30415   5.860   1.339   2.888
 9839SOL    HW130416   5.937   1.363   2.947
 9839SOL    HW230417   5.841   1.415   2.826
 9840SOL     OW30418   0.152   1.107   1.084
 9840SOL    HW130419   0.185   1.156   1.165
 9840SOL    HW230420   0.138   1.010   1.107
 9841SOL     OW30421   1.167   4.967   4.775
 9841SOL    HW130422   1.250   4.972   4.721
 9841SOL    HW230423   1.110   4.892   4.742
 9842SOL     OW30424   3.571   4.166   3.384
 9842SOL    HW130425   3.521   4.085   3.415
 9842SOL    HW230426   3.531   4.248   3.426
 9843SOL     OW30427   6.973   1.647   2.062
 9843SOL    HW130428   7.014   1.611   2.146
 9843SOL    HW230429   6.906   1.582   2.027
 9844SOL     OW30430   4.923   0.428   2.677
 9844SOL    HW130431   4.966   0.458   2.763
 9844SOL    HW230432   4.958   0.483   2.601
 9845SOL     OW30433   2.582   1.482   4.997
 9845SOL    HW130434   2.611   1.496   5.092
 9845SOL    HW230435   2.658   1.505   4.936
 9846SOL     OW30436   3.741   3.285   2.469
 9846SOL    HW130437   3.734   3.347   2.391
 9846SOL    HW230438   3.817   3.221   2.454
 9847SOL     OW30439   3.464   2.672   5.914
 9847SOL    HW130440   3.480   2.674   6.013
 9847SOL    HW230441   3.460   2.577   5.883
 9848SOL     OW30442   3.417   2.268   6.478
 9848SOL    HW130443   3.512   2.250   6.452
 9848SOL    HW230444   3.374   2.326   6.408
 9849SOL     OW30445   5.912   0.567   0.133
 9849SOL    HW130446   5.901   0.641   0.067
 9849SOL    HW230447   5.822   0.530   0.158
 9850SOL     OW30448   5.592   6.118   2.604
 9850SOL    HW130449   5.588   6.097   2.702
 9850SOL    HW230450   5.526   6.190   2.583
 9851SOL     OW30451   4.412   1.997   5.495
 9851SOL    HW130452   4.486   2.063   5.486
 9851SOL    HW230453   4.433   1.914   5.443
 9852SOL     OW30454   4.314   1.915   3.332
 9852SOL    HW130455   4.361   1.890   3.247
 9852SOL    HW230456   4.271   1.834   3.371
 9853SOL     OW30457   4.731   4.219   3.472
 9853SOL    HW130458   4.712   4.250   3.565
 9853SOL    HW230459   4.806   4.274   3.433
 9854SOL     OW30460   6.214   4.863   5.134
 9854SOL    HW130461   6.228   4.823   5.043
 9854SOL    HW230462   6.283   4.826   5.197
 9855SOL     OW30463   1.989   4.545   1.984
 9855SOL    HW130464   1.984   4.453   1.945
 9855SOL    HW230465   2.069   4.553   2.043
 9856SOL     OW30466   5.163   3.691   0.054
 9856SOL    HW130467   5.175   3.790   0.045
 9856SOL    HW230468   5.066   3.669   0.056
 9857SOL     OW30469   4.595   2.346   3.819
 9857SOL    HW130470   4.532   2.274   3.789
 9857SOL    HW230471   4.605   2.342   3.918
 9858SOL     OW30472   6.530   0.998   1.509
 9858SOL    HW130473   6.580   1.084   1.523
 9858SOL    HW230474   6.475   0.978   1.590
 9859SOL     OW30475   6.310   7.007   1.176
 9859SOL    HW130476   6.338   6.952   1.097
 9859SOL    HW230477   6.210   7.010   1.181
 9860SOL     OW30478   6.733   1.060   2.583
 9860SOL    HW130479   6.714   0.982   2.523
 9860SOL    HW230480   6.656   1.074   2.645
 9861SOL     OW30481   2.663   0.147   3.512
 9861SOL    HW130482   2.614   0.063   3.489
 9861SOL    HW230483   2.649   0.215   3.440
 9862SOL     OW30484   2.604   4.416   0.936
 9862SOL    HW130485   2.512   4.378   0.946
 9862SOL    HW230486   2.633   4.410   0.840
 9863SOL     OW30487   2.942   0.155   3.254
 9863SOL    HW130488   3.016   0.129   3.192
 9863SOL    HW230489   2.919   0.251   3.240
 9864SOL     OW30490   3.996   5.622   4.164
 9864SOL    HW130491   3.943   5.589   4.086
 9864SOL    HW230492   3.998   5.722   4.163
 9865SOL     OW30493   1.227   1.637   4.677
 9865SOL    HW130494   1.169   1.561   4.706
 9865SOL    HW230495   1.170   1.712   4.644
 9866SOL     OW30496   5.452   4.338   4.942
 9866SOL    HW130497   5.435   4.351   4.845
 9866SOL    HW230498   5.506   4.255   4.956
 9867SOL     OW30499   6.209   0.364   0.967
 9867SOL    HW130500   6.171   0.382   1.057
 9867SOL    HW230501   6.136   0.357   0.900
 9868SOL     OW30502   1.559   4.595   5.542
 9868SOL    HW130503   1.527   4.561   5.453
 9868SOL    HW230504   1.501   4.558   5.615
 9869SOL     OW30505   1.707   3.404   2.335
 9869SOL    HW130506   1.631   3.380   2.275
 9869SOL    HW230507   1.740   3.496   2.312
 9870SOL     OW30508   4.448   5.732   2.428
 9870SOL    HW130509   4.512   5.660   2.398
 9870SOL    HW230510   4.358   5.692   2.445
 9871SOL     OW30511   1.050   6.783   5.647
 9871SOL    HW130512   1.064   6.869   5.598
 9871SOL    HW230513   0.967   6.790   5.703
 9872SOL     OW30514   3.014   5.072   4.094
 9872SOL    HW130515   3.099   5.059   4.042
 9872SOL    HW230516   3.020   5.022   4.180
 9873SOL     OW30517   2.909   2.401   1.271
 9873SOL    HW130518   2.866   2.468   1.332
 9873SOL    HW230519   2.994   2.440   1.235
 9874SOL     OW30520   0.721   3.563   4.108
 9874SOL    HW130521   0.775   3.623   4.048
 9874SOL    HW230522   0.627   3.595   4.110
 9875SOL     OW30523   0.380   6.524   2.171
 9875SOL    HW130524   0.458   6.478   2.128
 9875SOL    HW230525   0.414   6.594   2.234
 9876SOL     OW30526   6.425   0.737   2.667
 9876SOL    HW130527   6.443   0.711   2.572
 9876SOL    HW230528   6.511   0.747   2.716
 9877SOL     OW30529   0.167   6.401   2.967
 9877SOL    HW130530   0.093   6.375   2.905
 9877SOL    HW230531   0.204   6.319   3.012
 9878SOL     OW30532   2.281   5.456   4.806
 9878SOL    HW130533   2.353   5.483   4.871
 9878SOL    HW230534   2.322   5.408   4.729
 9879SOL     OW30535   5.707   5.468   4.484
 9879SOL    HW130536   5.790   5.516   4.454
 9879SOL    HW230537   5.639   5.470   4.411
 9880SOL     OW30538   2.747   1.979   5.633
 9880SOL    HW130539   2.649   1.997   5.641
 9880SOL    HW230540   2.799   2.058   5.665
 9881SOL     OW30541   1.888   1.087   4.939
 9881SOL    HW130542   1.933   1.063   4.854
 9881SOL    HW230543   1.950   1.140   4.996
 9882SOL     OW30544   0.955   2.266   4.168
 9882SOL    HW130545   1.050   2.289   4.188
 9882SOL    HW230546   0.951   2.195   4.098
 9883SOL     OW30547   2.073   5.337   0.033
 9883SOL    HW130548   2.020   5.400   0.091
 9883SOL    HW230549   2.117   5.389   6.986
 9884SOL     OW30550   4.037   1.691   3.151
 9884SOL    HW130551   3.992   1.607   3.181
 9884SOL    HW230552   4.118   1.669   3.097
 9885SOL     OW30553   6.606   2.937   5.641
 9885SOL    HW130554   6.691   2.922   5.692
 9885SOL    HW230555   6.591   3.035   5.630
 9886SOL     OW30556   0.725   4.569   1.652
 9886SOL    HW130557   0.723   4.490   1.590
 9886SOL    HW230558   0.685   4.543   1.740
 9887SOL     OW30559   3.505   0.943   5.860
 9887SOL    HW130560   3.475   0.848   5.863
 9887SOL    HW230561   3.462   0.993   5.935
 9888SOL     OW30562   6.357   3.912   2.013
 9888SOL    HW130563   6.343   3.874   2.104
 9888SOL    HW230564   6.454   3.928   1.997
 9889SOL     OW30565   0.218   5.565   1.698
 9889SOL    HW130566   0.162   5.490   1.663
 9889SOL    HW230567   0.314   5.536   1.703
 9890SOL     OW30568   1.466   2.091   0.337
 9890SOL    HW130569   1.561   2.108   0.311
 9890SOL    HW230570   1.463   2.028   0.414
 9891SOL     OW30571   5.450   2.890   1.491
 9891SOL    HW130572   5.474   2.802   1.450
 9891SOL    HW230573   5.368   2.927   1.447
 9892SOL     OW30574   0.020   5.122   1.024
 9892SOL    HW130575   6.965   5.181   1.032
 9892SOL    HW230576   0.097   5.164   1.072
 9893SOL     OW30577   1.250   6.897   1.188
 9893SOL    HW130578   1.184   6.833   1.230
 9893SOL    HW230579   1.210   6.936   1.106
 9894SOL     OW30580   2.339   2.624   2.001
 9894SOL    HW130581   2.281   2.561   1.951
 9894SOL    HW230582   2.428   2.581   2.019
 9895SOL     OW30583   6.787   3.630   5.305
 9895SOL    HW130584   6.753   3.551   5.356
 9895SOL    HW230585   6.878   3.654   5.339
 9896SOL     OW30586   5.997   0.487   6.671
 9896SOL    HW130587   6.075   0.464   6.729
 9896SOL    HW230588   6.008   0.445   6.581
 9897SOL     OW30589   6.396   5.494   3.243
 9897SOL    HW130590   6.365   5.567   3.183
 9897SOL    HW230591   6.322   5.428   3.256
 9898SOL     OW30592   1.755   5.923   4.611
 9898SOL    HW130593   1.714   5.852   4.555
 9898SOL    HW230594   1.853   5.929   4.592
 9899SOL     OW30595   0.959   5.524   6.888
 9899SOL    HW130596   1.028   5.577   6.840
 9899SOL    HW230597   0.931   5.446   6.831
 9900SOL     OW30598   1.633   3.654   3.435
 9900SOL    HW130599   1.571   3.726   3.404
 9900SOL    HW230600   1.664   3.600   3.356
 9901SOL     OW30601   2.825   0.656   6.168
 9901SOL    HW130602   2.835   0.579   6.105
 9901SOL    HW230603   2.844   0.741   6.120
 9902SOL     OW30604   3.150   4.977   0.807
 9902SOL    HW130605   3.073   4.967   0.870
 9902SOL    HW230606   3.210   5.050   0.838
 9903SOL     OW30607   5.211   1.368   2.044
 9903SOL    HW130608   5.206   1.287   1.987
 9903SOL    HW230609   5.192   1.449   1.989
 9904SOL     OW30610   1.531   4.419   6.966
 9904SOL    HW130611   1.583   4.407   6.881
 9904SOL    HW230612   1.452   4.478   6.949
 9905SOL     OW30613   2.447   0.130   6.544
 9905SOL    HW130614   2.418   0.145   6.449
 9905SOL    HW230615   2.425   0.036   6.570
 9906SOL     OW30616   2.625   3.409   1.753
 9906SOL    HW130617   2.544   3.436   1.806
 9906SOL    HW230618   2.618   3.312   1.731
 9907SOL     OW30619   6.450   0.369   1.324
 9907SOL    HW130620   6.351   0.367   1.330
 9907SOL    HW230621   6.480   0.320   1.242
 9908SOL     OW30622   5.533   1.941   4.830
 9908SOL    HW130623   5.448   1.991   4.846
 9908SOL    HW230624   5.532   1.856   4.883
 9909SOL     OW30625   4.046   0.901   3.720
 9909SOL    HW130626   4.145   0.888   3.716
 9909SOL    HW230627   4.011   0.867   3.808
 9910SOL     OW30628   1.376   3.946   3.072
 9910SOL    HW130629   1.463   3.991   3.093
 9910SOL    HW230630   1.300   4.005   3.100
 9911SOL     OW30631   3.272   6.230   2.154
 9911SOL    HW130632   3.219   6.263   2.076
 9911SOL    HW230633   3.233   6.144   2.186
 9912SOL     OW30634   4.191   0.917   1.233
 9912SOL    HW130635   4.093   0.899   1.237
 9912SOL    HW230636   4.211   0.983   1.160
 9913SOL     OW30637   6.292   4.042   1.320
 9913SOL    HW130638   6.326   4.104   1.249
 9913SOL    HW230639   6.293   3.948   1.287
 9914SOL     OW30640   5.795   1.753   4.563
 9914SOL    HW130641   5.723   1.819   4.541
 9914SOL    HW230642   5.790   1.728   4.659
 9915SOL     OW30643   4.877   0.561   3.599
 9915SOL    HW130644   4.786   0.590   3.630
 9915SOL    HW230645   4.903   0.616   3.520
 9916SOL     OW30646   2.206   2.602   3.246
 9916SOL    HW130647   2.125   2.554   3.210
 9916SOL    HW230648   2.233   2.560   3.333
 9917SOL     OW30649   5.456   4.030   6.979
 9917SOL    HW130650   5.528   3.973   6.940
 9917SOL    HW230651   5.456   4.120   6.934
 9918SOL     OW30652   3.257   1.671   3.363
 9918SOL    HW130653   3.166   1.659   3.404
 9918SOL    HW230654   3.325   1.681   3.436
 9919SOL     OW30655   6.535   5.169   1.672
 9919SOL    HW130656   6.580   5.084   1.645
 9919SOL    HW230657   6.579   5.205   1.755
 9920SOL     OW30658   4.747   1.476   1.993
 9920SOL    HW130659   4.756   1.399   2.055
 9920SOL    HW230660   4.794   1.556   2.030
 9921SOL     OW30661   4.032   6.968   5.590
 9921SOL    HW130662   3.950   6.912   5.600
 9921SOL    HW230663   4.096   6.922   5.527
 9922SOL     OW30664   2.782   3.956   0.541
 9922SOL    HW130665   2.705   3.903   0.505
 9922SOL    HW230666   2.864   3.937   0.487
 9923SOL     OW30667   5.202   4.785   6.624
 9923SOL    HW130668   5.262   4.805   6.546
 9923SOL    HW230669   5.122   4.734   6.592
 9924SOL     OW30670   6.627   2.086   4.855
 9924SOL    HW130671   6.718   2.085   4.895
 9924SOL    HW230672   6.597   1.991   4.840
 9925SOL     OW30673   0.033   2.946   4.371
 9925SOL    HW130674   0.069   2.921   4.461
 9925SOL    HW230675   7.020   2.864   4.326
 9926SOL     OW30676   3.935   2.130   0.580
 9926SOL    HW130677   3.912   2.100   0.672
 9926SOL    HW230678   4.004   2.068   0.541
 9927SOL     OW30679   0.076   6.610   0.324
 9927SOL    HW130680   0.153   6.650   0.374
 9927SOL    HW230681   0.082   6.510   0.327
 9928SOL     OW30682   5.104   4.635   2.641
 9928SOL    HW130683   5.050   4.716   2.619
 9928SOL    HW230684   5.074   4.558   2.585
 9929SOL     OW30685   3.211   4.376   5.708
 9929SOL    HW130686   3.193   4.474   5.698
 9929SOL    HW230687   3.265   4.344   5.631
 9930SOL     OW30688   6.654   6.252   4.995
 9930SOL    HW130689   6.676   6.241   5.091
 9930SOL    HW230690   6.687   6.173   4.943
 9931SOL     OW30691   0.215   5.756   4.048
 9931SOL    HW130692   0.118   5.758   4.028
 9931SOL    HW230693   0.236   5.818   4.124
 9932SOL     OW30694   3.171   4.176   6.999
 9932SOL    HW130695   3.088   4.159   6.947
 9932SOL    HW230696   3.179   4.273   7.019
 9933SOL     OW30697   0.323   5.941   3.445
 9933SOL    HW130698   0.359   5.854   3.479
 9933SOL    HW230699   0.241   5.924   3.390
 9934SOL     OW30700   5.681   2.257   5.754
 9934SOL    HW130701   5.707   2.161   5.756
 9934SOL    HW230702   5.645   2.284   5.843
 9935SOL     OW30703   2.518   6.552   6.958
 9935SOL    HW130704   2.457   6.483   6.921
 9935SOL    HW230705   2.571   6.514   0.008
 9936SOL     OW30706   6.449   5.458   6.422
 9936SOL    HW130707   6.513   5.414   6.485
 9936SOL    HW230708   6.467   5.427   6.328
 9937SOL     OW30709   6.357   1.436   0.865
 9937SOL    HW130710   6.345   1.398   0.957
 9937SOL    HW230711   6.284   1.401   0.806
 9938SOL     OW30712   6.596   5.232   2.569
 9938SOL    HW130713   6.536   5.157   2.542
 9938SOL    HW230714   6.579   5.256   2.665
 9939SOL     OW30715   4.044   2.375   0.659
 9939SOL    HW130716   3.963   2.360   0.716
 9939SOL    HW230717   4.111   2.303   0.677
 9940SOL     OW30718   1.173   0.467   1.326
 9940SOL    HW130719   1.160   0.448   1.423
 9940SOL    HW230720   1.090   0.441   1.276
 9941SOL     OW30721   2.846   3.821   5.535
 9941SOL    HW130722   2.819   3.821   5.631
 9941SOL    HW230723   2.877   3.913   5.509
 9942SOL     OW30724   2.660   5.449   2.349
 9942SOL    HW130725   2.707   5.437   2.262
 9942SOL    HW230726   2.597   5.527   2.343
 9943SOL     OW30727   0.301   4.400   5.484
 9943SOL    HW130728   0.394   4.386   5.516
 9943SOL    HW230729   0.239   4.401   5.562
 9944SOL     OW30730   1.569   4.697   6.768
 9944SOL    HW130731   1.562   4.722   6.864
 9944SOL    HW230732   1.561   4.598   6.758
 9945SOL     OW30733   5.708   5.573   6.280
 9945SOL    HW130734   5.751   5.551   6.193
 9945SOL    HW230735   5.723   5.670   6.301
 9946SOL     OW30736   4.895   0.982   3.593
 9946SOL    HW130737   4.821   1.042   3.563
 9946SOL    HW230738   4.981   1.010   3.549
 9947SOL     OW30739   1.652   2.885   5.044
 9947SOL    HW130740   1.708   2.968   5.049
 9947SOL    HW230741   1.699   2.816   4.988
 9948SOL     OW30742   5.266   4.003   4.847
 9948SOL    HW130743   5.334   4.069   4.815
 9948SOL    HW230744   5.313   3.927   4.893
 9949SOL     OW30745   6.814   4.755   4.197
 9949SOL    HW130746   6.846   4.673   4.149
 9949SOL    HW230747   6.722   4.778   4.167
 9950SOL     OW30748   5.840   5.937   4.865
 9950SOL    HW130749   5.780   5.878   4.920
 9950SOL    HW230750   5.824   5.920   4.768
 9951SOL     OW30751   0.005   0.453   4.703
 9951SOL    HW130752   0.102   0.457   4.726
 9951SOL    HW230753   7.020   0.421   4.608
 9952SOL     OW30754   1.292   3.765   1.015
 9952SOL    HW130755   1.236   3.848   1.007
 9952SOL    HW230756   1.358   3.761   0.940
 9953SOL     OW30757   5.525   3.031   4.576
 9953SOL    HW130758   5.436   2.994   4.600
 9953SOL    HW230759   5.548   3.106   4.638
 9954SOL     OW30760   6.395   0.695   6.601
 9954SOL    HW130761   6.478   0.751   6.593
 9954SOL    HW230762   6.343   0.700   6.516
 9955SOL     OW30763   6.235   3.654   5.514
 9955SOL    HW130764   6.333   3.633   5.510
 9955SOL    HW230765   6.221   3.743   5.558
 9956SOL     OW30766   1.878   7.002   2.327
 9956SOL    HW130767   1.851   6.907   2.341
 9956SOL    HW230768   1.813   0.037   2.372
 9957SOL     OW30769   5.072   5.690   2.502
 9957SOL    HW130770   5.153   5.716   2.554
 9957SOL    HW230771   4.995   5.747   2.530
 9958SOL     OW30772   3.589   5.420   0.693
 9958SOL    HW130773   3.599   5.435   0.594
 9958SOL    HW230774   3.666   5.366   0.726
 9959SOL     OW30775   4.106   3.791   5.389
 9959SOL    HW130776   4.090   3.726   5.315
 9959SOL    HW230777   4.178   3.856   5.362
 9960SOL     OW30778   0.213   6.809   2.169
 9960SOL    HW130779   0.169   6.822   2.258
 9960SOL    HW230780   0.311   6.794   2.183
 9961SOL     OW30781   1.178   5.208   4.410
 9961SOL    HW130782   1.273   5.183   4.395
 9961SOL    HW230783   1.173   5.282   4.478
 9962SOL     OW30784   6.176   6.721   2.792
 9962SOL    HW130785   6.141   6.652   2.856
 9962SOL    HW230786   6.108   6.739   2.721
 9963SOL     OW30787   3.013   3.190   6.877
 9963SOL    HW130788   2.998   3.094   6.898
 9963SOL    HW230789   3.047   3.237   6.958
 9964SOL     OW30790   5.162   5.013   5.718
 9964SOL    HW130791   5.093   4.943   5.698
 9964SOL    HW230792   5.207   5.041   5.633
 9965SOL     OW30793   3.617   6.573   6.342
 9965SOL    HW130794   3.663   6.655   6.378
 9965SOL    HW230795   3.675   6.529   6.274
 9966SOL     OW30796   1.814   6.035   1.869
 9966SOL    HW130797   1.880   6.089   1.818
 9966SOL    HW230798   1.849   5.942   1.880
 9967SOL     OW30799   0.512   6.828   2.210
 9967SOL    HW130800   0.607   6.811   2.235
 9967SOL    HW230801   0.497   6.926   2.200
 9968SOL     OW30802   3.465   3.915   1.165
 9968SOL    HW130803   3.442   3.833   1.113
 9968SOL    HW230804   3.414   3.993   1.129
 9969SOL     OW30805   1.636   2.817   2.616
 9969SOL    HW130806   1.546   2.855   2.595
 9969SOL    HW230807   1.698   2.835   2.540
 9970SOL     OW30808   5.408   3.903   2.595
 9970SOL    HW130809   5.335   3.938   2.536
 9970SOL    HW230810   5.490   3.959   2.586
 9971SOL     OW30811   2.063   5.607   1.791
 9971SOL    HW130812   2.105   5.605   1.700
 9971SOL    HW230813   2.043   5.514   1.821
 9972SOL     OW30814   4.875   4.677   1.478
 9972SOL    HW130815   4.788   4.714   1.511
 9972SOL    HW230816   4.867   4.578   1.467
 9973SOL     OW30817   5.300   2.091   3.920
 9973SOL    HW130818   5.259   2.034   3.992
 9973SOL    HW230819   5.396   2.108   3.942
 9974SOL     OW30820   0.629   2.846   2.617
 9974SOL    HW130821   0.618   2.940   2.585
 9974SOL    HW230822   0.566   2.786   2.567
 9975SOL     OW30823   5.963   4.265   6.917
 9975SOL    HW130824   6.002   4.337   6.975
 9975SOL    HW230825   6.023   4.185   6.918
 9976SOL     OW30826   0.900   6.314   5.534
 9976SOL    HW130827   0.902   6.220   5.569
 9976SOL    HW230828   0.985   6.332   5.485
 9977SOL     OW30829   0.085   4.989   5.518
 9977SOL    HW130830   0.129   5.012   5.431
 9977SOL    HW230831   0.060   4.892   5.517
 9978SOL     OW30832   0.214   2.475   4.281
 9978SOL    HW130833   0.268   2.459   4.364
 9978SOL    HW230834   0.158   2.395   4.261
 9979SOL     OW30835   6.081   5.109   5.478
 9979SOL    HW130836   6.117   5.177   5.413
 9979SOL    HW230837   6.036   5.036   5.427
 9980SOL     OW30838   2.222   1.111   5.812
 9980SOL    HW130839   2.230   1.154   5.901
 9980SOL    HW230840   2.135   1.136   5.770
 9981SOL     OW30841   2.820   1.662   2.789
 9981SOL    HW130842   2.822   1.744   2.732
 9981SOL    HW230843   2.913   1.638   2.816
 9982SOL     OW30844   6.430   6.527   4.534
 9982SOL    HW130845   6.349   6.580   4.556
 9982SOL    HW230846   6.493   6.529   4.612
 9983SOL     OW30847   6.885   2.019   2.850
 9983SOL    HW130848   6.818   2.033   2.777
 9983SOL    HW230849   6.915   1.923   2.850
 9984SOL     OW30850   1.966   0.868   6.992
 9984SOL    HW130851   2.045   0.870   6.930
 9984SOL    HW230852   1.886   0.904   6.944
 9985SOL     OW30853   1.009   1.046   1.175
 9985SOL    HW130854   0.942   1.024   1.104
 9985SOL    HW230855   1.081   0.978   1.175
 9986SOL     OW30856   5.408   4.094   6.159
 9986SOL    HW130857   5.331   4.157   6.164
 9986SOL    HW230858   5.485   4.139   6.114
 9987SOL     OW30859   0.320   3.421   4.342
 9987SOL    HW130860   0.373   3.358   4.285
 9987SOL    HW230861   0.380   3.464   4.409
 9988SOL     OW30862   6.629   5.851   3.992
 9988SOL    HW130863   6.647   5.754   4.007
 9988SOL    HW230864   6.642   5.901   4.078
 9989SOL     OW30865   6.630   3.553   3.538
 9989SOL    HW130866   6.727   3.571   3.551
 9989SOL    HW230867   6.600   3.484   3.604
 9990SOL     OW30868   2.380   5.396   2.091
 9990SOL    HW130869   2.402   5.492   2.072
 9990SOL    HW230870   2.334   5.356   2.012
 9991SOL     OW30871   2.106   2.305   3.588
 9991SOL    HW130872   2.099   2.263   3.498
 9991SOL    HW230873   2.097   2.404   3.580
 9992SOL     OW30874   5.706   5.306   6.952
 9992SOL    HW130875   5.714   5.295   0.025
 9992SOL    HW230876   5.783   5.262   6.907
 9993SOL     OW30877   2.967   0.991   0.618
 9993SOL    HW130878   2.989   0.904   0.661
 9993SOL    HW230879   3.045   1.021   0.562
 9994SOL     OW30880   5.984   4.469   3.344
 9994SOL    HW130881   5.945   4.389   3.389
 9994SOL    HW230882   6.061   4.441   3.287
 9995SOL     OW30883   4.564   1.229   3.104
 9995SOL    HW130884   4.542   1.209   3.008
 9995SOL    HW230885   4.640   1.170   3.134
 9996SOL     OW30886   2.917   3.249   0.610
 9996SOL    HW130887   3.006   3.204   0.607
 9996SOL    HW230888   2.903   3.300   0.525
 9997SOL     OW30889   3.512   1.670   6.500
 9997SOL    HW130890   3.481   1.598   6.438
 9997SOL    HW230891   3.448   1.747   6.498
 9998SOL     OW30892   5.793   4.641   6.220
 9998SOL    HW130893   5.858   4.653   6.295
 9998SOL    HW230894   5.838   4.595   6.143
 9999SOL     OW30895   6.341   2.907   5.579
 9999SOL    HW130896   6.284   2.986   5.555
 9999SOL    HW230897   6.434   2.939   5.598
10000SOL     OW30898   0.314   4.677   7.019
10000SOL    HW130899   0.343   4.700   6.927
10000SOL    HW230900   0.332   4.581   0.011
10001SOL     OW30901   5.322   6.745   2.195
10001SOL    HW130902   5.251   6.806   2.158
10001SOL    HW230903   5.342   6.771   2.290
10002SOL     OW30904   0.826   0.299   2.834
10002SOL    HW130905   0.866   0.223   2.782
10002SOL    HW230906   0.899   0.351   2.878
10003SOL     OW30907   3.797   1.563   3.549
10003SOL    HW130908   3.759   1.542   3.639
10003SOL    HW230909   3.793   1.661   3.532
10004SOL     OW30910   6.769   2.643   4.194
10004SOL    HW130911   6.763   2.543   4.188
10004SOL    HW230912   6.764   2.682   4.102
10005SOL     OW30913   5.617   0.337   4.820
10005SOL    HW130914   5.681   0.260   4.818
10005SOL    HW230915   5.641   0.403   4.749
10006SOL     OW30916   4.798   5.408   4.301
10006SOL    HW130917   4.876   5.443   4.352
10006SOL    HW230918   4.828   5.376   4.211
10007SOL     OW30919   6.872   4.438   5.673
10007SOL    HW130920   6.882   4.531   5.637
10007SOL    HW230921   6.775   4.418   5.687
10008SOL     OW30922   3.728   1.359   4.559
10008SOL    HW130923   3.760   1.453   4.574
10008SOL    HW230924   3.648   1.362   4.499
10009SOL     OW30925   1.766   3.830   2.049
10009SOL    HW130926   1.841   3.773   2.016
10009SOL    HW230927   1.697   3.839   1.978
10010SOL     OW30928   2.450   0.683   5.396
10010SOL    HW130929   2.417   0.684   5.490
10010SOL    HW230930   2.452   0.776   5.361
10011SOL     OW30931   6.047   0.788   6.007
10011SOL    HW130932   5.973   0.796   5.941
10011SOL    HW230933   6.013   0.750   6.093
10012SOL     OW30934   5.497   1.358   3.289
10012SOL    HW130935   5.468   1.322   3.200
10012SOL    HW230936   5.566   1.429   3.275
10013SOL     OW30937   0.317   1.199   3.518
10013SOL    HW130938   0.320   1.286   3.568
10013SOL    HW230939   0.327   1.123   3.582
10014SOL     OW30940   0.039   4.112   0.517
10014SOL    HW130941   0.017   4.015   0.520
10014SOL    HW230942   0.126   4.125   0.469
10015SOL     OW30943   2.235   4.889   0.879
10015SOL    HW130944   2.147   4.930   0.905
10015SOL    HW230945   2.307   4.958   0.886
10016SOL     OW30946   1.008   1.510   6.276
10016SOL    HW130947   1.003   1.511   6.376
10016SOL    HW230948   1.098   1.476   6.248
10017SOL     OW30949   2.616   1.923   3.079
10017SOL    HW130950   2.522   1.948   3.055
10017SOL    HW230951   2.622   1.825   3.096
10018SOL     OW30952   4.596   0.521   6.252
10018SOL    HW130953   4.686   0.505   6.293
10018SOL    HW230954   4.542   0.438   6.257
10019SOL     OW30955   0.412   1.537   2.914
10019SOL    HW130956   0.362   1.595   2.849
10019SOL    HW230957   0.348   1.503   2.984
10020SOL     OW30958   1.816   2.192   0.967
10020SOL    HW130959   1.858   2.151   0.886
10020SOL    HW230960   1.724   2.155   0.979
10021SOL     OW30961   0.388   2.601   1.614
10021SOL    HW130962   0.383   2.633   1.709
10021SOL    HW230963   0.433   2.670   1.558
10022SOL     OW30964   2.991   1.482   5.989
10022SOL    HW130965   2.932   1.428   5.929
10022SOL    HW230966   2.985   1.579   5.965
10023SOL     OW30967   0.058   4.816   1.074
10023SOL    HW130968   7.017   4.748   1.041
10023SOL    HW230969   0.025   4.908   1.052
10024SOL     OW30970   2.288   6.313   2.734
10024SOL    HW130971   2.355   6.304   2.807
10024SOL    HW230972   2.209   6.365   2.766
10025SOL     OW30973   1.398   0.667   0.883
10025SOL    HW130974   1.361   0.759   0.879
10025SOL    HW230975   1.359   0.612   0.809
10026SOL     OW30976   4.791   6.681   3.760
10026SOL    HW130977   4.856   6.681   3.684
10026SOL    HW230978   4.713   6.622   3.738
10027SOL     OW30979   6.357   3.751   4.468
10027SOL    HW130980   6.391   3.694   4.393
10027SOL    HW230981   6.260   3.730   4.485
10028SOL     OW30982   0.847   0.353   2.037
10028SOL    HW130983   0.941   0.352   2.073
10028SOL    HW230984   0.830   0.439   1.990
10029SOL     OW30985   5.011   2.064   4.341
10029SOL    HW130986   4.996   2.014   4.256
10029SOL    HW230987   5.102   2.106   4.340
10030SOL     OW30988   2.012   0.990   3.320
10030SOL    HW130989   1.998   1.089   3.319
10030SOL    HW230990   2.039   0.960   3.229
10031SOL     OW30991   5.466   4.728   4.635
10031SOL    HW130992   5.504   4.820   4.631
10031SOL    HW230993   5.484   4.688   4.725
10032SOL     OW30994   3.218   1.355   5.071
10032SOL    HW130995   3.171   1.384   4.988
10032SOL    HW230996   3.152   1.317   5.135
10033SOL     OW30997   6.756   3.367   4.337
10033SOL    HW130998   6.686   3.296   4.325
10033SOL    HW230999   6.781   3.373   4.433
10034SOL     OW31000   3.876   0.264   4.473
10034SOL    HW131001   3.837   0.354   4.493
10034SOL    HW231002   3.803   0.199   4.454
10035SOL     OW31003   6.775   5.398   1.686
10035SOL    HW131004   6.758   5.346   1.769
10035SOL    HW231005   6.732   5.488   1.693
10036SOL     OW31006   6.312   1.885   0.712
10036SOL    HW131007   6.404   1.868   0.746
10036SOL    HW231008   6.249   1.815   0.748
10037SOL     OW31009   6.860   1.578   6.675
10037SOL    HW131010   6.866   1.480   6.689
10037SOL    HW231011   6.765   1.603   6.653
10038SOL     OW31012   5.864   0.047   0.439
10038SOL    HW131013   5.830   0.136   0.471
10038SOL    HW231014   5.947   0.023   0.489
10039SOL     OW31015   3.404   0.643   3.377
10039SOL    HW131016   3.390   0.726   3.430
10039SOL    HW231017   3.489   0.599   3.405
10040SOL     OW31018   5.863   5.028   0.107
10040SOL    HW131019   5.836   5.012   0.202
10040SOL    HW231020   5.947   5.081   0.105
10041SOL     OW31021   3.250   5.994   0.118
10041SOL    HW131022   3.158   6.020   0.089
10041SOL    HW231023   3.259   6.008   0.216
10042SOL     OW31024   6.938   1.768   3.798
10042SOL    HW131025   6.972   1.852   3.757
10042SOL    HW231026   6.838   1.770   3.798
10043SOL     OW31027   6.166   1.536   5.252
10043SOL    HW131028   6.206   1.560   5.341
10043SOL    HW231029   6.122   1.447   5.259
10044SOL     OW31030   2.452   3.434   6.279
10044SOL    HW131031   2.421   3.505   6.215
10044SOL    HW231032   2.536   3.393   6.245
10045SOL     OW31033   4.253   0.995   0.932
10045SOL    HW131034   4.336   1.012   0.985
10045SOL    HW231035   4.266   0.915   0.874
10046SOL     OW31036   1.771   3.643   1.102
10046SOL    HW131037   1.803   3.665   1.194
10046SOL    HW231038   1.683   3.596   1.108
10047SOL     OW31039   0.767   3.377   6.163
10047SOL    HW131040   0.829   3.341   6.233
10047SOL    HW231041   0.685   3.413   6.208
10048SOL     OW31042   6.997   6.762   3.001
10048SOL    HW131043   0.042   6.713   3.052
10048SOL    HW231044   6.908   6.720   3.018
10049SOL     OW31045   0.371   1.991   5.905
10049SOL    HW131046   0.428   2.053   5.958
10049SOL    HW231047   0.347   1.912   5.961
10050SOL     OW31048   5.066   3.951   5.300
10050SOL    HW131049   5.124   3.987   5.227
10050SOL    HW231050   5.112   3.961   5.387
10051SOL     OW31051   0.834   3.839   5.190
10051SOL    HW131052   0.751   3.784   5.178
10051SOL    HW231053   0.819   3.931   5.154
10052SOL     OW31054   1.400   0.989   3.310
10052SOL    HW131055   1.305   1.015   3.291
10052SOL    HW231056   1.403   0.893   3.337
10053SOL     OW31057   4.720   5.263   3.653
10053SOL    HW131058   4.819   5.259   3.671
10053SOL    HW231059   4.672   5.203   3.718
10054SOL     OW31060   5.616   4.536   4.786
10054SOL    HW131061   5.595   4.489   4.872
10054SOL    HW231062   5.576   4.485   4.710
10055SOL     OW31063   6.419   2.517   6.743
10055SOL    HW131064   6.483   2.448   6.777
10055SOL    HW231065   6.354   2.541   6.816
10056SOL     OW31066   5.255   3.485   3.119
10056SOL    HW131067   5.207   3.461   3.035
10056SOL    HW231068   5.349   3.511   3.098
10057SOL     OW31069   5.776   4.018   6.089
10057SOL    HW131070   5.841   4.075   6.039
10057SOL    HW231071   5.729   3.956   6.025
10058SOL     OW31072   6.612   3.109   4.342
10058SOL    HW131073   6.581   3.113   4.247
10058SOL    HW231074   6.544   3.060   4.397
10059SOL     OW31075   6.002   1.550   0.967
10059SOL    HW131076   5.944   1.589   1.039
10059SOL    HW231077   5.945   1.500   0.902
10060SOL     OW31078   2.798   1.859   2.594
10060SOL    HW131079   2.814   1.957   2.587
10060SOL    HW231080   2.876   1.809   2.555
10061SOL     OW31081   4.149   1.222   3.822
10061SOL    HW131082   4.206   1.303   3.808
10061SOL    HW231083   4.182   1.172   3.902
10062SOL     OW31084   0.672   7.016   3.748
10062SOL    HW131085   0.660   6.927   3.791
10062SOL    HW231086   0.605   0.002   3.675
10063SOL     OW31087   1.921   2.217   4.803
10063SOL    HW131088   1.915   2.289   4.872
10063SOL    HW231089   1.961   2.135   4.844
10064SOL     OW31090   3.195   6.297   0.067
10064SOL    HW131091   3.131   6.367   0.099
10064SOL    HW231092   3.223   6.240   0.145
10065SOL     OW31093   1.434   0.590   1.461
10065SOL    HW131094   1.445   0.502   1.506
10065SOL    HW231095   1.409   0.577   1.365
10066SOL     OW31096   7.023   3.581   5.015
10066SOL    HW131097   6.987   3.640   5.087
10066SOL    HW231098   0.096   3.568   5.029
10067SOL     OW31099   0.699   3.061   6.775
10067SOL    HW131100   0.622   3.003   6.748
10067SOL    HW231101   0.664   3.144   6.818
10068SOL     OW31102   1.744   3.552   2.611
10068SOL    HW131103   1.695   3.638   2.601
10068SOL    HW231104   1.726   3.494   2.531
10069SOL     OW31105   3.746   5.063   1.786
10069SOL    HW131106   3.652   5.082   1.760
10069SOL    HW231107   3.803   5.144   1.769
10070SOL     OW31108   2.595   6.145   4.334
10070SOL    HW131109   2.528   6.136   4.261
10070SOL    HW231110   2.640   6.057   4.349
10071SOL     OW31111   0.374   6.661   3.737
10071SOL    HW131112   0.358   6.714   3.820
10071SOL    HW231113   0.300   6.678   3.672
10072SOL     OW31114   6.767   1.042   3.203
10072SOL    HW131115   6.760   1.076   3.297
10072SOL    HW231116   6.678   1.006   3.174
10073SOL     OW31117   6.043   2.886   3.721
10073SOL    HW131118   5.990   2.857   3.641
10073SOL    HW231119   6.075   2.980   3.707
10074SOL     OW31120   1.784   4.810   0.832
10074SOL    HW131121   1.861   4.785   0.892
10074SOL    HW231122   1.753   4.729   0.782
10075SOL     OW31123   2.245   1.618   2.512
10075SOL    HW131124   2.253   1.518   2.522
10075SOL    HW231125   2.336   1.659   2.514
10076SOL     OW31126   4.826   5.486   3.137
10076SOL    HW131127   4.747   5.433   3.106
10076SOL    HW231128   4.822   5.499   3.237
10077SOL     OW31129   6.320   3.211   6.780
10077SOL    HW131130   6.350   3.163   6.698
10077SOL    HW231131   6.244   3.160   6.822
10078SOL     OW31132   6.826   6.075   4.891
10078SOL    HW131133   6.895   6.139   4.925
10078SOL    HW231134   6.865   5.983   4.885
10079SOL     OW31135   5.251   3.076   2.876
10079SOL    HW131136   5.343   3.105   2.906
10079SOL    HW231137   5.257   3.036   2.785
10080SOL     OW31138   5.636   0.945   5.625
10080SOL    HW131139   5.579   0.924   5.704
10080SOL    HW231140   5.578   0.961   5.545
10081SOL     OW31141   1.658   2.244   6.890
10081SOL    HW131142   1.683   2.153   6.857
10081SOL    HW231143   1.652   2.242   6.990
10082SOL     OW31144   1.443   4.515   2.695
10082SOL    HW131145   1.382   4.443   2.661
10082SOL    HW231146   1.506   4.477   2.763
10083SOL     OW31147   3.713   5.167   3.961
10083SOL    HW131148   3.712   5.218   3.875
10083SOL    HW231149   3.720   5.232   4.038
10084SOL     OW31150   1.129   6.996   5.494
10084SOL    HW131151   1.087   6.995   5.403
10084SOL    HW231152   1.227   6.979   5.485
10085SOL     OW31153   3.956   6.717   0.094
10085SOL    HW131154   4.035   6.686   0.147
10085SOL    HW231155   3.930   6.646   0.028
10086SOL     OW31156   6.399   6.747   2.148
10086SOL    HW131157   6.315   6.693   2.140
10086SOL    HW231158   6.380   6.830   2.199
10087SOL     OW31159   0.821   6.724   4.231
10087SOL    HW131160   0.901   6.785   4.228
10087SOL    HW231161   0.800   6.702   4.326
10088SOL     OW31162   0.228   2.789   6.995
10088SOL    HW131163   0.237   2.747   0.060
10088SOL    HW231164   0.248   2.721   6.925
10089SOL     OW31165   4.621   2.169   2.175
10089SOL    HW131166   4.550   2.156   2.244
10089SOL    HW231167   4.603   2.252   2.123
10090SOL     OW31168   1.043   5.027   1.403
10090SOL    HW131169   1.134   5.002   1.371
10090SOL    HW231170   1.010   5.106   1.351
10091SOL     OW31171   6.473   5.005   5.993
10091SOL    HW131172   6.483   5.104   5.984
10091SOL    HW231173   6.392   4.985   6.048
10092SOL     OW31174   0.526   2.940   5.534
10092SOL    HW131175   0.602   2.876   5.541
10092SOL    HW231176   0.551   3.028   5.574
10093SOL     OW31177   5.672   3.859   5.828
10093SOL    HW131178   5.758   3.833   5.783
10093SOL    HW231179   5.642   3.947   5.794
10094SOL     OW31180   3.034   0.465   1.097
10094SOL    HW131181   3.094   0.509   1.163
10094SOL    HW231182   3.060   0.492   1.004
10095SOL     OW31183   5.447   2.880   5.069
10095SOL    HW131184   5.517   2.946   5.041
10095SOL    HW231185   5.373   2.929   5.116
10096SOL     OW31186   4.738   0.989   2.902
10096SOL    HW131187   4.758   0.955   2.994
10096SOL    HW231188   4.668   0.932   2.860
10097SOL     OW31189   1.464   1.543   6.066
10097SOL    HW131190   1.431   1.636   6.053
10097SOL    HW231191   1.563   1.544   6.080
10098SOL     OW31192   3.047   5.662   4.747
10098SOL    HW131193   3.045   5.572   4.791
10098SOL    HW231194   3.088   5.728   4.809
10099SOL     OW31195   0.033   4.314   2.338
10099SOL    HW131196   0.126   4.326   2.372
10099SOL    HW231197   6.996   4.374   2.388
10100SOL     OW31198   5.111   5.289   5.040
10100SOL    HW131199   5.046   5.214   5.028
10100SOL    HW231200   5.100   5.327   5.132
10101SOL     OW31201   1.384   2.025   1.535
10101SOL    HW131202   1.320   2.026   1.612
10101SOL    HW231203   1.340   2.065   1.454
10102SOL     OW31204   6.281   6.437   0.955
10102SOL    HW131205   6.334   6.429   0.871
10102SOL    HW231206   6.283   6.532   0.986
10103SOL     OW31207   6.915   6.834   5.492
10103SOL    HW131208   6.863   6.802   5.571
10103SOL    HW231209   6.952   6.756   5.442
10104SOL     OW31210   2.049   0.649   5.977
10104SOL    HW131211   2.131   0.696   5.945
10104SOL    HW231212   2.057   0.551   5.959
10105SOL     OW31213   2.609   0.811   5.969
10105SOL    HW131214   2.533   0.824   5.906
10105SOL    HW231215   2.692   0.791   5.917
10106SOL     OW31216   4.906   6.231   1.036
10106SOL    HW131217   4.863   6.162   1.095
10106SOL    HW231218   5.004   6.236   1.056
10107SOL     OW31219   5.484   4.287   6.411
10107SOL    HW131220   5.422   4.271   6.488
10107SOL    HW231221   5.452   4.366   6.359
10108SOL     OW31222   1.454   2.685   0.373
10108SOL    HW131223   1.500   2.752   0.315
10108SOL    HW231224   1.373   2.650   0.326
10109SOL     OW31225   0.766   1.680   0.541
10109SOL    HW131226   0.683   1.627   0.522
10109SOL    HW231227   0.740   1.775   0.563
10110SOL     OW31228   4.942   5.909   2.739
10110SOL    HW131229   5.003   5.980   2.706
10110SOL    HW231230   4.882   5.946   2.810
10111SOL     OW31231   1.502   1.548   1.823
10111SOL    HW131232   1.413   1.577   1.788
10111SOL    HW231233   1.568   1.623   1.814
10112SOL     OW31234   6.220   2.678   3.752
10112SOL    HW131235   6.250   2.675   3.656
10112SOL    HW231236   6.150   2.749   3.763
10113SOL     OW31237   5.128   1.250   6.441
10113SOL    HW131238   5.202   1.192   6.474
10113SOL    HW231239   5.071   1.278   6.519
10114SOL     OW31240   3.894   1.508   2.842
10114SOL    HW131241   3.847   1.523   2.929
10114SOL    HW231242   3.933   1.594   2.810
10115SOL     OW31243   3.397   1.833   5.386
10115SOL    HW131244   3.389   1.830   5.287
10115SOL    HW231245   3.439   1.920   5.414
10116SOL     OW31246   6.365   0.684   4.751
10116SOL    HW131247   6.402   0.774   4.773
10116SOL    HW231248   6.441   0.621   4.733
10117SOL     OW31249   6.534   5.212   4.134
10117SOL    HW131250   6.585   5.180   4.214
10117SOL    HW231251   6.443   5.168   4.134
10118SOL     OW31252   3.250   4.986   4.964
10118SOL    HW131253   3.313   4.994   4.887
10118SOL    HW231254   3.169   4.934   4.935
10119SOL     OW31255   0.391   5.286   4.605
10119SOL    HW131256   0.392   5.322   4.512
10119SOL    HW231257   0.405   5.187   4.603
10120SOL     OW31258   2.292   2.909   1.732
10120SOL    HW131259   2.326   2.986   1.677
10120SOL    HW231260   2.229   2.943   1.801
10121SOL     OW31261   6.435   4.357   0.806
10121SOL    HW131262   6.409   4.311   0.891
10121SOL    HW231263   6.437   4.290   0.732
10122SOL     OW31264   0.677   1.568   3.903
10122SOL    HW131265   0.738   1.592   3.978
10122SOL    HW231266   0.715   1.601   3.817
10123SOL     OW31267   5.680   6.011   0.965
10123SOL    HW131268   5.689   6.073   0.887
10123SOL    HW231269   5.634   5.927   0.936
10124SOL     OW31270   0.858   4.382   2.890
10124SOL    HW131271   0.861   4.464   2.833
10124SOL    HW231272   0.763   4.356   2.907
10125SOL     OW31273   1.345   2.205   6.689
10125SOL    HW131274   1.405   2.136   6.648
10125SOL    HW231275   1.397   2.289   6.703
10126SOL     OW31276   6.686   0.112   6.335
10126SOL    HW131277   6.771   0.164   6.349
10126SOL    HW231278   6.607   0.172   6.349
10127SOL     OW31279   2.567   5.156   6.069
10127SOL    HW131280   2.470   5.169   6.086
10127SOL    HW231281   2.582   5.068   6.026
10128SOL     OW31282   3.307   0.770   6.956
10128SOL    HW131283   3.387   0.715   6.932
10128SOL    HW231284   3.249   0.719   7.020
10129SOL     OW31285   6.576   1.399   4.088
10129SOL    HW131286   6.505   1.402   4.158
10129SOL    HW231287   6.666   1.410   4.131
10130SOL     OW31288   1.868   2.265   2.382
10130SOL    HW131289   1.835   2.241   2.473
10130SOL    HW231290   1.937   2.199   2.353
10131SOL     OW31291   1.836   0.710   3.960
10131SOL    HW131292   1.877   0.790   4.005
10131SOL    HW231293   1.870   0.626   4.003
10132SOL     OW31294   6.905   0.871   3.005
10132SOL    HW131295   6.882   0.947   3.065
10132SOL    HW231296   6.906   0.903   2.910
10133SOL     OW31297   5.131   6.190   0.788
10133SOL    HW131298   5.185   6.274   0.795
10133SOL    HW231299   5.037   6.209   0.817
10134SOL     OW31300   6.022   0.746   2.140
10134SOL    HW131301   6.040   0.658   2.185
10134SOL    HW231302   6.103   0.774   2.089
10135SOL     OW31303   5.493   6.907   3.001
10135SOL    HW131304   5.550   6.849   3.059
10135SOL    HW231305   5.419   6.946   3.056
10136SOL     OW31306   4.505   1.486   2.717
10136SOL    HW131307   4.410   1.469   2.691
10136SOL    HW231308   4.564   1.474   2.637
10137SOL     OW31309   6.980   5.789   5.903
10137SOL    HW131310   6.921   5.840   5.964
10137SOL    HW231311   6.939   5.785   5.812
10138SOL     OW31312   5.844   1.128   0.319
10138SOL    HW131313   5.878   1.219   0.344
10138SOL    HW231314   5.761   1.109   0.373
10139SOL     OW31315   3.395   3.590   5.449
10139SOL    HW131316   3.344   3.640   5.519
10139SOL    HW231317   3.359   3.613   5.359
10140SOL     OW31318   0.053   5.138   5.743
10140SOL    HW131319   0.092   5.228   5.723
10140SOL    HW231320   0.059   5.081   5.661
10141SOL     OW31321   2.591   1.501   4.359
10141SOL    HW131322   2.511   1.560   4.354
10141SOL    HW231323   2.614   1.468   4.268
10142SOL     OW31324   5.924   6.439   4.130
10142SOL    HW131325   5.992   6.445   4.057
10142SOL    HW231326   5.952   6.368   4.195
10143SOL     OW31327   5.772   2.937   7.023
10143SOL    HW131328   5.802   2.976   0.085
10143SOL    HW231329   5.837   2.866   6.995
10144SOL     OW31330   3.701   6.469   5.504
10144SOL    HW131331   3.627   6.407   5.474
10144SOL    HW231332   3.699   6.552   5.448
10145SOL     OW31333   5.251   5.812   0.239
10145SOL    HW131334   5.285   5.727   0.198
10145SOL    HW231335   5.277   5.889   0.180
10146SOL     OW31336   0.330   2.477   4.737
10146SOL    HW131337   0.379   2.533   4.670
10146SOL    HW231338   0.379   2.478   4.824
10147SOL     OW31339   4.975   5.998   6.587
10147SOL    HW131340   5.055   5.963   6.538
10147SOL    HW231341   4.910   5.924   6.602
10148SOL     OW31342   0.969   4.866   6.698
10148SOL    HW131343   0.891   4.928   6.715
10148SOL    HW231344   0.938   4.789   6.643
10149SOL     OW31345   4.556   4.186   0.573
10149SOL    HW131346   4.588   4.109   0.629
10149SOL    HW231347   4.473   4.224   0.614
10150SOL     OW31348   4.334   4.128   0.087
10150SOL    HW131349   4.371   4.162   0.174
10150SOL    HW231350   4.313   4.031   0.096
10151SOL     OW31351   6.245   6.840   5.162
10151SOL    HW131352   6.164   6.848   5.105
10151SOL    HW231353   6.218   6.832   5.258
10152SOL     OW31354   5.467   6.510   2.752
10152SOL    HW131355   5.375   6.532   2.785
10152SOL    HW231356   5.526   6.489   2.830
10153SOL     OW31357   5.528   4.241   3.712
10153SOL    HW131358   5.493   4.274   3.800
10153SOL    HW231359   5.615   4.194   3.727
10154SOL     OW31360   4.861   5.253   4.625
10154SOL    HW131361   4.931   5.243   4.554
10154SOL    HW231362   4.840   5.164   4.665
10155SOL     OW31363   4.449   2.092   5.057
10155SOL    HW131364   4.540   2.134   5.064
10155SOL    HW231365   4.449   2.004   5.105
10156SOL     OW31366   4.917   1.135   0.554
10156SOL    HW131367   4.929   1.037   0.538
10156SOL    HW231368   4.977   1.164   0.628
10157SOL     OW31369   0.280   2.880   1.441
10157SOL    HW131370   0.375   2.853   1.458
10157SOL    HW231371   0.243   2.925   1.523
10158SOL     OW31372   5.778   5.961   1.478
10158SOL    HW131373   5.821   5.955   1.388
10158SOL    HW231374   5.840   6.006   1.542
10159SOL     OW31375   3.313   3.427   2.616
10159SOL    HW131376   3.361   3.512   2.637
10159SOL    HW231377   3.378   3.351   2.619
10160SOL     OW31378   1.950   4.774   3.709
10160SOL    HW131379   1.958   4.834   3.629
10160SOL    HW231380   2.039   4.762   3.752
10161SOL     OW31381   4.188   4.156   6.100
10161SOL    HW131382   4.286   4.148   6.117
10161SOL    HW231383   4.145   4.207   6.175
10162SOL     OW31384   1.605   3.822   2.623
10162SOL    HW131385   1.663   3.898   2.594
10162SOL    HW231386   1.562   3.845   2.711
10163SOL     OW31387   1.004   6.230   4.979
10163SOL    HW131388   1.018   6.283   5.062
10163SOL    HW231389   1.074   6.254   4.912
10164SOL     OW31390   0.329   2.997   3.150
10164SOL    HW131391   0.309   2.918   3.092
10164SOL    HW231392   0.243   3.039   3.179
10165SOL     OW31393   6.462   3.414   4.153
10165SOL    HW131394   6.387   3.350   4.171
10165SOL    HW231395   6.536   3.365   4.107
10166SOL     OW31396   1.223   1.831   1.052
10166SOL    HW131397   1.193   1.777   0.974
10166SOL    HW231398   1.303   1.789   1.094
10167SOL     OW31399   1.163   6.584   6.501
10167SOL    HW131400   1.175   6.620   6.409
10167SOL    HW231401   1.066   6.586   6.525
10168SOL     OW31402   5.739   1.577   0.349
10168SOL    HW131403   5.670   1.610   0.414
10168SOL    HW231404   5.787   1.498   0.388
10169SOL     OW31405   6.424   3.061   3.633
10169SOL    HW131406   6.432   3.012   3.546
10169SOL    HW231407   6.328   3.071   3.657
10170SOL     OW31408   6.194   5.884   6.064
10170SOL    HW131409   6.251   5.879   6.146
10170SOL    HW231410   6.130   5.960   6.072
10171SOL     OW31411   1.974   3.526   6.014
10171SOL    HW131412   1.993   3.487   5.924
10171SOL    HW231413   1.927   3.613   6.004
10172SOL     OW31414   6.485   0.372   2.966
10172SOL    HW131415   6.551   0.340   3.034
10172SOL    HW231416   6.432   0.295   2.931
10173SOL     OW31417   3.480   4.802   6.227
10173SOL    HW131418   3.525   4.742   6.293
10173SOL    HW231419   3.404   4.754   6.184
10174SOL     OW31420   4.845   6.160   2.214
10174SOL    HW131421   4.921   6.105   2.179
10174SOL    HW231422   4.874   6.255   2.221
10175SOL     OW31423   0.712   1.742   4.267
10175SOL    HW131424   0.664   1.825   4.296
10175SOL    HW231425   0.737   1.751   4.171
10176SOL     OW31426   6.254   2.780   5.796
10176SOL    HW131427   6.167   2.816   5.828
10176SOL    HW231428   6.283   2.829   5.714
10177SOL     OW31429   2.474   0.756   2.424
10177SOL    HW131430   2.440   0.662   2.425
10177SOL    HW231431   2.522   0.776   2.509
10178SOL     OW31432   1.694   1.080   0.304
10178SOL    HW131433   1.690   1.058   0.206
10178SOL    HW231434   1.637   1.160   0.322
10179SOL     OW31435   0.087   4.057   1.159
10179SOL    HW131436   0.157   4.116   1.199
10179SOL    HW231437   0.131   3.986   1.103
10180SOL     OW31438   3.567   0.029   5.442
10180SOL    HW131439   3.513   0.041   5.359
10180SOL    HW231440   3.516   6.998   5.507
10181SOL     OW31441   6.914   3.657   1.539
10181SOL    HW131442   6.963   3.594   1.478
10181SOL    HW231443   6.944   3.643   1.633
10182SOL     OW31444   5.201   1.187   6.759
10182SOL    HW131445   5.183   1.283   6.784
10182SOL    HW231446   5.154   1.127   6.824
10183SOL     OW31447   6.057   2.422   6.502
10183SOL    HW131448   6.057   2.345   6.566
10183SOL    HW231449   6.151   2.453   6.488
10184SOL     OW31450   5.599   3.447   5.959
10184SOL    HW131451   5.618   3.359   6.004
10184SOL    HW231452   5.619   3.438   5.861
10185SOL     OW31453   4.154   5.647   2.490
10185SOL    HW131454   4.072   5.608   2.446
10185SOL    HW231455   4.146   5.638   2.589
10186SOL     OW31456   4.376   3.524   5.775
10186SOL    HW131457   4.375   3.529   5.675
10186SOL    HW231458   4.338   3.609   5.812
10187SOL     OW31459   2.332   5.214   6.166
10187SOL    HW131460   2.270   5.135   6.163
10187SOL    HW231461   2.348   5.240   6.261
10188SOL     OW31462   3.231   0.146   0.226
10188SOL    HW131463   3.181   0.099   0.298
10188SOL    HW231464   3.326   0.113   0.224
10189SOL     OW31465   0.821   1.635   6.625
10189SOL    HW131466   0.773   1.620   6.538
10189SOL    HW231467   0.774   1.707   6.676
10190SOL     OW31468   3.495   5.139   1.731
10190SOL    HW131469   3.417   5.126   1.793
10190SOL    HW231470   3.474   5.213   1.667
10191SOL     OW31471   5.781   5.815   6.742
10191SOL    HW131472   5.777   5.718   6.765
10191SOL    HW231473   5.764   5.870   6.824
10192SOL     OW31474   2.120   1.986   5.184
10192SOL    HW131475   2.188   2.060   5.180
10192SOL    HW231476   2.163   1.900   5.159
10193SOL     OW31477   3.942   3.758   2.956
10193SOL    HW131478   3.962   3.730   2.862
10193SOL    HW231479   3.859   3.713   2.987
10194SOL     OW31480   3.535   0.393   3.917
10194SOL    HW131481   3.538   0.309   3.971
10194SOL    HW231482   3.519   0.471   3.976
10195SOL     OW31483   4.813   0.174   2.366
10195SOL    HW131484   4.904   0.186   2.328
10195SOL    HW231485   4.820   0.142   2.461
10196SOL     OW31486   5.461   1.607   3.020
10196SOL    HW131487   5.392   1.672   2.987
10196SOL    HW231488   5.515   1.651   3.092
10197SOL     OW31489   6.234   0.863   2.418
10197SOL    HW131490   6.325   0.903   2.428
10197SOL    HW231491   6.240   0.777   2.367
10198SOL     OW31492   3.132   6.771   1.517
10198SOL    HW131493   3.113   6.860   1.475
10198SOL    HW231494   3.064   6.704   1.488
10199SOL     OW31495   0.708   1.373   6.734
10199SOL    HW131496   0.643   1.337   6.666
10199SOL    HW231497   0.725   1.470   6.714
10200SOL     OW31498   5.209   4.624   5.540
10200SOL    HW131499   5.297   4.650   5.502
10200SOL    HW231500   5.213   4.632   5.640
10201SOL     OW31501   0.671   5.439   2.331
10201SOL    HW131502   0.760   5.430   2.286
10201SOL    HW231503   0.684   5.450   2.429
10202SOL     OW31504   0.973   3.025   1.505
10202SOL    HW131505   0.981   3.066   1.595
10202SOL    HW231506   0.879   3.031   1.473
10203SOL     OW31507   1.558   3.016   2.000
10203SOL    HW131508   1.482   2.958   2.029
10203SOL    HW231509   1.564   3.015   1.900
10204SOL     OW31510   3.036   4.638   5.375
10204SOL    HW131511   2.989   4.576   5.312
10204SOL    HW231512   3.134   4.641   5.352
10205SOL     OW31513   5.615   2.071   3.689
10205SOL    HW131514   5.616   2.109   3.781
10205SOL    HW231515   5.556   1.990   3.688
10206SOL     OW31516   5.443   6.545   5.651
10206SOL    HW131517   5.484   6.461   5.614
10206SOL    HW231518   5.459   6.549   5.750
10207SOL     OW31519   3.023   1.180   3.122
10207SOL    HW131520   3.013   1.081   3.119
10207SOL    HW231521   2.988   1.214   3.210
10208SOL     OW31522   5.974   4.860   6.041
10208SOL    HW131523   5.890   4.909   6.017
10208SOL    HW231524   5.970   4.767   6.005
10209SOL     OW31525   6.972   0.164   6.279
10209SOL    HW131526   6.972   0.191   6.376
10209SOL    HW231527   0.036   0.185   6.239
10210SOL     OW31528   5.740   6.571   2.247
10210SOL    HW131529   5.671   6.539   2.182
10210SOL    HW231530   5.699   6.639   2.307
10211SOL     OW31531   3.693   6.011   5.293
10211SOL    HW131532   3.603   5.976   5.318
10211SOL    HW231533   3.764   5.944   5.316
10212SOL     OW31534   0.382   1.198   3.933
10212SOL    HW131535   0.286   1.190   3.960
10212SOL    HW231536   0.427   1.110   3.948
10213SOL     OW31537   6.409   1.986   3.387
10213SOL    HW131538   6.343   1.912   3.369
10213SOL    HW231539   6.430   1.989   3.484
10214SOL     OW31540   6.564   0.848   1.998
10214SOL    HW131541   6.644   0.907   1.983
10214SOL    HW231542   6.595   0.756   2.019
10215SOL     OW31543   4.005   3.050   6.315
10215SOL    HW131544   3.970   3.111   6.386
10215SOL    HW231545   3.928   3.005   6.269
10216SOL     OW31546   5.836   0.049   1.075
10216SOL    HW131547   5.863   0.140   1.045
10216SOL    HW231548   5.917   7.022   1.100
10217SOL     OW31549   2.498   2.089   4.090
10217SOL    HW131550   2.499   2.123   4.184
10217SOL    HW231551   2.403   2.085   4.057
10218SOL     OW31552   2.096   0.980   0.846
10218SOL    HW131553   2.155   1.049   0.887
10218SOL    HW231554   2.012   1.023   0.813
10219SOL     OW31555   1.153   2.646   1.864
10219SOL    HW131556   1.110   2.560   1.837
10219SOL    HW231557   1.087   2.720   1.856
10220SOL     OW31558   4.284   1.849   1.407
10220SOL    HW131559   4.297   1.766   1.463
10220SOL    HW231560   4.201   1.896   1.436
10221SOL     OW31561   2.802   0.480   5.102
10221SOL    HW131562   2.893   0.520   5.110
10221SOL    HW231563   2.787   0.450   5.008
10222SOL     OW31564   1.436   4.652   4.780
10222SOL    HW131565   1.394   4.598   4.852
10222SOL    HW231566   1.436   4.600   4.694
10223SOL     OW31567   1.879   4.523   6.883
10223SOL    HW131568   1.923   4.596   6.831
10223SOL    HW231569   1.793   4.498   6.839
10224SOL     OW31570   0.722   0.076   4.344
10224SOL    HW131571   0.744   0.156   4.289
10224SOL    HW231572   0.698   7.025   4.284
10225SOL     OW31573   6.970   5.823   4.903
10225SOL    HW131574   0.036   5.801   4.937
10225SOL    HW231575   6.947   5.764   4.826
10226SOL     OW31576   2.350   1.110   6.767
10226SOL    HW131577   2.395   1.067   6.688
10226SOL    HW231578   2.378   1.206   6.774
10227SOL     OW31579   4.644   4.435   0.239
10227SOL    HW131580   4.710   4.417   0.166
10227SOL    HW231581   4.580   4.505   0.210
10228SOL     OW31582   1.267   5.264   3.056
10228SOL    HW131583   1.253   5.232   2.963
10228SOL    HW231584   1.222   5.352   3.069
10229SOL     OW31585   1.052   0.372   3.699
10229SOL    HW131586   1.082   0.452   3.648
10229SOL    HW231587   1.020   0.302   3.635
10230SOL     OW31588   5.852   6.782   3.326
10230SOL    HW131589   5.905   6.698   3.323
10230SOL    HW231590   5.806   6.790   3.414
10231SOL     OW31591   5.742   6.998   4.386
10231SOL    HW131592   5.643   7.015   4.387
10231SOL    HW231593   5.778   7.005   4.479
10232SOL     OW31594   3.878   1.125   4.382
10232SOL    HW131595   3.837   1.046   4.427
10232SOL    HW231596   3.832   1.208   4.413
10233SOL     OW31597   4.592   3.163   5.977
10233SOL    HW131598   4.589   3.065   5.991
10233SOL    HW231599   4.505   3.204   6.004
10234SOL     OW31600   4.991   0.221   0.750
10234SOL    HW131601   4.904   0.216   0.798
10234SOL    HW231602   5.003   0.140   0.694
10235SOL     OW31603   4.793   1.692   0.002
10235SOL    HW131604   4.830   1.735   6.944
10235SOL    HW231605   4.718   1.748   0.036
10236SOL     OW31606   2.285   6.198   1.975
10236SOL    HW131607   2.264   6.294   1.991
10236SOL    HW231608   2.328   6.188   1.885
10237SOL     OW31609   6.369   4.408   2.463
10237SOL    HW131610   6.382   4.341   2.390
10237SOL    HW231611   6.335   4.494   2.425
10238SOL     OW31612   3.801   4.453   5.322
10238SOL    HW131613   3.747   4.369   5.310
10238SOL    HW231614   3.896   4.428   5.342
10239SOL     OW31615   0.442   3.917   5.122
10239SOL    HW131616   0.466   4.003   5.168
10239SOL    HW231617   0.484   3.916   5.031
10240SOL     OW31618   0.850   4.269   3.199
10240SOL    HW131619   0.887   4.282   3.291
10240SOL    HW231620   0.802   4.182   3.195
10241SOL     OW31621   0.812   1.387   2.328
10241SOL    HW131622   0.891   1.381   2.268
10241SOL    HW231623   0.826   1.459   2.395
10242SOL     OW31624   6.779   1.336   5.590
10242SOL    HW131625   6.733   1.249   5.569
10242SOL    HW231626   6.773   1.354   5.688
10243SOL     OW31627   0.634   5.454   1.367
10243SOL    HW131628   0.689   5.404   1.434
10243SOL    HW231629   0.680   5.451   1.278
10244SOL     OW31630   2.453   4.699   0.312
10244SOL    HW131631   2.521   4.766   0.340
10244SOL    HW231632   2.369   4.745   0.286
10245SOL     OW31633   1.593   3.464   7.005
10245SOL    HW131634   1.535   3.399   6.956
10245SOL    HW231635   1.539   3.512   0.049
10246SOL     OW31636   2.965   3.853   4.659
10246SOL    HW131637   2.936   3.847   4.755
10246SOL    HW231638   2.886   3.869   4.601
10247SOL     OW31639   0.016   5.320   6.259
10247SOL    HW131640   6.982   5.378   6.203
10247SOL    HW231641   0.101   5.303   6.209
10248SOL     OW31642   2.970   0.684   1.723
10248SOL    HW131643   2.981   0.592   1.760
10248SOL    HW231644   3.041   0.743   1.759
10249SOL     OW31645   4.500   1.086   5.445
10249SOL    HW131646   4.544   1.155   5.502
10249SOL    HW231647   4.511   0.996   5.486
10250SOL     OW31648   5.947   1.113   1.330
10250SOL    HW131649   5.996   1.028   1.308
10250SOL    HW231650   5.884   1.135   1.255
10251SOL     OW31651   2.827   2.949   6.841
10251SOL    HW131652   2.827   2.933   6.940
10251SOL    HW231653   2.897   2.892   6.798
10252SOL     OW31654   6.473   6.428   0.741
10252SOL    HW131655   6.525   6.342   0.748
10252SOL    HW231656   6.535   6.505   0.757
10253SOL     OW31657   4.778   4.296   0.419
10253SOL    HW131658   4.708   4.351   0.373
10253SOL    HW231659   4.747   4.272   0.511
10254SOL     OW31660   2.798   1.619   4.842
10254SOL    HW131661   2.845   1.702   4.871
10254SOL    HW231662   2.816   1.602   4.745
10255SOL     OW31663   1.963   5.828   1.897
10255SOL    HW131664   1.991   5.751   1.840
10255SOL    HW231665   2.042   5.864   1.947
10256SOL     OW31666   4.948   6.970   0.317
10256SOL    HW131667   4.949   0.032   0.268
10256SOL    HW231668   4.986   6.899   0.259
10257SOL     OW31669   1.194   5.056   5.920
10257SOL    HW131670   1.266   5.107   5.966
10257SOL    HW231671   1.116   5.117   5.904
10258SOL     OW31672   4.212   6.236   3.545
10258SOL    HW131673   4.295   6.210   3.595
10258SOL    HW231674   4.237   6.283   3.460
10259SOL     OW31675   0.098   4.753   4.422
10259SOL    HW131676   0.105   4.830   4.359
10259SOL    HW231677   0.172   4.688   4.404
10260SOL     OW31678   0.750   6.340   2.852
10260SOL    HW131679   0.675   6.288   2.893
10260SOL    HW231680   0.736   6.347   2.753
10261SOL     OW31681   0.247   5.353   2.301
10261SOL    HW131682   0.313   5.307   2.360
10261SOL    HW231683   0.295   5.399   2.226
10262SOL     OW31684   3.335   4.951   4.415
10262SOL    HW131685   3.279   4.919   4.491
10262SOL    HW231686   3.348   5.050   4.421
10263SOL     OW31687   4.843   2.079   6.398
10263SOL    HW131688   4.877   1.986   6.387
10263SOL    HW231689   4.820   2.117   6.308
10264SOL     OW31690   5.815   1.368   6.169
10264SOL    HW131691   5.780   1.294   6.112
10264SOL    HW231692   5.760   1.451   6.153
10265SOL     OW31693   3.544   1.810   2.964
10265SOL    HW131694   3.530   1.774   2.872
10265SOL    HW231695   3.628   1.771   3.002
10266SOL     OW31696   3.726   3.587   6.297
10266SOL    HW131697   3.769   3.674   6.320
10266SOL    HW231698   3.690   3.545   6.380
10267SOL     OW31699   0.168   1.739   0.058
10267SOL    HW131700   0.181   1.812   0.125
10267SOL    HW231701   0.102   1.769   7.014
10268SOL     OW31702   5.362   5.716   1.429
10268SOL    HW131703   5.286   5.778   1.441
10268SOL    HW231704   5.342   5.652   1.355
10269SOL     OW31705   2.301   2.176   5.957
10269SOL    HW131706   2.207   2.181   5.988
10269SOL    HW231707   2.305   2.201   5.860
10270SOL     OW31708   1.971   5.955   0.593
10270SOL    HW131709   1.922   6.042   0.591
10270SOL    HW231710   1.934   5.895   0.522
10271SOL     OW31711   3.401   3.717   1.016
10271SOL    HW131712   3.339   3.638   1.017
10271SOL    HW231713   3.407   3.753   0.923
10272SOL     OW31714   1.070   0.840   4.763
10272SOL    HW131715   1.070   0.853   4.863
10272SOL    HW231716   0.982   0.869   4.726
10273SOL     OW31717   3.344   5.807   4.293
10273SOL    HW131718   3.386   5.716   4.295
10273SOL    HW231719   3.257   5.804   4.341
10274SOL     OW31720   1.315   4.986   5.679
10274SOL    HW131721   1.253   4.958   5.606
10274SOL    HW231722   1.267   5.049   5.741
10275SOL     OW31723   0.950   6.485   2.980
10275SOL    HW131724   0.870   6.451   2.931
10275SOL    HW231725   0.923   6.561   3.040
10276SOL     OW31726   6.886   5.403   5.454
10276SOL    HW131727   6.836   5.443   5.531
10276SOL    HW231728   6.888   5.303   5.464
10277SOL     OW31729   2.932   6.413   3.954
10277SOL    HW131730   2.883   6.351   4.015
10277SOL    HW231731   2.871   6.444   3.882
10278SOL     OW31732   6.067   0.410   6.384
10278SOL    HW131733   6.027   0.397   6.294
10278SOL    HW231734   6.140   0.478   6.379
10279SOL     OW31735   3.427   0.102   4.432
10279SOL    HW131736   3.367   0.153   4.371
10279SOL    HW231737   3.402   0.120   4.527
10280SOL     OW31738   1.712   4.454   1.391
10280SOL    HW131739   1.799   4.482   1.350
10280SOL    HW231740   1.727   4.426   1.485
10281SOL     OW31741   4.881   1.199   2.439
10281SOL    HW131742   4.972   1.157   2.445
10281SOL    HW231743   4.844   1.212   2.531
10282SOL     OW31744   0.691   2.361   3.778
10282SOL    HW131745   0.717   2.378   3.873
10282SOL    HW231746   0.748   2.287   3.741
10283SOL     OW31747   0.970   3.434   0.630
10283SOL    HW131748   0.915   3.474   0.557
10283SOL    HW231749   1.015   3.506   0.683
10284SOL     OW31750   5.492   4.038   5.126
10284SOL    HW131751   5.580   4.065   5.087
10284SOL    HW231752   5.508   3.980   5.206
10285SOL     OW31753   4.862   0.398   1.153
10285SOL    HW131754   4.768   0.426   1.173
10285SOL    HW231755   4.862   0.309   1.108
10286SOL     OW31756   3.533   1.292   3.344
10286SOL    HW131757   3.454   1.280   3.283
10286SOL    HW231758   3.608   1.234   3.313
10287SOL     OW31759   1.230   6.673   1.591
10287SOL    HW131760   1.160   6.680   1.520
10287SOL    HW231761   1.314   6.637   1.551
10288SOL     OW31762   5.153   5.661   3.226
10288SOL    HW131763   5.102   5.714   3.158
10288SOL    HW231764   5.093   5.637   3.302
10289SOL     OW31765   3.112   1.576   1.638
10289SOL    HW131766   3.018   1.611   1.638
10289SOL    HW231767   3.152   1.590   1.547
10290SOL     OW31768   4.126   3.241   2.354
10290SOL    HW131769   4.106   3.319   2.414
10290SOL    HW231770   4.217   3.205   2.376
10291SOL     OW31771   3.794   0.886   3.376
10291SOL    HW131772   3.709   0.861   3.422
10291SOL    HW231773   3.788   0.861   3.279
10292SOL     OW31774   0.293   2.312   5.121
10292SOL    HW131775   0.308   2.307   5.022
10292SOL    HW231776   0.252   2.401   5.143
10293SOL     OW31777   1.741   5.920   3.157
10293SOL    HW131778   1.764   5.827   3.183
10293SOL    HW231779   1.679   5.960   3.225
10294SOL     OW31780   4.896   2.213   2.764
10294SOL    HW131781   4.911   2.176   2.856
10294SOL    HW231782   4.848   2.145   2.708
10295SOL     OW31783   0.155   4.717   5.512
10295SOL    HW131784   0.136   4.678   5.602
10295SOL    HW231785   0.111   4.663   5.441
10296SOL     OW31786   5.824   4.289   5.899
10296SOL    HW131787   5.876   4.255   5.820
10296SOL    HW231788   5.886   4.299   5.977
10297SOL     OW31789   1.816   6.253   3.835
10297SOL    HW131790   1.782   6.347   3.839
10297SOL    HW231791   1.910   6.253   3.802
10298SOL     OW31792   5.063   3.838   3.897
10298SOL    HW131793   5.084   3.935   3.907
10298SOL    HW231794   5.006   3.824   3.816
10299SOL     OW31795   4.762   4.336   3.743
10299SOL    HW131796   4.807   4.423   3.724
10299SOL    HW231797   4.828   4.262   3.739
10300SOL     OW31798   1.108   3.406   1.663
10300SOL    HW131799   1.067   3.448   1.581
10300SOL    HW231800   1.188   3.353   1.636
10301SOL     OW31801   6.056   1.168   3.180
10301SOL    HW131802   5.958   1.160   3.194
10301SOL    HW231803   6.079   1.261   3.150
10302SOL     OW31804   1.137   6.481   2.760
10302SOL    HW131805   1.089   6.487   2.847
10302SOL    HW231806   1.076   6.440   2.691
10303SOL     OW31807   3.872   3.457   1.247
10303SOL    HW131808   3.803   3.412   1.304
10303SOL    HW231809   3.914   3.390   1.186
10304SOL     OW31810   6.675   6.880   3.760
10304SOL    HW131811   6.755   6.856   3.815
10304SOL    HW231812   6.679   6.831   3.673
10305SOL     OW31813   2.169   5.771   6.939
10305SOL    HW131814   2.198   5.837   6.869
10305SOL    HW231815   2.235   5.771   7.014
10306SOL     OW31816   4.728   5.505   0.086
10306SOL    HW131817   4.817   5.460   0.092
10306SOL    HW231818   4.666   5.450   0.030
10307SOL     OW31819   1.455   0.896   5.774
10307SOL    HW131820   1.526   0.828   5.752
10307SOL    HW231821   1.406   0.868   5.856
10308SOL     OW31822   3.286   5.052   3.286
10308SOL    HW131823   3.236   5.053   3.372
10308SOL    HW231824   3.370   4.998   3.296
10309SOL     OW31825   5.656   6.730   3.135
10309SOL    HW131826   5.728   6.771   3.192
10309SOL    HW231827   5.698   6.675   3.062
10310SOL     OW31828   2.886   3.604   2.750
10310SOL    HW131829   2.978   3.641   2.735
10310SOL    HW231830   2.838   3.597   2.663
10311SOL     OW31831   0.480   5.539   0.632
10311SOL    HW131832   0.492   5.442   0.650
10311SOL    HW231833   0.540   5.592   0.691
10312SOL     OW31834   3.744   4.866   0.966
10312SOL    HW131835   3.806   4.889   0.891
10312SOL    HW231836   3.703   4.776   0.950
10313SOL     OW31837   4.659   0.483   2.688
10313SOL    HW131838   4.756   0.462   2.676
10313SOL    HW231839   4.643   0.580   2.668
10314SOL     OW31840   6.422   0.218   1.051
10314SOL    HW131841   6.398   0.136   1.103
10314SOL    HW231842   6.351   0.236   0.983
10315SOL     OW31843   6.655   5.566   5.527
10315SOL    HW131844   6.598   5.565   5.445
10315SOL    HW231845   6.714   5.647   5.525
10316SOL     OW31846   0.535   3.538   4.946
10316SOL    HW131847   0.436   3.528   4.952
10316SOL    HW231848   0.571   3.561   5.037
10317SOL     OW31849   4.324   5.131   6.314
10317SOL    HW131850   4.227   5.115   6.328
10317SOL    HW231851   4.354   5.083   6.232
10318SOL     OW31852   6.331   5.321   1.598
10318SOL    HW131853   6.373   5.412   1.594
10318SOL    HW231854   6.392   5.258   1.646
10319SOL     OW31855   7.021   4.943   3.603
10319SOL    HW131856   6.924   4.962   3.619
10319SOL    HW231857   0.048   5.028   3.611
10320SOL     OW31858   0.351   6.257   0.568
10320SOL    HW131859   0.375   6.354   0.579
10320SOL    HW231860   0.336   6.237   0.472
10321SOL     OW31861   4.517   5.512   4.928
10321SOL    HW131862   4.463   5.451   4.986
10321SOL    HW231863   4.466   5.596   4.911
10322SOL     OW31864   6.620   5.459   1.013
10322SOL    HW131865   6.650   5.426   0.924
10322SOL    HW231866   6.520   5.470   1.012
10323SOL     OW31867   5.589   3.167   6.232
10323SOL    HW131868   5.612   3.157   6.135
10323SOL    HW231869   5.497   3.131   6.248
10324SOL     OW31870   3.188   3.715   3.738
10324SOL    HW131871   3.177   3.741   3.642
10324SOL    HW231872   3.285   3.707   3.761
10325SOL     OW31873   0.118   3.187   3.279
10325SOL    HW131874   0.096   3.267   3.335
10325SOL    HW231875   0.043   3.170   3.214
10326SOL     OW31876   5.144   2.840   6.907
10326SOL    HW131877   5.051   2.852   6.941
10326SOL    HW231878   5.203   2.911   6.946
10327SOL     OW31879   0.414   1.240   2.767
10327SOL    HW131880   0.407   1.324   2.713
10327SOL    HW231881   0.392   1.260   2.863
10328SOL     OW31882   5.953   3.536   2.400
10328SOL    HW131883   6.006   3.614   2.432
10328SOL    HW231884   5.860   3.564   2.380
10329SOL     OW31885   3.414   0.473   2.785
10329SOL    HW131886   3.347   0.542   2.757
10329SOL    HW231887   3.435   0.413   2.708
10330SOL     OW31888   3.569   5.032   2.621
10330SOL    HW131889   3.656   5.003   2.580
10330SOL    HW231890   3.496   4.970   2.592
10331SOL     OW31891   5.270   1.055   3.824
10331SOL    HW131892   5.215   0.972   3.812
10331SOL    HW231893   5.213   1.136   3.809
10332SOL     OW31894   7.023   1.952   0.645
10332SOL    HW131895   6.988   2.028   0.591
10332SOL    HW231896   0.066   1.985   0.710
10333SOL     OW31897   5.906   5.651   4.435
10333SOL    HW131898   5.990   5.638   4.487
10333SOL    HW231899   5.927   5.658   4.338
10334SOL     OW31900   2.162   4.950   4.147
10334SOL    HW131901   2.067   4.930   4.172
10334SOL    HW231902   2.205   4.867   4.111
10335SOL     OW31903   2.662   5.090   0.971
10335SOL    HW131904   2.572   5.058   0.941
10335SOL    HW231905   2.672   5.187   0.949
10336SOL     OW31906   4.655   6.821   2.508
10336SOL    HW131907   4.665   6.866   2.419
10336SOL    HW231908   4.586   6.869   2.562
10337SOL     OW31909   0.371   5.119   4.905
10337SOL    HW131910   0.297   5.076   4.957
10337SOL    HW231911   0.368   5.087   4.810
10338SOL     OW31912   2.864   0.016   2.127
10338SOL    HW131913   2.820   0.056   2.208
10338SOL    HW231914   2.908   6.956   2.154
10339SOL     OW31915   3.049   6.237   1.569
10339SOL    HW131916   3.038   6.167   1.499
10339SOL    HW231917   3.073   6.194   1.656
10340SOL     OW31918   2.735   5.792   0.343
10340SOL    HW131919   2.669   5.786   0.418
10340SOL    HW231920   2.827   5.777   0.379
10341SOL     OW31921   2.372   1.640   2.225
10341SOL    HW131922   2.367   1.712   2.156
10341SOL    HW231923   2.283   1.631   2.270
10342SOL     OW31924   2.164   0.443   5.641
10342SOL    HW131925   2.207   0.357   5.614
10342SOL    HW231926   2.124   0.432   5.732
10343SOL     OW31927   2.721   3.688   6.256
10343SOL    HW131928   2.767   3.606   6.290
10343SOL    HW231929   2.665   3.727   6.330
10344SOL     OW31930   4.138   3.656   5.122
10344SOL    HW131931   4.225   3.665   5.074
10344SOL    HW231932   4.063   3.679   5.060
10345SOL     OW31933   2.043   1.487   0.076
10345SOL    HW131934   2.058   1.494   0.175
10345SOL    HW231935   2.051   1.578   0.035
10346SOL     OW31936   4.973   0.153   0.151
10346SOL    HW131937   4.899   0.164   0.085
10346SOL    HW231938   5.020   0.241   0.163
10347SOL     OW31939   5.321   1.897   1.783
10347SOL    HW131940   5.264   1.970   1.745
10347SOL    HW231941   5.355   1.924   1.873
10348SOL     OW31942   5.813   1.016   6.208
10348SOL    HW131943   5.876   1.039   6.134
10348SOL    HW231944   5.865   0.997   6.292
10349SOL     OW31945   6.316   1.695   1.559
10349SOL    HW131946   6.390   1.656   1.504
10349SOL    HW231947   6.278   1.625   1.618
10350SOL     OW31948   2.654   5.899   4.410
10350SOL    HW131949   2.653   5.831   4.337
10350SOL    HW231950   2.576   5.882   4.471
10351SOL     OW31951   5.819   5.299   5.381
10351SOL    HW131952   5.853   5.366   5.448
10351SOL    HW231953   5.763   5.231   5.428
10352SOL     OW31954   5.220   1.707   6.878
10352SOL    HW131955   5.212   1.784   6.815
10352SOL    HW231956   5.308   1.712   6.926
10353SOL     OW31957   0.344   2.761   2.980
10353SOL    HW131958   0.246   2.750   3.000
10353SOL    HW231959   0.384   2.671   2.964
10354SOL     OW31960   0.134   3.688   0.515
10354SOL    HW131961   0.094   3.604   0.552
10354SOL    HW231962   0.091   3.710   0.428
10355SOL     OW31963   1.392   0.180   0.386
10355SOL    HW131964   1.391   0.096   0.440
10355SOL    HW231965   1.461   0.172   0.314
10356SOL     OW31966   6.703   3.441   6.971
10356SOL    HW131967   6.725   3.505   0.019
10356SOL    HW231968   6.606   3.449   6.947
10357SOL     OW31969   1.175   2.977   6.036
10357SOL    HW131970   1.100   3.038   6.062
10357SOL    HW231971   1.240   3.028   5.980
10358SOL     OW31972   0.976   2.702   2.880
10358SOL    HW131973   1.016   2.759   2.952
10358SOL    HW231974   0.879   2.724   2.870
10359SOL     OW31975   5.458   2.091   2.675
10359SOL    HW131976   5.406   2.099   2.760
10359SOL    HW231977   5.398   2.062   2.601
10360SOL     OW31978   5.626   4.907   2.912
10360SOL    HW131979   5.579   4.888   2.826
10360SOL    HW231980   5.609   5.001   2.939
10361SOL     OW31981   0.680   1.123   1.561
10361SOL    HW131982   0.723   1.117   1.471
10361SOL    HW231983   0.636   1.212   1.572
10362SOL     OW31984   1.339   4.791   2.937
10362SOL    HW131985   1.313   4.759   2.846
10362SOL    HW231986   1.265   4.847   2.975
10363SOL     OW31987   5.269   3.410   0.704
10363SOL    HW131988   5.351   3.360   0.678
10363SOL    HW231989   5.289   3.508   0.704
10364SOL     OW31990   5.441   4.553   2.128
10364SOL    HW131991   5.509   4.527   2.059
10364SOL    HW231992   5.352   4.566   2.084
10365SOL     OW31993   6.029   5.650   0.513
10365SOL    HW131994   6.087   5.569   0.521
10365SOL    HW231995   5.989   5.653   0.422
10366SOL     OW31996   3.596   6.157   2.684
10366SOL    HW131997   3.611   6.195   2.593
10366SOL    HW231998   3.594   6.231   2.751
10367SOL     OW31999   5.934   1.959   0.822
10367SOL    HW132000   5.970   2.004   0.741
10367SOL    HW232001   6.006   1.906   0.867
10368SOL     OW32002   2.221   0.388   1.954
10368SOL    HW132003   2.238   0.469   1.898
10368SOL    HW232004   2.155   0.329   1.907
10369SOL     OW32005   2.939   6.599   5.054
10369SOL    HW132006   2.847   6.576   5.086
10369SOL    HW232007   3.006   6.541   5.099
10370SOL     OW32008   0.340   1.978   4.335
10370SOL    HW132009   0.435   1.997   4.361
10370SOL    HW232010   0.336   1.900   4.273
10371SOL     OW32011   3.535   5.750   3.272
10371SOL    HW132012   3.526   5.841   3.312
10371SOL    HW232013   3.599   5.753   3.195
10372SOL     OW32014   2.423   0.212   1.655
10372SOL    HW132015   2.484   0.233   1.579
10372SOL    HW232016   2.353   0.147   1.625
10373SOL     OW32017   7.008   1.658   5.923
10373SOL    HW132018   6.926   1.671   5.868
10373SOL    HW232019   0.063   1.660   5.864
10374SOL     OW32020   3.453   6.843   4.535
10374SOL    HW132021   3.536   6.830   4.589
10374SOL    HW232022   3.456   6.931   4.489
10375SOL     OW32023   4.285   2.747   0.243
10375SOL    HW132024   4.350   2.730   0.169
10375SOL    HW232025   4.257   2.661   0.285
10376SOL     OW32026   1.591   5.889   2.890
10376SOL    HW132027   1.551   5.980   2.882
10376SOL    HW232028   1.690   5.897   2.902
10377SOL     OW32029   0.239   1.422   1.852
10377SOL    HW132030   0.304   1.498   1.850
10377SOL    HW232031   0.285   1.337   1.829
10378SOL     OW32032   0.228   5.145   5.352
10378SOL    HW132033   0.187   5.178   5.267
10378SOL    HW232034   0.328   5.144   5.343
10379SOL     OW32035   2.536   6.652   4.018
10379SOL    HW132036   2.501   6.698   4.100
10379SOL    HW232037   2.620   6.697   3.988
10380SOL     OW32038   1.386   2.913   4.934
10380SOL    HW132039   1.475   2.914   4.980
10380SOL    HW232040   1.368   3.002   4.892
10381SOL     OW32041   4.526   4.227   1.576
10381SOL    HW132042   4.537   4.318   1.537
10381SOL    HW232043   4.472   4.233   1.660
10382SOL     OW32044   3.367   4.794   1.737
10382SOL    HW132045   3.446   4.733   1.741
10382SOL    HW232046   3.352   4.836   1.827
10383SOL     OW32047   2.073   4.903   0.322
10383SOL    HW132048   1.982   4.940   0.307
10383SOL    HW232049   2.105   4.857   0.239
10384SOL     OW32050   6.141   6.422   1.321
10384SOL    HW132051   6.236   6.392   1.310
10384SOL    HW232052   6.094   6.415   1.233
10385SOL     OW32053   3.513   5.068   6.142
10385SOL    HW132054   3.524   4.969   6.145
10385SOL    HW232055   3.440   5.095   6.206
10386SOL     OW32056   0.074   1.020   6.592
10386SOL    HW132057   0.164   1.055   6.567
10386SOL    HW232058   0.081   0.967   6.677
10387SOL     OW32059   4.810   3.120   3.137
10387SOL    HW132060   4.712   3.129   3.118
10387SOL    HW232061   4.862   3.147   3.056
10388SOL     OW32062   2.896   0.565   5.889
10388SOL    HW132063   2.874   0.502   5.814
10388SOL    HW232064   2.894   0.659   5.855
10389SOL     OW32065   6.478   3.740   6.996
10389SOL    HW132066   6.499   3.736   0.068
10389SOL    HW232067   6.447   3.651   6.965
10390SOL     OW32068   2.214   2.131   0.948
10390SOL    HW132069   2.313   2.137   0.933
10390SOL    HW232070   2.188   2.035   0.964
10391SOL     OW32071   0.640   6.374   3.586
10391SOL    HW132072   0.671   6.400   3.678
10391SOL    HW232073   0.555   6.422   3.565
10392SOL     OW32074   6.775   5.170   4.782
10392SOL    HW132075   6.776   5.267   4.761
10392SOL    HW232076   6.861   5.128   4.752
10393SOL     OW32077   2.030   3.417   4.061
10393SOL    HW132078   2.044   3.419   3.962
10393SOL    HW232079   2.062   3.503   4.100
10394SOL     OW32080   2.787   6.265   4.130
10394SOL    HW132081   2.725   6.337   4.162
10394SOL    HW232082   2.754   6.176   4.162
10395SOL     OW32083   0.441   6.655   1.292
10395SOL    HW132084   0.487   6.571   1.263
10395SOL    HW232085   0.481   6.687   1.378
10396SOL     OW32086   3.124   2.130   3.811
10396SOL    HW132087   3.194   2.077   3.764
10396SOL    HW232088   3.066   2.176   3.743
10397SOL     OW32089   3.228   2.153   2.815
10397SOL    HW132090   3.328   2.151   2.811
10397SOL    HW232091   3.192   2.159   2.722
10398SOL     OW32092   0.006   2.875   0.963
10398SOL    HW132093   6.973   2.794   0.970
10398SOL    HW232094   7.012   2.937   1.039
10399SOL     OW32095   5.542   2.563   2.516
10399SOL    HW132096   5.631   2.528   2.544
10399SOL    HW232097   5.517   2.641   2.574
10400SOL     OW32098   4.255   6.871   7.023
10400SOL    HW132099   4.163   6.902   7.002
10400SOL    HW232100   4.281   6.902   0.089
10401SOL     OW32101   6.075   0.856   3.919
10401SOL    HW132102   6.132   0.779   3.892
10401SOL    HW232103   6.128   0.941   3.914
10402SOL     OW32104   6.664   3.201   4.841
10402SOL    HW132105   6.730   3.137   4.801
10402SOL    HW232106   6.713   3.279   4.880
10403SOL     OW32107   3.583   1.068   3.603
10403SOL    HW132108   3.603   1.117   3.688
10403SOL    HW232109   3.591   1.132   3.526
10404SOL     OW32110   6.069   0.152   4.963
10404SOL    HW132111   6.109   0.061   4.974
10404SOL    HW232112   6.122   0.202   4.894
10405SOL     OW32113   0.439   1.552   5.822
10405SOL    HW132114   0.518   1.590   5.870
10405SOL    HW232115   0.442   1.580   5.726
10406SOL     OW32116   3.055   5.098   2.776
10406SOL    HW132117   2.979   5.043   2.810
10406SOL    HW232118   3.135   5.083   2.835
10407SOL     OW32119   3.430   6.702   6.121
10407SOL    HW132120   3.412   6.672   6.215
10407SOL    HW232121   3.431   6.801   6.117
10408SOL     OW32122   4.583   0.585   0.610
10408SOL    HW132123   4.532   0.508   0.647
10408SOL    HW232124   4.627   0.635   0.684
10409SOL     OW32125   6.860   4.392   1.439
10409SOL    HW132126   6.803   4.368   1.361
10409SOL    HW232127   6.885   4.489   1.433
10410SOL     OW32128   5.821   1.044   6.661
10410SOL    HW132129   5.796   1.123   6.717
10410SOL    HW232130   5.747   0.977   6.662
10411SOL     OW32131   3.718   6.531   3.281
10411SOL    HW132132   3.775   6.600   3.235
10411SOL    HW232133   3.771   6.489   3.354
10412SOL     OW32134   6.322   0.785   0.526
10412SOL    HW132135   6.391   0.728   0.481
10412SOL    HW232136   6.342   0.881   0.508
10413SOL     OW32137   6.010   2.267   0.963
10413SOL    HW132138   6.075   2.197   0.934
10413SOL    HW232139   6.055   2.356   0.965
10414SOL     OW32140   4.115   4.139   5.315
10414SOL    HW132141   4.116   4.239   5.324
10414SOL    HW232142   4.027   4.111   5.275
10415SOL     OW32143   0.554   3.924   4.862
10415SOL    HW132144   0.600   3.859   4.802
10415SOL    HW232145   0.491   3.980   4.808
10416SOL     OW32146   6.532   0.813   3.571
10416SOL    HW132147   6.501   0.908   3.579
10416SOL    HW232148   6.626   0.812   3.538
10417SOL     OW32149   3.497   5.434   4.458
10417SOL    HW132150   3.466   5.515   4.409
10417SOL    HW232151   3.591   5.412   4.430
10418SOL     OW32152   0.509   4.687   6.514
10418SOL    HW132153   0.495   4.589   6.495
10418SOL    HW232154   0.575   4.724   6.449
10419SOL     OW32155   1.431   6.915   6.319
10419SOL    HW132156   1.485   6.959   6.247
10419SOL    HW232157   1.365   6.981   6.355
10420SOL     OW32158   6.950   3.293   2.741
10420SOL    HW132159   7.024   3.349   2.704
10420SOL    HW232160   6.919   3.228   2.672
10421SOL     OW32161   0.232   1.821   3.460
10421SOL    HW132162   0.307   1.860   3.408
10421SOL    HW232163   0.145   1.846   3.418
10422SOL     OW32164   6.176   2.776   5.402
10422SOL    HW132165   6.091   2.724   5.400
10422SOL    HW232166   6.226   2.754   5.486
10423SOL     OW32167   5.207   5.061   4.718
10423SOL    HW132168   5.197   4.991   4.647
10423SOL    HW232169   5.262   5.137   4.684
10424SOL     OW32170   5.722   3.185   0.467
10424SOL    HW132171   5.626   3.183   0.496
10424SOL    HW232172   5.740   3.271   0.420
10425SOL     OW32173   1.724   6.720   1.930
10425SOL    HW132174   1.713   6.744   1.834
10425SOL    HW232175   1.712   6.801   1.987
10426SOL     OW32176   6.708   4.836   0.745
10426SOL    HW132177   6.638   4.788   0.692
10426SOL    HW232178   6.745   4.775   0.815
10427SOL     OW32179   3.713   1.409   0.131
10427SOL    HW132180   3.788   1.465   0.166
10427SOL    HW232181   3.647   1.467   0.084
10428SOL     OW32182   2.665   1.401   4.092
10428SOL    HW132183   2.746   1.458   4.104
10428SOL    HW232184   2.602   1.445   4.028
10429SOL     OW32185   0.230   5.465   1.305
10429SOL    HW132186   0.300   5.398   1.328
10429SOL    HW232187   0.223   5.474   1.206
10430SOL     OW32188   4.068   6.153   3.803
10430SOL    HW132189   4.090   6.056   3.816
10430SOL    HW232190   4.129   6.192   3.735
10431SOL     OW32191   3.381   5.980   4.574
10431SOL    HW132192   3.446   6.056   4.562
10431SOL    HW232193   3.292   6.006   4.536
10432SOL     OW32194   6.330   0.408   4.441
10432SOL    HW132195   6.282   0.328   4.405
10432SOL    HW232196   6.427   0.385   4.454
10433SOL     OW32197   1.620   7.024   1.113
10433SOL    HW132198   1.541   0.037   1.160
10433SOL    HW232199   1.689   0.069   1.101
10434SOL     OW32200   3.907   6.906   3.298
10434SOL    HW132201   3.981   6.921   3.364
10434SOL    HW232202   3.914   6.813   3.262
10435SOL     OW32203   0.009   6.983   4.789
10435SOL    HW132204   0.042   6.970   4.695
10435SOL    HW232205   6.941   6.950   4.797
10436SOL     OW32206   0.927   4.929   5.687
10436SOL    HW132207   0.906   5.016   5.731
10436SOL    HW232208   0.995   4.943   5.615
10437SOL     OW32209   6.149   4.563   5.778
10437SOL    HW132210   6.210   4.620   5.832
10437SOL    HW232211   6.165   4.466   5.800
10438SOL     OW32212   5.229   6.513   6.837
10438SOL    HW132213   5.146   6.484   6.790
10438SOL    HW232214   5.231   6.613   6.842
10439SOL     OW32215   3.357   1.616   6.043
10439SOL    HW132216   3.345   1.627   5.944
10439SOL    HW232217   3.291   1.550   6.077
10440SOL     OW32218   1.816   6.091   0.280
10440SOL    HW132219   1.886   6.051   0.221
10440SOL    HW232220   1.852   6.175   0.321
10441SOL     OW32221   4.566   1.313   0.104
10441SOL    HW132222   4.492   1.248   0.087
10441SOL    HW232223   4.652   1.277   0.068
10442SOL     OW32224   3.277   6.340   5.903
10442SOL    HW132225   3.276   6.244   5.931
10442SOL    HW232226   3.237   6.349   5.811
10443SOL     OW32227   5.138   3.723   5.065
10443SOL    HW132228   5.234   3.750   5.052
10443SOL    HW232229   5.118   3.642   5.010
10444SOL     OW32230   4.084   6.182   4.541
10444SOL    HW132231   4.115   6.147   4.453
10444SOL    HW232232   4.159   6.178   4.607
10445SOL     OW32233   0.602   5.444   3.768
10445SOL    HW132234   0.560   5.523   3.814
10445SOL    HW232235   0.683   5.416   3.819
10446SOL     OW32236   1.175   3.630   5.947
10446SOL    HW132237   1.272   3.632   5.974
10446SOL    HW232238   1.142   3.536   5.952
10447SOL     OW32239   6.365   1.050   1.728
10447SOL    HW132240   6.372   1.107   1.810
10447SOL    HW232241   6.285   0.991   1.735
10448SOL     OW32242   4.254   2.457   1.763
10448SOL    HW132243   4.196   2.411   1.830
10448SOL    HW232244   4.197   2.508   1.699
10449SOL     OW32245   2.181   5.329   5.019
10449SOL    HW132246   2.136   5.381   5.091
10449SOL    HW232247   2.205   5.390   4.943
10450SOL     OW32248   0.376   2.051   0.706
10450SOL    HW132249   0.456   2.001   0.740
10450SOL    HW232250   0.300   2.038   0.769
10451SOL     OW32251   1.972   5.257   2.801
10451SOL    HW132252   1.908   5.254   2.877
10451SOL    HW232253   2.050   5.315   2.825
10452SOL     OW32254   6.370   3.593   3.766
10452SOL    HW132255   6.359   3.611   3.863
10452SOL    HW232256   6.424   3.510   3.753
10453SOL     OW32257   5.554   6.142   1.500
10453SOL    HW132258   5.472   6.101   1.539
10453SOL    HW232259   5.629   6.076   1.501
10454SOL     OW32260   5.115   2.707   1.426
10454SOL    HW132261   5.057   2.789   1.422
10454SOL    HW232262   5.180   2.708   1.350
10455SOL     OW32263   0.260   4.607   2.571
10455SOL    HW132264   0.197   4.674   2.610
10455SOL    HW232265   0.224   4.515   2.586
10456SOL     OW32266   3.348   6.397   1.718
10456SOL    HW132267   3.365   6.472   1.654
10456SOL    HW232268   3.360   6.310   1.670
10457SOL     OW32269   3.468   2.892   3.085
10457SOL    HW132270   3.474   2.900   3.184
10457SOL    HW232271   3.553   2.854   3.049
10458SOL     OW32272   0.180   0.268   0.276
10458SOL    HW132273   0.155   0.292   0.182
10458SOL    HW232274   0.099   0.266   0.333
10459SOL     OW32275   5.274   5.366   3.260
10459SOL    HW132276   5.212   5.375   3.182
10459SOL    HW232277   5.282   5.455   3.306
10460SOL     OW32278   2.174   5.675   1.539
10460SOL    HW132279   2.172   5.633   1.448
10460SOL    HW232280   2.096   5.737   1.548
10461SOL     OW32281   1.222   6.198   5.813
10461SOL    HW132282   1.244   6.292   5.788
10461SOL    HW232283   1.151   6.199   5.884
10462SOL     OW32284   5.599   1.461   2.497
10462SOL    HW132285   5.677   1.411   2.459
10462SOL    HW232286   5.530   1.473   2.426
10463SOL     OW32287   3.892   3.619   5.907
10463SOL    HW132288   3.928   3.560   5.835
10463SOL    HW232289   3.824   3.569   5.960
10464SOL     OW32290   5.246   0.016   0.251
10464SOL    HW132291   5.177   0.086   0.232
10464SOL    HW232292   5.303   0.045   0.328
10465SOL     OW32293   6.468   6.936   0.540
10465SOL    HW132294   6.418   6.941   0.627
10465SOL    HW232295   6.404   6.933   0.464
10466SOL     OW32296   5.040   5.449   4.761
10466SOL    HW132297   4.965   5.392   4.727
10466SOL    HW232298   5.094   5.396   4.827
10467SOL     OW32299   1.341   1.858   5.406
10467SOL    HW132300   1.414   1.921   5.432
10467SOL    HW232301   1.331   1.788   5.478
10468SOL     OW32302   3.508   5.834   3.678
10468SOL    HW132303   3.581   5.781   3.635
10468SOL    HW232304   3.485   5.912   3.620
10469SOL     OW32305   3.182   3.947   0.739
10469SOL    HW132306   3.169   3.871   0.676
10469SOL    HW232307   3.129   3.931   0.822
10470SOL     OW32308   1.994   2.017   2.501
10470SOL    HW132309   2.040   2.100   2.535
10470SOL    HW232310   1.945   1.973   2.576
10471SOL     OW32311   2.371   3.386   1.037
10471SOL    HW132312   2.443   3.440   1.079
10471SOL    HW232313   2.325   3.332   1.107
10472SOL     OW32314   3.756   6.189   1.460
10472SOL    HW132315   3.668   6.225   1.430
10472SOL    HW232316   3.824   6.204   1.388
10473SOL     OW32317   5.446   0.207   0.894
10473SOL    HW132318   5.421   0.298   0.864
10473SOL    HW232319   5.364   0.155   0.918
10474SOL     OW32320   4.897   0.509   4.796
10474SOL    HW132321   4.988   0.523   4.756
10474SOL    HW232322   4.842   0.591   4.783
10475SOL     OW32323   4.606   6.254   1.259
10475SOL    HW132324   4.517   6.258   1.214
10475SOL    HW232325   4.660   6.179   1.219
10476SOL     OW32326   0.136   5.448   6.534
10476SOL    HW132327   0.186   5.376   6.583
10476SOL    HW232328   0.106   5.412   6.445
10477SOL     OW32329   6.414   3.493   4.926
10477SOL    HW132330   6.454   3.531   4.842
10477SOL    HW232331   6.487   3.464   4.988
10478SOL     OW32332   0.787   0.051   6.977
10478SOL    HW132333   0.750   0.067   6.885
10478SOL    HW232334   0.872   0.102   6.987
10479SOL     OW32335   1.216   1.982   1.732
10479SOL    HW132336   1.144   1.922   1.696
10479SOL    HW232337   1.174   2.053   1.790
10480SOL     OW32338   5.850   0.322   1.006
10480SOL    HW132339   5.897   0.401   1.046
10480SOL    HW232340   5.757   0.317   1.041
10481SOL     OW32341   2.925   1.352   4.812
10481SOL    HW132342   2.928   1.447   4.844
10481SOL    HW232343   2.881   1.348   4.722
10482SOL     OW32344   0.663   5.832   3.852
10482SOL    HW132345   0.742   5.829   3.914
10482SOL    HW232346   0.641   5.927   3.831
10483SOL     OW32347   6.658   5.332   0.331
10483SOL    HW132348   6.583   5.286   0.283
10483SOL    HW232349   6.620   5.391   0.402
10484SOL     OW32350   0.012   0.750   0.920
10484SOL    HW132351   0.070   0.678   0.958
10484SOL    HW232352   6.947   0.713   0.900
10485SOL     OW32353   4.073   3.750   3.197
10485SOL    HW132354   4.070   3.831   3.255
10485SOL    HW232355   4.047   3.775   3.103
10486SOL     OW32356   5.748   0.157   5.755
10486SOL    HW132357   5.676   0.129   5.819
10486SOL    HW232358   5.715   0.231   5.697
10487SOL     OW32359   4.762   1.887   1.493
10487SOL    HW132360   4.740   1.862   1.588
10487SOL    HW232361   4.677   1.903   1.443
10488SOL     OW32362   0.790   2.112   5.955
10488SOL    HW132363   0.802   2.023   5.912
10488SOL    HW232364   0.876   2.143   5.995
10489SOL     OW32365   5.770   5.845   3.611
10489SOL    HW132366   5.785   5.820   3.707
10489SOL    HW232367   5.688   5.901   3.604
10490SOL     OW32368   5.628   0.484   0.392
10490SOL    HW132369   5.650   0.581   0.379
10490SOL    HW232370   5.592   0.446   0.307
10491SOL     OW32371   1.431   2.807   6.538
10491SOL    HW132372   1.490   2.876   6.580
10491SOL    HW232373   1.482   2.721   6.528
10492SOL     OW32374   3.962   6.841   0.539
10492SOL    HW132375   4.028   6.830   0.465
10492SOL    HW232376   3.945   6.752   0.582
10493SOL     OW32377   4.077   5.627   1.154
10493SOL    HW132378   4.035   5.549   1.200
10493SOL    HW232379   4.166   5.647   1.195
10494SOL     OW32380   0.879   4.715   5.895
10494SOL    HW132381   0.799   4.660   5.869
10494SOL    HW232382   0.884   4.796   5.837
10495SOL     OW32383   6.968   6.054   6.935
10495SOL    HW132384   6.937   5.959   6.928
10495SOL    HW232385   6.974   6.094   6.844
10496SOL     OW32386   6.805   4.167   5.222
10496SOL    HW132387   6.807   4.211   5.312
10496SOL    HW232388   6.862   4.085   5.224
10497SOL     OW32389   1.978   6.809   1.636
10497SOL    HW132390   1.894   6.756   1.647
10497SOL    HW232391   2.033   6.770   1.563
10498SOL     OW32392   5.300   5.761   1.019
10498SOL    HW132393   5.256   5.816   0.948
10498SOL    HW232394   5.359   5.693   0.977
10499SOL     OW32395   5.859   5.662   1.316
10499SOL    HW132396   5.886   5.568   1.336
10499SOL    HW232397   5.761   5.664   1.295
10500SOL     OW32398   5.139   3.606   4.706
10500SOL    HW132399   5.111   3.702   4.702
10500SOL    HW232400   5.076   3.555   4.764
10501SOL     OW32401   2.709   5.782   2.512
10501SOL    HW132402   2.676   5.861   2.563
10501SOL    HW232403   2.638   5.711   2.508
10502SOL     OW32404   3.132   3.101   1.682
10502SOL    HW132405   3.065   3.159   1.636
10502SOL    HW232406   3.102   3.005   1.676
10503SOL     OW32407   6.594   3.923   6.513
10503SOL    HW132408   6.609   3.851   6.581
10503SOL    HW232409   6.512   3.902   6.460
10504SOL     OW32410   1.694   2.984   5.761
10504SOL    HW132411   1.614   3.013   5.708
10504SOL    HW232412   1.715   2.888   5.740
10505SOL     OW32413   5.960   5.807   2.364
10505SOL    HW132414   5.972   5.887   2.305
10505SOL    HW232415   5.865   5.801   2.394
10506SOL     OW32416   0.605   3.301   6.905
10506SOL    HW132417   0.538   3.366   6.869
10506SOL    HW232418   0.696   3.323   6.868
10507SOL     OW32419   2.951   4.737   0.103
10507SOL    HW132420   2.894   4.684   0.166
10507SOL    HW232421   2.918   4.832   0.101
10508SOL     OW32422   0.787   5.839   4.236
10508SOL    HW132423   0.743   5.920   4.197
10508SOL    HW232424   0.764   5.831   4.333
10509SOL     OW32425   4.843   3.195   4.331
10509SOL    HW132426   4.803   3.127   4.269
10509SOL    HW232427   4.829   3.287   4.295
10510SOL     OW32428   5.072   6.497   5.328
10510SOL    HW132429   5.101   6.406   5.297
10510SOL    HW232430   4.973   6.506   5.318
10511SOL     OW32431   3.106   1.298   1.744
10511SOL    HW132432   3.113   1.301   1.844
10511SOL    HW232433   3.114   1.390   1.707
10512SOL     OW32434   4.207   6.776   5.847
10512SOL    HW132435   4.159   6.863   5.837
10512SOL    HW232436   4.291   6.779   5.793
10513SOL     OW32437   6.204   2.746   2.240
10513SOL    HW132438   6.168   2.823   2.292
10513SOL    HW232439   6.170   2.751   2.146
10514SOL     OW32440   2.304   1.965   1.286
10514SOL    HW132441   2.351   1.923   1.208
10514SOL    HW232442   2.369   2.020   1.338
10515SOL     OW32443   2.213   2.238   4.287
10515SOL    HW132444   2.271   2.319   4.289
10515SOL    HW232445   2.163   2.235   4.201
10516SOL     OW32446   2.691   1.790   0.334
10516SOL    HW132447   2.745   1.706   0.327
10516SOL    HW232448   2.602   1.776   0.290
10517SOL     OW32449   1.923   4.141   2.867
10517SOL    HW132450   2.020   4.124   2.850
10517SOL    HW232451   1.911   4.234   2.903
10518SOL     OW32452   0.438   5.240   2.436
10518SOL    HW132453   0.441   5.230   2.535
10518SOL    HW232454   0.526   5.275   2.404
10519SOL     OW32455   3.066   5.096   1.673
10519SOL    HW132456   3.091   5.114   1.768
10519SOL    HW232457   3.111   5.012   1.643
10520SOL     OW32458   6.639   1.593   6.252
10520SOL    HW132459   6.659   1.517   6.314
10520SOL    HW232460   6.545   1.587   6.220
10521SOL     OW32461   6.228   3.969   1.585
10521SOL    HW132462   6.233   4.033   1.662
10521SOL    HW232463   6.292   3.997   1.514
10522SOL     OW32464   6.604   2.606   3.073
10522SOL    HW132465   6.652   2.562   2.997
10522SOL    HW232466   6.630   2.562   3.159
10523SOL     OW32467   0.383   4.373   3.964
10523SOL    HW132468   0.378   4.295   3.901
10523SOL    HW232469   0.447   4.352   4.038
10524SOL     OW32470   0.075   5.236   3.462
10524SOL    HW132471   0.068   5.312   3.527
10524SOL    HW232472   0.170   5.224   3.433
10525SOL     OW32473   4.527   1.022   4.766
10525SOL    HW132474   4.593   0.963   4.813
10525SOL    HW232475   4.573   1.103   4.732
10526SOL     OW32476   0.271   5.788   1.187
10526SOL    HW132477   0.287   5.887   1.186
10526SOL    HW232478   0.253   5.759   1.281
10527SOL     OW32479   0.000   0.849   5.839
10527SOL    HW132480   6.951   0.915   5.838
10527SOL    HW232481   0.061   0.867   5.762
10528SOL     OW32482   0.652   4.763   6.984
10528SOL    HW132483   0.749   4.748   6.963
10528SOL    HW232484   0.628   4.714   0.042
10529SOL     OW32485   1.599   5.995   5.897
10529SOL    HW132486   1.530   6.009   5.967
10529SOL    HW232487   1.574   5.914   5.843
10530SOL     OW32488   1.338   6.651   6.274
10530SOL    HW132489   1.370   6.744   6.294
10530SOL    HW232490   1.243   6.655   6.243
10531SOL     OW32491   2.989   2.503   5.386
10531SOL    HW132492   3.019   2.578   5.445
10531SOL    HW232493   3.068   2.465   5.338
10532SOL     OW32494   6.090   6.867   6.386
10532SOL    HW132495   6.090   6.928   6.308
10532SOL    HW232496   5.996   6.847   6.412
10533SOL     OW32497   3.090   6.138   3.901
10533SOL    HW132498   3.185   6.164   3.888
10533SOL    HW232499   3.034   6.220   3.910
10534SOL     OW32500   0.348   5.528   2.802
10534SOL    HW132501   0.408   5.448   2.807
10534SOL    HW232502   0.352   5.567   2.710
10535SOL     OW32503   2.653   1.134   2.227
10535SOL    HW132504   2.622   1.039   2.220
10535SOL    HW232505   2.714   1.155   2.150
10536SOL     OW32506   4.093   0.493   3.645
10536SOL    HW132507   4.031   0.566   3.617
10536SOL    HW232508   4.180   0.533   3.675
10537SOL     OW32509   4.591   6.497   3.680
10537SOL    HW132510   4.495   6.522   3.666
10537SOL    HW232511   4.625   6.449   3.599
10538SOL     OW32512   5.929   3.975   2.798
10538SOL    HW132513   6.007   3.945   2.744
10538SOL    HW232514   5.904   3.904   2.863
10539SOL     OW32515   6.199   5.886   2.476
10539SOL    HW132516   6.125   5.882   2.409
10539SOL    HW232517   6.239   5.795   2.487
10540SOL     OW32518   2.575   4.114   5.893
10540SOL    HW132519   2.622   4.033   5.860
10540SOL    HW232520   2.571   4.113   5.993
10541SOL     OW32521   3.029   3.233   4.639
10541SOL    HW132522   3.000   3.245   4.544
10541SOL    HW232523   3.073   3.143   4.649
10542SOL     OW32524   6.174   0.206   4.312
10542SOL    HW132525   6.160   0.278   4.244
10542SOL    HW232526   6.201   0.121   4.266
10543SOL     OW32527   6.412   2.394   5.859
10543SOL    HW132528   6.456   2.317   5.904
10543SOL    HW232529   6.319   2.405   5.893
10544SOL     OW32530   1.068   0.717   3.733
10544SOL    HW132531   1.101   0.811   3.722
10544SOL    HW232532   1.107   0.660   3.661
10545SOL     OW32533   1.215   2.718   2.744
10545SOL    HW132534   1.206   2.674   2.654
10545SOL    HW232535   1.126   2.753   2.772
10546SOL     OW32536   2.716   6.585   1.025
10546SOL    HW132537   2.637   6.574   0.965
10546SOL    HW232538   2.690   6.562   1.119
10547SOL     OW32539   4.595   0.312   4.724
10547SOL    HW132540   4.652   0.300   4.805
10547SOL    HW232541   4.542   0.396   4.733
10548SOL     OW32542   0.769   5.044   4.732
10548SOL    HW132543   0.740   5.110   4.800
10548SOL    HW232544   0.849   5.078   4.683
10549SOL     OW32545   0.452   1.753   0.409
10549SOL    HW132546   0.526   1.813   0.440
10549SOL    HW232547   0.366   1.784   0.450
10550SOL     OW32548   3.895   6.226   2.937
10550SOL    HW132549   3.912   6.140   2.888
10550SOL    HW232550   3.805   6.262   2.910
10551SOL     OW32551   2.614   1.742   6.111
10551SOL    HW132552   2.612   1.842   6.116
10551SOL    HW232553   2.705   1.713   6.081
10552SOL     OW32554   3.115   1.043   4.023
10552SOL    HW132555   3.090   0.948   4.001
10552SOL    HW232556   3.042   1.085   4.076
10553SOL     OW32557   6.875   5.373   1.078
10553SOL    HW132558   6.778   5.393   1.064
10553SOL    HW232559   6.905   5.412   1.165
10554SOL     OW32560   6.354   4.660   3.000
10554SOL    HW132561   6.356   4.570   2.957
10554SOL    HW232562   6.351   4.650   3.099
10555SOL     OW32563   2.765   2.258   0.626
10555SOL    HW132564   2.717   2.192   0.569
10555SOL    HW232565   2.864   2.247   0.613
10556SOL     OW32566   2.591   1.654   3.092
10556SOL    HW132567   2.618   1.573   3.144
10556SOL    HW232568   2.561   1.626   3.000
10557SOL     OW32569   1.851   3.695   4.696
10557SOL    HW132570   1.943   3.686   4.735
10557SOL    HW232571   1.787   3.721   4.767
10558SOL     OW32572   3.579   4.648   5.416
10558SOL    HW132573   3.632   4.566   5.393
10558SOL    HW232574   3.628   4.729   5.384
10559SOL     OW32575   3.463   0.580   0.693
10559SOL    HW132576   3.545   0.565   0.637
10559SOL    HW232577   3.473   0.665   0.744
10560SOL     OW32578   4.554   6.072   1.835
10560SOL    HW132579   4.576   6.093   1.931
10560SOL    HW232580   4.544   6.158   1.784
10561SOL     OW32581   4.904   4.437   1.852
10561SOL    HW132582   4.926   4.440   1.949
10561SOL    HW232583   4.960   4.503   1.802
10562SOL     OW32584   3.473   6.912   1.026
10562SOL    HW132585   3.410   6.986   1.000
10562SOL    HW232586   3.482   6.848   0.950
10563SOL     OW32587   0.794   6.996   0.777
10563SOL    HW132588   0.850   6.924   0.819
10563SOL    HW232589   0.812   0.057   0.824
10564SOL     OW32590   6.496   5.494   3.613
10564SOL    HW132591   6.451   5.573   3.655
10564SOL    HW232592   6.524   5.517   3.520
10565SOL     OW32593   6.641   0.118   5.727
10565SOL    HW132594   6.733   0.080   5.738
10565SOL    HW232595   6.645   0.195   5.663
10566SOL     OW32596   2.634   2.584   6.775
10566SOL    HW132597   2.601   2.502   6.727
10566SOL    HW232598   2.575   2.601   6.855
10567SOL     OW32599   1.787   2.384   5.826
10567SOL    HW132600   1.832   2.472   5.839
10567SOL    HW232601   1.688   2.397   5.824
10568SOL     OW32602   5.576   2.955   6.784
10568SOL    HW132603   5.627   2.937   6.868
10568SOL    HW232604   5.515   3.033   6.798
10569SOL     OW32605   5.393   0.170   2.136
10569SOL    HW132606   5.360   0.109   2.064
10569SOL    HW232607   5.357   0.262   2.120
10570SOL     OW32608   1.324   4.924   3.949
10570SOL    HW132609   1.384   4.852   3.915
10570SOL    HW232610   1.316   4.917   4.049
10571SOL     OW32611   0.299   4.178   6.554
10571SOL    HW132612   0.226   4.150   6.616
10571SOL    HW232613   0.368   4.229   6.605
10572SOL     OW32614   6.754   4.333   1.713
10572SOL    HW132615   6.763   4.333   1.613
10572SOL    HW232616   6.786   4.245   1.748
10573SOL     OW32617   5.794   0.756   4.514
10573SOL    HW132618   5.775   0.829   4.580
10573SOL    HW232619   5.755   0.781   4.425
10574SOL     OW32620   6.413   0.377   3.781
10574SOL    HW132621   6.472   0.427   3.717
10574SOL    HW232622   6.390   0.288   3.742
10575SOL     OW32623   5.241   0.314   3.258
10575SOL    HW132624   5.196   0.398   3.288
10575SOL    HW232625   5.191   0.275   3.181
10576SOL     OW32626   1.787   4.824   2.910
10576SOL    HW132627   1.790   4.868   2.820
10576SOL    HW232628   1.695   4.833   2.949
10577SOL     OW32629   3.052   6.151   0.744
10577SOL    HW132630   3.135   6.207   0.738
10577SOL    HW232631   2.988   6.194   0.807
10578SOL     OW32632   6.133   2.245   3.713
10578SOL    HW132633   6.098   2.153   3.734
10578SOL    HW232634   6.079   2.284   3.639
10579SOL     OW32635   2.874   3.699   1.199
10579SOL    HW132636   2.915   3.616   1.235
10579SOL    HW232637   2.923   3.779   1.235
10580SOL     OW32638   6.326   6.900   6.973
10580SOL    HW132639   6.239   6.875   7.016
10580SOL    HW232640   6.344   6.839   6.896
10581SOL     OW32641   5.017   6.372   2.976
10581SOL    HW132642   4.994   6.433   2.900
10581SOL    HW232643   5.113   6.344   2.968
10582SOL     OW32644   5.236   4.464   6.483
10582SOL    HW132645   5.168   4.533   6.507
10582SOL    HW232646   5.262   4.473   6.387
10583SOL     OW32647   3.306   0.191   3.917
10583SOL    HW132648   3.239   0.171   3.846
10583SOL    HW232649   3.386   0.133   3.905
10584SOL     OW32650   6.595   0.443   6.183
10584SOL    HW132651   6.539   0.500   6.122
10584SOL    HW232652   6.600   0.350   6.147
10585SOL     OW32653   0.624   2.092   6.526
10585SOL    HW132654   0.665   2.041   6.602
10585SOL    HW232655   0.596   2.029   6.454
10586SOL     OW32656   4.627   4.804   5.628
10586SOL    HW132657   4.533   4.783   5.602
10586SOL    HW232658   4.629   4.892   5.676
10587SOL     OW32659   0.388   5.782   5.723
10587SOL    HW132660   0.429   5.705   5.773
10587SOL    HW232661   0.351   5.749   5.637
10588SOL     OW32662   1.833   2.694   4.609
10588SOL    HW132663   1.834   2.705   4.709
10588SOL    HW232664   1.878   2.773   4.567
10589SOL     OW32665   5.427   5.996   4.882
10589SOL    HW132666   5.473   5.926   4.937
10589SOL    HW232667   5.377   5.952   4.808
10590SOL     OW32668   0.241   5.800   1.777
10590SOL    HW132669   0.244   5.702   1.757
10590SOL    HW232670   0.187   5.846   1.707
10591SOL     OW32671   1.822   0.899   1.314
10591SOL    HW132672   1.738   0.862   1.355
10591SOL    HW232673   1.808   0.996   1.293
10592SOL     OW32674   6.073   2.296   4.585
10592SOL    HW132675   6.124   2.309   4.500
10592SOL    HW232676   6.137   2.281   4.660
10593SOL     OW32677   2.537   6.114   0.691
10593SOL    HW132678   2.459   6.115   0.754
10593SOL    HW232679   2.620   6.138   0.740
10594SOL     OW32680   3.795   1.170   3.320
10594SOL    HW132681   3.817   1.073   3.321
10594SOL    HW232682   3.830   1.213   3.404
10595SOL     OW32683   6.058   0.496   0.477
10595SOL    HW132684   6.093   0.529   0.565
10595SOL    HW232685   6.105   0.543   0.402
10596SOL     OW32686   4.489   1.693   7.019
10596SOL    HW132687   4.569   1.685   6.960
10596SOL    HW232688   4.503   1.639   0.076
10597SOL     OW32689   2.677   0.684   6.431
10597SOL    HW132690   2.593   0.671   6.378
10597SOL    HW232691   2.754   0.694   6.369
10598SOL     OW32692   2.261   1.865   5.928
10598SOL    HW132693   2.357   1.841   5.913
10598SOL    HW232694   2.254   1.960   5.959
10599SOL     OW32695   6.504   4.376   6.104
10599SOL    HW132696   6.444   4.297   6.105
10599SOL    HW232697   6.450   4.459   6.093
10600SOL     OW32698   3.364   1.282   1.574
10600SOL    HW132699   3.429   1.209   1.596
10600SOL    HW232700   3.275   1.260   1.614
10601SOL     OW32701   0.328   6.411   5.788
10601SOL    HW132702   0.332   6.370   5.879
10601SOL    HW232703   0.275   6.495   5.791
10602SOL     OW32704   0.350   0.485   0.048
10602SOL    HW132705   0.266   0.436   0.071
10602SOL    HW232706   0.429   0.429   0.072
10603SOL     OW32707   4.582   6.520   1.534
10603SOL    HW132708   4.488   6.523   1.500
10603SOL    HW232709   4.646   6.510   1.458
10604SOL     OW32710   0.201   6.152   4.745
10604SOL    HW132711   0.191   6.081   4.815
10604SOL    HW232712   0.287   6.201   4.759
10605SOL     OW32713   1.915   0.262   0.207
10605SOL    HW132714   1.986   0.217   0.261
10605SOL    HW232715   1.883   0.343   0.256
10606SOL     OW32716   6.151   0.667   1.409
10606SOL    HW132717   6.052   0.673   1.396
10606SOL    HW232718   6.172   0.668   1.507
10607SOL     OW32719   4.119   4.126   6.755
10607SOL    HW132720   4.167   4.039   6.751
10607SOL    HW232721   4.029   4.112   6.796
10608SOL     OW32722   6.438   2.804   3.046
10608SOL    HW132723   6.498   2.725   3.032
10608SOL    HW232724   6.380   2.816   2.965
10609SOL     OW32725   3.247   6.739   0.733
10609SOL    HW132726   3.282   6.680   0.661
10609SOL    HW232727   3.188   6.809   0.692
10610SOL     OW32728   6.766   1.930   4.324
10610SOL    HW132729   6.828   2.010   4.328
10610SOL    HW232730   6.722   1.919   4.413
10611SOL     OW32731   2.456   5.344   4.651
10611SOL    HW132732   2.541   5.392   4.670
10611SOL    HW232733   2.474   5.269   4.586
10612SOL     OW32734   5.663   1.287   4.277
10612SOL    HW132735   5.664   1.384   4.300
10612SOL    HW232736   5.707   1.235   4.351
10613SOL     OW32737   5.297   6.157   4.330
10613SOL    HW132738   5.266   6.067   4.298
10613SOL    HW232739   5.243   6.229   4.286
10614SOL     OW32740   5.191   0.701   5.684
10614SOL    HW132741   5.215   0.606   5.706
10614SOL    HW232742   5.109   0.727   5.734
10615SOL     OW32743   3.241   1.597   5.761
10615SOL    HW132744   3.271   1.504   5.780
10615SOL    HW232745   3.209   1.604   5.667
10616SOL     OW32746   3.054   6.803   6.783
10616SOL    HW132747   3.071   6.725   6.843
10616SOL    HW232748   3.058   6.774   6.687
10617SOL     OW32749   2.231   3.806   1.641
10617SOL    HW132750   2.212   3.812   1.739
10617SOL    HW232751   2.242   3.898   1.604
10618SOL     OW32752   0.518   5.517   5.309
10618SOL    HW132753   0.496   5.510   5.406
10618SOL    HW232754   0.438   5.489   5.255
10619SOL     OW32755   0.528   2.174   2.733
10619SOL    HW132756   0.544   2.077   2.753
10619SOL    HW232757   0.517   2.224   2.819
10620SOL     OW32758   1.572   0.372   5.016
10620SOL    HW132759   1.528   0.298   4.965
10620SOL    HW232760   1.503   0.440   5.041
10621SOL     OW32761   0.932   4.031   2.733
10621SOL    HW132762   0.997   4.026   2.808
10621SOL    HW232763   0.941   4.120   2.687
10622SOL     OW32764   4.226   2.481   0.931
10622SOL    HW132765   4.227   2.384   0.906
10622SOL    HW232766   4.161   2.530   0.872
10623SOL     OW32767   6.233   5.881   5.059
10623SOL    HW132768   6.273   5.874   5.151
10623SOL    HW232769   6.193   5.793   5.034
10624SOL     OW32770   0.556   2.873   4.991
10624SOL    HW132771   0.585   2.885   5.086
10624SOL    HW232772   0.623   2.815   4.943
10625SOL     OW32773   0.538   3.201   0.115
10625SOL    HW132774   0.550   3.255   0.031
10625SOL    HW232775   0.484   3.120   0.095
10626SOL     OW32776   3.646   3.034   1.642
10626SOL    HW132777   3.562   3.074   1.605
10626SOL    HW232778   3.626   2.991   1.730
10627SOL     OW32779   5.577   0.614   6.337
10627SOL    HW132780   5.524   0.533   6.363
10627SOL    HW232781   5.674   0.597   6.351
10628SOL     OW32782   4.123   0.263   0.230
10628SOL    HW132783   4.191   0.335   0.219
10628SOL    HW232784   4.040   0.300   0.273
10629SOL     OW32785   3.320   5.239   5.053
10629SOL    HW132786   3.262   5.159   5.042
10629SOL    HW232787   3.322   5.291   4.967
10630SOL     OW32788   4.987   0.544   2.436
10630SOL    HW132789   4.946   0.472   2.381
10630SOL    HW232790   5.024   0.615   2.377
10631SOL     OW32791   4.411   4.957   6.096
10631SOL    HW132792   4.449   4.936   6.006
10631SOL    HW232793   4.466   4.912   6.166
10632SOL     OW32794   4.766   6.006   3.521
10632SOL    HW132795   4.825   5.975   3.447
10632SOL    HW232796   4.813   5.997   3.609
10633SOL     OW32797   2.107   2.741   1.605
10633SOL    HW132798   2.185   2.785   1.650
10633SOL    HW232799   2.138   2.684   1.530
10634SOL     OW32800   1.450   5.759   0.176
10634SOL    HW132801   1.517   5.717   0.115
10634SOL    HW232802   1.483   5.755   0.270
10635SOL     OW32803   1.969   3.778   0.459
10635SOL    HW132804   1.959   3.698   0.401
10635SOL    HW232805   2.065   3.807   0.460
10636SOL     OW32806   6.142   1.709   0.807
10636SOL    HW132807   6.088   1.649   0.867
10636SOL    HW232808   6.169   1.659   0.725
10637SOL     OW32809   2.672   6.175   6.708
10637SOL    HW132810   2.689   6.152   6.612
10637SOL    HW232811   2.757   6.208   6.750
10638SOL     OW32812   6.980   6.486   2.458
10638SOL    HW132813   6.903   6.429   2.430
10638SOL    HW232814   7.001   6.552   2.385
10639SOL     OW32815   1.991   3.678   1.962
10639SOL    HW132816   2.040   3.763   1.942
10639SOL    HW232817   2.055   3.602   1.964
10640SOL     OW32818   4.480   0.943   3.586
10640SOL    HW132819   4.540   1.006   3.537
10640SOL    HW232820   4.479   0.854   3.539
10641SOL     OW32821   1.692   1.474   3.884
10641SOL    HW132822   1.613   1.444   3.829
10641SOL    HW232823   1.736   1.551   3.840
10642SOL     OW32824   5.867   1.900   0.536
10642SOL    HW132825   5.790   1.927   0.478
10642SOL    HW232826   5.833   1.849   0.615
10643SOL     OW32827   2.036   5.673   5.302
10643SOL    HW132828   1.966   5.625   5.355
10643SOL    HW232829   2.034   5.771   5.325
10644SOL     OW32830   6.029   3.233   1.607
10644SOL    HW132831   5.941   3.280   1.605
10644SOL    HW232832   6.101   3.299   1.628
10645SOL     OW32833   2.137   3.367   3.559
10645SOL    HW132834   2.135   3.417   3.473
10645SOL    HW232835   2.179   3.277   3.545
10646SOL     OW32836   5.334   1.183   5.795
10646SOL    HW132837   5.303   1.278   5.801
10646SOL    HW232838   5.407   1.168   5.862
10647SOL     OW32839   3.836   5.383   5.150
10647SOL    HW132840   3.891   5.461   5.179
10647SOL    HW232841   3.768   5.414   5.082
10648SOL     OW32842   6.083   5.507   6.239
10648SOL    HW132843   6.003   5.525   6.182
10648SOL    HW232844   6.122   5.593   6.271
10649SOL     OW32845   0.569   3.389   3.518
10649SOL    HW132846   0.536   3.297   3.497
10649SOL    HW232847   0.630   3.385   3.598
10650SOL     OW32848   0.069   0.374   4.438
10650SOL    HW132849   0.052   0.419   4.350
10650SOL    HW232850   0.168   0.364   4.451
10651SOL     OW32851   5.557   6.299   5.575
10651SOL    HW132852   5.472   6.257   5.604
10651SOL    HW232853   5.616   6.230   5.533
10652SOL     OW32854   2.084   6.896   6.205
10652SOL    HW132855   2.064   6.976   6.261
10652SOL    HW232856   2.123   6.924   6.118
10653SOL     OW32857   3.687   6.095   4.733
10653SOL    HW132858   3.616   6.140   4.679
10653SOL    HW232859   3.748   6.044   4.672
10654SOL     OW32860   5.004   1.822   4.456
10654SOL    HW132861   5.006   1.915   4.420
10654SOL    HW232862   4.926   1.773   4.418
10655SOL     OW32863   1.899   4.652   1.315
10655SOL    HW132864   1.821   4.633   1.256
10655SOL    HW232865   1.867   4.696   1.399
10656SOL     OW32866   6.541   1.367   2.536
10656SOL    HW132867   6.628   1.356   2.487
10656SOL    HW232868   6.465   1.345   2.475
10657SOL     OW32869   6.264   1.105   4.379
10657SOL    HW132870   6.252   1.161   4.297
10657SOL    HW232871   6.301   1.015   4.353
10658SOL     OW32872   5.764   3.881   4.926
10658SOL    HW132873   5.754   3.980   4.938
10658SOL    HW232874   5.787   3.839   5.014
10659SOL     OW32875   1.258   4.637   0.804
10659SOL    HW132876   1.300   4.708   0.748
10659SOL    HW232877   1.261   4.549   0.756
10660SOL     OW32878   6.128   3.980   5.358
10660SOL    HW132879   6.131   3.917   5.436
10660SOL    HW232880   6.220   4.012   5.337
10661SOL     OW32881   1.445   5.273   0.844
10661SOL    HW132882   1.367   5.336   0.849
10661SOL    HW232883   1.427   5.193   0.901
10662SOL     OW32884   3.841   1.238   1.994
10662SOL    HW132885   3.793   1.192   2.069
10662SOL    HW232886   3.868   1.330   2.023
10663SOL     OW32887   0.597   1.947   3.473
10663SOL    HW132888   0.649   2.024   3.435
10663SOL    HW232889   0.511   1.937   3.422
10664SOL     OW32890   0.383   5.395   4.902
10664SOL    HW132891   0.469   5.414   4.853
10664SOL    HW232892   0.373   5.296   4.915
10665SOL     OW32893   2.223   2.269   6.975
10665SOL    HW132894   2.304   2.228   7.017
10665SOL    HW232895   2.146   2.205   6.981
10666SOL     OW32896   3.275   3.681   2.233
10666SOL    HW132897   3.253   3.588   2.262
10666SOL    HW232898   3.222   3.704   2.151
10667SOL     OW32899   4.885   1.916   3.777
10667SOL    HW132900   4.907   2.001   3.826
10667SOL    HW232901   4.967   1.861   3.767
10668SOL     OW32902   3.232   1.632   5.483
10668SOL    HW132903   3.150   1.680   5.451
10668SOL    HW232904   3.313   1.680   5.450
10669SOL     OW32905   5.696   0.498   0.768
10669SOL    HW132906   5.778   0.555   0.760
10669SOL    HW232907   5.619   0.542   0.723
10670SOL     OW32908   5.725   4.827   4.450
10670SOL    HW132909   5.741   4.729   4.463
10670SOL    HW232910   5.715   4.847   4.352
10671SOL     OW32911   1.446   1.511   4.496
10671SOL    HW132912   1.399   1.526   4.409
10671SOL    HW232913   1.398   1.558   4.569
10672SOL     OW32914   6.779   3.927   1.532
10672SOL    HW132915   6.856   3.894   1.477
10672SOL    HW232916   6.721   3.849   1.557
10673SOL     OW32917   1.399   6.707   0.423
10673SOL    HW132918   1.441   6.663   0.343
10673SOL    HW232919   1.353   6.638   0.478
10674SOL     OW32920   4.046   3.925   4.508
10674SOL    HW132921   4.085   4.016   4.523
10674SOL    HW232922   4.005   3.920   4.418
10675SOL     OW32923   2.801   0.320   6.348
10675SOL    HW132924   2.744   0.350   6.272
10675SOL    HW232925   2.877   0.385   6.359
10676SOL     OW32926   0.042   6.392   4.660
10676SOL    HW132927   6.972   6.384   4.632
10676SOL    HW232928   0.075   6.303   4.690
10677SOL     OW32929   1.743   1.301   1.299
10677SOL    HW132930   1.663   1.271   1.248
10677SOL    HW232931   1.747   1.401   1.299
10678SOL     OW32932   4.030   4.789   3.923
10678SOL    HW132933   4.098   4.853   3.960
10678SOL    HW232934   3.971   4.757   3.997
10679SOL     OW32935   3.983   5.439   0.010
10679SOL    HW132936   3.933   5.491   6.967
10679SOL    HW232937   4.081   5.456   0.000
10680SOL     OW32938   3.817   1.817   3.732
10680SOL    HW132939   3.822   1.847   3.636
10680SOL    HW232940   3.906   1.828   3.775
10681SOL     OW32941   6.706   3.603   0.212
10681SOL    HW132942   6.737   3.573   0.302
10681SOL    HW232943   6.621   3.557   0.189
10682SOL     OW32944   0.283   3.080   5.145
10682SOL    HW132945   0.319   3.095   5.053
10682SOL    HW232946   0.265   2.983   5.158
10683SOL     OW32947   4.525   1.043   3.974
10683SOL    HW132948   4.535   1.143   3.972
10683SOL    HW232949   4.606   1.001   3.934
10684SOL     OW32950   4.804   5.660   1.925
10684SOL    HW132951   4.782   5.744   1.875
10684SOL    HW232952   4.773   5.668   2.019
10685SOL     OW32953   0.222   5.629   0.627
10685SOL    HW132954   0.312   5.587   0.631
10685SOL    HW232955   0.228   5.724   0.659
10686SOL     OW32956   1.816   4.279   6.145
10686SOL    HW132957   1.910   4.311   6.139
10686SOL    HW232958   1.789   4.238   6.058
10687SOL     OW32959   6.835   4.532   4.632
10687SOL    HW132960   6.797   4.445   4.599
10687SOL    HW232961   6.796   4.607   4.578
10688SOL     OW32962   5.493   2.754   2.701
10688SOL    HW132963   5.557   2.744   2.778
10688SOL    HW232964   5.481   2.851   2.680
10689SOL     OW32965   6.884   0.247   2.064
10689SOL    HW132966   6.877   0.148   2.073
10689SOL    HW232967   6.845   0.276   1.977
10690SOL     OW32968   0.318   5.300   3.291
10690SOL    HW132969   0.391   5.231   3.292
10690SOL    HW232970   0.277   5.304   3.200
10691SOL     OW32971   1.793   1.846   1.605
10691SOL    HW132972   1.834   1.903   1.678
10691SOL    HW232973   1.864   1.824   1.538
10692SOL     OW32974   2.380   0.309   3.744
10692SOL    HW132975   2.430   0.322   3.658
10692SOL    HW232976   2.443   0.323   3.821
10693SOL     OW32977   1.544   5.951   0.963
10693SOL    HW132978   1.489   5.974   0.883
10693SOL    HW232979   1.486   5.948   1.044
10694SOL     OW32980   5.259   6.259   6.218
10694SOL    HW132981   5.332   6.215   6.270
10694SOL    HW232982   5.295   6.338   6.169
10695SOL     OW32983   1.679   2.500   1.948
10695SOL    HW132984   1.765   2.448   1.953
10695SOL    HW232985   1.654   2.529   2.041
10696SOL     OW32986   7.007   3.827   4.595
10696SOL    HW132987   6.924   3.794   4.640
10696SOL    HW232988   6.981   3.886   4.517
10697SOL     OW32989   0.060   0.352   5.605
10697SOL    HW132990   0.043   0.295   5.686
10697SOL    HW232991   0.026   0.444   5.622
10698SOL     OW32992   4.692   4.341   6.784
10698SOL    HW132993   4.774   4.284   6.773
10698SOL    HW232994   4.620   4.288   6.829
10699SOL     OW32995   3.953   4.854   1.623
10699SOL    HW132996   4.006   4.773   1.646
10699SOL    HW232997   3.931   4.853   1.525
10700SOL     OW32998   5.626   6.265   0.801
10700SOL    HW132999   5.703   6.300   0.747
10700SOL    HW233000   5.623   6.314   0.889
10701SOL     OW33001   2.799   0.165   5.774
10701SOL    HW133002   2.829   0.074   5.746
10701SOL    HW233003   2.856   0.197   5.849
10702SOL     OW33004   5.374   3.440   2.202
10702SOL    HW133005   5.407   3.350   2.176
10702SOL    HW233006   5.313   3.475   2.131
10703SOL     OW33007   2.493   2.529   5.696
10703SOL    HW133008   2.488   2.618   5.741
10703SOL    HW233009   2.572   2.479   5.730
10704SOL     OW33010   6.994   5.092   2.248
10704SOL    HW133011   0.062   5.066   2.225
10704SOL    HW233012   6.954   5.022   2.307
10705SOL     OW33013   6.055   5.502   1.758
10705SOL    HW133014   5.971   5.555   1.751
10705SOL    HW233015   6.047   5.419   1.703
10706SOL     OW33016   4.173   0.165   2.450
10706SOL    HW133017   4.090   0.113   2.432
10706SOL    HW233018   4.212   0.197   2.364
10707SOL     OW33019   0.794   6.598   3.734
10707SOL    HW133020   0.800   6.646   3.646
10707SOL    HW233021   0.743   6.653   3.799
10708SOL     OW33022   3.773   1.540   1.567
10708SOL    HW133023   3.679   1.565   1.543
10708SOL    HW233024   3.789   1.444   1.542
10709SOL     OW33025   5.441   5.264   4.686
10709SOL    HW133026   5.540   5.254   4.688
10709SOL    HW233027   5.412   5.291   4.594
10710SOL     OW33028   6.436   1.156   4.022
10710SOL    HW133029   6.507   1.088   4.002
10710SOL    HW233030   6.479   1.242   4.048
10711SOL     OW33031   1.970   6.872   4.048
10711SOL    HW133032   1.968   6.869   4.148
10711SOL    HW233033   1.885   6.911   4.013
10712SOL     OW33034   3.206   1.061   2.096
10712SOL    HW133035   3.184   1.103   2.184
10712SOL    HW233036   3.265   1.123   2.043
10713SOL     OW33037   0.569   3.609   0.694
10713SOL    HW133038   0.667   3.628   0.689
10713SOL    HW233039   0.530   3.611   0.603
10714SOL     OW33040   5.027   4.063   5.883
10714SOL    HW133041   5.114   4.111   5.873
10714SOL    HW233042   5.042   3.965   5.874
10715SOL     OW33043   4.723   0.589   2.272
10715SOL    HW133044   4.644   0.530   2.291
10715SOL    HW233045   4.739   0.649   2.351
10716SOL     OW33046   5.780   2.480   3.736
10716SOL    HW133047   5.845   2.412   3.770
10716SOL    HW233048   5.735   2.524   3.814
10717SOL     OW33049   1.685   2.589   0.994
10717SOL    HW133050   1.617   2.516   1.003
10717SOL    HW233051   1.776   2.548   0.987
10718SOL     OW33052   0.831   3.982   0.060
10718SOL    HW133053   0.928   3.972   0.038
10718SOL    HW233054   0.787   4.041   7.019
10719SOL     OW33055   0.211   6.109   2.835
10719SOL    HW133056   0.287   6.132   2.774
10719SOL    HW233057   0.132   6.167   2.814
10720SOL     OW33058   6.763   4.553   5.130
10720SOL    HW133059   6.691   4.484   5.137
10720SOL    HW233060   6.722   4.644   5.133
10721SOL     OW33061   5.254   3.324   5.280
10721SOL    HW133062   5.312   3.268   5.340
10721SOL    HW233063   5.160   3.323   5.315
10722SOL     OW33064   1.592   5.301   0.166
10722SOL    HW133065   1.604   5.291   0.067
10722SOL    HW233066   1.682   5.300   0.210
10723SOL     OW33067   0.102   2.651   6.581
10723SOL    HW133068   0.167   2.672   6.654
10723SOL    HW233069   0.152   2.614   6.502
10724SOL     OW33070   5.854   0.630   6.395
10724SOL    HW133071   5.935   0.686   6.377
10724SOL    HW233072   5.832   0.633   6.492
10725SOL     OW33073   1.704   5.472   5.150
10725SOL    HW133074   1.757   5.501   5.071
10725SOL    HW233075   1.701   5.546   5.217
10726SOL     OW33076   5.864   0.348   4.334
10726SOL    HW133077   5.921   0.416   4.381
10726SOL    HW233078   5.824   0.389   4.252
10727SOL     OW33079   0.277   5.682   5.511
10727SOL    HW133080   0.323   5.720   5.430
10727SOL    HW233081   0.219   5.605   5.484
10728SOL     OW33082   1.502   5.871   6.913
10728SOL    HW133083   1.522   5.924   6.830
10728SOL    HW233084   1.405   5.883   6.936
10729SOL     OW33085   4.667   1.448   2.497
10729SOL    HW133086   4.611   1.513   2.446
10729SOL    HW233087   4.759   1.487   2.511
10730SOL     OW33088   1.847   0.560   1.007
10730SOL    HW133089   1.902   0.637   1.038
10730SOL    HW233090   1.833   0.497   1.083
10731SOL     OW33091   3.686   0.776   0.691
10731SOL    HW133092   3.705   0.701   0.629
10731SOL    HW233093   3.600   0.819   0.667
10732SOL     OW33094   6.559   4.711   4.873
10732SOL    HW133095   6.486   4.678   4.813
10732SOL    HW233096   6.642   4.727   4.819
10733SOL     OW33097   6.745   1.651   0.361
10733SOL    HW133098   6.828   1.611   0.321
10733SOL    HW233099   6.743   1.749   0.343
10734SOL     OW33100   0.931   0.767   0.166
10734SOL    HW133101   0.840   0.729   0.153
10734SOL    HW233102   0.994   0.694   0.192
10735SOL     OW33103   0.175   2.669   2.651
10735SOL    HW133104   0.203   2.765   2.663
10735SOL    HW233105   0.228   2.611   2.712
10736SOL     OW33106   0.811   0.765   3.614
10736SOL    HW133107   0.780   0.851   3.655
10736SOL    HW233108   0.893   0.734   3.662
10737SOL     OW33109   1.176   1.696   0.821
10737SOL    HW133110   1.245   1.626   0.803
10737SOL    HW233111   1.143   1.733   0.734
10738SOL     OW33112   2.243   0.752   2.858
10738SOL    HW133113   2.238   0.652   2.867
10738SOL    HW233114   2.287   0.790   2.939
10739SOL     OW33115   1.507   1.318   1.098
10739SOL    HW133116   1.468   1.278   1.015
10739SOL    HW233117   1.437   1.320   1.170
10740SOL     OW33118   0.175   5.007   5.056
10740SOL    HW133119   0.105   4.939   5.034
10740SOL    HW233120   0.132   5.092   5.085
10741SOL     OW33121   5.104   0.535   1.247
10741SOL    HW133122   5.020   0.515   1.197
10741SOL    HW233123   5.161   0.598   1.194
10742SOL     OW33124   5.586   7.006   1.151
10742SOL    HW133125   5.681   7.015   1.120
10742SOL    HW233126   5.554   0.069   1.184
10743SOL     OW33127   1.961   1.543   5.365
10743SOL    HW133128   1.883   1.561   5.305
10743SOL    HW233129   2.033   1.498   5.313
10744SOL     OW33130   3.688   1.370   1.105
10744SOL    HW133131   3.662   1.367   1.008
10744SOL    HW233132   3.714   1.463   1.129
10745SOL     OW33133   0.433   5.892   6.466
10745SOL    HW133134   0.342   5.903   6.505
10745SOL    HW233135   0.426   5.883   6.366
10746SOL     OW33136   2.373   5.007   1.550
10746SOL    HW133137   2.381   4.979   1.646
10746SOL    HW233138   2.442   5.076   1.530
10747SOL     OW33139   4.162   1.154   4.356
10747SOL    HW133140   4.065   1.144   4.378
10747SOL    HW233141   4.211   1.070   4.381
10748SOL     OW33142   5.582   1.045   0.870
10748SOL    HW133143   5.576   0.954   0.829
10748SOL    HW233144   5.581   1.114   0.797
10749SOL     OW33145   0.265   5.605   3.300
10749SOL    HW133146   0.243   5.539   3.228
10749SOL    HW233147   0.360   5.593   3.329
10750SOL     OW33148   4.180   6.099   4.048
10750SOL    HW133149   4.252   6.047   4.003
10750SOL    HW233150   4.131   6.155   3.981
10751SOL     OW33151   1.794   4.920   4.463
10751SOL    HW133152   1.818   4.918   4.560
10751SOL    HW233153   1.694   4.927   4.454
10752SOL     OW33154   6.153   4.288   5.827
10752SOL    HW133155   6.134   4.241   5.741
10752SOL    HW233156   6.181   4.222   5.896
10753SOL     OW33157   4.792   4.975   4.694
10753SOL    HW133158   4.854   4.943   4.766
10753SOL    HW233159   4.816   4.932   4.607
10754SOL     OW33160   0.623   0.868   3.118
10754SOL    HW133161   0.699   0.919   3.160
10754SOL    HW233162   0.582   0.923   3.045
10755SOL     OW33163   0.373   0.981   0.428
10755SOL    HW133164   0.307   1.053   0.408
10755SOL    HW233165   0.327   0.893   0.433
10756SOL     OW33166   6.310   5.038   6.787
10756SOL    HW133167   6.291   5.032   6.885
10756SOL    HW233168   6.299   4.948   6.746
10757SOL     OW33169   1.708   3.078   6.833
10757SOL    HW133170   1.724   3.062   6.931
10757SOL    HW233171   1.796   3.090   6.787
10758SOL     OW33172   1.056   6.038   3.992
10758SOL    HW133173   1.148   6.060   4.026
10758SOL    HW233174   1.040   6.085   3.905
10759SOL     OW33175   2.170   2.834   1.244
10759SOL    HW133176   2.085   2.878   1.275
10759SOL    HW233177   2.182   2.747   1.293
10760SOL     OW33178   5.556   0.244   2.623
10760SOL    HW133179   5.487   0.263   2.553
10760SOL    HW233180   5.521   0.268   2.713
10761SOL     OW33181   1.009   6.455   6.072
10761SOL    HW133182   1.000   6.465   5.973
10761SOL    HW233183   1.105   6.436   6.095
10762SOL     OW33184   3.263   2.116   4.068
10762SOL    HW133185   3.209   2.140   3.987
10762SOL    HW233186   3.356   2.150   4.057
10763SOL     OW33187   4.994   6.811   3.047
10763SOL    HW133188   5.082   6.809   3.000
10763SOL    HW233189   4.999   6.755   3.130
10764SOL     OW33190   4.680   2.657   6.065
10764SOL    HW133191   4.648   2.569   6.028
10764SOL    HW233192   4.778   2.652   6.082
10765SOL     OW33193   4.703   2.569   0.873
10765SOL    HW133194   4.656   2.603   0.955
10765SOL    HW233195   4.795   2.608   0.869
10766SOL     OW33196   5.171   4.625   0.578
10766SOL    HW133197   5.087   4.574   0.560
10766SOL    HW233198   5.204   4.605   0.670
10767SOL     OW33199   2.086   0.106   0.368
10767SOL    HW133200   2.109   0.146   0.456
10767SOL    HW233201   2.151   0.033   0.346
10768SOL     OW33202   4.837   5.369   1.461
10768SOL    HW133203   4.889   5.289   1.429
10768SOL    HW233204   4.740   5.348   1.461
10769SOL     OW33205   2.359   4.242   5.325
10769SOL    HW133206   2.356   4.165   5.261
10769SOL    HW233207   2.339   4.327   5.275
10770SOL     OW33208   5.443   6.851   4.841
10770SOL    HW133209   5.532   6.894   4.825
10770SOL    HW233210   5.376   6.891   4.778
10771SOL     OW33211   5.518   6.861   3.455
10771SOL    HW133212   5.513   6.955   3.422
10771SOL    HW233213   5.595   6.852   3.520
10772SOL     OW33214   6.109   0.311   3.824
10772SOL    HW133215   6.084   0.253   3.901
10772SOL    HW233216   6.203   0.292   3.796
10773SOL     OW33217   6.237   5.322   6.046
10773SOL    HW133218   6.202   5.237   6.086
10773SOL    HW233219   6.171   5.395   6.060
10774SOL     OW33220   2.504   1.529   6.238
10774SOL    HW133221   2.508   1.614   6.186
10774SOL    HW233222   2.529   1.453   6.179
10775SOL     OW33223   0.560   4.417   2.160
10775SOL    HW133224   0.549   4.343   2.227
10775SOL    HW233225   0.573   4.504   2.208
10776SOL     OW33226   0.609   0.949   6.576
10776SOL    HW133227   0.650   0.889   6.644
10776SOL    HW233228   0.648   1.041   6.585
10777SOL     OW33229   4.310   5.635   1.832
10777SOL    HW133230   4.283   5.540   1.822
10777SOL    HW233231   4.399   5.649   1.787
10778SOL     OW33232   5.004   0.034   4.218
10778SOL    HW133233   5.012   6.990   4.147
10778SOL    HW233234   4.916   0.082   4.207
10779SOL     OW33235   6.438   3.327   3.347
10779SOL    HW133236   6.370   3.401   3.347
10779SOL    HW233237   6.528   3.366   3.329
10780SOL     OW33238   1.791   0.644   3.687
10780SOL    HW133239   1.809   0.552   3.651
10780SOL    HW233240   1.801   0.643   3.786
10781SOL     OW33241   4.378   0.877   4.152
10781SOL    HW133242   4.362   0.781   4.129
10781SOL    HW233243   4.432   0.920   4.081
10782SOL     OW33244   0.119   1.437   2.771
10782SOL    HW133245   0.218   1.435   2.761
10782SOL    HW233246   0.076   1.389   2.695
10783SOL     OW33247   0.719   2.401   2.362
10783SOL    HW133248   0.658   2.385   2.440
10783SOL    HW233249   0.665   2.414   2.279
10784SOL     OW33250   3.937   6.913   4.301
10784SOL    HW133251   3.979   6.986   4.356
10784SOL    HW233252   3.995   6.893   4.222
10785SOL     OW33253   6.979   4.783   0.464
10785SOL    HW133254   6.971   4.857   0.530
10785SOL    HW233255   6.959   4.696   0.508
10786SOL     OW33256   5.951   4.744   3.266
10786SOL    HW133257   5.990   4.799   3.339
10786SOL    HW233258   5.931   4.652   3.300
10787SOL     OW33259   1.910   1.581   5.635
10787SOL    HW133260   1.849   1.660   5.625
10787SOL    HW233261   1.933   1.544   5.545
10788SOL     OW33262   1.870   4.412   6.594
10788SOL    HW133263   1.932   4.356   6.649
10788SOL    HW233264   1.904   4.506   6.590
10789SOL     OW33265   6.154   2.919   6.517
10789SOL    HW133266   6.135   2.848   6.585
10789SOL    HW233267   6.117   2.891   6.428
10790SOL     OW33268   0.597   0.428   1.801
10790SOL    HW133269   0.544   0.471   1.872
10790SOL    HW233270   0.537   0.400   1.726
10791SOL     OW33271   6.850   6.698   1.550
10791SOL    HW133272   6.817   6.775   1.605
10791SOL    HW233273   6.839   6.613   1.602
10792SOL     OW33274   3.652   2.918   4.884
10792SOL    HW133275   3.569   2.905   4.938
10792SOL    HW233276   3.731   2.926   4.944
10793SOL     OW33277   6.068   3.028   5.329
10793SOL    HW133278   6.013   3.054   5.250
10793SOL    HW233279   6.057   2.930   5.345
10794SOL     OW33280   3.966   3.126   4.293
10794SOL    HW133281   3.910   3.200   4.332
10794SOL    HW233282   3.913   3.041   4.291
10795SOL     OW33283   0.323   4.958   2.454
10795SOL    HW133284   0.327   4.998   2.363
10795SOL    HW233285   0.288   4.864   2.448
10796SOL     OW33286   6.304   6.904   5.829
10796SOL    HW133287   6.252   6.933   5.910
10796SOL    HW233288   6.297   6.975   5.758
10797SOL     OW33289   3.304   2.689   1.489
10797SOL    HW133290   3.245   2.657   1.564
10797SOL    HW233291   3.326   2.612   1.429
10798SOL     OW33292   2.921   0.743   0.288
10798SOL    HW133293   2.972   0.736   0.374
10798SOL    HW233294   2.910   0.839   0.263
10799SOL     OW33295   4.044   1.375   2.206
10799SOL    HW133296   4.130   1.368   2.257
10799SOL    HW233297   3.970   1.401   2.268
10800SOL     OW33298   0.321   6.477   5.486
10800SOL    HW133299   0.325   6.387   5.445
10800SOL    HW233300   0.328   6.469   5.586
10801SOL     OW33301   1.144   6.898   7.023
10801SOL    HW133302   1.228   6.845   7.019
10801SOL    HW233303   1.149   6.974   6.959
10802SOL     OW33304   0.460   0.443   2.240
10802SOL    HW133305   0.550   0.488   2.238
10802SOL    HW233306   0.424   0.443   2.333
10803SOL     OW33307   2.020   5.460   6.011
10803SOL    HW133308   1.972   5.411   6.084
10803SOL    HW233309   2.055   5.395   5.944
10804SOL     OW33310   5.862   3.161   2.527
10804SOL    HW133311   5.841   3.071   2.565
10804SOL    HW233312   5.949   3.193   2.565
10805SOL     OW33313   4.679   6.911   5.548
10805SOL    HW133314   4.695   6.909   5.450
10805SOL    HW233315   4.753   6.962   5.593
10806SOL     OW33316   3.873   4.323   6.117
10806SOL    HW133317   3.885   4.414   6.079
10806SOL    HW233318   3.852   4.258   6.044
10807SOL     OW33319   2.070   0.187   3.470
10807SOL    HW133320   2.028   0.099   3.447
10807SOL    HW233321   2.065   0.201   3.569
10808SOL     OW33322   0.376   3.274   6.042
10808SOL    HW133323   0.328   3.188   6.027
10808SOL    HW233324   0.472   3.255   6.065
10809SOL     OW33325   2.258   4.098   3.971
10809SOL    HW133326   2.237   4.013   3.922
10809SOL    HW233327   2.311   4.158   3.912
10810SOL     OW33328   0.515   0.712   3.838
10810SOL    HW133329   0.420   0.702   3.807
10810SOL    HW233330   0.573   0.647   3.789
10811SOL     OW33331   4.384   4.699   5.712
10811SOL    HW133332   4.351   4.793   5.716
10811SOL    HW233333   4.311   4.639   5.679
10812SOL     OW33334   6.918   3.855   0.567
10812SOL    HW133335   7.008   3.829   0.532
10812SOL    HW233336   6.915   3.841   0.666
10813SOL     OW33337   0.663   3.951   5.993
10813SOL    HW133338   0.602   3.965   5.915
10813SOL    HW233339   0.755   3.930   5.961
10814SOL     OW33340   1.663   0.131   6.604
10814SOL    HW133341   1.741   0.113   6.665
10814SOL    HW233342   1.645   0.049   6.549
10815SOL     OW33343   4.994   3.345   3.280
10815SOL    HW133344   4.991   3.258   3.231
10815SOL    HW233345   5.088   3.366   3.306
10816SOL     OW33346   2.958   3.361   2.294
10816SOL    HW133347   2.948   3.261   2.290
10816SOL    HW233348   2.885   3.403   2.239
10817SOL     OW33349   3.642   0.645   3.623
10817SOL    HW133350   3.692   0.588   3.688
10817SOL    HW233351   3.641   0.601   3.533
10818SOL     OW33352   5.010   4.196   5.548
10818SOL    HW133353   5.006   4.283   5.596
10818SOL    HW233354   4.947   4.131   5.591
10819SOL     OW33355   6.015   4.900   6.319
10819SOL    HW133356   6.050   4.813   6.354
10819SOL    HW233357   5.980   4.888   6.226
10820SOL     OW33358   0.591   5.265   4.146
10820SOL    HW133359   0.519   5.200   4.171
10820SOL    HW233360   0.660   5.220   4.090
10821SOL     OW33361   4.144   6.722   3.513
10821SOL    HW133362   4.183   6.813   3.520
10821SOL    HW233363   4.085   6.704   3.592
10822SOL     OW33364   6.175   1.987   2.646
10822SOL    HW133365   6.217   2.031   2.567
10822SOL    HW233366   6.221   1.901   2.666
10823SOL     OW33367   1.097   0.713   2.174
10823SOL    HW133368   1.113   0.646   2.246
10823SOL    HW233369   1.117   0.672   2.085
10824SOL     OW33370   0.349   0.545   2.495
10824SOL    HW133371   0.312   0.625   2.447
10824SOL    HW233372   0.398   0.576   2.577
10825SOL     OW33373   2.408   2.153   0.093
10825SOL    HW133374   2.503   2.124   0.092
10825SOL    HW233375   2.370   2.140   0.184
10826SOL     OW33376   1.220   1.740   3.005
10826SOL    HW133377   1.314   1.715   2.980
10826SOL    HW233378   1.157   1.698   2.940
10827SOL     OW33379   0.263   3.456   5.053
10827SOL    HW133380   0.281   3.416   4.963
10827SOL    HW233381   0.209   3.393   5.107
10828SOL     OW33382   1.940   4.562   0.526
10828SOL    HW133383   2.024   4.609   0.555
10828SOL    HW233384   1.879   4.552   0.604
10829SOL     OW33385   5.141   2.583   0.520
10829SOL    HW133386   5.047   2.552   0.504
10829SOL    HW233387   5.205   2.514   0.485
10830SOL     OW33388   4.139   1.683   2.871
10830SOL    HW133389   4.239   1.689   2.870
10830SOL    HW233390   4.100   1.770   2.843
10831SOL     OW33391   3.126   6.495   2.541
10831SOL    HW133392   3.208   6.507   2.486
10831SOL    HW233393   3.151   6.465   2.633
10832SOL     OW33394   7.015   3.816   6.355
10832SOL    HW133395   6.923   3.852   6.342
10832SOL    HW233396   7.017   3.719   6.333
10833SOL     OW33397   0.323   1.351   1.594
10833SOL    HW133398   0.280   1.264   1.574
10833SOL    HW233399   0.254   1.416   1.625
10834SOL     OW33400   6.235   1.578   0.567
10834SOL    HW133401   6.322   1.570   0.520
10834SOL    HW233402   6.199   1.487   0.589
10835SOL     OW33403   6.081   2.789   0.270
10835SOL    HW133404   5.992   2.831   0.285
10835SOL    HW233405   6.070   2.706   0.215
10836SOL     OW33406   0.248   2.388   3.793
10836SOL    HW133407   0.270   2.318   3.726
10836SOL    HW233408   0.255   2.350   3.885
10837SOL     OW33409   6.803   5.048   1.351
10837SOL    HW133410   6.882   5.009   1.400
10837SOL    HW233411   6.789   5.142   1.381
10838SOL     OW33412   6.532   6.541   3.818
10838SOL    HW133413   6.574   6.532   3.727
10838SOL    HW233414   6.603   6.563   3.885
10839SOL     OW33415   4.169   3.587   0.850
10839SOL    HW133416   4.166   3.517   0.921
10839SOL    HW233417   4.204   3.547   0.765
10840SOL     OW33418   3.419   6.426   2.246
10840SOL    HW133419   3.354   6.357   2.215
10840SOL    HW233420   3.503   6.419   2.192
10841SOL     OW33421   6.063   4.525   5.066
10841SOL    HW133422   6.152   4.492   5.036
10841SOL    HW233423   6.035   4.602   5.010
10842SOL     OW33424   4.837   2.610   1.273
10842SOL    HW133425   4.843   2.710   1.268
10842SOL    HW233426   4.758   2.584   1.328
10843SOL     OW33427   1.302   1.336   1.311
10843SOL    HW133428   1.214   1.299   1.342
10843SOL    HW233429   1.339   1.397   1.381
10844SOL     OW33430   0.444   5.729   2.985
10844SOL    HW133431   0.436   5.670   2.904
10844SOL    HW233432   0.488   5.677   3.059
10845SOL     OW33433   3.926   6.210   5.417
10845SOL    HW133434   3.859   6.283   5.414
10845SOL    HW233435   3.912   6.155   5.499
10846SOL     OW33436   5.054   0.231   6.356
10846SOL    HW133437   4.970   0.224   6.410
10846SOL    HW233438   5.092   0.323   6.366
10847SOL     OW33439   3.472   2.334   0.340
10847SOL    HW133440   3.440   2.271   0.269
10847SOL    HW233441   3.483   2.426   0.301
10848SOL     OW33442   1.400   4.299   0.827
10848SOL    HW133443   1.347   4.339   0.752
10848SOL    HW233444   1.497   4.313   0.811
10849SOL     OW33445   2.696   4.721   4.063
10849SOL    HW133446   2.630   4.656   4.101
10849SOL    HW233447   2.676   4.735   3.966
10850SOL     OW33448   3.515   6.447   5.798
10850SOL    HW133449   3.440   6.398   5.842
10850SOL    HW233450   3.514   6.428   5.700
10851SOL     OW33451   3.346   3.541   0.356
10851SOL    HW133452   3.318   3.448   0.378
10851SOL    HW233453   3.424   3.567   0.412
10852SOL     OW33454   1.602   0.836   6.524
10852SOL    HW133455   1.564   0.924   6.551
10852SOL    HW233456   1.578   0.767   6.592
10853SOL     OW33457   1.979   3.014   5.770
10853SOL    HW133458   1.989   3.041   5.866
10853SOL    HW233459   1.885   3.030   5.740
10854SOL     OW33460   4.257   5.374   5.479
10854SOL    HW133461   4.328   5.391   5.411
10854SOL    HW233462   4.267   5.439   5.555
10855SOL     OW33463   4.330   0.447   0.230
10855SOL    HW133464   4.314   0.521   0.164
10855SOL    HW233465   4.408   0.393   0.201
10856SOL     OW33466   5.792   1.534   0.767
10856SOL    HW133467   5.723   1.475   0.811
10856SOL    HW233468   5.765   1.629   0.778
10857SOL     OW33469   1.086   2.248   2.526
10857SOL    HW133470   1.049   2.317   2.587
10857SOL    HW233471   1.179   2.274   2.499
10858SOL     OW33472   0.882   0.929   0.945
10858SOL    HW133473   0.811   0.956   0.880
10858SOL    HW233474   0.879   0.830   0.958
10859SOL     OW33475   1.301   4.567   4.192
10859SOL    HW133476   1.344   4.641   4.140
10859SOL    HW233477   1.320   4.579   4.289
10860SOL     OW33478   0.557   3.140   5.160
10860SOL    HW133479   0.575   3.144   5.062
10860SOL    HW233480   0.458   3.144   5.175
10861SOL     OW33481   3.408   3.677   3.359
10861SOL    HW133482   3.333   3.651   3.298
10861SOL    HW233483   3.447   3.595   3.401
10862SOL     OW33484   1.334   0.737   5.987
10862SOL    HW133485   1.251   0.683   5.979
10862SOL    HW233486   1.401   0.688   6.042
10863SOL     OW33487   2.149   0.864   3.864
10863SOL    HW133488   2.191   0.775   3.881
10863SOL    HW233489   2.068   0.853   3.807
10864SOL     OW33490   2.931   6.044   0.295
10864SOL    HW133491   2.873   6.014   0.371
10864SOL    HW233492   2.999   6.109   0.328
10865SOL     OW33493   6.593   1.258   0.728
10865SOL    HW133494   6.507   1.242   0.778
10865SOL    HW233495   6.670   1.255   0.792
10866SOL     OW33496   5.212   4.089   0.552
10866SOL    HW133497   5.210   4.012   0.616
10866SOL    HW233498   5.144   4.157   0.580
10867SOL     OW33499   2.865   4.034   0.903
10867SOL    HW133500   2.955   4.012   0.941
10867SOL    HW233501   2.815   3.950   0.884
10868SOL     OW33502   5.110   1.776   3.778
10868SOL    HW133503   5.165   1.800   3.858
10868SOL    HW233504   5.121   1.678   3.758
10869NA      NA33505   6.562   2.946   5.097
10870NA      NA33506   4.500   4.551   5.176
10871NA      NA33507   1.504   2.797   1.637
10872NA      NA33508   4.937   3.821   5.156
10873NA      NA33509   4.305   2.533   5.313
10874NA      NA33510   3.743   4.829   1.783
10875NA      NA33511   6.537   5.094   6.741
10876NA      NA33512   3.367   3.288   4.596
10877NA      NA33513   4.770   5.746   0.084
10878NA      NA33514   4.149   6.538   4.987
10879NA      NA33515   6.202   5.227   2.168
10880NA      NA33516   2.245   6.799   3.678
10881NA      NA33517   4.223   5.796   2.002
10882NA      NA33518   3.523   4.083   2.152
   7.02559   7.02559   7.02559
