Generated by trjconv : CNT in water t=  82.00000
33518
    1C        C    1   2.844   2.770   4.745
    1C        C    2   2.900   2.721   4.865
    1C        C    3   2.837   2.767   4.981
    1C        C    4   2.849   2.771   4.255
    1C        C    5   2.898   2.724   4.379
    1C        C    6   2.847   2.772   4.502
    1C        C    7   3.012   2.639   4.623
    1C        C    8   2.897   2.721   4.624
    1C        C    9   3.074   2.600   4.744
    1C        C   10   3.005   2.628   4.864
    1C        C   11   3.180   2.489   4.976
    1C        C   12   3.061   2.562   4.975
    1C        C   13   2.851   2.771   3.765
    1C        C   14   2.899   2.721   3.888
    1C        C   15   2.847   2.769   4.010
    1C        C   16   3.016   2.642   4.134
    1C        C   17   2.899   2.721   4.133
    1C        C   18   3.082   2.614   4.256
    1C        C   19   3.017   2.647   4.377
    1C        C   20   3.206   2.557   4.501
    1C        C   21   3.074   2.607   4.500
    1C        C   22   3.277   2.534   4.622
    1C        C   23   3.207   2.548   4.743
    1C        C   24   3.409   2.479   4.862
    1C        C   25   3.267   2.499   4.862
    1C        C   26   3.488   2.477   4.978
    1C        C   27   2.850   2.767   3.277
    1C        C   28   2.900   2.721   3.401
    1C        C   29   2.853   2.772   3.524
    1C        C   30   3.016   2.633   3.644
    1C        C   31   2.907   2.723   3.645
    1C        C   32   3.076   2.600   3.768
    1C        C   33   3.013   2.638   3.889
    1C        C   34   3.203   2.544   4.013
    1C        C   35   3.074   2.603   4.012
    1C        C   36   3.270   2.519   4.135
    1C        C   37   3.206   2.548   4.258
    1C        C   38   3.414   2.506   4.378
    1C        C   39   3.275   2.530   4.381
    1C        C   40   3.485   2.501   4.501
    1C        C   41   3.415   2.505   4.624
    1C        C   42   3.629   2.478   4.740
    1C        C   43   3.487   2.481   4.743
    1C        C   44   3.703   2.484   4.861
    1C        C   45   3.627   2.476   4.978
    1C        C   46   2.833   2.746   2.793
    1C        C   47   2.892   2.706   2.914
    1C        C   48   2.838   2.756   3.034
    1C        C   49   3.013   2.632   3.157
    1C        C   50   2.897   2.713   3.155
    1C        C   51   3.074   2.594   3.279
    1C        C   52   3.012   2.634   3.400
    1C        C   53   3.203   2.540   3.521
    1C        C   54   3.074   2.597   3.521
    1C        C   55   3.271   2.524   3.644
    1C        C   56   3.205   2.542   3.768
    1C        C   57   3.410   2.501   3.892
    1C        C   58   3.271   2.521   3.891
    1C        C   59   3.482   2.498   4.014
    1C        C   60   3.410   2.501   4.135
    1C        C   61   3.624   2.494   4.254
    1C        C   62   3.483   2.491   4.256
    1C        C   63   3.695   2.507   4.376
    1C        C   64   3.626   2.505   4.499
    1C        C   65   3.832   2.543   4.617
    1C        C   66   3.699   2.498   4.619
    1C        C   67   3.901   2.562   4.739
    1C        C   68   3.836   2.529   4.860
    1C        C   69   4.051   2.583   4.974
    1C        C   70   3.924   2.525   4.969
    1C        C   71   2.820   2.730   2.304
    1C        C   72   2.880   2.692   2.426
    1C        C   73   2.831   2.742   2.548
    1C        C   74   3.003   2.622   2.668
    1C        C   75   2.881   2.694   2.671
    1C        C   76   3.069   2.590   2.789
    1C        C   77   3.007   2.623   2.911
    1C        C   78   3.199   2.536   3.034
    1C        C   79   3.070   2.594   3.034
    1C        C   80   3.267   2.513   3.156
    1C        C   81   3.203   2.537   3.280
    1C        C   82   3.412   2.491   3.400
    1C        C   83   3.272   2.513   3.400
    1C        C   84   3.481   2.493   3.523
    1C        C   85   3.410   2.503   3.645
    1C        C   86   3.620   2.494   3.767
    1C        C   87   3.478   2.495   3.768
    1C        C   88   3.691   2.510   3.888
    1C        C   89   3.623   2.507   4.012
    1C        C   90   3.832   2.543   4.133
    1C        C   91   3.695   2.509   4.133
    1C        C   92   3.897   2.576   4.254
    1C        C   93   3.830   2.549   4.376
    1C        C   94   4.027   2.634   4.495
    1C        C   95   3.901   2.571   4.496
    1C        C   96   4.090   2.666   4.618
    1C        C   97   4.028   2.625   4.738
    1C        C   98   4.190   2.762   4.858
    1C        C   99   4.100   2.651   4.858
    1C        C  100   4.220   2.838   4.973
    1C        C  101   2.817   2.726   2.065
    1C        C  102   2.989   2.593   2.189
    1C        C  103   2.875   2.680   2.183
    1C        C  104   3.059   2.566   2.310
    1C        C  105   3.000   2.618   2.427
    1C        C  106   3.197   2.528   2.547
    1C        C  107   3.068   2.586   2.547
    1C        C  108   3.265   2.510   2.669
    1C        C  109   3.198   2.533   2.791
    1C        C  110   3.408   2.492   2.911
    1C        C  111   3.269   2.517   2.913
    1C        C  112   3.478   2.492   3.033
    1C        C  113   3.407   2.495   3.155
    1C        C  114   3.621   2.496   3.276
    1C        C  115   3.480   2.487   3.276
    1C        C  116   3.690   2.515   3.398
    1C        C  117   3.622   2.502   3.522
    1C        C  118   3.827   2.543   3.644
    1C        C  119   3.691   2.507   3.646
    1C        C  120   3.895   2.567   3.766
    1C        C  121   3.828   2.546   3.888
    1C        C  122   4.017   2.643   4.008
    1C        C  123   3.895   2.573   4.010
    1C        C  124   4.083   2.674   4.130
    1C        C  125   4.023   2.640   4.253
    1C        C  126   4.197   2.762   4.372
    1C        C  127   4.088   2.673   4.374
    1C        C  128   4.243   2.817   4.494
    1C        C  129   4.192   2.763   4.615
    1C        C  130   4.324   2.931   4.739
    1C        C  131   4.238   2.818   4.736
    1C        C  132   4.359   2.998   4.859
    1C        C  133   4.289   2.958   4.974
    1C        C  134   3.173   2.470   2.078
    1C        C  135   3.039   2.510   2.083
    1C        C  136   3.259   2.484   2.187
    1C        C  137   3.193   2.518   2.307
    1C        C  138   3.404   2.479   2.422
    1C        C  139   3.264   2.496   2.427
    1C        C  140   3.475   2.480   2.545
    1C        C  141   3.405   2.492   2.667
    1C        C  142   3.618   2.489   2.787
    1C        C  143   3.477   2.484   2.788
    1C        C  144   3.689   2.503   2.909
    1C        C  145   3.619   2.497   3.032
    1C        C  146   3.826   2.545   3.155
    1C        C  147   3.690   2.505   3.154
    1C        C  148   3.895   2.569   3.276
    1C        C  149   3.827   2.547   3.398
    1C        C  150   4.021   2.627   3.521
    1C        C  151   3.894   2.565   3.521
    1C        C  152   4.080   2.670   3.642
    1C        C  153   4.017   2.638   3.764
    1C        C  154   4.185   2.769   3.885
    1C        C  155   4.072   2.684   3.885
    1C        C  156   4.242   2.815   4.006
    1C        C  157   4.195   2.760   4.128
    1C        C  158   4.331   2.923   4.251
    1C        C  159   4.249   2.808   4.249
    1C        C  160   4.369   2.984   4.373
    1C        C  161   4.329   2.929   4.497
    1C        C  162   4.441   3.111   4.613
    1C        C  163   4.366   2.991   4.619
    1C        C  164   4.464   3.182   4.733
    1C        C  165   4.429   3.120   4.855
    1C        C  166   4.511   3.321   4.969
    1C        C  167   4.474   3.187   4.970
    1C        C  168   3.475   2.434   2.070
    1C        C  169   3.399   2.465   2.184
    1C        C  170   3.619   2.470   2.302
    1C        C  171   3.477   2.463   2.302
    1C        C  172   3.690   2.482   2.423
    1C        C  173   3.616   2.483   2.543
    1C        C  174   3.823   2.538   2.667
    1C        C  175   3.687   2.499   2.664
    1C        C  176   3.892   2.564   2.787
    1C        C  177   3.826   2.537   2.909
    1C        C  178   4.019   2.624   3.029
    1C        C  179   3.892   2.564   3.032
    1C        C  180   4.083   2.663   3.149
    1C        C  181   4.021   2.633   3.273
    1C        C  182   4.188   2.753   3.396
    1C        C  183   4.079   2.664   3.398
    1C        C  184   4.242   2.804   3.517
    1C        C  185   4.193   2.756   3.640
    1C        C  186   4.332   2.917   3.762
    1C        C  187   4.241   2.808   3.762
    1C        C  188   4.378   2.974   3.882
    1C        C  189   4.336   2.920   4.006
    1C        C  190   4.438   3.105   4.128
    1C        C  191   4.371   2.981   4.129
    1C        C  192   4.471   3.170   4.249
    1C        C  193   4.442   3.105   4.371
    1C        C  194   4.505   3.312   4.490
    1C        C  195   4.463   3.177   4.490
    1C        C  196   4.524   3.384   4.610
    1C        C  197   4.513   3.315   4.732
    1C        C  198   4.550   3.535   4.848
    1C        C  199   4.529   3.393   4.850
    1C        C  200   4.581   3.617   4.961
    1C        C  201   3.614   2.419   2.070
    1C        C  202   3.827   2.513   2.180
    1C        C  203   3.693   2.462   2.181
    1C        C  204   3.895   2.542   2.301
    1C        C  205   3.827   2.519   2.422
    1C        C  206   4.013   2.622   2.542
    1C        C  207   3.890   2.553   2.543
    1C        C  208   4.077   2.663   2.661
    1C        C  209   4.020   2.625   2.785
    1C        C  210   4.192   2.748   2.907
    1C        C  211   4.079   2.663   2.907
    1C        C  212   4.248   2.795   3.027
    1C        C  213   4.193   2.752   3.150
    1C        C  214   4.330   2.910   3.270
    1C        C  215   4.240   2.801   3.274
    1C        C  216   4.368   2.972   3.392
    1C        C  217   4.332   2.913   3.515
    1C        C  218   4.435   3.098   3.637
    1C        C  219   4.369   2.973   3.638
    1C        C  220   4.464   3.165   3.758
    1C        C  221   4.444   3.099   3.882
    1C        C  222   4.505   3.302   4.001
    1C        C  223   4.468   3.166   4.004
    1C        C  224   4.512   3.376   4.121
    1C        C  225   4.506   3.307   4.244
    1C        C  226   4.523   3.519   4.362
    1C        C  227   4.518   3.378   4.366
    1C        C  228   4.521   3.593   4.483
    1C        C  229   4.529   3.525   4.606
    1C        C  230   4.502   3.741   4.723
    1C        C  231   4.535   3.603   4.724
    1C        C  232   4.494   3.818   4.842
    1C        C  233   4.542   3.751   4.955
    1C        C  234   4.020   2.606   2.065
    1C        C  235   3.894   2.546   2.061
    1C        C  236   4.086   2.648   2.181
    1C        C  237   4.020   2.609   2.300
    1C        C  238   4.198   2.732   2.419
    1C        C  239   4.081   2.651   2.421
    1C        C  240   4.248   2.789   2.538
    1C        C  241   4.192   2.746   2.661
    1C        C  242   4.334   2.903   2.781
    1C        C  243   4.242   2.795   2.783
    1C        C  244   4.374   2.961   2.903
    1C        C  245   4.339   2.903   3.027
    1C        C  246   4.442   3.089   3.148
    1C        C  247   4.378   2.964   3.149
    1C        C  248   4.465   3.159   3.269
    1C        C  249   4.434   3.096   3.392
    1C        C  250   4.498   3.299   3.510
    1C        C  251   4.460   3.163   3.514
    1C        C  252   4.511   3.369   3.632
    1C        C  253   4.502   3.301   3.756
    1C        C  254   4.515   3.511   3.873
    1C        C  255   4.518   3.370   3.878
    1C        C  256   4.510   3.583   3.995
    1C        C  257   4.519   3.517   4.119
    1C        C  258   4.491   3.729   4.238
    1C        C  259   4.515   3.590   4.240
    1C        C  260   4.469   3.797   4.360
    1C        C  261   4.488   3.730   4.483
    1C        C  262   4.429   3.940   4.601
    1C        C  263   4.477   3.807   4.601
    1C        C  264   4.404   4.013   4.719
    1C        C  265   4.437   3.947   4.840
    1C        C  266   4.311   4.124   4.955
    1C        C  267   4.392   4.011   4.955
    1C        C  268   4.260   2.778   2.060
    1C        C  269   4.194   2.739   2.177
    1C        C  270   4.341   2.893   2.296
    1C        C  271   4.250   2.784   2.299
    1C        C  272   4.385   2.950   2.417
    1C        C  273   4.337   2.898   2.539
    1C        C  274   4.451   3.080   2.658
    1C        C  275   4.378   2.959   2.659
    1C        C  276   4.477   3.146   2.780
    1C        C  277   4.446   3.082   2.903
    1C        C  278   4.508   3.286   3.021
    1C        C  279   4.474   3.149   3.024
    1C        C  280   4.513   3.362   3.140
    1C        C  281   4.500   3.295   3.264
    1C        C  282   4.517   3.507   3.385
    1C        C  283   4.513   3.366   3.386
    1C        C  284   4.514   3.579   3.507
    1C        C  285   4.514   3.510   3.630
    1C        C  286   4.490   3.722   3.751
    1C        C  287   4.511   3.583   3.752
    1C        C  288   4.482   3.792   3.874
    1C        C  289   4.492   3.723   3.997
    1C        C  290   4.421   3.929   4.115
    1C        C  291   4.474   3.798   4.116
    1C        C  292   4.390   3.994   4.236
    1C        C  293   4.420   3.930   4.358
    1C        C  294   4.330   4.126   4.475
    1C        C  295   4.396   4.001   4.478
    1C        C  296   4.283   4.188   4.593
    1C        C  297   4.329   4.134   4.715
    1C        C  298   4.202   4.310   4.836
    1C        C  299   4.288   4.196   4.836
    1C        C  300   4.161   4.393   4.945
    1C        C  301   4.354   2.880   2.055
    1C        C  302   4.466   3.068   2.174
    1C        C  303   4.391   2.946   2.173
    1C        C  304   4.478   3.142   2.294
    1C        C  305   4.448   3.077   2.416
    1C        C  306   4.508   3.283   2.534
    1C        C  307   4.479   3.145   2.536
    1C        C  308   4.519   3.355   2.656
    1C        C  309   4.505   3.285   2.778
    1C        C  310   4.525   3.497   2.898
    1C        C  311   4.523   3.356   2.899
    1C        C  312   4.516   3.571   3.018
    1C        C  313   4.518   3.503   3.142
    1C        C  314   4.485   3.716   3.261
    1C        C  315   4.508   3.576   3.263
    1C        C  316   4.472   3.787   3.383
    1C        C  317   4.489   3.718   3.505
    1C        C  318   4.423   3.920   3.627
    1C        C  319   4.468   3.786   3.627
    1C        C  320   4.388   3.983   3.749
    1C        C  321   4.427   3.922   3.870
    1C        C  322   4.316   4.107   3.989
    1C        C  323   4.394   3.989   3.990
    1C        C  324   4.274   4.167   4.110
    1C        C  325   4.321   4.117   4.234
    1C        C  326   4.184   4.281   4.351
    1C        C  327   4.282   4.180   4.354
    1C        C  328   4.131   4.336   4.470
    1C        C  329   4.189   4.294   4.592
    1C        C  330   4.028   4.433   4.710
    1C        C  331   4.142   4.349   4.713
    1C        C  332   3.971   4.490   4.826
    1C        C  333   4.048   4.476   4.942
    1C        C  334   4.543   3.265   2.059
    1C        C  335   4.523   3.127   2.056
    1C        C  336   4.537   3.347   2.172
    1C        C  337   4.512   3.280   2.294
    1C        C  338   4.531   3.496   2.411
    1C        C  339   4.523   3.355   2.413
    1C        C  340   4.519   3.568   2.532
    1C        C  341   4.524   3.496   2.653
    1C        C  342   4.496   3.705   2.773
    1C        C  343   4.523   3.567   2.775
    1C        C  344   4.477   3.777   2.893
    1C        C  345   4.495   3.710   3.016
    1C        C  346   4.423   3.913   3.134
    1C        C  347   4.471   3.781   3.137
    1C        C  348   4.392   3.979   3.255
    1C        C  349   4.420   3.918   3.380
    1C        C  350   4.313   4.099   3.501
    1C        C  351   4.392   3.981   3.503
    1C        C  352   4.269   4.158   3.621
    1C        C  353   4.313   4.102   3.743
    1C        C  354   4.171   4.258   3.866
    1C        C  355   4.273   4.160   3.866
    1C        C  356   4.117   4.308   3.986
    1C        C  357   4.174   4.267   4.109
    1C        C  358   4.010   4.404   4.228
    1C        C  359   4.127   4.325   4.229
    1C        C  360   3.948   4.444   4.348
    1C        C  361   4.012   4.412   4.470
    1C        C  362   3.827   4.517   4.592
    1C        C  363   3.955   4.456   4.591
    1C        C  364   3.760   4.552   4.711
    1C        C  365   3.837   4.535   4.829
    1C        C  366   3.626   4.584   4.951
    1C        C  367   3.762   4.557   4.945
    1C        C  368   4.507   3.557   2.047
    1C        C  369   4.520   3.487   2.168
    1C        C  370   4.499   3.702   2.285
    1C        C  371   4.518   3.562   2.288
    1C        C  372   4.483   3.773   2.407
    1C        C  373   4.505   3.709   2.530
    1C        C  374   4.425   3.906   2.645
    1C        C  375   4.484   3.778   2.652
    1C        C  376   4.392   3.970   2.767
    1C        C  377   4.422   3.907   2.889
    1C        C  378   4.316   4.093   3.012
    1C        C  379   4.389   3.972   3.010
    1C        C  380   4.268   4.151   3.131
    1C        C  381   4.313   4.096   3.254
    1C        C  382   4.167   4.248   3.374
    1C        C  383   4.269   4.150   3.377
    1C        C  384   4.114   4.298   3.495
    1C        C  385   4.171   4.260   3.618
    1C        C  386   4.001   4.380   3.743
    1C        C  387   4.122   4.306   3.742
    1C        C  388   3.940   4.422   3.862
    1C        C  389   4.001   4.390   3.985
    1C        C  390   3.811   4.483   4.104
    1C        C  391   3.943   4.431   4.107
    1C        C  392   3.746   4.511   4.226
    1C        C  393   3.817   4.498   4.348
    1C        C  394   3.615   4.550   4.472
    1C        C  395   3.755   4.528   4.471
    1C        C  396   3.545   4.559   4.594
    1C        C  397   3.620   4.569   4.713
    1C        C  398   3.412   4.543   4.837
    1C        C  399   3.549   4.576   4.834
    1C        C  400   3.340   4.516   4.954
    1C        C  401   4.501   3.696   2.047
    1C        C  402   4.450   3.909   2.163
    1C        C  403   4.486   3.772   2.164
    1C        C  404   4.402   3.970   2.281
    1C        C  405   4.426   3.903   2.403
    1C        C  406   4.320   4.090   2.521
    1C        C  407   4.396   3.971   2.523
    1C        C  408   4.270   4.143   2.642
    1C        C  409   4.317   4.090   2.764
    1C        C  410   4.177   4.247   2.886
    1C        C  411   4.276   4.147   2.887
    1C        C  412   4.120   4.296   3.006
    1C        C  413   4.166   4.248   3.130
    1C        C  414   3.995   4.374   3.252
    1C        C  415   4.111   4.293   3.252
    1C        C  416   3.936   4.413   3.375
    1C        C  417   3.996   4.376   3.497
    1C        C  418   3.810   4.472   3.618
    1C        C  419   3.938   4.412   3.620
    1C        C  420   3.743   4.501   3.739
    1C        C  421   3.809   4.476   3.861
    1C        C  422   3.605   4.531   3.983
    1C        C  423   3.744   4.509   3.983
    1C        C  424   3.536   4.535   4.107
    1C        C  425   3.606   4.534   4.230
    1C        C  426   3.399   4.547   4.357
    1C        C  427   3.540   4.554   4.352
    1C        C  428   3.330   4.535   4.480
    1C        C  429   3.404   4.550   4.600
    1C        C  430   3.191   4.517   4.722
    1C        C  431   3.332   4.537   4.721
    1C        C  432   3.119   4.492   4.842
    1C        C  433   3.203   4.493   4.955
    1C        C  434   4.386   4.119   2.051
    1C        C  435   4.442   3.991   2.049
    1C        C  436   4.303   4.161   2.160
    1C        C  437   4.330   4.092   2.281
    1C        C  438   4.178   4.248   2.400
    1C        C  439   4.276   4.147   2.400
    1C        C  440   4.124   4.298   2.521
    1C        C  441   4.172   4.245   2.643
    1C        C  442   4.002   4.370   2.764
    1C        C  443   4.116   4.287   2.765
    1C        C  444   3.941   4.410   2.885
    1C        C  445   4.002   4.374   3.007
    1C        C  446   3.805   4.460   3.126
    1C        C  447   3.938   4.410   3.128
    1C        C  448   3.742   4.491   3.248
    1C        C  449   3.810   4.476   3.371
    1C        C  450   3.606   4.525   3.493
    1C        C  451   3.745   4.496   3.495
    1C        C  452   3.536   4.531   3.616
    1C        C  453   3.605   4.530   3.739
    1C        C  454   3.393   4.544   3.864
    1C        C  455   3.535   4.541   3.861
    1C        C  456   3.327   4.538   3.988
    1C        C  457   3.395   4.545   4.112
    1C        C  458   3.191   4.502   4.236
    1C        C  459   3.327   4.538   4.236
    1C        C  460   3.124   4.481   4.359
    1C        C  461   3.192   4.507   4.481
    1C        C  462   2.989   4.441   4.603
    1C        C  463   3.121   4.492   4.602
    1C        C  464   2.924   4.404   4.722
    1C        C  465   2.984   4.444   4.845
    1C        C  466   2.796   4.330   4.960
    1C        C  467   2.903   4.421   4.961
    1C        C  468   4.125   4.289   2.040
    1C        C  469   4.187   4.246   2.158
    1C        C  470   4.007   4.373   2.277
    1C        C  471   4.123   4.291   2.276
    1C        C  472   3.937   4.397   2.397
    1C        C  473   4.003   4.371   2.519
    1C        C  474   3.812   4.464   2.642
    1C        C  475   3.939   4.403   2.641
    1C        C  476   3.741   4.491   2.761
    1C        C  477   3.811   4.466   2.881
    1C        C  478   3.604   4.519   3.005
    1C        C  479   3.742   4.487   3.002
    1C        C  480   3.533   4.529   3.126
    1C        C  481   3.605   4.527   3.247
    1C        C  482   3.396   4.536   3.375
    1C        C  483   3.537   4.537   3.371
    1C        C  484   3.324   4.531   3.497
    1C        C  485   3.395   4.536   3.620
    1C        C  486   3.189   4.493   3.746
    1C        C  487   3.323   4.536   3.742
    1C        C  488   3.126   4.470   3.870
    1C        C  489   3.191   4.498   3.992
    1C        C  490   3.000   4.409   4.114
    1C        C  491   3.124   4.476   4.114
    1C        C  492   2.939   4.381   4.238
    1C        C  493   2.996   4.422   4.361
    1C        C  494   2.826   4.298   4.480
    1C        C  495   2.933   4.390   4.483
    1C        C  496   2.774   4.253   4.604
    1C        C  497   2.816   4.312   4.725
    1C        C  498   2.660   4.161   4.840
    1C        C  499   2.748   4.272   4.842
    1C        C  500   2.593   4.115   4.954
    1C        C  501   4.003   4.355   2.038
    1C        C  502   3.815   4.463   2.151
    1C        C  503   3.942   4.401   2.155
    1C        C  504   3.746   4.482   2.273
    1C        C  505   3.808   4.455   2.397
    1C        C  506   3.605   4.510   2.517
    1C        C  507   3.743   4.480   2.520
    1C        C  508   3.533   4.514   2.638
    1C        C  509   3.603   4.519   2.761
    1C        C  510   3.392   4.522   2.885
    1C        C  511   3.533   4.529   2.884
    1C        C  512   3.322   4.520   3.007
    1C        C  513   3.391   4.532   3.130
    1C        C  514   3.189   4.484   3.253
    1C        C  515   3.324   4.523   3.254
    1C        C  516   3.122   4.461   3.376
    1C        C  517   3.188   4.494   3.496
    1C        C  518   3.002   4.405   3.624
    1C        C  519   3.125   4.473   3.621
    1C        C  520   2.938   4.370   3.745
    1C        C  521   3.000   4.406   3.867
    1C        C  522   2.828   4.287   3.995
    1C        C  523   2.942   4.370   3.991
    1C        C  524   2.780   4.239   4.119
    1C        C  525   2.828   4.293   4.240
    1C        C  526   2.688   4.132   4.363
    1C        C  527   2.774   4.244   4.361
    1C        C  528   2.645   4.075   4.485
    1C        C  529   2.686   4.142   4.602
    1C        C  530   2.579   3.957   4.729
    1C        C  531   2.642   4.084   4.723
    1C        C  532   2.538   3.898   4.852
    1C        C  533   2.525   3.992   4.959
    1C        C  534   3.616   4.556   2.037
    1C        C  535   3.751   4.518   2.039
    1C        C  536   3.535   4.533   2.154
    1C        C  537   3.606   4.506   2.274
    1C        C  538   3.392   4.512   2.397
    1C        C  539   3.533   4.511   2.395
    1C        C  540   3.322   4.504   2.519
    1C        C  541   3.392   4.507   2.642
    1C        C  542   3.182   4.482   2.762
    1C        C  543   3.320   4.512   2.763
    1C        C  544   3.119   4.457   2.886
    1C        C  545   3.186   4.480   3.008
    1C        C  546   2.993   4.400   3.132
    1C        C  547   3.121   4.459   3.132
    1C        C  548   2.935   4.361   3.255
    1C        C  549   2.995   4.398   3.377
    1C        C  550   2.828   4.278   3.504
    1C        C  551   2.942   4.362   3.503
    1C        C  552   2.776   4.232   3.628
    1C        C  553   2.826   4.284   3.749
    1C        C  554   2.699   4.118   3.873
    1C        C  555   2.778   4.235   3.873
    1C        C  556   2.658   4.063   3.996
    1C        C  557   2.697   4.125   4.118
    1C        C  558   2.598   3.941   4.242
    1C        C  559   2.653   4.071   4.241
    1C        C  560   2.568   3.876   4.364
    1C        C  561   2.591   3.944   4.485
    1C        C  562   2.519   3.750   4.614
    1C        C  563   2.563   3.884   4.610
    1C        C  564   2.508   3.680   4.735
    1C        C  565   2.520   3.756   4.855
    1C        C  566   2.529   3.545   4.974
    1C        C  567   2.515   3.683   4.974
    1C        C  568   3.326   4.470   2.037
    1C        C  569   3.395   4.511   2.152
    1C        C  570   3.185   4.468   2.278
    1C        C  571   3.323   4.505   2.274
    1C        C  572   3.114   4.450   2.398
    1C        C  573   3.183   4.476   2.518
    1C        C  574   2.989   4.396   2.646
    1C        C  575   3.113   4.462   2.641
    1C        C  576   2.930   4.354   2.767
    1C        C  577   2.994   4.391   2.888
    1C        C  578   2.820   4.273   3.012
    1C        C  579   2.933   4.359   3.011
    1C        C  580   2.771   4.224   3.135
    1C        C  581   2.827   4.269   3.256
    1C        C  582   2.697   4.111   3.383
    1C        C  583   2.781   4.225   3.382
    1C        C  584   2.656   4.055   3.505
    1C        C  585   2.691   4.119   3.626
    1C        C  586   2.597   3.933   3.754
    1C        C  587   2.660   4.059   3.750
    1C        C  588   2.573   3.868   3.877
    1C        C  589   2.597   3.936   3.998
    1C        C  590   2.536   3.735   4.124
    1C        C  591   2.575   3.870   4.121
    1C        C  592   2.522   3.670   4.249
    1C        C  593   2.533   3.739   4.371
    1C        C  594   2.510   3.532   4.496
    1C        C  595   2.516   3.673   4.495
    1C        C  596   2.510   3.462   4.619
    1C        C  597   2.515   3.537   4.738
    1C        C  598   2.533   3.324   4.860
    1C        C  599   2.525   3.465   4.859
    1C        C  600   2.532   3.247   4.977
    1C        C  601   3.194   4.430   2.043
    1C        C  602   2.979   4.390   2.157
    1C        C  603   3.116   4.432   2.159
    1C        C  604   2.923   4.352   2.282
    1C        C  605   2.984   4.395   2.402
    1C        C  606   2.812   4.273   2.526
    1C        C  607   2.925   4.358   2.525
    1C        C  608   2.764   4.221   2.648
    1C        C  609   2.814   4.273   2.769
    1C        C  610   2.680   4.111   2.895
    1C        C  611   2.765   4.223   2.892
    1C        C  612   2.650   4.048   3.018
    1C        C  613   2.689   4.109   3.139
    1C        C  614   2.592   3.924   3.263
    1C        C  615   2.650   4.053   3.263
    1C        C  616   2.564   3.862   3.387
    1C        C  617   2.591   3.929   3.508
    1C        C  618   2.516   3.734   3.634
    1C        C  619   2.566   3.867   3.633
    1C        C  620   2.508   3.664   3.756
    1C        C  621   2.528   3.734   3.878
    1C        C  622   2.509   3.525   4.007
    1C        C  623   2.518   3.666   4.002
    1C        C  624   2.514   3.458   4.131
    1C        C  625   2.510   3.529   4.253
    1C        C  626   2.536   3.319   4.376
    1C        C  627   2.511   3.458   4.376
    1C        C  628   2.556   3.252   4.498
    1C        C  629   2.534   3.323   4.618
    1C        C  630   2.599   3.119   4.741
    1C        C  631   2.551   3.252   4.740
    1C        C  632   2.613   3.047   4.863
    1C        C  633   2.554   3.109   4.978
    1C        C  634   2.778   4.302   2.052
    1C        C  635   2.887   4.391   2.048
    1C        C  636   2.743   4.230   2.167
    1C        C  637   2.805   4.273   2.286
    1C        C  638   2.670   4.109   2.411
    1C        C  639   2.755   4.221   2.408
    1C        C  640   2.637   4.045   2.533
    1C        C  641   2.686   4.103   2.652
    1C        C  642   2.583   3.919   2.776
    1C        C  643   2.643   4.046   2.774
    1C        C  644   2.555   3.855   2.899
    1C        C  645   2.584   3.923   3.019
    1C        C  646   2.522   3.722   3.146
    1C        C  647   2.565   3.856   3.142
    1C        C  648   2.510   3.655   3.270
    1C        C  649   2.522   3.727   3.391
    1C        C  650   2.504   3.519   3.516
    1C        C  651   2.505   3.661   3.514
    1C        C  652   2.513   3.451   3.640
    1C        C  653   2.509   3.523   3.762
    1C        C  654   2.540   3.316   3.884
    1C        C  655   2.509   3.454   3.885
    1C        C  656   2.557   3.253   4.009
    1C        C  657   2.540   3.319   4.133
    1C        C  658   2.606   3.117   4.255
    1C        C  659   2.554   3.249   4.255
    1C        C  660   2.637   3.055   4.378
    1C        C  661   2.603   3.118   4.500
    1C        C  662   2.711   2.934   4.620
    1C        C  663   2.635   3.053   4.621
    1C        C  664   2.748   2.876   4.743
    1C        C  665   2.692   2.927   4.863
    1C        C  666   2.742   2.868   4.980
    1C        C  667   2.670   4.026   2.054
    1C        C  668   2.678   4.105   2.169
    1C        C  669   2.580   3.914   2.290
    1C        C  670   2.637   4.044   2.290
    1C        C  671   2.555   3.847   2.411
    1C        C  672   2.581   3.915   2.532
    1C        C  673   2.514   3.716   2.657
    1C        C  674   2.555   3.851   2.655
    1C        C  675   2.508   3.648   2.781
    1C        C  676   2.522   3.718   2.903
    1C        C  677   2.497   3.509   3.027
    1C        C  678   2.508   3.649   3.025
    1C        C  679   2.498   3.441   3.151
    1C        C  680   2.499   3.514   3.272
    1C        C  681   2.533   3.307   3.395
    1C        C  682   2.505   3.445   3.396
    1C        C  683   2.553   3.242   3.519
    1C        C  684   2.539   3.313   3.641
    1C        C  685   2.602   3.112   3.768
    1C        C  686   2.552   3.244   3.764
    1C        C  687   2.636   3.054   3.892
    1C        C  688   2.605   3.120   4.013
    1C        C  689   2.714   2.934   4.132
    1C        C  690   2.638   3.053   4.133
    1C        C  691   2.756   2.877   4.255
    1C        C  692   2.716   2.939   4.376
    1C        C  693   2.758   2.881   4.498
    1C        C  694   2.625   3.893   2.057
    1C        C  695   2.522   3.703   2.173
    1C        C  696   2.567   3.837   2.172
    1C        C  697   2.503   3.634   2.295
    1C        C  698   2.517   3.710   2.413
    1C        C  699   2.491   3.502   2.540
    1C        C  700   2.503   3.643   2.536
    1C        C  701   2.499   3.432   2.663
    1C        C  702   2.503   3.507   2.783
    1C        C  703   2.526   3.297   2.909
    1C        C  704   2.505   3.437   2.906
    1C        C  705   2.541   3.229   3.032
    1C        C  706   2.527   3.303   3.151
    1C        C  707   2.599   3.104   3.276
    1C        C  708   2.551   3.237   3.274
    1C        C  709   2.634   3.046   3.399
    1C        C  710   2.603   3.110   3.521
    1C        C  711   2.709   2.931   3.645
    1C        C  712   2.629   3.047   3.645
    1C        C  713   2.761   2.881   3.767
    1C        C  714   2.716   2.937   3.888
    1C        C  715   2.759   2.880   4.010
    1C        C  716   2.445   3.499   2.058
    1C        C  717   2.495   3.630   2.057
    1C        C  718   2.461   3.423   2.178
    1C        C  719   2.471   3.496   2.299
    1C        C  720   2.510   3.287   2.421
    1C        C  721   2.482   3.425   2.421
    1C        C  722   2.536   3.221   2.543
    1C        C  723   2.526   3.294   2.664
    1C        C  724   2.591   3.096   2.785
    1C        C  725   2.537   3.226   2.788
    1C        C  726   2.625   3.035   2.908
    1C        C  727   2.594   3.098   3.030
    1C        C  728   2.702   2.918   3.157
    1C        C  729   2.628   3.038   3.154
    1C        C  730   2.751   2.867   3.280
    1C        C  731   2.715   2.930   3.401
    1C        C  732   2.755   2.874   3.524
    1C        C  733   2.494   3.201   2.068
    1C        C  734   2.490   3.283   2.181
    1C        C  735   2.583   3.084   2.302
    1C        C  736   2.525   3.214   2.301
    1C        C  737   2.612   3.019   2.424
    1C        C  738   2.586   3.089   2.544
    1C        C  739   2.702   2.910   2.666
    1C        C  740   2.625   3.029   2.665
    1C        C  741   2.742   2.854   2.790
    1C        C  742   2.701   2.915   2.911
    1C        C  743   2.746   2.864   3.034
    1C        C  744   2.538   3.069   2.070
    1C        C  745   2.680   2.895   2.184
    1C        C  746   2.607   3.016   2.181
    1C        C  747   2.725   2.836   2.304
    1C        C  748   2.683   2.896   2.424
    1C        C  749   2.742   2.851   2.545
    1C        C  750   2.733   2.837   2.068
    1C        C  751   3.669   2.317   1.977
    1C        O  752   3.668   2.194   2.001
    1C        O  753   3.704   2.354   1.846
    1C        C  754   4.601   3.052   1.954
    1C        O  755   4.591   3.065   1.829
    1C        O  756   4.709   2.970   1.988
    1C        C  757   4.458   4.215   1.964
    1C        O  758   4.575   4.248   1.997
    1C        O  759   4.435   4.224   1.826
    1C        C  760   3.590   4.672   1.950
    1C        O  761   3.571   4.785   2.004
    1C        O  762   3.525   4.639   1.831
    1C        C  763   2.874   4.489   1.938
    1C        O  764   2.885   4.448   1.819
    1C        O  765   2.816   4.616   1.941
    1C        C  766   2.327   3.483   1.969
    1C        O  767   2.329   3.400   1.874
    1C        O  768   2.233   3.583   1.941
    1C        C  769   4.675   3.589   5.072
    1C        O  770   4.634   3.566   5.189
    1C        O  771   4.812   3.608   5.050
    1C        C  772   4.266   4.444   5.036
    1C        O  773   4.279   4.409   5.156
    1C        O  774   4.355   4.548   5.006
    1C        C  775   4.147   2.520   5.068
    1C        O  776   4.187   2.404   5.041
    1C        O  777   4.157   2.536   5.206
    1C        C  778   2.905   4.513   5.077
    1C        O  779   2.838   4.619   5.077
    1C        O  780   2.976   4.492   5.196
    1C        C  781   2.452   3.036   5.056
    1C        O  782   2.348   2.983   5.006
    1C        O  783   2.441   3.049   5.194
    1C        C  784   2.393   3.989   5.026
    1C        O  785   2.284   4.009   4.964
    1C        O  786   2.382   3.963   5.163
    1C        C  787   2.950   2.407   2.026
    1C        O  788   2.899   2.411   1.910
    1C        O  789   2.959   2.274   2.066
    1C        C  790   3.174   2.366   5.058
    1C        O  791   3.082   2.282   5.041
    1C        O  792   3.229   2.358   5.187
    1C        H  793   4.247   3.035   5.035
    1C        H  794   4.178   2.808   5.066
    1C        H  795   4.446   3.152   5.067
    1C        H  796   4.469   3.383   5.046
    1C        H  797   4.566   3.814   5.038
    1C        H  798   4.385   3.958   5.048
    1C        H  799   4.236   4.136   5.031
    1C        H  800   4.045   4.565   5.001
    1C        H  801   3.815   4.569   5.038
    1C        H  802   3.588   4.626   5.042
    1C        H  803   3.383   4.551   5.046
    1C        H  804   3.159   4.459   5.046
    1C        H  805   3.875   2.516   5.064
    1C        H  806   3.668   2.423   5.062
    1C        H  807   2.993   2.524   5.048
    1C        H  808   3.438   2.496   5.071
    1C        H  809   2.849   2.705   5.068
    1C        H  810   2.713   2.901   5.078
    1C        H  811   2.542   3.296   5.071
    1C        H  812   2.501   3.498   5.066
    1C        H  813   2.517   3.731   5.070
    1C        H  814   2.543   4.192   5.009
    1C        H  815   2.783   4.276   5.052
    1C        H  816   2.741   2.900   1.981
    1C        H  817   2.813   2.654   1.986
    1C        H  818   3.204   2.429   1.984
    1C        H  819   3.420   2.420   1.980
    1C        H  820   3.866   2.503   1.967
    1C        H  821   4.073   2.591   1.974
    1C        H  822   4.268   2.706   1.980
    1C        H  823   4.350   2.941   1.967
    1C        H  824   4.580   3.314   1.971
    1C        H  825   4.506   3.503   1.955
    1C        H  826   4.488   3.743   1.951
    1C        H  827   3.816   4.550   1.961
    1C        H  828   3.988   4.412   1.949
    1C        H  829   4.196   4.317   1.965
    1C        H  830   4.489   3.961   1.958
    1C        H  831   2.653   3.829   1.976
    1C        H  832   2.732   4.041   1.968
    1C        H  833   2.716   4.296   1.965
    1C        H  834   3.377   4.460   1.944
    1C        H  835   3.149   4.403   1.950
    1C        H  836   2.494   3.005   1.997
    1C        H  837   2.487   3.245   1.970
    1C        H  838   2.476   3.686   1.968
    2V3OU   H29  839   2.806   3.540   1.341
    2V3OU   C27  840   2.777   3.499   1.441
    2V3OU   H27  841   2.710   3.571   1.494
    2V3OU   H28  842   2.725   3.400   1.429
    2V3OU   O11  843   2.899   3.474   1.511
    2V3OU   C15  844   2.917   3.392   1.620
    2V3OU   C13  845   3.048   3.371   1.669
    2V3OU   C14  846   3.073   3.270   1.762
    2V3OU   C16  847   2.969   3.184   1.798
    2V3OU    H6  848   2.989   3.103   1.869
    2V3OU   C12  849   3.212   3.228   1.790
    2V3OU    O2  850   3.230   3.125   1.859
    2V3OU   C10  851   3.323   3.304   1.731
    2V3OU    C8  852   3.454   3.267   1.759
    2V3OU   O10  853   3.483   3.150   1.821
    2V3OU   H26  854   3.401   3.110   1.852
    2V3OU    C6  855   3.561   3.349   1.709
    2V3OU    C5  856   3.536   3.465   1.638
    2V3OU    C4  857   3.701   3.297   1.714
    2V3OU    H4  858   3.721   3.229   1.801
    2V3OU    H5  859   3.709   3.225   1.627
    2V3OU    C2  860   3.814   3.400   1.704
    2V3OU    O6  861   3.807   3.473   1.826
    2V3OU   H21  862   3.749   3.550   1.811
    2V3OU    C3  863   3.779   3.498   1.592
    2V3OU    H2  864   3.859   3.577   1.591
    2V3OU    H3  865   3.778   3.440   1.496
    2V3OU   C25  866   3.951   3.333   1.688
    2V3OU    O7  867   3.997   3.298   1.580
    2V3OU   C26  868   4.029   3.288   1.811
    2V3OU   H22  869   4.072   3.382   1.856
    2V3OU   H23  870   4.113   3.221   1.779
    2V3OU    O8  871   3.963   3.204   1.903
    2V3OU   H24  872   3.919   3.270   1.958
    2V3OU    C1  873   3.645   3.566   1.613
    2V3OU    H1  874   3.619   3.621   1.517
    2V3OU    O3  875   3.648   3.654   1.725
    2V3OU   C19  876   3.620   3.792   1.704
    2V3OU    H9  877   3.518   3.807   1.657
    2V3OU    O4  878   3.717   3.845   1.616
    2V3OU   C20  879   3.845   3.871   1.675
    2V3OU   H10  880   3.894   3.773   1.699
    2V3OU   C24  881   3.607   3.853   1.844
    2V3OU   H16  882   3.538   3.792   1.906
    2V3OU   H17  883   3.559   3.951   1.818
    2V3OU   C23  884   3.748   3.871   1.901
    2V3OU   H15  885   3.793   3.768   1.918
    2V3OU    N1  886   3.732   3.954   2.019
    2V3OU   H19  887   3.798   3.927   2.089
    2V3OU   H20  888   3.642   3.925   2.050
    2V3OU   C21  889   3.848   3.946   1.808
    2V3OU   H11  890   3.954   3.930   1.844
    2V3OU    O5  891   3.827   4.086   1.799
    2V3OU   H18  892   3.773   4.102   1.878
    2V3OU   C22  893   3.909   3.944   1.558
    2V3OU   H12  894   3.861   4.045   1.547
    2V3OU   H13  895   3.900   3.884   1.464
    2V3OU   H14  896   4.017   3.958   1.582
    2V3OU   C11  897   3.156   3.465   1.636
    2V3OU    O1  898   3.136   3.585   1.606
    2V3OU    C9  899   3.296   3.423   1.658
    2V3OU    C7  900   3.400   3.502   1.611
    2V3OU    O9  901   3.377   3.610   1.529
    2V3OU   H25  902   3.281   3.627   1.525
    2V3OU   C17  903   2.814   3.309   1.668
    2V3OU    H7  904   2.712   3.345   1.654
    2V3OU   C18  905   2.838   3.205   1.757
    2V3OU    H8  906   2.749   3.148   1.790
    3SOL     OW  907   1.464   3.142   0.752
    3SOL    HW1  908   1.479   3.238   0.777
    3SOL    HW2  909   1.413   3.137   0.666
    4SOL     OW  910   5.918   0.447   2.122
    4SOL    HW1  911   5.858   0.478   2.048
    4SOL    HW2  912   5.897   0.497   2.206
    5SOL     OW  913   3.289   1.718   1.051
    5SOL    HW1  914   3.193   1.736   1.031
    5SOL    HW2  915   3.299   1.687   1.146
    6SOL     OW  916   2.461   1.706   1.251
    6SOL    HW1  917   2.390   1.746   1.309
    6SOL    HW2  918   2.429   1.619   1.214
    7SOL     OW  919   6.246   1.554   1.592
    7SOL    HW1  920   6.346   1.548   1.594
    7SOL    HW2  921   6.207   1.466   1.565
    8SOL     OW  922   2.887   0.927   4.851
    8SOL    HW1  923   2.908   1.002   4.914
    8SOL    HW2  924   2.870   0.965   4.759
    9SOL     OW  925   1.473   3.769   5.563
    9SOL    HW1  926   1.556   3.721   5.535
    9SOL    HW2  927   1.439   3.825   5.488
   10SOL     OW  928   0.870   3.609   6.962
   10SOL    HW1  929   0.793   3.572   7.014
   10SOL    HW2  930   0.838   3.688   6.908
   11SOL     OW  931   3.870   6.743   7.000
   11SOL    HW1  932   3.919   6.818   0.026
   11SOL    HW2  933   3.854   6.670   0.047
   12SOL     OW  934   5.563   6.239   2.411
   12SOL    HW1  935   5.646   6.187   2.392
   12SOL    HW2  936   5.550   6.246   2.510
   13SOL     OW  937   2.670   6.289   3.462
   13SOL    HW1  938   2.753   6.321   3.417
   13SOL    HW2  939   2.601   6.361   3.461
   14SOL     OW  940   3.479   5.960   0.888
   14SOL    HW1  941   3.450   6.054   0.868
   14SOL    HW2  942   3.483   5.908   0.803
   15SOL     OW  943   1.641   6.309   0.049
   15SOL    HW1  944   1.567   6.362   0.009
   15SOL    HW2  945   1.709   6.371   0.089
   16SOL     OW  946   5.946   2.162   5.722
   16SOL    HW1  947   6.033   2.160   5.672
   16SOL    HW2  948   5.948   2.238   5.787
   17SOL     OW  949   5.354   6.578   4.569
   17SOL    HW1  950   5.339   6.582   4.667
   17SOL    HW2  951   5.403   6.661   4.539
   18SOL     OW  952   1.702   1.829   6.056
   18SOL    HW1  953   1.757   1.906   6.025
   18SOL    HW2  954   1.749   1.782   6.131
   19SOL     OW  955   0.951   6.968   2.349
   19SOL    HW1  956   0.868   6.929   2.387
   19SOL    HW2  957   0.995   6.902   2.288
   20SOL     OW  958   3.502   1.836   3.610
   20SOL    HW1  959   3.460   1.821   3.520
   20SOL    HW2  960   3.523   1.933   3.621
   21SOL     OW  961   2.946   2.386   1.342
   21SOL    HW1  962   2.936   2.299   1.389
   21SOL    HW2  963   2.989   2.453   1.403
   22SOL     OW  964   1.597   6.541   5.837
   22SOL    HW1  965   1.672   6.531   5.902
   22SOL    HW2  966   1.562   6.450   5.813
   23SOL     OW  967   4.000   6.699   4.442
   23SOL    HW1  968   4.006   6.790   4.402
   23SOL    HW2  969   4.091   6.660   4.451
   24SOL     OW  970   4.640   1.262   5.066
   24SOL    HW1  971   4.631   1.206   5.148
   24SOL    HW2  972   4.673   1.353   5.091
   25SOL     OW  973   3.658   5.736   0.571
   25SOL    HW1  974   3.727   5.665   0.581
   25SOL    HW2  975   3.581   5.716   0.631
   26SOL     OW  976   6.687   1.410   2.461
   26SOL    HW1  977   6.704   1.398   2.363
   26SOL    HW2  978   6.761   1.464   2.500
   27SOL     OW  979   6.130   6.616   2.777
   27SOL    HW1  980   6.130   6.714   2.795
   27SOL    HW2  981   6.166   6.598   2.685
   28SOL     OW  982   3.839   0.705   0.370
   28SOL    HW1  983   3.864   0.780   0.310
   28SOL    HW2  984   3.905   0.630   0.360
   29SOL     OW  985   4.586   2.305   1.260
   29SOL    HW1  986   4.532   2.327   1.178
   29SOL    HW2  987   4.543   2.229   1.309
   30SOL     OW  988   3.576   0.916   4.789
   30SOL    HW1  989   3.493   0.860   4.796
   30SOL    HW2  990   3.568   0.993   4.853
   31SOL     OW  991   0.200   0.732   5.263
   31SOL    HW1  992   0.179   0.670   5.339
   31SOL    HW2  993   0.203   0.680   5.177
   32SOL     OW  994   0.368   1.898   1.087
   32SOL    HW1  995   0.289   1.841   1.062
   32SOL    HW2  996   0.352   1.938   1.177
   33SOL     OW  997   1.991   2.229   6.177
   33SOL    HW1  998   2.082   2.199   6.148
   33SOL    HW2  999   1.972   2.320   6.141
   34SOL     OW 1000   1.427   0.500   4.797
   34SOL    HW1 1001   1.456   0.475   4.705
   34SOL    HW2 1002   1.392   0.594   4.797
   35SOL     OW 1003   5.035   1.774   6.658
   35SOL    HW1 1004   4.997   1.698   6.606
   35SOL    HW2 1005   5.001   1.770   6.752
   36SOL     OW 1006   1.527   1.947   5.440
   36SOL    HW1 1007   1.513   1.880   5.367
   36SOL    HW2 1008   1.569   2.029   5.402
   37SOL     OW 1009   3.092   6.746   1.525
   37SOL    HW1 1010   3.009   6.694   1.504
   37SOL    HW2 1011   3.067   6.839   1.551
   38SOL     OW 1012   6.984   6.258   3.534
   38SOL    HW1 1013   6.897   6.278   3.580
   38SOL    HW2 1014   0.033   6.328   3.559
   39SOL     OW 1015   6.789   3.021   5.164
   39SOL    HW1 1016   6.773   2.977   5.076
   39SOL    HW2 1017   6.886   3.013   5.188
   40SOL     OW 1018   6.486   1.234   2.059
   40SOL    HW1 1019   6.554   1.190   2.000
   40SOL    HW2 1020   6.474   1.181   2.142
   41SOL     OW 1021   1.376   6.863   5.718
   41SOL    HW1 1022   1.445   6.833   5.784
   41SOL    HW2 1023   1.392   6.818   5.631
   42SOL     OW 1024   3.786   1.059   0.508
   42SOL    HW1 1025   3.812   1.124   0.436
   42SOL    HW2 1026   3.695   1.023   0.489
   43SOL     OW 1027   5.561   5.954   5.265
   43SOL    HW1 1028   5.602   5.863   5.263
   43SOL    HW2 1029   5.593   6.003   5.346
   44SOL     OW 1030   0.487   2.940   5.717
   44SOL    HW1 1031   0.428   2.919   5.795
   44SOL    HW2 1032   0.568   2.881   5.720
   45SOL     OW 1033   2.495   0.448   1.833
   45SOL    HW1 1034   2.425   0.381   1.810
   45SOL    HW2 1035   2.470   0.538   1.798
   46SOL     OW 1036   1.538   3.898   4.528
   46SOL    HW1 1037   1.589   3.966   4.476
   46SOL    HW2 1038   1.525   3.930   4.622
   47SOL     OW 1039   6.428   4.648   3.670
   47SOL    HW1 1040   6.475   4.692   3.593
   47SOL    HW2 1041   6.349   4.597   3.637
   48SOL     OW 1042   0.056   2.329   5.160
   48SOL    HW1 1043   0.095   2.237   5.167
   48SOL    HW2 1044   0.130   2.394   5.140
   49SOL     OW 1045   4.802   2.497   0.933
   49SOL    HW1 1046   4.779   2.414   0.983
   49SOL    HW2 1047   4.780   2.577   0.989
   50SOL     OW 1048   6.778   4.200   4.696
   50SOL    HW1 1049   6.742   4.159   4.780
   50SOL    HW2 1050   6.877   4.188   4.693
   51SOL     OW 1051   3.493   4.891   2.748
   51SOL    HW1 1052   3.550   4.866   2.670
   51SOL    HW2 1053   3.466   4.987   2.741
   52SOL     OW 1054   2.354   1.936   2.092
   52SOL    HW1 1055   2.428   2.003   2.089
   52SOL    HW2 1056   2.375   1.861   2.030
   53SOL     OW 1057   5.378   6.984   4.222
   53SOL    HW1 1058   5.290   0.011   4.207
   53SOL    HW2 1059   5.400   6.987   4.320
   54SOL     OW 1060   3.867   5.051   5.839
   54SOL    HW1 1061   3.805   5.119   5.801
   54SOL    HW2 1062   3.833   4.959   5.819
   55SOL     OW 1063   4.141   2.439   6.781
   55SOL    HW1 1064   4.217   2.437   6.716
   55SOL    HW2 1065   4.156   2.368   6.850
   56SOL     OW 1066   1.089   0.359   2.260
   56SOL    HW1 1067   1.077   0.276   2.313
   56SOL    HW2 1068   1.007   0.416   2.266
   57SOL     OW 1069   5.865   0.860   0.256
   57SOL    HW1 1070   5.932   0.917   0.208
   57SOL    HW2 1071   5.898   0.766   0.262
   58SOL     OW 1072   0.300   6.016   6.962
   58SOL    HW1 1073   0.298   6.110   6.997
   58SOL    HW2 1074   0.243   5.958   0.001
   59SOL     OW 1075   1.700   0.424   5.779
   59SOL    HW1 1076   1.788   0.470   5.788
   59SOL    HW2 1077   1.646   0.438   5.862
   60SOL     OW 1078   4.588   6.835   5.244
   60SOL    HW1 1079   4.540   6.898   5.183
   60SOL    HW2 1080   4.561   6.853   5.338
   61SOL     OW 1081   4.651   0.292   4.122
   61SOL    HW1 1082   4.648   0.303   4.023
   61SOL    HW2 1083   4.577   0.346   4.163
   62SOL     OW 1084   1.867   0.609   4.428
   62SOL    HW1 1085   1.944   0.605   4.492
   62SOL    HW2 1086   1.824   0.519   4.421
   63SOL     OW 1087   7.004   2.941   2.902
   63SOL    HW1 1088   0.077   2.958   2.937
   63SOL    HW2 1089   6.937   2.990   2.958
   64SOL     OW 1090   0.214   4.059   5.811
   64SOL    HW1 1091   0.158   4.141   5.808
   64SOL    HW2 1092   0.206   4.010   5.724
   65SOL     OW 1093   6.604   4.708   5.633
   65SOL    HW1 1094   6.576   4.779   5.698
   65SOL    HW2 1095   6.692   4.669   5.662
   66SOL     OW 1096   3.033   0.607   0.578
   66SOL    HW1 1097   3.033   0.597   0.677
   66SOL    HW2 1098   2.938   0.611   0.545
   67SOL     OW 1099   5.244   5.959   4.792
   67SOL    HW1 1100   5.235   5.916   4.882
   67SOL    HW2 1101   5.164   5.938   4.736
   68SOL     OW 1102   5.693   2.035   5.630
   68SOL    HW1 1103   5.627   2.101   5.594
   68SOL    HW2 1104   5.779   2.082   5.652
   69SOL     OW 1105   2.979   3.725   6.270
   69SOL    HW1 1106   2.949   3.652   6.331
   69SOL    HW2 1107   3.031   3.793   6.323
   70SOL     OW 1108   6.961   5.376   2.686
   70SOL    HW1 1109   6.875   5.332   2.713
   70SOL    HW2 1110   7.006   5.321   2.616
   71SOL     OW 1111   1.441   2.597   2.964
   71SOL    HW1 1112   1.474   2.558   2.878
   71SOL    HW2 1113   1.509   2.582   3.035
   72SOL     OW 1114   2.450   5.407   3.797
   72SOL    HW1 1115   2.436   5.312   3.770
   72SOL    HW2 1116   2.538   5.416   3.844
   73SOL     OW 1117   4.474   2.257   0.419
   73SOL    HW1 1118   4.385   2.302   0.425
   73SOL    HW2 1119   4.534   2.293   0.491
   74SOL     OW 1120   5.127   5.886   6.523
   74SOL    HW1 1121   5.207   5.825   6.519
   74SOL    HW2 1122   5.048   5.838   6.485
   75SOL     OW 1123   3.807   5.929   5.690
   75SOL    HW1 1124   3.715   5.911   5.655
   75SOL    HW2 1125   3.816   6.025   5.714
   76SOL     OW 1126   2.551   2.785   1.714
   76SOL    HW1 1127   2.502   2.742   1.639
   76SOL    HW2 1128   2.574   2.716   1.783
   77SOL     OW 1129   5.631   5.652   5.878
   77SOL    HW1 1130   5.705   5.618   5.935
   77SOL    HW2 1131   5.669   5.700   5.799
   78SOL     OW 1132   6.631   6.690   5.747
   78SOL    HW1 1133   6.651   6.633   5.827
   78SOL    HW2 1134   6.638   6.636   5.664
   79SOL     OW 1135   3.118   0.042   0.611
   79SOL    HW1 1136   3.097   6.963   0.597
   79SOL    HW2 1137   3.198   0.066   0.555
   80SOL     OW 1138   0.106   1.429   4.207
   80SOL    HW1 1139   0.096   1.525   4.181
   80SOL    HW2 1140   0.141   1.376   4.130
   81SOL     OW 1141   1.703   0.908   2.820
   81SOL    HW1 1142   1.688   0.920   2.918
   81SOL    HW2 1143   1.723   0.997   2.779
   82SOL     OW 1144   6.883   4.652   6.271
   82SOL    HW1 1145   6.951   4.725   6.277
   82SOL    HW2 1146   6.878   4.618   6.177
   83SOL     OW 1147   0.484   6.896   0.659
   83SOL    HW1 1148   0.516   6.955   0.585
   83SOL    HW2 1149   0.481   6.947   0.744
   84SOL     OW 1150   5.244   3.939   1.761
   84SOL    HW1 1151   5.192   3.854   1.762
   84SOL    HW2 1152   5.329   3.927   1.813
   85SOL     OW 1153   0.850   2.497   5.307
   85SOL    HW1 1154   0.759   2.534   5.290
   85SOL    HW2 1155   0.892   2.471   5.220
   86SOL     OW 1156   0.811   0.751   5.834
   86SOL    HW1 1157   0.787   0.814   5.908
   86SOL    HW2 1158   0.885   0.691   5.864
   87SOL     OW 1159   4.917   1.553   0.733
   87SOL    HW1 1160   4.911   1.507   0.645
   87SOL    HW2 1161   4.910   1.652   0.720
   88SOL     OW 1162   5.512   1.258   0.838
   88SOL    HW1 1163   5.471   1.167   0.848
   88SOL    HW2 1164   5.611   1.251   0.849
   89SOL     OW 1165   1.775   2.725   6.175
   89SOL    HW1 1166   1.731   2.809   6.208
   89SOL    HW2 1167   1.749   2.649   6.234
   90SOL     OW 1168   5.364   6.191   4.116
   90SOL    HW1 1169   5.264   6.195   4.124
   90SOL    HW2 1170   5.401   6.283   4.110
   91SOL     OW 1171   4.965   4.595   5.242
   91SOL    HW1 1172   5.001   4.510   5.205
   91SOL    HW2 1173   4.906   4.639   5.173
   92SOL     OW 1174   3.393   4.851   1.461
   92SOL    HW1 1175   3.306   4.816   1.496
   92SOL    HW2 1176   3.467   4.793   1.493
   93SOL     OW 1177   3.243   5.765   6.103
   93SOL    HW1 1178   3.321   5.742   6.045
   93SOL    HW2 1179   3.191   5.682   6.124
   94SOL     OW 1180   2.806   5.663   0.187
   94SOL    HW1 1181   2.728   5.713   0.224
   94SOL    HW2 1182   2.864   5.632   0.263
   95SOL     OW 1183   0.305   0.163   4.325
   95SOL    HW1 1184   0.373   0.213   4.379
   95SOL    HW2 1185   0.222   0.150   4.379
   96SOL     OW 1186   2.277   6.995   5.430
   96SOL    HW1 1187   2.359   0.033   5.421
   96SOL    HW2 1188   2.214   0.019   5.495
   97SOL     OW 1189   5.849   3.325   4.569
   97SOL    HW1 1190   5.823   3.325   4.666
   97SOL    HW2 1191   5.775   3.365   4.515
   98SOL     OW 1192   4.992   2.361   5.988
   98SOL    HW1 1193   5.039   2.294   5.931
   98SOL    HW2 1194   4.985   2.447   5.939
   99SOL     OW 1195   3.979   1.790   0.996
   99SOL    HW1 1196   3.939   1.753   1.080
   99SOL    HW2 1197   4.078   1.803   1.009
  100SOL     OW 1198   0.823   5.969   6.808
  100SOL    HW1 1199   0.724   5.976   6.793
  100SOL    HW2 1200   0.872   6.000   6.726
  101SOL     OW 1201   1.847   6.287   3.564
  101SOL    HW1 1202   1.837   6.378   3.524
  101SOL    HW2 1203   1.758   6.240   3.561
  102SOL     OW 1204   4.033   0.296   3.822
  102SOL    HW1 1205   4.058   0.360   3.749
  102SOL    HW2 1206   4.022   0.346   3.908
  103SOL     OW 1207   3.949   2.184   1.278
  103SOL    HW1 1208   3.980   2.278   1.292
  103SOL    HW2 1209   3.864   2.169   1.328
  104SOL     OW 1210   0.337   6.064   2.245
  104SOL    HW1 1211   0.421   6.048   2.298
  104SOL    HW2 1212   0.318   5.985   2.187
  105SOL     OW 1213   5.257   0.962   6.244
  105SOL    HW1 1214   5.285   0.999   6.156
  105SOL    HW2 1215   5.297   1.018   6.318
  106SOL     OW 1216   3.030   6.731   6.624
  106SOL    HW1 1217   2.983   6.818   6.606
  106SOL    HW2 1218   3.128   6.743   6.608
  107SOL     OW 1219   2.487   2.819   0.621
  107SOL    HW1 1220   2.549   2.819   0.700
  107SOL    HW2 1221   2.398   2.856   0.649
  108SOL     OW 1222   4.924   4.263   6.139
  108SOL    HW1 1223   4.951   4.339   6.198
  108SOL    HW2 1224   4.899   4.299   6.049
  109SOL     OW 1225   6.690   0.611   0.770
  109SOL    HW1 1226   6.628   0.538   0.798
  109SOL    HW2 1227   6.708   0.605   0.672
  110SOL     OW 1228   3.585   6.041   5.120
  110SOL    HW1 1229   3.584   6.109   5.193
  110SOL    HW2 1230   3.679   6.009   5.107
  111SOL     OW 1231   3.705   0.974   3.402
  111SOL    HW1 1232   3.624   0.925   3.435
  111SOL    HW2 1233   3.750   0.919   3.331
  112SOL     OW 1234   6.753   6.600   6.049
  112SOL    HW1 1235   6.778   6.510   6.013
  112SOL    HW2 1236   6.833   6.644   6.088
  113SOL     OW 1237   0.189   4.898   3.536
  113SOL    HW1 1238   0.182   4.962   3.460
  113SOL    HW2 1239   0.263   4.925   3.597
  114SOL     OW 1240   0.654   6.798   0.161
  114SOL    HW1 1241   0.573   6.812   0.218
  114SOL    HW2 1242   0.652   6.706   0.122
  115SOL     OW 1243   5.214   1.616   4.672
  115SOL    HW1 1244   5.140   1.635   4.736
  115SOL    HW2 1245   5.246   1.702   4.632
  116SOL     OW 1246   6.145   4.388   2.051
  116SOL    HW1 1247   6.135   4.366   1.953
  116SOL    HW2 1248   6.125   4.485   2.065
  117SOL     OW 1249   1.626   0.133   6.401
  117SOL    HW1 1250   1.682   0.165   6.325
  117SOL    HW2 1251   1.565   0.061   6.370
  118SOL     OW 1252   0.478   0.507   2.222
  118SOL    HW1 1253   0.390   0.527   2.265
  118SOL    HW2 1254   0.470   0.517   2.123
  119SOL     OW 1255   6.645   2.440   5.614
  119SOL    HW1 1256   6.698   2.525   5.607
  119SOL    HW2 1257   6.617   2.411   5.523
  120SOL     OW 1258   5.834   6.746   0.716
  120SOL    HW1 1259   5.859   6.842   0.703
  120SOL    HW2 1260   5.745   6.728   0.674
  121SOL     OW 1261   2.762   3.571   6.047
  121SOL    HW1 1262   2.821   3.504   6.092
  121SOL    HW2 1263   2.786   3.663   6.079
  122SOL     OW 1264   0.861   3.307   4.454
  122SOL    HW1 1265   0.864   3.403   4.484
  122SOL    HW2 1266   0.903   3.249   4.524
  123SOL     OW 1267   0.651   1.888   1.106
  123SOL    HW1 1268   0.660   1.971   1.160
  123SOL    HW2 1269   0.554   1.870   1.087
  124SOL     OW 1270   4.514   3.066   0.883
  124SOL    HW1 1271   4.568   3.043   0.964
  124SOL    HW2 1272   4.562   3.137   0.830
  125SOL     OW 1273   1.692   2.410   1.896
  125SOL    HW1 1274   1.714   2.486   1.835
  125SOL    HW2 1275   1.772   2.351   1.906
  126SOL     OW 1276   2.947   4.984   1.450
  126SOL    HW1 1277   2.880   4.924   1.494
  126SOL    HW2 1278   2.938   4.977   1.351
  127SOL     OW 1279   6.997   5.832   6.050
  127SOL    HW1 1280   6.971   5.928   6.038
  127SOL    HW2 1281   6.930   5.773   6.005
  128SOL     OW 1282   4.716   2.567   1.341
  128SOL    HW1 1283   4.674   2.485   1.303
  128SOL    HW2 1284   4.810   2.575   1.307
  129SOL     OW 1285   3.078   3.731   6.677
  129SOL    HW1 1286   2.996   3.680   6.702
  129SOL    HW2 1287   3.144   3.668   6.636
  130SOL     OW 1288   1.394   1.411   4.498
  130SOL    HW1 1289   1.358   1.468   4.424
  130SOL    HW2 1290   1.476   1.365   4.467
  131SOL     OW 1291   4.672   1.561   3.082
  131SOL    HW1 1292   4.714   1.648   3.109
  131SOL    HW2 1293   4.679   1.496   3.157
  132SOL     OW 1294   1.252   2.464   1.540
  132SOL    HW1 1295   1.322   2.514   1.591
  132SOL    HW2 1296   1.206   2.526   1.476
  133SOL     OW 1297   6.600   5.767   2.643
  133SOL    HW1 1298   6.576   5.682   2.596
  133SOL    HW2 1299   6.534   5.786   2.715
  134SOL     OW 1300   0.056   3.771   2.876
  134SOL    HW1 1301   6.999   3.705   2.879
  134SOL    HW2 1302   0.029   3.855   2.923
  135SOL     OW 1303   4.853   1.621   3.931
  135SOL    HW1 1304   4.940   1.583   3.964
  135SOL    HW2 1305   4.817   1.685   3.998
  136SOL     OW 1306   5.196   4.086   5.806
  136SOL    HW1 1307   5.230   3.994   5.825
  136SOL    HW2 1308   5.270   4.140   5.765
  137SOL     OW 1309   4.248   6.945   5.698
  137SOL    HW1 1310   4.278   0.010   5.652
  137SOL    HW2 1311   4.174   6.968   5.762
  138SOL     OW 1312   6.913   5.229   4.957
  138SOL    HW1 1313   6.996   5.233   4.902
  138SOL    HW2 1314   6.886   5.133   4.969
  139SOL     OW 1315   3.323   4.903   5.121
  139SOL    HW1 1316   3.249   4.874   5.060
  139SOL    HW2 1317   3.336   4.835   5.193
  140SOL     OW 1318   5.792   4.995   4.684
  140SOL    HW1 1319   5.814   4.902   4.653
  140SOL    HW2 1320   5.875   5.038   4.720
  141SOL     OW 1321   1.332   1.935   4.463
  141SOL    HW1 1322   1.234   1.943   4.482
  141SOL    HW2 1323   1.381   1.917   4.548
  142SOL     OW 1324   1.776   5.842   1.264
  142SOL    HW1 1325   1.703   5.824   1.331
  142SOL    HW2 1326   1.735   5.857   1.174
  143SOL     OW 1327   5.522   4.505   2.191
  143SOL    HW1 1328   5.578   4.558   2.126
  143SOL    HW2 1329   5.463   4.567   2.242
  144SOL     OW 1330   2.137   6.846   6.763
  144SOL    HW1 1331   2.142   6.818   6.859
  144SOL    HW2 1332   2.113   6.768   6.706
  145SOL     OW 1333   0.272   5.883   0.835
  145SOL    HW1 1334   0.223   5.938   0.768
  145SOL    HW2 1335   0.303   5.798   0.792
  146SOL     OW 1336   4.905   5.863   0.929
  146SOL    HW1 1337   4.814   5.827   0.949
  146SOL    HW2 1338   4.896   5.957   0.895
  147SOL     OW 1339   6.513   2.211   1.294
  147SOL    HW1 1340   6.468   2.202   1.383
  147SOL    HW2 1341   6.540   2.306   1.280
  148SOL     OW 1342   1.371   5.233   5.598
  148SOL    HW1 1343   1.307   5.172   5.551
  148SOL    HW2 1344   1.465   5.203   5.579
  149SOL     OW 1345   3.232   1.280   4.589
  149SOL    HW1 1346   3.309   1.304   4.648
  149SOL    HW2 1347   3.200   1.188   4.611
  150SOL     OW 1348   0.354   5.042   6.884
  150SOL    HW1 1349   0.418   4.969   6.907
  150SOL    HW2 1350   0.325   5.032   6.790
  151SOL     OW 1351   4.192   1.699   1.604
  151SOL    HW1 1352   4.121   1.717   1.671
  151SOL    HW2 1353   4.279   1.736   1.637
  152SOL     OW 1354   3.002   0.757   4.388
  152SOL    HW1 1355   3.030   0.671   4.429
  152SOL    HW2 1356   3.083   0.811   4.365
  153SOL     OW 1357   1.948   1.065   3.015
  153SOL    HW1 1358   1.943   0.967   3.029
  153SOL    HW2 1359   1.883   1.092   2.943
  154SOL     OW 1360   6.619   2.550   2.146
  154SOL    HW1 1361   6.648   2.492   2.070
  154SOL    HW2 1362   6.532   2.517   2.182
  155SOL     OW 1363   6.880   0.719   2.952
  155SOL    HW1 1364   6.933   0.661   2.890
  155SOL    HW2 1365   6.900   0.815   2.935
  156SOL     OW 1366   6.340   2.067   0.594
  156SOL    HW1 1367   6.415   2.063   0.527
  156SOL    HW2 1368   6.253   2.054   0.547
  157SOL     OW 1369   6.066   3.554   2.437
  157SOL    HW1 1370   6.096   3.642   2.475
  157SOL    HW2 1371   6.103   3.480   2.493
  158SOL     OW 1372   2.583   1.188   2.870
  158SOL    HW1 1373   2.533   1.274   2.861
  158SOL    HW2 1374   2.568   1.132   2.789
  159SOL     OW 1375   4.762   4.069   1.987
  159SOL    HW1 1376   4.680   4.123   2.005
  159SOL    HW2 1377   4.773   4.000   2.059
  160SOL     OW 1378   6.362   4.282   6.049
  160SOL    HW1 1379   6.385   4.202   6.105
  160SOL    HW2 1380   6.376   4.365   6.104
  161SOL     OW 1381   2.015   4.916   4.780
  161SOL    HW1 1382   1.934   4.913   4.839
  161SOL    HW2 1383   1.989   4.889   4.687
  162SOL     OW 1384   4.306   5.636   0.948
  162SOL    HW1 1385   4.321   5.735   0.945
  162SOL    HW2 1386   4.391   5.590   0.970
  163SOL     OW 1387   4.864   0.501   2.389
  163SOL    HW1 1388   4.837   0.478   2.295
  163SOL    HW2 1389   4.806   0.452   2.453
  164SOL     OW 1390   6.028   3.572   0.957
  164SOL    HW1 1391   6.021   3.514   0.876
  164SOL    HW2 1392   5.956   3.641   0.955
  165SOL     OW 1393   4.642   3.032   6.551
  165SOL    HW1 1394   4.588   2.974   6.490
  165SOL    HW2 1395   4.596   3.121   6.560
  166SOL     OW 1396   0.733   6.847   2.425
  166SOL    HW1 1397   0.721   6.749   2.439
  166SOL    HW2 1398   0.656   6.884   2.374
  167SOL     OW 1399   6.178   3.079   6.840
  167SOL    HW1 1400   6.252   3.066   6.773
  167SOL    HW2 1401   6.193   3.017   6.918
  168SOL     OW 1402   2.209   5.143   1.051
  168SOL    HW1 1403   2.250   5.057   1.021
  168SOL    HW2 1404   2.205   5.145   1.151
  169SOL     OW 1405   2.072   0.039   1.833
  169SOL    HW1 1406   2.143   6.988   1.820
  169SOL    HW2 1407   1.998   0.024   1.767
  170SOL     OW 1408   0.091   1.480   3.370
  170SOL    HW1 1409   0.188   1.477   3.391
  170SOL    HW2 1410   0.067   1.571   3.335
  171SOL     OW 1411   3.810   3.967   0.151
  171SOL    HW1 1412   3.774   4.034   0.086
  171SOL    HW2 1413   3.901   3.994   0.180
  172SOL     OW 1414   6.881   2.426   4.949
  172SOL    HW1 1415   6.848   2.513   4.985
  172SOL    HW2 1416   6.913   2.369   5.024
  173SOL     OW 1417   0.322   0.183   4.926
  173SOL    HW1 1418   0.312   0.241   5.007
  173SOL    HW2 1419   0.418   0.164   4.911
  174SOL     OW 1420   2.416   5.152   3.667
  174SOL    HW1 1421   2.430   5.054   3.652
  174SOL    HW2 1422   2.413   5.199   3.579
  175SOL     OW 1423   1.749   5.474   2.719
  175SOL    HW1 1424   1.690   5.437   2.647
  175SOL    HW2 1425   1.716   5.446   2.808
  176SOL     OW 1426   2.061   3.943   0.802
  176SOL    HW1 1427   2.075   4.027   0.750
  176SOL    HW2 1428   1.994   3.885   0.755
  177SOL     OW 1429   4.843   1.874   2.498
  177SOL    HW1 1430   4.928   1.826   2.475
  177SOL    HW2 1431   4.771   1.806   2.517
  178SOL     OW 1432   5.343   4.712   6.736
  178SOL    HW1 1433   5.289   4.786   6.696
  178SOL    HW2 1434   5.283   4.647   6.782
  179SOL     OW 1435   2.925   0.190   0.464
  179SOL    HW1 1436   2.872   0.266   0.499
  179SOL    HW2 1437   2.959   0.135   0.540
  180SOL     OW 1438   0.231   1.627   6.823
  180SOL    HW1 1439   0.225   1.566   6.744
  180SOL    HW2 1440   0.254   1.719   6.793
  181SOL     OW 1441   3.660   3.277   5.464
  181SOL    HW1 1442   3.650   3.376   5.477
  181SOL    HW2 1443   3.589   3.244   5.402
  182SOL     OW 1444   4.028   2.139   4.775
  182SOL    HW1 1445   4.056   2.128   4.870
  182SOL    HW2 1446   3.929   2.126   4.768
  183SOL     OW 1447   5.099   1.151   1.865
  183SOL    HW1 1448   5.128   1.218   1.797
  183SOL    HW2 1449   5.176   1.127   1.924
  184SOL     OW 1450   0.095   4.766   3.078
  184SOL    HW1 1451   0.035   4.796   3.152
  184SOL    HW2 1452   0.090   4.667   3.069
  185SOL     OW 1453   1.892   3.760   5.773
  185SOL    HW1 1454   1.954   3.780   5.849
  185SOL    HW2 1455   1.931   3.795   5.688
  186SOL     OW 1456   5.729   0.084   3.157
  186SOL    HW1 1457   5.644   0.103   3.108
  186SOL    HW2 1458   5.710   0.074   3.255
  187SOL     OW 1459   5.713   1.053   4.028
  187SOL    HW1 1460   5.770   1.081   4.105
  187SOL    HW2 1461   5.621   1.093   4.038
  188SOL     OW 1462   5.973   2.392   3.490
  188SOL    HW1 1463   5.933   2.446   3.416
  188SOL    HW2 1464   6.061   2.432   3.516
  189SOL     OW 1465   1.928   4.572   2.532
  189SOL    HW1 1466   1.955   4.586   2.436
  189SOL    HW2 1467   2.009   4.547   2.585
  190SOL     OW 1468   3.666   1.187   5.455
  190SOL    HW1 1469   3.607   1.154   5.382
  190SOL    HW2 1470   3.729   1.255   5.419
  191SOL     OW 1471   5.695   5.500   6.713
  191SOL    HW1 1472   5.700   5.509   6.813
  191SOL    HW2 1473   5.770   5.551   6.671
  192SOL     OW 1474   6.825   0.826   1.993
  192SOL    HW1 1475   6.755   0.842   2.063
  192SOL    HW2 1476   6.855   0.731   1.998
  193SOL     OW 1477   5.615   3.723   0.080
  193SOL    HW1 1478   5.596   3.707   0.176
  193SOL    HW2 1479   5.710   3.753   0.068
  194SOL     OW 1480   3.633   0.378   3.734
  194SOL    HW1 1481   3.585   0.436   3.800
  194SOL    HW2 1482   3.606   0.283   3.747
  195SOL     OW 1483   0.957   6.009   3.306
  195SOL    HW1 1484   0.901   6.054   3.237
  195SOL    HW2 1485   0.983   6.076   3.376
  196SOL     OW 1486   1.231   2.185   0.141
  196SOL    HW1 1487   1.165   2.215   0.072
  196SOL    HW2 1488   1.323   2.209   0.112
  197SOL     OW 1489   1.613   1.027   0.846
  197SOL    HW1 1490   1.534   1.077   0.809
  197SOL    HW2 1491   1.585   0.933   0.869
  198SOL     OW 1492   3.279   2.123   3.794
  198SOL    HW1 1493   3.261   2.105   3.697
  198SOL    HW2 1494   3.193   2.140   3.842
  199SOL     OW 1495   1.341   2.620   3.797
  199SOL    HW1 1496   1.265   2.659   3.746
  199SOL    HW2 1497   1.315   2.530   3.833
  200SOL     OW 1498   6.943   2.840   0.451
  200SOL    HW1 1499   6.860   2.895   0.452
  200SOL    HW2 1500   6.928   2.757   0.398
  201SOL     OW 1501   0.570   0.789   6.475
  201SOL    HW1 1502   0.650   0.742   6.512
  201SOL    HW2 1503   0.593   0.885   6.456
  202SOL     OW 1504   4.663   6.930   6.993
  202SOL    HW1 1505   4.608   6.936   6.910
  202SOL    HW2 1506   4.606   6.898   0.051
  203SOL     OW 1507   5.730   2.800   5.709
  203SOL    HW1 1508   5.644   2.851   5.701
  203SOL    HW2 1509   5.755   2.763   5.620
  204SOL     OW 1510   6.415   0.990   5.743
  204SOL    HW1 1511   6.333   1.014   5.794
  204SOL    HW2 1512   6.446   0.899   5.770
  205SOL     OW 1513   1.071   2.742   2.176
  205SOL    HW1 1514   1.037   2.725   2.084
  205SOL    HW2 1515   1.143   2.813   2.172
  206SOL     OW 1516   0.470   2.818   0.762
  206SOL    HW1 1517   0.429   2.801   0.852
  206SOL    HW2 1518   0.511   2.909   0.761
  207SOL     OW 1519   5.245   2.092   4.006
  207SOL    HW1 1520   5.269   1.995   4.009
  207SOL    HW2 1521   5.239   2.128   4.099
  208SOL     OW 1522   1.123   4.184   4.334
  208SOL    HW1 1523   1.093   4.270   4.293
  208SOL    HW2 1524   1.073   4.108   4.291
  209SOL     OW 1525   6.403   3.933   2.729
  209SOL    HW1 1526   6.465   3.990   2.783
  209SOL    HW2 1527   6.336   3.890   2.789
  210SOL     OW 1528   4.834   2.621   0.365
  210SOL    HW1 1529   4.933   2.629   0.354
  210SOL    HW2 1530   4.790   2.704   0.331
  211SOL     OW 1531   0.333   1.262   2.940
  211SOL    HW1 1532   0.362   1.224   3.028
  211SOL    HW2 1533   0.406   1.248   2.872
  212SOL     OW 1534   1.894   3.647   3.060
  212SOL    HW1 1535   1.956   3.702   3.116
  212SOL    HW2 1536   1.874   3.561   3.107
  213SOL     OW 1537   1.768   4.885   1.060
  213SOL    HW1 1538   1.707   4.815   1.024
  213SOL    HW2 1539   1.826   4.919   0.986
  214SOL     OW 1540   4.181   5.761   2.547
  214SOL    HW1 1541   4.146   5.787   2.457
  214SOL    HW2 1542   4.277   5.732   2.539
  215SOL     OW 1543   2.326   4.801   2.373
  215SOL    HW1 1544   2.419   4.812   2.338
  215SOL    HW2 1545   2.330   4.753   2.461
  216SOL     OW 1546   1.190   6.756   2.478
  216SOL    HW1 1547   1.148   6.754   2.569
  216SOL    HW2 1548   1.273   6.812   2.481
  217SOL     OW 1549   1.876   4.027   6.450
  217SOL    HW1 1550   1.889   4.045   6.548
  217SOL    HW2 1551   1.930   4.092   6.397
  218SOL     OW 1552   0.773   2.177   5.172
  218SOL    HW1 1553   0.849   2.113   5.176
  218SOL    HW2 1554   0.791   2.253   5.235
  219SOL     OW 1555   3.819   1.921   0.725
  219SOL    HW1 1556   3.864   1.983   0.790
  219SOL    HW2 1557   3.813   1.829   0.766
  220SOL     OW 1558   3.132   6.519   1.012
  220SOL    HW1 1559   3.110   6.509   1.109
  220SOL    HW2 1560   3.174   6.609   0.997
  221SOL     OW 1561   4.904   6.216   1.537
  221SOL    HW1 1562   4.838   6.251   1.604
  221SOL    HW2 1563   4.874   6.125   1.507
  222SOL     OW 1564   2.213   4.652   6.098
  222SOL    HW1 1565   2.134   4.601   6.134
  222SOL    HW2 1566   2.195   4.677   6.003
  223SOL     OW 1567   6.205   2.700   5.479
  223SOL    HW1 1568   6.246   2.609   5.486
  223SOL    HW2 1569   6.213   2.748   5.566
  224SOL     OW 1570   2.436   1.577   6.165
  224SOL    HW1 1571   2.389   1.513   6.104
  224SOL    HW2 1572   2.388   1.664   6.164
  225SOL     OW 1573   4.806   5.094   6.178
  225SOL    HW1 1574   4.901   5.106   6.153
  225SOL    HW2 1575   4.748   5.101   6.097
  226SOL     OW 1576   1.166   2.215   6.459
  226SOL    HW1 1577   1.112   2.131   6.456
  226SOL    HW2 1578   1.165   2.252   6.552
  227SOL     OW 1579   1.202   4.060   1.979
  227SOL    HW1 1580   1.221   4.042   2.075
  227SOL    HW2 1581   1.103   4.070   1.965
  228SOL     OW 1582   1.837   6.817   2.459
  228SOL    HW1 1583   1.934   6.795   2.455
  228SOL    HW2 1584   1.788   6.744   2.507
  229SOL     OW 1585   5.179   5.474   6.322
  229SOL    HW1 1586   5.242   5.526   6.265
  229SOL    HW2 1587   5.139   5.399   6.270
  230SOL     OW 1588   4.680   5.705   5.185
  230SOL    HW1 1589   4.680   5.660   5.095
  230SOL    HW2 1590   4.773   5.729   5.210
  231SOL     OW 1591   5.454   1.381   0.004
  231SOL    HW1 1592   5.453   1.292   6.976
  231SOL    HW2 1593   5.449   1.454   6.954
  232SOL     OW 1594   1.537   3.090   5.681
  232SOL    HW1 1595   1.569   3.091   5.775
  232SOL    HW2 1596   1.494   3.178   5.659
  233SOL     OW 1597   2.617   1.452   3.195
  233SOL    HW1 1598   2.658   1.446   3.286
  233SOL    HW2 1599   2.540   1.388   3.189
  234SOL     OW 1600   4.639   1.396   6.682
  234SOL    HW1 1601   4.694   1.413   6.763
  234SOL    HW2 1602   4.682   1.326   6.626
  235SOL     OW 1603   4.538   2.334   2.631
  235SOL    HW1 1604   4.564   2.414   2.577
  235SOL    HW2 1605   4.439   2.321   2.625
  236SOL     OW 1606   4.264   4.271   6.296
  236SOL    HW1 1607   4.340   4.223   6.252
  236SOL    HW2 1608   4.282   4.369   6.297
  237SOL     OW 1609   6.223   3.840   2.910
  237SOL    HW1 1610   6.290   3.895   2.959
  237SOL    HW2 1611   6.232   3.744   2.938
  238SOL     OW 1612   6.608   1.317   0.353
  238SOL    HW1 1613   6.547   1.286   0.280
  238SOL    HW2 1614   6.558   1.378   0.415
  239SOL     OW 1615   0.795   3.770   0.249
  239SOL    HW1 1616   0.811   3.799   0.343
  239SOL    HW2 1617   0.818   3.673   0.239
  240SOL     OW 1618   6.036   2.924   3.065
  240SOL    HW1 1619   6.011   2.875   2.982
  240SOL    HW2 1620   5.990   3.013   3.066
  241SOL     OW 1621   2.829   1.512   3.692
  241SOL    HW1 1622   2.819   1.465   3.605
  241SOL    HW2 1623   2.886   1.593   3.680
  242SOL     OW 1624   3.788   3.358   3.189
  242SOL    HW1 1625   3.830   3.340   3.100
  242SOL    HW2 1626   3.743   3.447   3.188
  243SOL     OW 1627   4.668   2.591   5.963
  243SOL    HW1 1628   4.682   2.513   5.902
  243SOL    HW2 1629   4.647   2.557   6.055
  244SOL     OW 1630   5.259   3.477   5.460
  244SOL    HW1 1631   5.281   3.487   5.363
  244SOL    HW2 1632   5.249   3.380   5.482
  245SOL     OW 1633   3.642   2.043   2.383
  245SOL    HW1 1634   3.671   1.983   2.458
  245SOL    HW2 1635   3.606   2.128   2.421
  246SOL     OW 1636   6.177   1.313   2.674
  246SOL    HW1 1637   6.136   1.298   2.584
  246SOL    HW2 1638   6.275   1.328   2.664
  247SOL     OW 1639   2.064   1.537   1.128
  247SOL    HW1 1640   1.966   1.542   1.108
  247SOL    HW2 1641   2.110   1.617   1.090
  248SOL     OW 1642   1.720   2.053   2.248
  248SOL    HW1 1643   1.735   2.143   2.288
  248SOL    HW2 1644   1.789   2.036   2.178
  249SOL     OW 1645   5.680   6.306   4.987
  249SOL    HW1 1646   5.724   6.218   5.002
  249SOL    HW2 1647   5.687   6.330   4.890
  250SOL     OW 1648   3.469   2.464   1.360
  250SOL    HW1 1649   3.512   2.452   1.449
  250SOL    HW2 1650   3.541   2.478   1.291
  251SOL     OW 1651   4.328   4.074   5.813
  251SOL    HW1 1652   4.377   4.034   5.890
  251SOL    HW2 1653   4.230   4.063   5.826
  252SOL     OW 1654   5.970   6.336   5.811
  252SOL    HW1 1655   5.993   6.319   5.715
  252SOL    HW2 1656   6.022   6.273   5.869
  253SOL     OW 1657   4.570   6.062   6.032
  253SOL    HW1 1658   4.557   5.999   5.956
  253SOL    HW2 1659   4.609   6.013   6.110
  254SOL     OW 1660   5.644   2.783   4.702
  254SOL    HW1 1661   5.617   2.782   4.798
  254SOL    HW2 1662   5.621   2.695   4.660
  255SOL     OW 1663   1.675   4.456   5.698
  255SOL    HW1 1664   1.679   4.427   5.794
  255SOL    HW2 1665   1.768   4.473   5.665
  256SOL     OW 1666   4.778   2.652   4.946
  256SOL    HW1 1667   4.743   2.684   4.858
  256SOL    HW2 1668   4.875   2.629   4.937
  257SOL     OW 1669   4.723   6.282   3.101
  257SOL    HW1 1670   4.762   6.248   3.186
  257SOL    HW2 1671   4.746   6.220   3.026
  258SOL     OW 1672   2.072   3.769   5.993
  258SOL    HW1 1673   2.077   3.853   6.048
  258SOL    HW2 1674   2.080   3.690   6.053
  259SOL     OW 1675   3.742   0.020   3.622
  259SOL    HW1 1676   3.662   0.051   3.674
  259SOL    HW2 1677   3.720   0.017   3.525
  260SOL     OW 1678   3.719   5.478   3.224
  260SOL    HW1 1679   3.752   5.401   3.279
  260SOL    HW2 1680   3.686   5.445   3.136
  261SOL     OW 1681   4.229   4.634   0.191
  261SOL    HW1 1682   4.270   4.655   0.102
  261SOL    HW2 1683   4.141   4.681   0.199
  262SOL     OW 1684   2.066   3.992   0.160
  262SOL    HW1 1685   2.123   4.022   0.237
  262SOL    HW2 1686   2.104   4.030   0.075
  263SOL     OW 1687   1.261   6.441   4.214
  263SOL    HW1 1688   1.341   6.473   4.164
  263SOL    HW2 1689   1.212   6.372   4.160
  264SOL     OW 1690   0.250   3.284   6.643
  264SOL    HW1 1691   0.218   3.234   6.563
  264SOL    HW2 1692   0.235   3.229   6.725
  265SOL     OW 1693   6.585   0.045   4.141
  265SOL    HW1 1694   6.576   7.007   4.223
  265SOL    HW2 1695   6.499   0.091   4.122
  266SOL     OW 1696   4.041   1.444   5.501
  266SOL    HW1 1697   3.997   1.494   5.427
  266SOL    HW2 1698   3.983   1.367   5.529
  267SOL     OW 1699   1.735   0.857   5.199
  267SOL    HW1 1700   1.706   0.781   5.256
  267SOL    HW2 1701   1.770   0.931   5.257
  268SOL     OW 1702   3.057   1.363   1.047
  268SOL    HW1 1703   3.051   1.306   0.965
  268SOL    HW2 1704   3.044   1.307   1.128
  269SOL     OW 1705   4.257   2.039   6.858
  269SOL    HW1 1706   4.340   2.000   6.897
  269SOL    HW2 1707   4.242   2.130   6.895
  270SOL     OW 1708   6.773   0.056   0.155
  270SOL    HW1 1709   6.847   0.021   0.096
  270SOL    HW2 1710   6.780   0.012   0.245
  271SOL     OW 1711   0.215   2.207   5.593
  271SOL    HW1 1712   0.185   2.121   5.553
  271SOL    HW2 1713   0.167   2.283   5.549
  272SOL     OW 1714   3.176   6.065   3.637
  272SOL    HW1 1715   3.252   6.001   3.647
  272SOL    HW2 1716   3.188   6.119   3.554
  273SOL     OW 1717   1.759   5.438   6.148
  273SOL    HW1 1718   1.842   5.472   6.193
  273SOL    HW2 1719   1.703   5.516   6.120
  274SOL     OW 1720   4.395   1.010   3.625
  274SOL    HW1 1721   4.397   1.110   3.629
  274SOL    HW2 1722   4.312   0.976   3.669
  275SOL     OW 1723   0.142   6.534   2.665
  275SOL    HW1 1724   0.183   6.462   2.721
  275SOL    HW2 1725   0.042   6.527   2.670
  276SOL     OW 1726   0.290   0.642   4.556
  276SOL    HW1 1727   0.267   0.558   4.604
  276SOL    HW2 1728   0.313   0.713   4.623
  277SOL     OW 1729   2.447   3.177   0.541
  277SOL    HW1 1730   2.476   3.099   0.597
  277SOL    HW2 1731   2.527   3.227   0.509
  278SOL     OW 1732   0.242   2.276   2.664
  278SOL    HW1 1733   0.163   2.336   2.652
  278SOL    HW2 1734   0.325   2.331   2.671
  279SOL     OW 1735   5.755   2.666   4.065
  279SOL    HW1 1736   5.681   2.605   4.091
  279SOL    HW2 1737   5.798   2.633   3.981
  280SOL     OW 1738   1.496   4.534   1.926
  280SOL    HW1 1739   1.573   4.597   1.935
  280SOL    HW2 1740   1.530   4.442   1.906
  281SOL     OW 1741   2.310   3.948   0.537
  281SOL    HW1 1742   2.388   3.929   0.596
  281SOL    HW2 1743   2.247   4.010   0.584
  282SOL     OW 1744   3.363   1.864   5.930
  282SOL    HW1 1745   3.276   1.818   5.911
  282SOL    HW2 1746   3.349   1.963   5.933
  283SOL     OW 1747   5.247   3.075   5.977
  283SOL    HW1 1748   5.221   3.108   6.068
  283SOL    HW2 1749   5.346   3.061   5.974
  284SOL     OW 1750   0.567   3.715   4.094
  284SOL    HW1 1751   0.537   3.777   4.166
  284SOL    HW2 1752   0.607   3.633   4.135
  285SOL     OW 1753   5.789   4.318   4.196
  285SOL    HW1 1754   5.694   4.331   4.167
  285SOL    HW2 1755   5.791   4.265   4.280
  286SOL     OW 1756   3.486   3.513   6.810
  286SOL    HW1 1757   3.435   3.489   6.893
  286SOL    HW2 1758   3.556   3.581   6.832
  287SOL     OW 1759   2.002   3.423   6.931
  287SOL    HW1 1760   2.037   3.419   0.006
  287SOL    HW2 1761   1.999   3.519   6.901
  288SOL     OW 1762   4.962   2.143   6.987
  288SOL    HW1 1763   4.948   2.092   6.902
  288SOL    HW2 1764   5.055   2.127   0.001
  289SOL     OW 1765   2.806   5.220   6.041
  289SOL    HW1 1766   2.721   5.193   6.086
  289SOL    HW2 1767   2.807   5.185   5.947
  290SOL     OW 1768   6.833   2.158   5.750
  290SOL    HW1 1769   6.865   2.080   5.696
  290SOL    HW2 1770   6.775   2.217   5.693
  291SOL     OW 1771   6.778   1.929   2.858
  291SOL    HW1 1772   6.853   1.994   2.849
  291SOL    HW2 1773   6.737   1.913   2.768
  292SOL     OW 1774   2.118   6.965   3.525
  292SOL    HW1 1775   2.100   6.901   3.450
  292SOL    HW2 1776   2.035   7.018   3.544
  293SOL     OW 1777   4.127   5.199   3.767
  293SOL    HW1 1778   4.118   5.196   3.667
  293SOL    HW2 1779   4.195   5.268   3.792
  294SOL     OW 1780   4.529   6.156   6.357
  294SOL    HW1 1781   4.594   6.181   6.428
  294SOL    HW2 1782   4.499   6.239   6.309
  295SOL     OW 1783   4.894   0.545   4.357
  295SOL    HW1 1784   4.994   0.541   4.362
  295SOL    HW2 1785   4.855   0.528   4.447
  296SOL     OW 1786   2.058   2.210   3.498
  296SOL    HW1 1787   2.025   2.255   3.581
  296SOL    HW2 1788   2.012   2.250   3.419
  297SOL     OW 1789   1.783   4.300   3.106
  297SOL    HW1 1790   1.818   4.309   3.199
  297SOL    HW2 1791   1.767   4.391   3.068
  298SOL     OW 1792   6.010   5.413   1.142
  298SOL    HW1 1793   5.969   5.465   1.067
  298SOL    HW2 1794   6.056   5.332   1.105
  299SOL     OW 1795   6.337   2.361   4.502
  299SOL    HW1 1796   6.422   2.400   4.465
  299SOL    HW2 1797   6.359   2.283   4.560
  300SOL     OW 1798   6.221   0.046   2.620
  300SOL    HW1 1799   6.315   0.016   2.634
  300SOL    HW2 1800   6.220   0.143   2.597
  301SOL     OW 1801   5.434   3.865   6.152
  301SOL    HW1 1802   5.402   3.879   6.245
  301SOL    HW2 1803   5.393   3.782   6.115
  302SOL     OW 1804   1.108   6.686   3.363
  302SOL    HW1 1805   1.202   6.655   3.346
  302SOL    HW2 1806   1.072   6.730   3.281
  303SOL     OW 1807   5.484   0.492   3.783
  303SOL    HW1 1808   5.505   0.440   3.865
  303SOL    HW2 1809   5.503   0.436   3.702
  304SOL     OW 1810   3.100   0.264   3.310
  304SOL    HW1 1811   3.139   0.266   3.402
  304SOL    HW2 1812   3.152   0.201   3.253
  305SOL     OW 1813   1.343   3.521   1.198
  305SOL    HW1 1814   1.383   3.572   1.274
  305SOL    HW2 1815   1.244   3.516   1.209
  306SOL     OW 1816   2.388   0.577   3.827
  306SOL    HW1 1817   2.479   0.572   3.866
  306SOL    HW2 1818   2.324   0.524   3.882
  307SOL     OW 1819   3.664   0.309   1.576
  307SOL    HW1 1820   3.610   0.266   1.648
  307SOL    HW2 1821   3.757   0.323   1.609
  308SOL     OW 1822   0.657   5.371   4.299
  308SOL    HW1 1823   0.750   5.336   4.299
  308SOL    HW2 1824   0.592   5.295   4.306
  309SOL     OW 1825   4.245   5.308   5.239
  309SOL    HW1 1826   4.217   5.313   5.335
  309SOL    HW2 1827   4.341   5.282   5.234
  310SOL     OW 1828   0.485   6.654   6.301
  310SOL    HW1 1829   0.479   6.622   6.206
  310SOL    HW2 1830   0.489   6.754   6.302
  311SOL     OW 1831   0.363   0.288   1.392
  311SOL    HW1 1832   0.388   0.382   1.412
  311SOL    HW2 1833   0.423   0.225   1.442
  312SOL     OW 1834   4.179   1.847   4.856
  312SOL    HW1 1835   4.136   1.845   4.946
  312SOL    HW2 1836   4.110   1.863   4.785
  313SOL     OW 1837   0.896   4.170   1.182
  313SOL    HW1 1838   0.887   4.160   1.083
  313SOL    HW2 1839   0.838   4.246   1.213
  314SOL     OW 1840   3.430   6.221   0.812
  314SOL    HW1 1841   3.398   6.277   0.889
  314SOL    HW2 1842   3.518   6.256   0.780
  315SOL     OW 1843   1.055   2.734   2.959
  315SOL    HW1 1844   1.053   2.667   3.032
  315SOL    HW2 1845   0.982   2.715   2.893
  316SOL     OW 1846   2.420   2.475   4.022
  316SOL    HW1 1847   2.367   2.390   4.029
  316SOL    HW2 1848   2.501   2.468   4.081
  317SOL     OW 1849   6.788   2.090   6.730
  317SOL    HW1 1850   6.805   1.998   6.696
  317SOL    HW2 1851   6.843   2.106   6.812
  318SOL     OW 1852   2.612   5.265   0.853
  318SOL    HW1 1853   2.674   5.278   0.775
  318SOL    HW2 1854   2.518   5.273   0.822
  319SOL     OW 1855   1.300   6.602   0.368
  319SOL    HW1 1856   1.250   6.609   0.455
  319SOL    HW2 1857   1.235   6.606   0.292
  320SOL     OW 1858   5.428   3.846   0.759
  320SOL    HW1 1859   5.420   3.920   0.692
  320SOL    HW2 1860   5.512   3.794   0.741
  321SOL     OW 1861   2.276   1.319   0.922
  321SOL    HW1 1862   2.240   1.325   0.829
  321SOL    HW2 1863   2.275   1.409   0.964
  322SOL     OW 1864   3.531   2.923   4.562
  322SOL    HW1 1865   3.551   2.873   4.478
  322SOL    HW2 1866   3.597   2.898   4.633
  323SOL     OW 1867   0.374   4.888   1.772
  323SOL    HW1 1868   0.343   4.972   1.817
  323SOL    HW2 1869   0.310   4.863   1.700
  324SOL     OW 1870   0.357   2.842   4.632
  324SOL    HW1 1871   0.405   2.928   4.643
  324SOL    HW2 1872   0.403   2.786   4.563
  325SOL     OW 1873   2.332   2.758   2.627
  325SOL    HW1 1874   2.269   2.683   2.646
  325SOL    HW2 1875   2.285   2.846   2.638
  326SOL     OW 1876   2.059   4.487   6.408
  326SOL    HW1 1877   2.033   4.493   6.312
  326SOL    HW2 1878   1.978   4.472   6.464
  327SOL     OW 1879   6.188   5.651   5.443
  327SOL    HW1 1880   6.260   5.718   5.423
  327SOL    HW2 1881   6.230   5.564   5.469
  328SOL     OW 1882   3.418   6.131   2.051
  328SOL    HW1 1883   3.414   6.067   2.128
  328SOL    HW2 1884   3.507   6.124   2.007
  329SOL     OW 1885   3.000   3.140   2.368
  329SOL    HW1 1886   3.094   3.166   2.345
  329SOL    HW2 1887   2.947   3.130   2.283
  330SOL     OW 1888   3.617   0.832   1.245
  330SOL    HW1 1889   3.643   0.782   1.162
  330SOL    HW2 1890   3.615   0.769   1.323
  331SOL     OW 1891   5.106   4.999   6.202
  331SOL    HW1 1892   5.157   4.996   6.116
  331SOL    HW2 1893   5.081   4.906   6.229
  332SOL     OW 1894   3.726   1.803   2.858
  332SOL    HW1 1895   3.775   1.732   2.908
  332SOL    HW2 1896   3.655   1.843   2.917
  333SOL     OW 1897   3.526   6.085   6.432
  333SOL    HW1 1898   3.471   6.048   6.358
  333SOL    HW2 1899   3.616   6.112   6.396
  334SOL     OW 1900   4.492   6.678   2.676
  334SOL    HW1 1901   4.517   6.732   2.595
  334SOL    HW2 1902   4.445   6.737   2.741
  335SOL     OW 1903   3.189   6.686   3.579
  335SOL    HW1 1904   3.107   6.714   3.529
  335SOL    HW2 1905   3.232   6.767   3.620
  336SOL     OW 1906   3.250   0.980   4.615
  336SOL    HW1 1907   3.211   0.900   4.659
  336SOL    HW2 1908   3.251   0.966   4.516
  337SOL     OW 1909   6.717   4.118   1.286
  337SOL    HW1 1910   6.752   4.086   1.374
  337SOL    HW2 1911   6.662   4.045   1.245
  338SOL     OW 1912   3.565   2.847   1.205
  338SOL    HW1 1913   3.537   2.767   1.153
  338SOL    HW2 1914   3.664   2.859   1.198
  339SOL     OW 1915   4.568   6.215   3.410
  339SOL    HW1 1916   4.662   6.229   3.381
  339SOL    HW2 1917   4.507   6.216   3.330
  340SOL     OW 1918   4.773   4.187   4.331
  340SOL    HW1 1919   4.755   4.107   4.389
  340SOL    HW2 1920   4.734   4.172   4.240
  341SOL     OW 1921   5.784   5.179   5.006
  341SOL    HW1 1922   5.798   5.081   5.017
  341SOL    HW2 1923   5.843   5.228   5.070
  342SOL     OW 1924   6.290   3.749   0.508
  342SOL    HW1 1925   6.313   3.665   0.459
  342SOL    HW2 1926   6.190   3.754   0.520
  343SOL     OW 1927   3.105   0.590   2.937
  343SOL    HW1 1928   3.038   0.620   3.005
  343SOL    HW2 1929   3.167   0.524   2.978
  344SOL     OW 1930   3.111   5.230   0.279
  344SOL    HW1 1931   3.024   5.186   0.254
  344SOL    HW2 1932   3.178   5.214   0.207
  345SOL     OW 1933   0.585   7.017   5.374
  345SOL    HW1 1934   0.639   6.937   5.401
  345SOL    HW2 1935   0.628   0.043   5.296
  346SOL     OW 1936   1.812   6.852   3.767
  346SOL    HW1 1937   1.739   6.807   3.716
  346SOL    HW2 1938   1.885   6.787   3.784
  347SOL     OW 1939   5.323   6.379   6.463
  347SOL    HW1 1940   5.291   6.419   6.378
  347SOL    HW2 1941   5.274   6.293   6.481
  348SOL     OW 1942   3.808   5.835   2.744
  348SOL    HW1 1943   3.784   5.802   2.836
  348SOL    HW2 1944   3.869   5.769   2.700
  349SOL     OW 1945   1.406   5.109   1.896
  349SOL    HW1 1946   1.341   5.128   1.822
  349SOL    HW2 1947   1.498   5.103   1.859
  350SOL     OW 1948   4.806   3.055   0.992
  350SOL    HW1 1949   4.799   3.088   0.898
  350SOL    HW2 1950   4.760   3.119   1.054
  351SOL     OW 1951   3.292   2.357   0.134
  351SOL    HW1 1952   3.260   2.290   0.067
  351SOL    HW2 1953   3.244   2.444   0.121
  352SOL     OW 1954   3.321   1.103   6.788
  352SOL    HW1 1955   3.334   1.124   6.691
  352SOL    HW2 1956   3.227   1.128   6.815
  353SOL     OW 1957   2.135   6.478   0.713
  353SOL    HW1 1958   2.042   6.507   0.734
  353SOL    HW2 1959   2.171   6.533   0.638
  354SOL     OW 1960   4.673   1.291   1.696
  354SOL    HW1 1961   4.645   1.196   1.687
  354SOL    HW2 1962   4.710   1.306   1.788
  355SOL     OW 1963   0.704   2.191   2.099
  355SOL    HW1 1964   0.644   2.199   2.178
  355SOL    HW2 1965   0.794   2.230   2.121
  356SOL     OW 1966   4.105   5.391   3.221
  356SOL    HW1 1967   4.203   5.388   3.236
  356SOL    HW2 1968   4.067   5.474   3.262
  357SOL     OW 1969   0.968   4.834   5.367
  357SOL    HW1 1970   0.907   4.869   5.296
  357SOL    HW2 1971   0.916   4.823   5.452
  358SOL     OW 1972   5.792   0.685   1.338
  358SOL    HW1 1973   5.763   0.676   1.434
  358SOL    HW2 1974   5.717   0.660   1.278
  359SOL     OW 1975   1.235   1.272   2.188
  359SOL    HW1 1976   1.201   1.306   2.276
  359SOL    HW2 1977   1.278   1.347   2.138
  360SOL     OW 1978   3.673   6.255   0.672
  360SOL    HW1 1979   3.689   6.331   0.609
  360SOL    HW2 1980   3.700   6.169   0.628
  361SOL     OW 1981   4.303   0.287   3.138
  361SOL    HW1 1982   4.214   0.292   3.182
  361SOL    HW2 1983   4.375   0.311   3.204
  362SOL     OW 1984   2.479   3.382   0.906
  362SOL    HW1 1985   2.495   3.387   1.005
  362SOL    HW2 1986   2.510   3.294   0.872
  363SOL     OW 1987   4.907   4.683   4.288
  363SOL    HW1 1988   4.829   4.746   4.279
  363SOL    HW2 1989   4.931   4.674   4.385
  364SOL     OW 1990   1.734   5.297   5.898
  364SOL    HW1 1991   1.639   5.268   5.888
  364SOL    HW2 1992   1.752   5.322   5.993
  365SOL     OW 1993   4.541   6.312   2.734
  365SOL    HW1 1994   4.616   6.365   2.695
  365SOL    HW2 1995   4.567   6.277   2.824
  366SOL     OW 1996   5.502   0.009   6.984
  366SOL    HW1 1997   5.592   7.008   0.005
  366SOL    HW2 1998   5.458   0.083   0.017
  367SOL     OW 1999   4.988   2.731   1.278
  367SOL    HW1 2000   5.015   2.695   1.368
  367SOL    HW2 2001   5.066   2.728   1.216
  368SOL     OW 2002   1.360   4.811   5.420
  368SOL    HW1 2003   1.314   4.900   5.419
  368SOL    HW2 2004   1.410   4.799   5.505
  369SOL     OW 2005   0.337   3.777   1.731
  369SOL    HW1 2006   0.265   3.842   1.707
  369SOL    HW2 2007   0.365   3.792   1.826
  370SOL     OW 2008   4.003   1.274   6.531
  370SOL    HW1 2009   3.992   1.175   6.520
  370SOL    HW2 2010   4.034   1.313   6.444
  371SOL     OW 2011   4.197   3.075   6.327
  371SOL    HW1 2012   4.183   2.981   6.357
  371SOL    HW2 2013   4.135   3.095   6.251
  372SOL     OW 2014   1.434   5.281   5.894
  372SOL    HW1 2015   1.385   5.247   5.975
  372SOL    HW2 2016   1.410   5.224   5.815
  373SOL     OW 2017   6.827   6.897   0.400
  373SOL    HW1 2018   6.755   6.906   0.469
  373SOL    HW2 2019   6.915   6.925   0.440
  374SOL     OW 2020   3.842   1.297   1.174
  374SOL    HW1 2021   3.897   1.330   1.251
  374SOL    HW2 2022   3.833   1.198   1.179
  375SOL     OW 2023   6.924   4.449   2.652
  375SOL    HW1 2024   6.879   4.412   2.570
  375SOL    HW2 2025   0.004   4.438   2.643
  376SOL     OW 2026   2.110   2.616   4.279
  376SOL    HW1 2027   2.072   2.701   4.315
  376SOL    HW2 2028   2.052   2.540   4.306
  377SOL     OW 2029   4.941   1.798   3.752
  377SOL    HW1 2030   4.910   1.892   3.752
  377SOL    HW2 2031   4.895   1.747   3.825
  378SOL     OW 2032   4.944   2.570   4.659
  378SOL    HW1 2033   4.967   2.598   4.752
  378SOL    HW2 2034   4.846   2.584   4.643
  379SOL     OW 2035   6.662   3.688   1.179
  379SOL    HW1 2036   6.704   3.601   1.154
  379SOL    HW2 2037   6.699   3.718   1.267
  380SOL     OW 2038   0.791   2.298   0.423
  380SOL    HW1 2039   0.865   2.307   0.490
  380SOL    HW2 2040   0.705   2.281   0.471
  381SOL     OW 2041   3.217   3.999   0.545
  381SOL    HW1 2042   3.236   3.937   0.621
  381SOL    HW2 2043   3.295   4.001   0.482
  382SOL     OW 2044   2.379   5.564   1.054
  382SOL    HW1 2045   2.460   5.526   1.098
  382SOL    HW2 2046   2.351   5.505   0.979
  383SOL     OW 2047   6.226   2.497   6.809
  383SOL    HW1 2048   6.243   2.556   6.888
  383SOL    HW2 2049   6.190   2.552   6.733
  384SOL     OW 2050   1.693   5.592   5.034
  384SOL    HW1 2051   1.729   5.579   5.127
  384SOL    HW2 2052   1.593   5.596   5.038
  385SOL     OW 2053   5.010   5.594   0.968
  385SOL    HW1 2054   4.993   5.570   1.063
  385SOL    HW2 2055   4.976   5.687   0.950
  386SOL     OW 2056   2.994   6.387   5.155
  386SOL    HW1 2057   2.985   6.322   5.230
  386SOL    HW2 2058   3.052   6.349   5.084
  387SOL     OW 2059   6.888   0.096   5.544
  387SOL    HW1 2060   6.963   0.100   5.609
  387SOL    HW2 2061   6.911   0.150   5.463
  388SOL     OW 2062   6.797   1.903   4.971
  388SOL    HW1 2063   6.704   1.897   4.934
  388SOL    HW2 2064   6.863   1.882   4.898
  389SOL     OW 2065   4.277   4.440   1.412
  389SOL    HW1 2066   4.298   4.410   1.505
  389SOL    HW2 2067   4.249   4.361   1.357
  390SOL     OW 2068   4.253   2.433   0.475
  390SOL    HW1 2069   4.156   2.418   0.497
  390SOL    HW2 2070   4.283   2.519   0.515
  391SOL     OW 2071   3.643   4.076   4.095
  391SOL    HW1 2072   3.688   4.079   4.005
  391SOL    HW2 2073   3.573   4.004   4.094
  392SOL     OW 2074   1.301   3.595   1.642
  392SOL    HW1 2075   1.261   3.682   1.673
  392SOL    HW2 2076   1.359   3.612   1.562
  393SOL     OW 2077   1.170   4.861   1.249
  393SOL    HW1 2078   1.124   4.929   1.191
  393SOL    HW2 2079   1.102   4.810   1.301
  394SOL     OW 2080   6.192   1.024   6.370
  394SOL    HW1 2081   6.230   1.052   6.458
  394SOL    HW2 2082   6.234   0.938   6.341
  395SOL     OW 2083   5.948   4.975   1.061
  395SOL    HW1 2084   5.859   4.950   1.098
  395SOL    HW2 2085   5.936   5.022   0.974
  396SOL     OW 2086   1.521   6.996   1.480
  396SOL    HW1 2087   1.466   6.922   1.439
  396SOL    HW2 2088   1.460   0.052   1.507
  397SOL     OW 2089   3.916   2.064   5.448
  397SOL    HW1 2090   4.011   2.092   5.458
  397SOL    HW2 2091   3.912   1.965   5.432
  398SOL     OW 2092   1.244   0.763   3.634
  398SOL    HW1 2093   1.197   0.847   3.610
  398SOL    HW2 2094   1.342   0.773   3.619
  399SOL     OW 2095   5.579   6.035   4.177
  399SOL    HW1 2096   5.509   6.106   4.170
  399SOL    HW2 2097   5.669   6.077   4.186
  400SOL     OW 2098   5.765   6.931   4.439
  400SOL    HW1 2099   5.685   6.876   4.462
  400SOL    HW2 2100   5.751   0.006   4.472
  401SOL     OW 2101   0.687   5.779   5.471
  401SOL    HW1 2102   0.757   5.838   5.512
  401SOL    HW2 2103   0.718   5.683   5.476
  402SOL     OW 2104   5.642   1.790   3.307
  402SOL    HW1 2105   5.734   1.759   3.282
  402SOL    HW2 2106   5.581   1.781   3.228
  403SOL     OW 2107   3.349   1.348   5.386
  403SOL    HW1 2108   3.351   1.254   5.420
  403SOL    HW2 2109   3.260   1.367   5.344
  404SOL     OW 2110   3.584   5.329   3.025
  404SOL    HW1 2111   3.674   5.308   2.986
  404SOL    HW2 2112   3.529   5.246   3.027
  405SOL     OW 2113   2.123   4.542   4.543
  405SOL    HW1 2114   2.116   4.578   4.450
  405SOL    HW2 2115   2.219   4.522   4.564
  406SOL     OW 2116   0.147   6.851   6.397
  406SOL    HW1 2117   0.187   6.815   6.481
  406SOL    HW2 2118   0.219   6.881   6.335
  407SOL     OW 2119   2.104   2.935   4.130
  407SOL    HW1 2120   2.097   3.033   4.151
  407SOL    HW2 2121   2.199   2.912   4.112
  408SOL     OW 2122   1.934   1.394   3.402
  408SOL    HW1 2123   1.898   1.324   3.340
  408SOL    HW2 2124   1.934   1.358   3.495
  409SOL     OW 2125   0.524   3.525   2.602
  409SOL    HW1 2126   0.532   3.582   2.520
  409SOL    HW2 2127   0.430   3.494   2.611
  410SOL     OW 2128   1.482   1.742   1.727
  410SOL    HW1 2129   1.449   1.775   1.639
  410SOL    HW2 2130   1.509   1.820   1.784
  411SOL     OW 2131   0.165   2.548   1.529
  411SOL    HW1 2132   0.186   2.494   1.447
  411SOL    HW2 2133   0.178   2.645   1.509
  412SOL     OW 2134   1.509   4.965   2.364
  412SOL    HW1 2135   1.427   4.996   2.316
  412SOL    HW2 2136   1.508   4.865   2.370
  413SOL     OW 2137   6.121   6.330   2.481
  413SOL    HW1 2138   6.178   6.368   2.554
  413SOL    HW2 2139   6.146   6.373   2.394
  414SOL     OW 2140   1.760   6.671   3.063
  414SOL    HW1 2141   1.789   6.722   2.982
  414SOL    HW2 2142   1.829   6.603   3.086
  415SOL     OW 2143   6.057   1.259   6.781
  415SOL    HW1 2144   5.990   1.194   6.817
  415SOL    HW2 2145   6.060   1.340   6.839
  416SOL     OW 2146   5.808   3.746   5.766
  416SOL    HW1 2147   5.816   3.722   5.862
  416SOL    HW2 2148   5.712   3.738   5.738
  417SOL     OW 2149   1.963   1.938   6.577
  417SOL    HW1 2150   1.907   2.021   6.579
  417SOL    HW2 2151   2.032   1.942   6.650
  418SOL     OW 2152   3.751   0.472   4.689
  418SOL    HW1 2153   3.700   0.389   4.715
  418SOL    HW2 2154   3.807   0.502   4.766
  419SOL     OW 2155   6.766   0.366   0.311
  419SOL    HW1 2156   6.845   0.383   0.253
  419SOL    HW2 2157   6.792   0.302   0.384
  420SOL     OW 2158   4.036   0.388   0.424
  420SOL    HW1 2159   4.021   0.353   0.516
  420SOL    HW2 2160   4.097   0.467   0.427
  421SOL     OW 2161   4.659   4.277   2.254
  421SOL    HW1 2162   4.634   4.277   2.158
  421SOL    HW2 2163   4.660   4.183   2.288
  422SOL     OW 2164   5.218   2.787   2.057
  422SOL    HW1 2165   5.227   2.692   2.028
  422SOL    HW2 2166   5.224   2.848   1.978
  423SOL     OW 2167   2.652   1.211   6.191
  423SOL    HW1 2168   2.713   1.168   6.125
  423SOL    HW2 2169   2.706   1.257   6.262
  424SOL     OW 2170   1.303   3.729   3.912
  424SOL    HW1 2171   1.348   3.644   3.885
  424SOL    HW2 2172   1.204   3.720   3.901
  425SOL     OW 2173   3.583   1.063   6.804
  425SOL    HW1 2174   3.486   1.086   6.808
  425SOL    HW2 2175   3.619   1.055   6.897
  426SOL     OW 2176   2.755   1.861   4.207
  426SOL    HW1 2177   2.680   1.834   4.147
  426SOL    HW2 2178   2.838   1.811   4.183
  427SOL     OW 2179   4.284   2.108   2.958
  427SOL    HW1 2180   4.274   2.066   3.047
  427SOL    HW2 2181   4.316   2.041   2.892
  428SOL     OW 2182   2.597   1.982   5.851
  428SOL    HW1 2183   2.678   2.036   5.833
  428SOL    HW2 2184   2.594   1.957   5.948
  429SOL     OW 2185   6.839   5.851   4.474
  429SOL    HW1 2186   6.796   5.847   4.384
  429SOL    HW2 2187   6.791   5.790   4.537
  430SOL     OW 2188   1.696   6.929   4.338
  430SOL    HW1 2189   1.644   7.013   4.327
  430SOL    HW2 2190   1.794   6.950   4.345
  431SOL     OW 2191   2.414   1.768   1.894
  431SOL    HW1 2192   2.512   1.782   1.907
  431SOL    HW2 2193   2.397   1.672   1.873
  432SOL     OW 2194   4.516   1.835   1.283
  432SOL    HW1 2195   4.572   1.806   1.361
  432SOL    HW2 2196   4.443   1.768   1.268
  433SOL     OW 2197   1.803   4.671   0.721
  433SOL    HW1 2198   1.803   4.760   0.675
  433SOL    HW2 2199   1.878   4.615   0.684
  434SOL     OW 2200   5.189   4.865   3.536
  434SOL    HW1 2201   5.223   4.839   3.626
  434SOL    HW2 2202   5.220   4.957   3.513
  435SOL     OW 2203   3.862   2.956   5.794
  435SOL    HW1 2204   3.935   3.024   5.797
  435SOL    HW2 2205   3.818   2.950   5.884
  436SOL     OW 2206   4.777   6.384   2.630
  436SOL    HW1 2207   4.858   6.339   2.593
  436SOL    HW2 2208   4.756   6.465   2.576
  437SOL     OW 2209   6.570   0.982   4.927
  437SOL    HW1 2210   6.638   1.052   4.949
  437SOL    HW2 2211   6.479   1.024   4.923
  438SOL     OW 2212   0.571   4.842   2.379
  438SOL    HW1 2213   0.594   4.926   2.428
  438SOL    HW2 2214   0.472   4.839   2.363
  439SOL     OW 2215   0.091   0.898   4.862
  439SOL    HW1 2216   0.150   0.818   4.855
  439SOL    HW2 2217   0.145   0.982   4.856
  440SOL     OW 2218   3.932   1.472   0.532
  440SOL    HW1 2219   4.031   1.465   0.517
  440SOL    HW2 2220   3.907   1.419   0.613
  441SOL     OW 2221   0.625   4.846   1.840
  441SOL    HW1 2222   0.538   4.873   1.801
  441SOL    HW2 2223   0.611   4.806   1.930
  442SOL     OW 2224   4.901   3.086   5.369
  442SOL    HW1 2225   4.940   3.166   5.324
  442SOL    HW2 2226   4.866   3.023   5.300
  443SOL     OW 2227   5.030   3.002   2.659
  443SOL    HW1 2228   5.109   2.952   2.695
  443SOL    HW2 2229   5.053   3.039   2.569
  444SOL     OW 2230   4.806   1.426   1.915
  444SOL    HW1 2231   4.820   1.454   2.010
  444SOL    HW2 2232   4.878   1.465   1.858
  445SOL     OW 2233   1.665   4.997   2.769
  445SOL    HW1 2234   1.658   4.903   2.735
  445SOL    HW2 2235   1.630   5.060   2.700
  446SOL     OW 2236   6.106   0.166   1.665
  446SOL    HW1 2237   6.151   0.125   1.745
  446SOL    HW2 2238   6.009   0.180   1.686
  447SOL     OW 2239   6.003   4.393   1.083
  447SOL    HW1 2240   6.067   4.401   1.160
  447SOL    HW2 2241   6.004   4.478   1.030
  448SOL     OW 2242   3.795   6.374   3.668
  448SOL    HW1 2243   3.859   6.308   3.629
  448SOL    HW2 2244   3.702   6.337   3.663
  449SOL     OW 2245   1.708   4.090   4.439
  449SOL    HW1 2246   1.721   4.176   4.489
  449SOL    HW2 2247   1.797   4.056   4.410
  450SOL     OW 2248   6.492   4.397   3.454
  450SOL    HW1 2249   6.415   4.396   3.518
  450SOL    HW2 2250   6.465   4.443   3.369
  451SOL     OW 2251   1.062   2.089   0.769
  451SOL    HW1 2252   0.984   2.049   0.721
  451SOL    HW2 2253   1.103   2.021   0.830
  452SOL     OW 2254   5.085   5.274   2.865
  452SOL    HW1 2255   5.088   5.208   2.940
  452SOL    HW2 2256   4.992   5.310   2.856
  453SOL     OW 2257   3.719   1.041   0.007
  453SOL    HW1 2258   3.809   1.085   0.014
  453SOL    HW2 2259   3.660   1.076   0.080
  454SOL     OW 2260   0.209   2.979   5.713
  454SOL    HW1 2261   0.290   2.927   5.685
  454SOL    HW2 2262   0.238   3.059   5.766
  455SOL     OW 2263   5.449   5.224   6.239
  455SOL    HW1 2264   5.362   5.229   6.289
  455SOL    HW2 2265   5.493   5.136   6.256
  456SOL     OW 2266   2.858   1.245   2.575
  456SOL    HW1 2267   2.848   1.323   2.636
  456SOL    HW2 2268   2.908   1.172   2.622
  457SOL     OW 2269   2.484   6.466   6.994
  457SOL    HW1 2270   2.450   6.419   6.912
  457SOL    HW2 2271   2.583   6.478   6.986
  458SOL     OW 2272   3.551   1.279   2.740
  458SOL    HW1 2273   3.530   1.327   2.825
  458SOL    HW2 2274   3.601   1.339   2.678
  459SOL     OW 2275   3.292   0.518   3.436
  459SOL    HW1 2276   3.340   0.569   3.366
  459SOL    HW2 2277   3.226   0.578   3.482
  460SOL     OW 2278   0.565   1.636   6.605
  460SOL    HW1 2279   0.633   1.562   6.607
  460SOL    HW2 2280   0.536   1.651   6.511
  461SOL     OW 2281   1.344   5.682   5.323
  461SOL    HW1 2282   1.377   5.676   5.229
  461SOL    HW2 2283   1.377   5.603   5.375
  462SOL     OW 2284   3.492   4.139   4.894
  462SOL    HW1 2285   3.557   4.209   4.923
  462SOL    HW2 2286   3.420   4.130   4.963
  463SOL     OW 2287   5.144   5.989   4.163
  463SOL    HW1 2288   5.114   6.009   4.070
  463SOL    HW2 2289   5.069   6.009   4.227
  464SOL     OW 2290   3.911   5.122   6.167
  464SOL    HW1 2291   3.864   5.162   6.088
  464SOL    HW2 2292   3.972   5.049   6.135
  465SOL     OW 2293   0.689   4.156   0.113
  465SOL    HW1 2294   0.716   4.173   0.018
  465SOL    HW2 2295   0.771   4.157   0.171
  466SOL     OW 2296   3.843   5.200   4.370
  466SOL    HW1 2297   3.902   5.158   4.439
  466SOL    HW2 2298   3.776   5.132   4.338
  467SOL     OW 2299   6.234   0.344   2.610
  467SOL    HW1 2300   6.139   0.335   2.583
  467SOL    HW2 2301   6.239   0.380   2.703
  468SOL     OW 2302   2.664   5.874   6.402
  468SOL    HW1 2303   2.695   5.927   6.324
  468SOL    HW2 2304   2.655   5.778   6.375
  469SOL     OW 2305   2.734   4.744   4.860
  469SOL    HW1 2306   2.767   4.690   4.937
  469SOL    HW2 2307   2.746   4.842   4.881
  470SOL     OW 2308   2.153   5.008   2.433
  470SOL    HW1 2309   2.084   4.951   2.478
  470SOL    HW2 2310   2.220   4.949   2.389
  471SOL     OW 2311   1.535   2.186   4.194
  471SOL    HW1 2312   1.532   2.262   4.130
  471SOL    HW2 2313   1.517   2.219   4.287
  472SOL     OW 2314   5.346   3.692   6.965
  472SOL    HW1 2315   5.338   3.701   6.866
  472SOL    HW2 2316   5.438   3.660   6.989
  473SOL     OW 2317   6.039   3.342   2.275
  473SOL    HW1 2318   6.043   3.423   2.333
  473SOL    HW2 2319   5.944   3.316   2.259
  474SOL     OW 2320   4.754   5.708   4.140
  474SOL    HW1 2321   4.721   5.689   4.232
  474SOL    HW2 2322   4.693   5.667   4.073
  475SOL     OW 2323   5.837   1.758   0.482
  475SOL    HW1 2324   5.884   1.840   0.515
  475SOL    HW2 2325   5.747   1.783   0.448
  476SOL     OW 2326   1.299   3.851   6.810
  476SOL    HW1 2327   1.238   3.778   6.840
  476SOL    HW2 2328   1.331   3.833   6.717
  477SOL     OW 2329   1.441   4.922   3.429
  477SOL    HW1 2330   1.471   4.931   3.524
  477SOL    HW2 2331   1.515   4.885   3.373
  478SOL     OW 2332   5.370   6.107   2.865
  478SOL    HW1 2333   5.355   6.167   2.944
  478SOL    HW2 2334   5.307   6.029   2.871
  479SOL     OW 2335   3.433   4.157   3.064
  479SOL    HW1 2336   3.345   4.153   3.112
  479SOL    HW2 2337   3.436   4.239   3.007
  480SOL     OW 2338   1.226   0.874   2.516
  480SOL    HW1 2339   1.264   0.879   2.424
  480SOL    HW2 2340   1.278   0.935   2.577
  481SOL     OW 2341   6.525   0.182   0.977
  481SOL    HW1 2342   6.494   0.134   0.894
  481SOL    HW2 2343   6.572   0.118   1.037
  482SOL     OW 2344   4.384   4.811   2.444
  482SOL    HW1 2345   4.349   4.757   2.367
  482SOL    HW2 2346   4.369   4.908   2.427
  483SOL     OW 2347   5.878   2.126   4.067
  483SOL    HW1 2348   5.783   2.096   4.062
  483SOL    HW2 2349   5.886   2.216   4.023
  484SOL     OW 2350   2.215   4.717   3.551
  484SOL    HW1 2351   2.255   4.736   3.640
  484SOL    HW2 2352   2.182   4.801   3.509
  485SOL     OW 2353   5.543   2.735   1.392
  485SOL    HW1 2354   5.542   2.824   1.344
  485SOL    HW2 2355   5.486   2.670   1.342
  486SOL     OW 2356   6.063   6.577   5.931
  486SOL    HW1 2357   6.094   6.649   5.869
  486SOL    HW2 2358   6.028   6.500   5.877
  487SOL     OW 2359   0.374   0.288   6.392
  487SOL    HW1 2360   0.283   0.278   6.434
  487SOL    HW2 2361   0.377   0.236   6.307
  488SOL     OW 2362   2.328   5.512   3.333
  488SOL    HW1 2363   2.390   5.499   3.410
  488SOL    HW2 2364   2.250   5.567   3.363
  489SOL     OW 2365   1.923   5.632   5.647
  489SOL    HW1 2366   2.005   5.673   5.607
  489SOL    HW2 2367   1.844   5.652   5.589
  490SOL     OW 2368   1.020   3.813   4.645
  490SOL    HW1 2369   1.041   3.910   4.633
  490SOL    HW2 2370   1.103   3.764   4.671
  491SOL     OW 2371   6.835   2.692   0.732
  491SOL    HW1 2372   6.765   2.739   0.679
  491SOL    HW2 2373   6.910   2.664   0.672
  492SOL     OW 2374   1.527   3.037   5.272
  492SOL    HW1 2375   1.541   3.009   5.177
  492SOL    HW2 2376   1.513   2.956   5.330
  493SOL     OW 2377   1.642   5.215   4.342
  493SOL    HW1 2378   1.691   5.234   4.427
  493SOL    HW2 2379   1.584   5.293   4.319
  494SOL     OW 2380   2.565   6.728   4.046
  494SOL    HW1 2381   2.575   6.634   4.014
  494SOL    HW2 2382   2.636   6.748   4.113
  495SOL     OW 2383   3.681   4.109   6.459
  495SOL    HW1 2384   3.597   4.164   6.455
  495SOL    HW2 2385   3.664   4.027   6.514
  496SOL     OW 2386   5.116   1.135   3.326
  496SOL    HW1 2387   5.048   1.114   3.397
  496SOL    HW2 2388   5.198   1.174   3.369
  497SOL     OW 2389   4.730   1.901   0.030
  497SOL    HW1 2390   4.644   1.937   7.012
  497SOL    HW2 2391   4.769   1.966   0.095
  498SOL     OW 2392   0.179   0.495   1.598
  498SOL    HW1 2393   0.261   0.535   1.640
  498SOL    HW2 2394   0.099   0.517   1.652
  499SOL     OW 2395   2.652   5.942   0.497
  499SOL    HW1 2396   2.670   5.890   0.413
  499SOL    HW2 2397   2.556   5.932   0.522
  500SOL     OW 2398   5.292   1.820   6.675
  500SOL    HW1 2399   5.202   1.818   6.718
  500SOL    HW2 2400   5.308   1.910   6.635
  501SOL     OW 2401   1.400   0.849   4.962
  501SOL    HW1 2402   1.423   0.938   4.924
  501SOL    HW2 2403   1.479   0.788   4.956
  502SOL     OW 2404   2.522   4.658   6.909
  502SOL    HW1 2405   2.613   4.617   6.900
  502SOL    HW2 2406   2.465   4.631   6.832
  503SOL     OW 2407   3.737   5.728   0.926
  503SOL    HW1 2408   3.739   5.813   0.873
  503SOL    HW2 2409   3.655   5.676   0.901
  504SOL     OW 2410   6.484   6.098   1.554
  504SOL    HW1 2411   6.505   6.058   1.643
  504SOL    HW2 2412   6.416   6.171   1.566
  505SOL     OW 2413   5.606   5.292   5.326
  505SOL    HW1 2414   5.694   5.323   5.360
  505SOL    HW2 2415   5.542   5.368   5.324
  506SOL     OW 2416   3.314   4.946   3.427
  506SOL    HW1 2417   3.302   5.037   3.387
  506SOL    HW2 2418   3.230   4.893   3.415
  507SOL     OW 2419   2.966   1.024   1.514
  507SOL    HW1 2420   2.923   1.090   1.575
  507SOL    HW2 2421   2.981   1.066   1.424
  508SOL     OW 2422   0.364   4.603   3.341
  508SOL    HW1 2423   0.303   4.597   3.420
  508SOL    HW2 2424   0.433   4.674   3.357
  509SOL     OW 2425   4.320   6.754   6.257
  509SOL    HW1 2426   4.267   6.669   6.255
  509SOL    HW2 2427   4.415   6.735   6.235
  510SOL     OW 2428   6.611   3.836   0.302
  510SOL    HW1 2429   6.659   3.863   0.385
  510SOL    HW2 2430   6.677   3.825   0.228
  511SOL     OW 2431   0.881   1.418   0.495
  511SOL    HW1 2432   0.965   1.379   0.458
  511SOL    HW2 2433   0.835   1.473   0.425
  512SOL     OW 2434   0.443   2.483   3.790
  512SOL    HW1 2435   0.507   2.548   3.830
  512SOL    HW2 2436   0.466   2.390   3.820
  513SOL     OW 2437   5.016   0.255   3.356
  513SOL    HW1 2438   5.027   0.174   3.299
  513SOL    HW2 2439   5.014   0.337   3.299
  514SOL     OW 2440   5.235   1.107   5.373
  514SOL    HW1 2441   5.278   1.120   5.284
  514SOL    HW2 2442   5.135   1.107   5.363
  515SOL     OW 2443   3.787   0.404   6.750
  515SOL    HW1 2444   3.861   0.354   6.704
  515SOL    HW2 2445   3.756   0.352   6.829
  516SOL     OW 2446   2.281   6.362   2.314
  516SOL    HW1 2447   2.289   6.274   2.362
  516SOL    HW2 2448   2.205   6.357   2.249
  517SOL     OW 2449   3.116   5.223   1.788
  517SOL    HW1 2450   3.156   5.145   1.739
  517SOL    HW2 2451   3.129   5.306   1.733
  518SOL     OW 2452   1.770   5.022   4.210
  518SOL    HW1 2453   1.725   5.073   4.283
  518SOL    HW2 2454   1.833   4.956   4.250
  519SOL     OW 2455   0.045   6.925   2.482
  519SOL    HW1 2456   6.993   6.939   2.412
  519SOL    HW2 2457   0.100   7.008   2.490
  520SOL     OW 2458   2.338   4.317   0.601
  520SOL    HW1 2459   2.413   4.258   0.629
  520SOL    HW2 2460   2.253   4.265   0.598
  521SOL     OW 2461   6.445   6.017   5.036
  521SOL    HW1 2462   6.391   6.018   4.952
  521SOL    HW2 2463   6.538   5.985   5.016
  522SOL     OW 2464   3.923   4.397   0.394
  522SOL    HW1 2465   3.936   4.440   0.484
  522SOL    HW2 2466   4.013   4.373   0.356
  523SOL     OW 2467   0.806   0.124   0.410
  523SOL    HW1 2468   0.893   0.080   0.389
  523SOL    HW2 2469   0.732   0.057   0.397
  524SOL     OW 2470   6.759   1.785   0.521
  524SOL    HW1 2471   6.815   1.866   0.538
  524SOL    HW2 2472   6.818   1.706   0.503
  525SOL     OW 2473   0.872   3.094   3.862
  525SOL    HW1 2474   0.965   3.098   3.898
  525SOL    HW2 2475   0.866   3.149   3.778
  526SOL     OW 2476   3.981   0.033   3.757
  526SOL    HW1 2477   3.902   0.020   3.698
  526SOL    HW2 2478   3.994   0.131   3.775
  527SOL     OW 2479   0.169   1.667   0.721
  527SOL    HW1 2480   0.250   1.611   0.707
  527SOL    HW2 2481   0.162   1.735   0.648
  528SOL     OW 2482   6.781   2.840   4.625
  528SOL    HW1 2483   6.823   2.820   4.713
  528SOL    HW2 2484   6.778   2.939   4.610
  529SOL     OW 2485   1.741   0.046   0.007
  529SOL    HW1 2486   1.718   6.991   6.962
  529SOL    HW2 2487   1.820   0.019   0.062
  530SOL     OW 2488   3.386   4.714   1.216
  530SOL    HW1 2489   3.289   4.691   1.202
  530SOL    HW2 2490   3.394   4.782   1.288
  531SOL     OW 2491   1.321   6.903   0.486
  531SOL    HW1 2492   1.398   6.851   0.521
  531SOL    HW2 2493   1.337   6.927   0.390
  532SOL     OW 2494   1.802   2.077   5.712
  532SOL    HW1 2495   1.731   2.013   5.741
  532SOL    HW2 2496   1.773   2.171   5.730
  533SOL     OW 2497   4.075   0.481   4.021
  533SOL    HW1 2498   4.150   0.505   3.959
  533SOL    HW2 2499   4.008   0.556   4.024
  534SOL     OW 2500   1.718   4.226   1.605
  534SOL    HW1 2501   1.808   4.221   1.649
  534SOL    HW2 2502   1.653   4.268   1.668
  535SOL     OW 2503   4.918   3.330   4.125
  535SOL    HW1 2504   4.937   3.239   4.087
  535SOL    HW2 2505   4.947   3.333   4.221
  536SOL     OW 2506   6.183   6.735   2.105
  536SOL    HW1 2507   6.222   6.646   2.083
  536SOL    HW2 2508   6.124   6.727   2.186
  537SOL     OW 2509   3.050   1.899   2.920
  537SOL    HW1 2510   2.952   1.878   2.921
  537SOL    HW2 2511   3.089   1.868   2.833
  538SOL     OW 2512   3.392   5.090   4.840
  538SOL    HW1 2513   3.462   5.090   4.911
  538SOL    HW2 2514   3.344   5.178   4.841
  539SOL     OW 2515   1.111   0.258   6.319
  539SOL    HW1 2516   1.017   0.293   6.327
  539SOL    HW2 2517   1.174   0.322   6.362
  540SOL     OW 2518   1.582   0.535   5.044
  540SOL    HW1 2519   1.525   0.531   4.962
  540SOL    HW2 2520   1.537   0.486   5.119
  541SOL     OW 2521   5.245   5.739   4.123
  541SOL    HW1 2522   5.197   5.826   4.134
  541SOL    HW2 2523   5.180   5.663   4.127
  542SOL     OW 2524   3.754   6.790   5.551
  542SOL    HW1 2525   3.849   6.797   5.523
  542SOL    HW2 2526   3.749   6.751   5.642
  543SOL     OW 2527   6.511   2.333   3.553
  543SOL    HW1 2528   6.472   2.336   3.461
  543SOL    HW2 2529   6.594   2.389   3.556
  544SOL     OW 2530   1.227   3.200   1.552
  544SOL    HW1 2531   1.319   3.228   1.580
  544SOL    HW2 2532   1.227   3.103   1.530
  545SOL     OW 2533   6.670   6.565   1.209
  545SOL    HW1 2534   6.570   6.567   1.200
  545SOL    HW2 2535   6.698   6.475   1.243
  546SOL     OW 2536   0.154   4.143   2.181
  546SOL    HW1 2537   0.229   4.206   2.202
  546SOL    HW2 2538   0.133   4.148   2.083
  547SOL     OW 2539   5.161   0.269   6.354
  547SOL    HW1 2540   5.064   0.264   6.376
  547SOL    HW2 2541   5.172   0.294   6.258
  548SOL     OW 2542   3.719   2.568   6.951
  548SOL    HW1 2543   3.782   2.645   6.943
  548SOL    HW2 2544   3.700   2.549   0.028
  549SOL     OW 2545   5.487   1.474   2.075
  549SOL    HW1 2546   5.464   1.514   2.164
  549SOL    HW2 2547   5.573   1.423   2.083
  550SOL     OW 2548   0.158   5.863   3.272
  550SOL    HW1 2549   0.246   5.910   3.278
  550SOL    HW2 2550   0.101   5.888   3.350
  551SOL     OW 2551   6.069   0.334   0.587
  551SOL    HW1 2552   6.050   0.345   0.489
  551SOL    HW2 2553   6.029   0.248   0.619
  552SOL     OW 2554   0.691   6.320   5.435
  552SOL    HW1 2555   0.621   6.307   5.505
  552SOL    HW2 2556   0.648   6.338   5.347
  553SOL     OW 2557   3.512   1.827   6.833
  553SOL    HW1 2558   3.569   1.885   6.774
  553SOL    HW2 2559   3.479   1.881   6.910
  554SOL     OW 2560   6.283   6.208   0.840
  554SOL    HW1 2561   6.230   6.171   0.763
  554SOL    HW2 2562   6.337   6.286   0.809
  555SOL     OW 2563   2.168   3.775   4.958
  555SOL    HW1 2564   2.201   3.714   5.030
  555SOL    HW2 2565   2.216   3.863   4.964
  556SOL     OW 2566   5.853   0.125   3.651
  556SOL    HW1 2567   5.834   0.080   3.564
  556SOL    HW2 2568   5.843   0.060   3.726
  557SOL     OW 2569   5.881   4.193   6.650
  557SOL    HW1 2570   5.959   4.248   6.619
  557SOL    HW2 2571   5.870   4.113   6.591
  558SOL     OW 2572   3.355   3.495   2.592
  558SOL    HW1 2573   3.348   3.446   2.679
  558SOL    HW2 2574   3.270   3.544   2.573
  559SOL     OW 2575   6.382   7.003   5.768
  559SOL    HW1 2576   6.335   0.030   5.692
  559SOL    HW2 2577   6.467   6.963   5.736
  560SOL     OW 2578   6.559   3.161   4.113
  560SOL    HW1 2579   6.467   3.195   4.094
  560SOL    HW2 2580   6.563   3.128   4.207
  561SOL     OW 2581   0.718   2.892   0.458
  561SOL    HW1 2582   0.631   2.940   0.468
  561SOL    HW2 2583   0.735   2.836   0.539
  562SOL     OW 2584   4.308   6.634   4.467
  562SOL    HW1 2585   4.324   6.697   4.543
  562SOL    HW2 2586   4.312   6.539   4.501
  563SOL     OW 2587   1.660   0.210   4.022
  563SOL    HW1 2588   1.683   0.115   3.999
  563SOL    HW2 2589   1.561   0.221   4.016
  564SOL     OW 2590   6.044   1.931   6.154
  564SOL    HW1 2591   6.130   1.959   6.197
  564SOL    HW2 2592   5.984   2.010   6.144
  565SOL     OW 2593   3.658   3.794   3.709
  565SOL    HW1 2594   3.699   3.832   3.626
  565SOL    HW2 2595   3.595   3.721   3.684
  566SOL     OW 2596   3.073   0.801   3.857
  566SOL    HW1 2597   3.079   0.748   3.773
  566SOL    HW2 2598   3.009   0.876   3.845
  567SOL     OW 2599   2.756   2.830   5.619
  567SOL    HW1 2600   2.717   2.914   5.656
  567SOL    HW2 2601   2.809   2.850   5.537
  568SOL     OW 2602   0.544   6.301   0.233
  568SOL    HW1 2603   0.542   6.219   0.175
  568SOL    HW2 2604   0.632   6.307   0.279
  569SOL     OW 2605   6.357   3.813   0.221
  569SOL    HW1 2606   6.332   3.879   0.151
  569SOL    HW2 2607   6.441   3.843   0.266
  570SOL     OW 2608   2.892   0.569   6.256
  570SOL    HW1 2609   2.897   0.669   6.261
  570SOL    HW2 2610   2.890   0.540   6.160
  571SOL     OW 2611   2.023   4.362   1.299
  571SOL    HW1 2612   2.056   4.379   1.391
  571SOL    HW2 2613   2.099   4.368   1.234
  572SOL     OW 2614   2.786   0.350   4.741
  572SOL    HW1 2615   2.807   0.445   4.718
  572SOL    HW2 2616   2.720   0.347   4.816
  573SOL     OW 2617   0.225   1.043   5.283
  573SOL    HW1 2618   0.205   0.956   5.328
  573SOL    HW2 2619   0.257   1.109   5.351
  574SOL     OW 2620   2.056   1.510   6.080
  574SOL    HW1 2621   2.131   1.549   6.133
  574SOL    HW2 2622   2.055   1.551   5.989
  575SOL     OW 2623   3.952   3.706   0.078
  575SOL    HW1 2624   3.924   3.615   0.110
  575SOL    HW2 2625   3.910   3.775   0.137
  576SOL     OW 2626   2.090   2.077   2.623
  576SOL    HW1 2627   2.189   2.085   2.613
  576SOL    HW2 2628   2.050   2.168   2.635
  577SOL     OW 2629   0.477   1.194   1.387
  577SOL    HW1 2630   0.391   1.193   1.337
  577SOL    HW2 2631   0.528   1.110   1.367
  578SOL     OW 2632   3.499   0.104   6.661
  578SOL    HW1 2633   3.472   0.133   6.569
  578SOL    HW2 2634   3.550   0.177   6.706
  579SOL     OW 2635   1.993   4.135   1.763
  579SOL    HW1 2636   2.028   4.068   1.698
  579SOL    HW2 2637   2.066   4.199   1.788
  580SOL     OW 2638   4.812   5.570   4.607
  580SOL    HW1 2639   4.751   5.493   4.588
  580SOL    HW2 2640   4.763   5.639   4.662
  581SOL     OW 2641   2.030   2.580   5.014
  581SOL    HW1 2642   1.989   2.531   4.936
  581SOL    HW2 2643   2.116   2.536   5.039
  582SOL     OW 2644   5.077   4.701   4.082
  582SOL    HW1 2645   5.009   4.690   4.154
  582SOL    HW2 2646   5.168   4.686   4.120
  583SOL     OW 2647   3.950   6.172   5.818
  583SOL    HW1 2648   3.929   6.258   5.772
  583SOL    HW2 2649   3.994   6.190   5.906
  584SOL     OW 2650   4.124   0.931   5.532
  584SOL    HW1 2651   4.133   1.004   5.600
  584SOL    HW2 2652   4.186   0.948   5.456
  585SOL     OW 2653   3.533   0.310   1.317
  585SOL    HW1 2654   3.601   0.313   1.244
  585SOL    HW2 2655   3.569   0.352   1.400
  586SOL     OW 2656   3.940   0.823   0.597
  586SOL    HW1 2657   3.908   0.756   0.531
  586SOL    HW2 2658   3.888   0.908   0.588
  587SOL     OW 2659   5.107   2.112   1.860
  587SOL    HW1 2660   5.124   2.125   1.762
  587SOL    HW2 2661   5.013   2.140   1.882
  588SOL     OW 2662   1.814   4.598   3.072
  588SOL    HW1 2663   1.766   4.597   2.985
  588SOL    HW2 2664   1.904   4.556   3.061
  589SOL     OW 2665   2.895   5.386   0.439
  589SOL    HW1 2666   2.964   5.324   0.401
  589SOL    HW2 2667   2.916   5.480   0.414
  590SOL     OW 2668   3.500   2.276   0.281
  590SOL    HW1 2669   3.406   2.276   0.247
  590SOL    HW2 2670   3.516   2.193   0.334
  591SOL     OW 2671   3.361   5.877   3.683
  591SOL    HW1 2672   3.405   5.919   3.604
  591SOL    HW2 2673   3.362   5.777   3.672
  592SOL     OW 2674   3.498   1.659   4.635
  592SOL    HW1 2675   3.484   1.613   4.723
  592SOL    HW2 2676   3.511   1.757   4.651
  593SOL     OW 2677   2.049   1.897   6.844
  593SOL    HW1 2678   1.959   1.858   6.866
  593SOL    HW2 2679   2.117   1.863   6.909
  594SOL     OW 2680   4.709   0.968   2.575
  594SOL    HW1 2681   4.669   0.882   2.609
  594SOL    HW2 2682   4.728   0.959   2.477
  595SOL     OW 2683   6.140   5.696   2.679
  595SOL    HW1 2684   6.089   5.683   2.764
  595SOL    HW2 2685   6.141   5.793   2.656
  596SOL     OW 2686   6.492   4.717   4.380
  596SOL    HW1 2687   6.415   4.726   4.318
  596SOL    HW2 2688   6.558   4.651   4.343
  597SOL     OW 2689   3.038   1.213   6.833
  597SOL    HW1 2690   3.079   1.256   6.914
  597SOL    HW2 2691   2.942   1.192   6.852
  598SOL     OW 2692   3.329   4.112   4.182
  598SOL    HW1 2693   3.260   4.044   4.209
  598SOL    HW2 2694   3.368   4.154   4.264
  599SOL     OW 2695   1.272   5.125   1.338
  599SOL    HW1 2696   1.220   5.187   1.278
  599SOL    HW2 2697   1.240   5.031   1.324
  600SOL     OW 2698   6.594   3.151   5.330
  600SOL    HW1 2699   6.645   3.111   5.254
  600SOL    HW2 2700   6.533   3.082   5.370
  601SOL     OW 2701   1.018   6.535   5.994
  601SOL    HW1 2702   1.055   6.627   5.990
  601SOL    HW2 2703   1.041   6.486   5.910
  602SOL     OW 2704   2.176   0.342   3.558
  602SOL    HW1 2705   2.166   0.361   3.460
  602SOL    HW2 2706   2.270   0.312   3.576
  603SOL     OW 2707   1.626   1.653   4.634
  603SOL    HW1 2708   1.693   1.719   4.599
  603SOL    HW2 2709   1.559   1.632   4.562
  604SOL     OW 2710   5.884   3.000   1.169
  604SOL    HW1 2711   5.923   3.071   1.228
  604SOL    HW2 2712   5.786   2.992   1.187
  605SOL     OW 2713   6.431   6.643   1.528
  605SOL    HW1 2714   6.520   6.687   1.535
  605SOL    HW2 2715   6.403   6.640   1.433
  606SOL     OW 2716   3.671   7.001   4.604
  606SOL    HW1 2717   3.583   7.013   4.558
  606SOL    HW2 2718   3.709   6.911   4.579
  607SOL     OW 2719   1.765   3.211   5.332
  607SOL    HW1 2720   1.764   3.176   5.238
  607SOL    HW2 2721   1.774   3.135   5.396
  608SOL     OW 2722   3.210   1.175   5.731
  608SOL    HW1 2723   3.130   1.118   5.715
  608SOL    HW2 2724   3.181   1.267   5.760
  609SOL     OW 2725   3.393   2.865   1.913
  609SOL    HW1 2726   3.305   2.833   1.878
  609SOL    HW2 2727   3.466   2.837   1.852
  610SOL     OW 2728   4.600   3.642   1.614
  610SOL    HW1 2729   4.631   3.591   1.534
  610SOL    HW2 2730   4.514   3.603   1.647
  611SOL     OW 2731   3.505   0.796   3.199
  611SOL    HW1 2732   3.566   0.852   3.144
  611SOL    HW2 2733   3.514   0.700   3.171
  612SOL     OW 2734   4.360   4.954   4.388
  612SOL    HW1 2735   4.391   4.938   4.482
  612SOL    HW2 2736   4.319   4.870   4.353
  613SOL     OW 2737   4.124   4.546   5.333
  613SOL    HW1 2738   4.028   4.522   5.322
  613SOL    HW2 2739   4.179   4.496   5.266
  614SOL     OW 2740   2.836   6.176   5.853
  614SOL    HW1 2741   2.834   6.182   5.953
  614SOL    HW2 2742   2.905   6.109   5.825
  615SOL     OW 2743   0.761   5.012   2.575
  615SOL    HW1 2744   0.792   4.997   2.481
  615SOL    HW2 2745   0.737   5.108   2.587
  616SOL     OW 2746   5.995   3.037   3.422
  616SOL    HW1 2747   6.085   3.067   3.455
  616SOL    HW2 2748   6.007   2.980   3.340
  617SOL     OW 2749   3.016   6.428   6.092
  617SOL    HW1 2750   2.980   6.456   6.181
  617SOL    HW2 2751   2.941   6.414   6.028
  618SOL     OW 2752   1.785   1.129   2.620
  618SOL    HW1 2753   1.759   1.172   2.534
  618SOL    HW2 2754   1.866   1.071   2.604
  619SOL     OW 2755   0.426   1.826   6.740
  619SOL    HW1 2756   0.438   1.913   6.692
  619SOL    HW2 2757   0.485   1.757   6.698
  620SOL     OW 2758   4.280   3.572   1.475
  620SOL    HW1 2759   4.305   3.667   1.493
  620SOL    HW2 2760   4.254   3.562   1.379
  621SOL     OW 2761   0.666   5.414   1.229
  621SOL    HW1 2762   0.596   5.479   1.257
  621SOL    HW2 2763   0.743   5.463   1.187
  622SOL     OW 2764   0.869   0.883   6.653
  622SOL    HW1 2765   0.931   0.809   6.628
  622SOL    HW2 2766   0.908   0.936   6.729
  623SOL     OW 2767   0.528   4.812   5.885
  623SOL    HW1 2768   0.568   4.904   5.879
  623SOL    HW2 2769   0.497   4.796   5.979
  624SOL     OW 2770   0.852   1.711   1.249
  624SOL    HW1 2771   0.892   1.796   1.282
  624SOL    HW2 2772   0.790   1.730   1.174
  625SOL     OW 2773   1.664   1.268   2.426
  625SOL    HW1 2774   1.630   1.344   2.482
  625SOL    HW2 2775   1.718   1.305   2.350
  626SOL     OW 2776   3.389   6.870   4.370
  626SOL    HW1 2777   3.348   6.802   4.309
  626SOL    HW2 2778   3.466   6.829   4.419
  627SOL     OW 2779   5.234   0.997   7.012
  627SOL    HW1 2780   5.282   1.061   0.054
  627SOL    HW2 2781   5.238   0.905   0.031
  628SOL     OW 2782   5.412   4.017   3.364
  628SOL    HW1 2783   5.349   3.957   3.313
  628SOL    HW2 2784   5.383   4.112   3.353
  629SOL     OW 2785   1.618   6.413   0.511
  629SOL    HW1 2786   1.624   6.503   0.467
  629SOL    HW2 2787   1.673   6.414   0.595
  630SOL     OW 2788   2.927   1.782   1.643
  630SOL    HW1 2789   2.876   1.740   1.718
  630SOL    HW2 2790   2.863   1.830   1.583
  631SOL     OW 2791   2.102   6.617   4.788
  631SOL    HW1 2792   2.049   6.535   4.807
  631SOL    HW2 2793   2.042   6.687   4.748
  632SOL     OW 2794   1.835   0.801   1.363
  632SOL    HW1 2795   1.901   0.802   1.288
  632SOL    HW2 2796   1.743   0.784   1.326
  633SOL     OW 2797   2.130   6.598   5.585
  633SOL    HW1 2798   2.062   6.584   5.657
  633SOL    HW2 2799   2.106   6.679   5.532
  634SOL     OW 2800   3.044   5.760   1.312
  634SOL    HW1 2801   3.020   5.702   1.390
  634SOL    HW2 2802   3.014   5.715   1.228
  635SOL     OW 2803   2.913   0.468   2.409
  635SOL    HW1 2804   2.847   0.509   2.471
  635SOL    HW2 2805   2.866   0.430   2.330
  636SOL     OW 2806   5.209   5.402   0.257
  636SOL    HW1 2807   5.256   5.433   0.340
  636SOL    HW2 2808   5.241   5.456   0.179
  637SOL     OW 2809   5.515   4.530   0.663
  637SOL    HW1 2810   5.538   4.554   0.569
  637SOL    HW2 2811   5.586   4.470   0.701
  638SOL     OW 2812   5.327   1.275   2.273
  638SOL    HW1 2813   5.404   1.231   2.227
  638SOL    HW2 2814   5.354   1.367   2.302
  639SOL     OW 2815   4.684   4.445   2.460
  639SOL    HW1 2816   4.667   4.377   2.389
  639SOL    HW2 2817   4.696   4.399   2.548
  640SOL     OW 2818   2.501   4.242   5.698
  640SOL    HW1 2819   2.507   4.290   5.610
  640SOL    HW2 2820   2.485   4.309   5.771
  641SOL     OW 2821   0.454   5.898   5.679
  641SOL    HW1 2822   0.416   5.831   5.743
  641SOL    HW2 2823   0.463   5.856   5.589
  642SOL     OW 2824   1.551   4.275   5.934
  642SOL    HW1 2825   1.488   4.210   5.891
  642SOL    HW2 2826   1.504   4.362   5.950
  643SOL     OW 2827   6.043   6.201   4.939
  643SOL    HW1 2828   6.000   6.129   4.993
  643SOL    HW2 2829   5.977   6.237   4.873
  644SOL     OW 2830   2.561   6.208   2.113
  644SOL    HW1 2831   2.510   6.125   2.093
  644SOL    HW2 2832   2.558   6.227   2.211
  645SOL     OW 2833   6.044   3.057   3.672
  645SOL    HW1 2834   6.007   3.056   3.579
  645SOL    HW2 2835   5.990   3.118   3.729
  646SOL     OW 2836   1.142   2.053   4.801
  646SOL    HW1 2837   1.147   2.127   4.869
  646SOL    HW2 2838   1.218   1.989   4.816
  647SOL     OW 2839   5.056   3.321   0.534
  647SOL    HW1 2840   5.018   3.397   0.482
  647SOL    HW2 2841   5.147   3.299   0.501
  648SOL     OW 2842   4.636   2.041   3.600
  648SOL    HW1 2843   4.659   1.994   3.515
  648SOL    HW2 2844   4.563   1.991   3.647
  649SOL     OW 2845   4.351   4.618   1.981
  649SOL    HW1 2846   4.446   4.594   1.997
  649SOL    HW2 2847   4.335   4.632   1.883
  650SOL     OW 2848   4.730   3.707   1.362
  650SOL    HW1 2849   4.753   3.703   1.265
  650SOL    HW2 2850   4.700   3.799   1.386
  651SOL     OW 2851   1.089   5.899   6.205
  651SOL    HW1 2852   1.117   5.932   6.295
  651SOL    HW2 2853   1.071   5.801   6.209
  652SOL     OW 2854   4.820   1.522   2.841
  652SOL    HW1 2855   4.789   1.482   2.927
  652SOL    HW2 2856   4.883   1.459   2.795
  653SOL     OW 2857   4.039   5.164   3.469
  653SOL    HW1 2858   3.971   5.102   3.508
  653SOL    HW2 2859   4.102   5.112   3.411
  654SOL     OW 2860   6.677   5.324   0.046
  654SOL    HW1 2861   6.716   5.326   6.972
  654SOL    HW2 2862   6.723   5.393   0.102
  655SOL     OW 2863   6.857   1.205   6.795
  655SOL    HW1 2864   6.829   1.222   6.700
  655SOL    HW2 2865   6.791   1.144   6.838
  656SOL     OW 2866   2.488   6.211   1.524
  656SOL    HW1 2867   2.570   6.169   1.484
  656SOL    HW2 2868   2.515   6.275   1.595
  657SOL     OW 2869   4.176   1.128   6.667
  657SOL    HW1 2870   4.254   1.175   6.709
  657SOL    HW2 2871   4.118   1.195   6.620
  658SOL     OW 2872   3.611   5.040   5.684
  658SOL    HW1 2873   3.674   5.064   5.610
  658SOL    HW2 2874   3.521   5.020   5.645
  659SOL     OW 2875   2.779   0.732   6.695
  659SOL    HW1 2876   2.702   0.669   6.692
  659SOL    HW2 2877   2.839   0.715   6.616
  660SOL     OW 2878   3.729   5.736   3.245
  660SOL    HW1 2879   3.726   5.636   3.243
  660SOL    HW2 2880   3.764   5.766   3.334
  661SOL     OW 2881   5.436   5.717   3.102
  661SOL    HW1 2882   5.479   5.804   3.126
  661SOL    HW2 2883   5.466   5.688   3.012
  662SOL     OW 2884   3.493   1.322   0.584
  662SOL    HW1 2885   3.467   1.226   0.583
  662SOL    HW2 2886   3.592   1.331   0.582
  663SOL     OW 2887   2.169   4.703   4.843
  663SOL    HW1 2888   2.124   4.790   4.821
  663SOL    HW2 2889   2.126   4.629   4.791
  664SOL     OW 2890   5.932   1.048   6.444
  664SOL    HW1 2891   5.905   1.054   6.349
  664SOL    HW2 2892   6.030   1.030   6.450
  665SOL     OW 2893   1.820   4.823   2.209
  665SOL    HW1 2894   1.816   4.877   2.293
  665SOL    HW2 2895   1.734   4.834   2.158
  666SOL     OW 2896   3.951   1.178   0.751
  666SOL    HW1 2897   4.037   1.229   0.747
  666SOL    HW2 2898   3.966   1.091   0.799
  667SOL     OW 2899   1.286   6.511   2.438
  667SOL    HW1 2900   1.267   6.469   2.527
  667SOL    HW2 2901   1.265   6.608   2.442
  668SOL     OW 2902   5.218   3.903   0.932
  668SOL    HW1 2903   5.293   3.891   0.868
  668SOL    HW2 2904   5.238   3.854   1.017
  669SOL     OW 2905   5.071   1.730   2.437
  669SOL    HW1 2906   5.127   1.724   2.354
  669SOL    HW2 2907   5.128   1.762   2.512
  670SOL     OW 2908   2.976   2.226   2.998
  670SOL    HW1 2909   2.955   2.228   3.096
  670SOL    HW2 2910   2.997   2.133   2.970
  671SOL     OW 2911   2.962   7.010   1.532
  671SOL    HW1 2912   3.040   0.050   1.508
  671SOL    HW2 2913   2.907   6.992   1.451
  672SOL     OW 2914   1.607   6.963   2.421
  672SOL    HW1 2915   1.691   6.914   2.443
  672SOL    HW2 2916   1.619   0.042   2.440
  673SOL     OW 2917   5.557   6.663   0.687
  673SOL    HW1 2918   5.551   6.670   0.588
  673SOL    HW2 2919   5.508   6.581   0.718
  674SOL     OW 2920   6.120   0.847   3.848
  674SOL    HW1 2921   6.189   0.779   3.871
  674SOL    HW2 2922   6.115   0.858   3.748
  675SOL     OW 2923   0.172   3.394   3.155
  675SOL    HW1 2924   0.126   3.426   3.238
  675SOL    HW2 2925   0.175   3.468   3.088
  676SOL     OW 2926   2.545   6.519   6.036
  676SOL    HW1 2927   2.560   6.490   5.941
  676SOL    HW2 2928   2.574   6.615   6.046
  677SOL     OW 2929   5.330   1.570   1.530
  677SOL    HW1 2930   5.402   1.624   1.573
  677SOL    HW2 2931   5.365   1.531   1.444
  678SOL     OW 2932   0.863   5.215   3.479
  678SOL    HW1 2933   0.863   5.136   3.419
  678SOL    HW2 2934   0.793   5.204   3.549
  679SOL     OW 2935   4.682   2.184   5.278
  679SOL    HW1 2936   4.611   2.126   5.238
  679SOL    HW2 2937   4.733   2.131   5.346
  680SOL     OW 2938   6.045   6.606   4.427
  680SOL    HW1 2939   6.005   6.518   4.451
  680SOL    HW2 2940   6.099   6.640   4.504
  681SOL     OW 2941   4.879   5.059   2.590
  681SOL    HW1 2942   4.922   4.983   2.541
  681SOL    HW2 2943   4.797   5.087   2.540
  682SOL     OW 2944   0.629   1.396   3.180
  682SOL    HW1 2945   0.691   1.380   3.257
  682SOL    HW2 2946   0.536   1.369   3.206
  683SOL     OW 2947   3.594   3.972   1.380
  683SOL    HW1 2948   3.638   3.910   1.446
  683SOL    HW2 2949   3.656   4.047   1.359
  684SOL     OW 2950   6.486   1.462   6.131
  684SOL    HW1 2951   6.486   1.531   6.204
  684SOL    HW2 2952   6.472   1.508   6.043
  685SOL     OW 2953   3.230   0.456   3.119
  685SOL    HW1 2954   3.170   0.458   3.199
  685SOL    HW2 2955   3.240   0.361   3.088
  686SOL     OW 2956   4.334   0.225   4.814
  686SOL    HW1 2957   4.249   0.217   4.763
  686SOL    HW2 2958   4.369   0.134   4.837
  687SOL     OW 2959   0.755   2.029   3.429
  687SOL    HW1 2960   0.656   2.036   3.416
  687SOL    HW2 2961   0.787   2.108   3.481
  688SOL     OW 2962   6.325   1.515   6.762
  688SOL    HW1 2963   6.393   1.445   6.783
  688SOL    HW2 2964   6.369   1.606   6.765
  689SOL     OW 2965   1.766   5.697   5.875
  689SOL    HW1 2966   1.825   5.646   5.813
  689SOL    HW2 2967   1.707   5.759   5.823
  690SOL     OW 2968   5.412   3.617   2.675
  690SOL    HW1 2969   5.375   3.536   2.630
  690SOL    HW2 2970   5.467   3.669   2.609
  691SOL     OW 2971   5.976   1.773   0.792
  691SOL    HW1 2972   6.025   1.755   0.877
  691SOL    HW2 2973   5.881   1.743   0.802
  692SOL     OW 2974   1.622   0.159   4.786
  692SOL    HW1 2975   1.697   0.161   4.720
  692SOL    HW2 2976   1.656   0.187   4.876
  693SOL     OW 2977   5.449   5.824   3.622
  693SOL    HW1 2978   5.495   5.849   3.537
  693SOL    HW2 2979   5.377   5.890   3.643
  694SOL     OW 2980   4.887   6.226   5.229
  694SOL    HW1 2981   4.958   6.188   5.290
  694SOL    HW2 2982   4.913   6.318   5.202
  695SOL     OW 2983   4.364   0.198   3.909
  695SOL    HW1 2984   4.309   0.119   3.879
  695SOL    HW2 2985   4.321   0.282   3.875
  696SOL     OW 2986   5.344   3.916   2.952
  696SOL    HW1 2987   5.428   3.874   2.917
  696SOL    HW2 2988   5.332   4.007   2.912
  697SOL     OW 2989   0.964   6.451   2.010
  697SOL    HW1 2990   0.946   6.357   2.039
  697SOL    HW2 2991   0.916   6.514   2.070
  698SOL     OW 2992   5.606   6.660   6.979
  698SOL    HW1 2993   5.536   6.719   0.003
  698SOL    HW2 2994   5.696   6.701   6.992
  699SOL     OW 2995   3.219   3.129   1.348
  699SOL    HW1 2996   3.143   3.080   1.391
  699SOL    HW2 2997   3.203   3.138   1.250
  700SOL     OW 2998   4.018   0.159   4.161
  700SOL    HW1 2999   4.058   0.090   4.101
  700SOL    HW2 3000   4.020   0.248   4.116
  701SOL     OW 3001   4.613   5.149   1.524
  701SOL    HW1 3002   4.562   5.206   1.588
  701SOL    HW2 3003   4.711   5.169   1.533
  702SOL     OW 3004   3.607   0.428   4.160
  702SOL    HW1 3005   3.630   0.331   4.157
  702SOL    HW2 3006   3.557   0.453   4.078
  703SOL     OW 3007   3.379   2.149   6.746
  703SOL    HW1 3008   3.460   2.206   6.761
  703SOL    HW2 3009   3.344   2.117   6.834
  704SOL     OW 3010   2.198   2.190   5.663
  704SOL    HW1 3011   2.153   2.115   5.711
  704SOL    HW2 3012   2.149   2.275   5.682
  705SOL     OW 3013   0.301   6.781   5.191
  705SOL    HW1 3014   0.329   6.830   5.109
  705SOL    HW2 3015   0.326   6.685   5.183
  706SOL     OW 3016   4.265   1.183   5.425
  706SOL    HW1 3017   4.267   1.140   5.334
  706SOL    HW2 3018   4.215   1.269   5.419
  707SOL     OW 3019   3.103   5.217   4.310
  707SOL    HW1 3020   3.139   5.299   4.266
  707SOL    HW2 3021   3.007   5.205   4.284
  708SOL     OW 3022   4.488   5.780   3.859
  708SOL    HW1 3023   4.509   5.865   3.906
  708SOL    HW2 3024   4.444   5.800   3.771
  709SOL     OW 3025   2.140   0.158   1.172
  709SOL    HW1 3026   2.072   0.192   1.238
  709SOL    HW2 3027   2.232   0.187   1.201
  710SOL     OW 3028   4.724   3.175   1.626
  710SOL    HW1 3029   4.674   3.153   1.710
  710SOL    HW2 3030   4.821   3.183   1.647
  711SOL     OW 3031   6.813   2.437   6.739
  711SOL    HW1 3032   6.773   2.387   6.663
  711SOL    HW2 3033   6.741   2.461   6.804
  712SOL     OW 3034   5.145   3.993   0.451
  712SOL    HW1 3035   5.134   3.973   0.548
  712SOL    HW2 3036   5.234   3.958   0.420
  713SOL     OW 3037   3.976   3.327   4.897
  713SOL    HW1 3038   3.979   3.248   4.836
  713SOL    HW2 3039   3.915   3.307   4.974
  714SOL     OW 3040   5.130   5.965   3.049
  714SOL    HW1 3041   5.036   5.938   3.032
  714SOL    HW2 3042   5.189   5.927   2.977
  715SOL     OW 3043   6.276   4.947   5.706
  715SOL    HW1 3044   6.184   4.935   5.669
  715SOL    HW2 3045   6.344   4.921   5.638
  716SOL     OW 3046   1.681   1.741   3.029
  716SOL    HW1 3047   1.671   1.693   2.942
  716SOL    HW2 3048   1.713   1.677   3.099
  717SOL     OW 3049   5.328   4.626   4.190
  717SOL    HW1 3050   5.267   4.546   4.195
  717SOL    HW2 3051   5.360   4.650   4.281
  718SOL     OW 3052   5.385   2.337   5.050
  718SOL    HW1 3053   5.401   2.333   4.951
  718SOL    HW2 3054   5.290   2.365   5.067
  719SOL     OW 3055   5.490   6.705   3.835
  719SOL    HW1 3056   5.419   6.729   3.902
  719SOL    HW2 3057   5.531   6.789   3.800
  720SOL     OW 3058   2.250   1.102   0.497
  720SOL    HW1 3059   2.244   1.182   0.557
  720SOL    HW2 3060   2.307   1.124   0.418
  721SOL     OW 3061   0.011   1.866   2.695
  721SOL    HW1 3062   0.091   1.825   2.739
  721SOL    HW2 3063   6.977   1.795   2.648
  722SOL     OW 3064   5.341   6.335   0.598
  722SOL    HW1 3065   5.364   6.338   0.501
  722SOL    HW2 3066   5.340   6.240   0.630
  723SOL     OW 3067   2.418   6.328   4.105
  723SOL    HW1 3068   2.458   6.384   4.177
  723SOL    HW2 3069   2.491   6.281   4.055
  724SOL     OW 3070   1.363   1.794   3.958
  724SOL    HW1 3071   1.311   1.870   3.997
  724SOL    HW2 3072   1.430   1.761   4.026
  725SOL     OW 3073   1.544   4.212   2.946
  725SOL    HW1 3074   1.458   4.186   2.991
  725SOL    HW2 3075   1.616   4.220   3.015
  726SOL     OW 3076   1.403   3.681   0.763
  726SOL    HW1 3077   1.482   3.665   0.822
  726SOL    HW2 3078   1.403   3.775   0.731
  727SOL     OW 3079   3.748   5.609   4.952
  727SOL    HW1 3080   3.670   5.650   5.000
  727SOL    HW2 3081   3.722   5.520   4.916
  728SOL     OW 3082   6.506   3.183   3.494
  728SOL    HW1 3083   6.437   3.111   3.486
  728SOL    HW2 3084   6.573   3.158   3.564
  729SOL     OW 3085   0.472   4.257   0.914
  729SOL    HW1 3086   0.387   4.262   0.966
  729SOL    HW2 3087   0.527   4.339   0.932
  730SOL     OW 3088   3.781   0.638   3.310
  730SOL    HW1 3089   3.774   0.560   3.248
  730SOL    HW2 3090   3.770   0.606   3.404
  731SOL     OW 3091   4.514   5.308   5.540
  731SOL    HW1 3092   4.541   5.282   5.447
  731SOL    HW2 3093   4.489   5.226   5.592
  732SOL     OW 3094   3.811   1.504   5.348
  732SOL    HW1 3095   3.782   1.497   5.253
  732SOL    HW2 3096   3.734   1.535   5.404
  733SOL     OW 3097   6.081   5.668   2.948
  733SOL    HW1 3098   6.005   5.718   2.989
  733SOL    HW2 3099   6.160   5.670   3.009
  734SOL     OW 3100   6.588   6.519   2.699
  734SOL    HW1 3101   6.509   6.469   2.662
  734SOL    HW2 3102   6.557   6.580   2.773
  735SOL     OW 3103   4.508   6.777   2.419
  735SOL    HW1 3104   4.494   6.690   2.372
  735SOL    HW2 3105   4.522   6.850   2.352
  736SOL     OW 3106   2.220   1.265   3.888
  736SOL    HW1 3107   2.190   1.169   3.880
  736SOL    HW2 3108   2.150   1.318   3.935
  737SOL     OW 3109   3.792   0.567   5.967
  737SOL    HW1 3110   3.804   0.469   5.950
  737SOL    HW2 3111   3.712   0.581   6.027
  738SOL     OW 3112   2.045   4.320   0.353
  738SOL    HW1 3113   2.037   4.332   0.254
  738SOL    HW2 3114   2.098   4.238   0.373
  739SOL     OW 3115   3.257   6.721   4.205
  739SOL    HW1 3116   3.197   6.760   4.135
  739SOL    HW2 3117   3.209   6.648   4.252
  740SOL     OW 3118   5.045   3.436   2.772
  740SOL    HW1 3119   5.072   3.349   2.813
  740SOL    HW2 3120   4.981   3.484   2.832
  741SOL     OW 3121   2.813   1.218   3.034
  741SOL    HW1 3122   2.732   1.195   2.980
  741SOL    HW2 3123   2.849   1.306   3.004
  742SOL     OW 3124   2.400   6.641   1.898
  742SOL    HW1 3125   2.453   6.674   1.820
  742SOL    HW2 3126   2.426   6.547   1.919
  743SOL     OW 3127   0.693   6.733   3.222
  743SOL    HW1 3128   0.687   6.696   3.315
  743SOL    HW2 3129   0.783   6.776   3.210
  744SOL     OW 3130   5.213   1.823   0.191
  744SOL    HW1 3131   5.123   1.834   0.232
  744SOL    HW2 3132   5.278   1.792   0.260
  745SOL     OW 3133   1.953   0.116   4.863
  745SOL    HW1 3134   1.963   0.174   4.944
  745SOL    HW2 3135   1.882   0.047   4.879
  746SOL     OW 3136   6.786   4.534   6.040
  746SOL    HW1 3137   6.845   4.549   5.961
  746SOL    HW2 3138   6.712   4.601   6.041
  747SOL     OW 3139   4.814   5.694   2.835
  747SOL    HW1 3140   4.843   5.600   2.851
  747SOL    HW2 3141   4.787   5.705   2.739
  748SOL     OW 3142   5.006   5.346   2.019
  748SOL    HW1 3143   5.079   5.412   2.002
  748SOL    HW2 3144   4.949   5.337   1.938
  749SOL     OW 3145   4.856   3.940   4.431
  749SOL    HW1 3146   4.853   3.852   4.383
  749SOL    HW2 3147   4.933   3.994   4.397
  750SOL     OW 3148   2.482   1.774   2.440
  750SOL    HW1 3149   2.400   1.821   2.405
  750SOL    HW2 3150   2.500   1.805   2.534
  751SOL     OW 3151   3.599   0.771   0.632
  751SOL    HW1 3152   3.562   0.830   0.561
  751SOL    HW2 3153   3.687   0.807   0.663
  752SOL     OW 3154   3.640   2.673   5.490
  752SOL    HW1 3155   3.562   2.687   5.430
  752SOL    HW2 3156   3.666   2.576   5.489
  753SOL     OW 3157   4.012   3.914   4.219
  753SOL    HW1 3158   4.043   3.926   4.125
  753SOL    HW2 3159   3.933   3.973   4.237
  754SOL     OW 3160   5.805   0.513   0.289
  754SOL    HW1 3161   5.808   0.497   0.190
  754SOL    HW2 3162   5.889   0.479   0.331
  755SOL     OW 3163   4.214   4.162   5.304
  755SOL    HW1 3164   4.208   4.246   5.250
  755SOL    HW2 3165   4.274   4.177   5.382
  756SOL     OW 3166   2.405   5.350   6.244
  756SOL    HW1 3167   2.331   5.394   6.193
  756SOL    HW2 3168   2.493   5.377   6.204
  757SOL     OW 3169   2.910   6.176   2.441
  757SOL    HW1 3170   2.907   6.082   2.476
  757SOL    HW2 3171   2.941   6.175   2.346
  758SOL     OW 3172   4.668   0.812   4.065
  758SOL    HW1 3173   4.641   0.869   4.143
  758SOL    HW2 3174   4.653   0.862   3.980
  759SOL     OW 3175   0.921   2.948   3.496
  759SOL    HW1 3176   1.006   2.976   3.541
  759SOL    HW2 3177   0.878   3.028   3.454
  760SOL     OW 3178   6.233   5.409   3.116
  760SOL    HW1 3179   6.309   5.435   3.175
  760SOL    HW2 3180   6.267   5.347   3.044
  761SOL     OW 3181   3.958   4.056   6.169
  761SOL    HW1 3182   3.889   4.042   6.097
  761SOL    HW2 3183   3.954   4.151   6.199
  762SOL     OW 3184   3.358   5.614   3.646
  762SOL    HW1 3185   3.368   5.530   3.700
  762SOL    HW2 3186   3.265   5.620   3.611
  763SOL     OW 3187   5.614   0.810   0.606
  763SOL    HW1 3188   5.622   0.864   0.690
  763SOL    HW2 3189   5.621   0.871   0.527
  764SOL     OW 3190   5.464   6.969   6.312
  764SOL    HW1 3191   5.455   6.905   6.389
  764SOL    HW2 3192   5.459   0.044   6.346
  765SOL     OW 3193   6.682   6.947   0.630
  765SOL    HW1 3194   6.725   6.901   0.708
  765SOL    HW2 3195   6.603   7.000   0.663
  766SOL     OW 3196   2.473   1.991   4.870
  766SOL    HW1 3197   2.465   2.043   4.955
  766SOL    HW2 3198   2.468   2.053   4.792
  767SOL     OW 3199   6.496   5.123   4.813
  767SOL    HW1 3200   6.482   5.204   4.756
  767SOL    HW2 3201   6.492   5.041   4.756
  768SOL     OW 3202   1.966   5.574   2.849
  768SOL    HW1 3203   1.919   5.627   2.919
  768SOL    HW2 3204   1.900   5.517   2.800
  769SOL     OW 3205   2.466   2.158   5.080
  769SOL    HW1 3206   2.467   2.145   5.179
  769SOL    HW2 3207   2.536   2.225   5.054
  770SOL     OW 3208   1.414   4.518   5.894
  770SOL    HW1 3209   1.360   4.532   5.811
  770SOL    HW2 3210   1.420   4.604   5.944
  771SOL     OW 3211   1.567   5.154   2.584
  771SOL    HW1 3212   1.520   5.096   2.517
  771SOL    HW2 3213   1.499   5.196   2.645
  772SOL     OW 3214   5.806   4.399   0.835
  772SOL    HW1 3215   5.764   4.311   0.859
  772SOL    HW2 3216   5.905   4.387   0.829
  773SOL     OW 3217   1.600   3.986   3.640
  773SOL    HW1 3218   1.510   4.003   3.599
  773SOL    HW2 3219   1.588   3.933   3.724
  774SOL     OW 3220   2.504   0.424   3.618
  774SOL    HW1 3221   2.451   0.433   3.702
  774SOL    HW2 3222   2.566   0.502   3.609
  775SOL     OW 3223   1.216   4.234   2.442
  775SOL    HW1 3224   1.178   4.161   2.499
  775SOL    HW2 3225   1.155   4.313   2.445
  776SOL     OW 3226   2.664   5.438   6.141
  776SOL    HW1 3227   2.648   5.525   6.094
  776SOL    HW2 3228   2.747   5.396   6.107
  777SOL     OW 3229   2.606   4.070   6.442
  777SOL    HW1 3230   2.546   4.042   6.518
  777SOL    HW2 3231   2.630   3.990   6.388
  778SOL     OW 3232   2.928   6.204   6.957
  778SOL    HW1 3233   2.866   6.193   0.017
  778SOL    HW2 3234   2.896   6.147   6.881
  779SOL     OW 3235   6.986   2.800   3.226
  779SOL    HW1 3236   6.977   2.766   3.320
  779SOL    HW2 3237   0.021   2.736   3.172
  780SOL     OW 3238   0.277   2.257   4.351
  780SOL    HW1 3239   0.295   2.186   4.418
  780SOL    HW2 3240   0.191   2.303   4.373
  781SOL     OW 3241   0.167   4.527   6.988
  781SOL    HW1 3242   0.186   4.435   0.003
  781SOL    HW2 3243   0.149   4.588   0.047
  782SOL     OW 3244   1.817   3.242   4.737
  782SOL    HW1 3245   1.909   3.207   4.723
  782SOL    HW2 3246   1.767   3.240   4.650
  783SOL     OW 3247   6.398   4.974   6.787
  783SOL    HW1 3248   6.424   4.889   6.833
  783SOL    HW2 3249   6.480   5.019   6.751
  784SOL     OW 3250   2.364   5.907   0.850
  784SOL    HW1 3251   2.432   5.879   0.918
  784SOL    HW2 3252   2.310   5.983   0.885
  785SOL     OW 3253   0.892   0.791   3.739
  785SOL    HW1 3254   0.813   0.837   3.699
  785SOL    HW2 3255   0.918   0.713   3.681
  786SOL     OW 3256   6.127   1.078   4.066
  786SOL    HW1 3257   6.204   1.112   4.120
  786SOL    HW2 3258   6.156   0.998   4.013
  787SOL     OW 3259   1.912   6.615   0.891
  787SOL    HW1 3260   1.986   6.678   0.913
  787SOL    HW2 3261   1.900   6.549   0.966
  788SOL     OW 3262   2.062   2.559   1.707
  788SOL    HW1 3263   2.073   2.650   1.667
  788SOL    HW2 3264   1.993   2.508   1.656
  789SOL     OW 3265   4.735   4.700   2.445
  789SOL    HW1 3266   4.832   4.717   2.433
  789SOL    HW2 3267   4.718   4.602   2.451
  790SOL     OW 3268   1.030   2.554   2.382
  790SOL    HW1 3269   1.082   2.586   2.303
  790SOL    HW2 3270   1.046   2.615   2.460
  791SOL     OW 3271   2.992   6.037   3.832
  791SOL    HW1 3272   3.072   6.031   3.772
  791SOL    HW2 3273   2.911   6.006   3.783
  792SOL     OW 3274   1.591   0.385   0.101
  792SOL    HW1 3275   1.600   0.374   0.200
  792SOL    HW2 3276   1.570   0.480   0.079
  793SOL     OW 3277   2.932   6.202   4.036
  793SOL    HW1 3278   2.865   6.271   4.012
  793SOL    HW2 3279   2.925   6.124   3.973
  794SOL     OW 3280   3.728   3.491   2.345
  794SOL    HW1 3281   3.630   3.480   2.327
  794SOL    HW2 3282   3.777   3.499   2.258
  795SOL     OW 3283   3.700   0.557   6.297
  795SOL    HW1 3284   3.643   0.634   6.326
  795SOL    HW2 3285   3.796   0.587   6.290
  796SOL     OW 3286   0.676   2.686   0.631
  796SOL    HW1 3287   0.647   2.678   0.535
  796SOL    HW2 3288   0.601   2.723   0.686
  797SOL     OW 3289   4.552   0.386   0.761
  797SOL    HW1 3290   4.574   0.408   0.666
  797SOL    HW2 3291   4.517   0.293   0.766
  798SOL     OW 3292   5.173   6.277   0.895
  798SOL    HW1 3293   5.203   6.297   0.988
  798SOL    HW2 3294   5.215   6.192   0.863
  799SOL     OW 3295   2.526   1.810   5.646
  799SOL    HW1 3296   2.580   1.851   5.720
  799SOL    HW2 3297   2.518   1.874   5.570
  800SOL     OW 3298   5.687   2.900   2.923
  800SOL    HW1 3299   5.598   2.858   2.936
  800SOL    HW2 3300   5.684   2.995   2.954
  801SOL     OW 3301   2.283   5.770   6.057
  801SOL    HW1 3302   2.278   5.772   5.957
  801SOL    HW2 3303   2.215   5.831   6.095
  802SOL     OW 3304   5.368   2.261   6.825
  802SOL    HW1 3305   5.283   2.311   6.833
  802SOL    HW2 3306   5.378   2.200   6.904
  803SOL     OW 3307   2.469   1.323   4.762
  803SOL    HW1 3308   2.476   1.243   4.703
  803SOL    HW2 3309   2.392   1.313   4.824
  804SOL     OW 3310   5.145   0.354   3.088
  804SOL    HW1 3311   5.179   0.312   3.004
  804SOL    HW2 3312   5.121   0.449   3.070
  805SOL     OW 3313   3.564   0.911   4.082
  805SOL    HW1 3314   3.496   0.910   4.008
  805SOL    HW2 3315   3.559   0.824   4.132
  806SOL     OW 3316   2.380   6.055   5.274
  806SOL    HW1 3317   2.350   6.149   5.257
  806SOL    HW2 3318   2.474   6.056   5.309
  807SOL     OW 3319   1.524   6.238   6.019
  807SOL    HW1 3320   1.519   6.246   5.919
  807SOL    HW2 3321   1.436   6.264   6.059
  808SOL     OW 3322   4.981   2.807   6.031
  808SOL    HW1 3323   4.940   2.892   5.997
  808SOL    HW2 3324   4.918   2.762   6.094
  809SOL     OW 3325   2.428   5.058   0.108
  809SOL    HW1 3326   2.391   5.125   0.043
  809SOL    HW2 3327   2.433   5.098   0.199
  810SOL     OW 3328   3.642   3.202   6.816
  810SOL    HW1 3329   3.558   3.227   6.767
  810SOL    HW2 3330   3.644   3.103   6.829
  811SOL     OW 3331   6.118   5.013   4.829
  811SOL    HW1 3332   6.141   5.109   4.817
  811SOL    HW2 3333   6.156   4.960   4.753
  812SOL     OW 3334   0.624   3.626   1.918
  812SOL    HW1 3335   0.681   3.583   1.988
  812SOL    HW2 3336   0.631   3.576   1.833
  813SOL     OW 3337   1.677   2.092   5.056
  813SOL    HW1 3338   1.655   2.103   5.153
  813SOL    HW2 3339   1.761   2.038   5.047
  814SOL     OW 3340   0.647   5.269   2.574
  814SOL    HW1 3341   0.574   5.246   2.638
  814SOL    HW2 3342   0.641   5.366   2.550
  815SOL     OW 3343   4.283   1.664   4.681
  815SOL    HW1 3344   4.268   1.749   4.732
  815SOL    HW2 3345   4.312   1.592   4.743
  816SOL     OW 3346   6.080   4.747   6.849
  816SOL    HW1 3347   6.033   4.678   6.904
  816SOL    HW2 3348   6.025   4.831   6.846
  817SOL     OW 3349   0.567   4.612   6.960
  817SOL    HW1 3350   0.599   4.622   0.036
  817SOL    HW2 3351   0.607   4.529   6.921
  818SOL     OW 3352   6.655   2.088   4.599
  818SOL    HW1 3353   6.732   2.135   4.642
  818SOL    HW2 3354   6.598   2.045   4.670
  819SOL     OW 3355   4.963   2.969   1.900
  819SOL    HW1 3356   5.000   2.884   1.863
  819SOL    HW2 3357   4.872   2.953   1.937
  820SOL     OW 3358   2.558   1.506   5.227
  820SOL    HW1 3359   2.534   1.419   5.271
  820SOL    HW2 3360   2.652   1.501   5.193
  821SOL     OW 3361   5.038   3.432   6.666
  821SOL    HW1 3362   4.983   3.456   6.586
  821SOL    HW2 3363   5.135   3.439   6.642
  822SOL     OW 3364   0.490   4.836   3.390
  822SOL    HW1 3365   0.439   4.883   3.462
  822SOL    HW2 3366   0.587   4.858   3.397
  823SOL     OW 3367   1.051   3.501   4.844
  823SOL    HW1 3368   1.087   3.409   4.858
  823SOL    HW2 3369   0.956   3.495   4.810
  824SOL     OW 3370   4.732   0.748   6.794
  824SOL    HW1 3371   4.681   0.828   6.762
  824SOL    HW2 3372   4.828   0.771   6.803
  825SOL     OW 3373   5.960   5.801   0.916
  825SOL    HW1 3374   5.958   5.773   1.012
  825SOL    HW2 3375   6.054   5.797   0.883
  826SOL     OW 3376   3.617   2.123   0.097
  826SOL    HW1 3377   3.583   2.187   0.166
  826SOL    HW2 3378   3.668   2.174   0.028
  827SOL     OW 3379   3.801   3.770   5.386
  827SOL    HW1 3380   3.832   3.726   5.302
  827SOL    HW2 3381   3.880   3.805   5.436
  828SOL     OW 3382   0.083   6.491   6.325
  828SOL    HW1 3383   0.014   6.419   6.314
  828SOL    HW2 3384   0.166   6.452   6.364
  829SOL     OW 3385   3.303   3.232   2.499
  829SOL    HW1 3386   3.302   3.308   2.563
  829SOL    HW2 3387   3.311   3.267   2.405
  830SOL     OW 3388   0.015   4.389   0.258
  830SOL    HW1 3389   0.037   4.487   0.253
  830SOL    HW2 3390   6.935   4.377   0.256
  831SOL     OW 3391   4.851   0.502   2.084
  831SOL    HW1 3392   4.839   0.598   2.062
  831SOL    HW2 3393   4.826   0.446   2.005
  832SOL     OW 3394   2.995   1.685   4.813
  832SOL    HW1 3395   2.930   1.750   4.772
  832SOL    HW2 3396   2.981   1.594   4.773
  833SOL     OW 3397   3.933   2.472   0.229
  833SOL    HW1 3398   3.954   2.379   0.198
  833SOL    HW2 3399   3.834   2.485   0.230
  834SOL     OW 3400   6.158   2.845   0.343
  834SOL    HW1 3401   6.158   2.945   0.339
  834SOL    HW2 3402   6.066   2.813   0.366
  835SOL     OW 3403   0.261   0.407   4.695
  835SOL    HW1 3404   0.168   0.397   4.730
  835SOL    HW2 3405   0.323   0.349   4.747
  836SOL     OW 3406   5.273   0.760   4.817
  836SOL    HW1 3407   5.321   0.845   4.839
  836SOL    HW2 3408   5.192   0.751   4.875
  837SOL     OW 3409   1.523   0.646   0.081
  837SOL    HW1 3410   1.566   0.688   0.001
  837SOL    HW2 3411   1.588   0.643   0.157
  838SOL     OW 3412   1.082   5.764   3.261
  838SOL    HW1 3413   1.051   5.858   3.274
  838SOL    HW2 3414   1.011   5.712   3.213
  839SOL     OW 3415   1.570   2.033   0.365
  839SOL    HW1 3416   1.495   1.975   0.332
  839SOL    HW2 3417   1.574   2.117   0.311
  840SOL     OW 3418   4.977   5.199   6.998
  840SOL    HW1 3419   5.008   5.250   0.061
  840SOL    HW2 3420   4.946   5.264   6.929
  841SOL     OW 3421   2.760   4.532   0.147
  841SOL    HW1 3422   2.682   4.538   0.210
  841SOL    HW2 3423   2.845   4.550   0.197
  842SOL     OW 3424   4.093   5.468   0.568
  842SOL    HW1 3425   4.109   5.450   0.665
  842SOL    HW2 3426   4.126   5.391   0.513
  843SOL     OW 3427   1.053   0.719   2.233
  843SOL    HW1 3428   0.981   0.655   2.205
  843SOL    HW2 3429   1.013   0.809   2.251
  844SOL     OW 3430   6.827   0.769   1.429
  844SOL    HW1 3431   6.909   0.797   1.480
  844SOL    HW2 3432   6.854   0.730   1.341
  845SOL     OW 3433   3.257   1.287   2.706
  845SOL    HW1 3434   3.339   1.270   2.651
  845SOL    HW2 3435   3.225   1.381   2.691
  846SOL     OW 3436   2.961   2.231   0.825
  846SOL    HW1 3437   2.895   2.181   0.881
  846SOL    HW2 3438   3.032   2.271   0.884
  847SOL     OW 3439   2.545   3.873   1.652
  847SOL    HW1 3440   2.456   3.841   1.684
  847SOL    HW2 3441   2.556   3.970   1.674
  848SOL     OW 3442   0.130   6.065   0.628
  848SOL    HW1 3443   0.171   6.096   0.543
  848SOL    HW2 3444   0.035   6.038   0.611
  849SOL     OW 3445   6.191   3.440   6.480
  849SOL    HW1 3446   6.130   3.398   6.547
  849SOL    HW2 3447   6.140   3.457   6.395
  850SOL     OW 3448   0.998   0.564   5.309
  850SOL    HW1 3449   1.004   0.582   5.211
  850SOL    HW2 3450   0.986   0.650   5.358
  851SOL     OW 3451   5.879   3.654   6.013
  851SOL    HW1 3452   5.952   3.648   6.082
  851SOL    HW2 3453   5.792   3.675   6.058
  852SOL     OW 3454   0.587   4.016   1.943
  852SOL    HW1 3455   0.518   3.947   1.964
  852SOL    HW2 3456   0.671   3.996   1.994
  853SOL     OW 3457   2.468   2.387   0.077
  853SOL    HW1 3458   2.534   2.313   0.060
  853SOL    HW2 3459   2.442   2.429   7.009
  854SOL     OW 3460   5.874   6.082   6.041
  854SOL    HW1 3461   5.968   6.110   6.021
  854SOL    HW2 3462   5.853   5.996   5.995
  855SOL     OW 3463   5.400   1.749   0.387
  855SOL    HW1 3464   5.388   1.669   0.445
  855SOL    HW2 3465   5.457   1.725   0.308
  856SOL     OW 3466   1.472   5.295   1.437
  856SOL    HW1 3467   1.540   5.222   1.452
  856SOL    HW2 3468   1.393   5.257   1.388
  857SOL     OW 3469   0.015   5.906   5.106
  857SOL    HW1 3470   7.008   5.998   5.135
  857SOL    HW2 3471   0.029   5.904   5.007
  858SOL     OW 3472   4.304   3.406   0.054
  858SOL    HW1 3473   4.342   3.393   0.145
  858SOL    HW2 3474   4.205   3.418   0.060
  859SOL     OW 3475   4.923   6.506   5.168
  859SOL    HW1 3476   5.002   6.532   5.224
  859SOL    HW2 3477   4.840   6.541   5.210
  860SOL     OW 3478   4.843   3.308   6.086
  860SOL    HW1 3479   4.838   3.271   6.179
  860SOL    HW2 3480   4.811   3.403   6.086
  861SOL     OW 3481   2.088   5.937   1.862
  861SOL    HW1 3482   2.127   5.923   1.771
  861SOL    HW2 3483   2.152   5.902   1.931
  862SOL     OW 3484   0.322   4.075   4.178
  862SOL    HW1 3485   0.253   4.061   4.107
  862SOL    HW2 3486   0.397   4.130   4.141
  863SOL     OW 3487   6.270   0.602   1.223
  863SOL    HW1 3488   6.188   0.608   1.281
  863SOL    HW2 3489   6.322   0.687   1.230
  864SOL     OW 3490   5.652   6.344   4.447
  864SOL    HW1 3491   5.678   6.428   4.399
  864SOL    HW2 3492   5.554   6.329   4.436
  865SOL     OW 3493   1.455   5.891   5.472
  865SOL    HW1 3494   1.380   5.839   5.432
  865SOL    HW2 3495   1.525   5.907   5.402
  866SOL     OW 3496   3.487   0.225   1.759
  866SOL    HW1 3497   3.431   0.288   1.812
  866SOL    HW2 3498   3.427   0.158   1.714
  867SOL     OW 3499   5.570   2.019   6.200
  867SOL    HW1 3500   5.538   2.065   6.116
  867SOL    HW2 3501   5.564   2.083   6.277
  868SOL     OW 3502   0.186   2.058   2.252
  868SOL    HW1 3503   0.197   2.029   2.347
  868SOL    HW2 3504   0.163   2.155   2.250
  869SOL     OW 3505   0.118   3.799   3.643
  869SOL    HW1 3506   0.147   3.704   3.636
  869SOL    HW2 3507   0.059   3.810   3.723
  870SOL     OW 3508   3.315   5.369   2.067
  870SOL    HW1 3509   3.243   5.301   2.079
  870SOL    HW2 3510   3.394   5.326   2.023
  871SOL     OW 3511   4.718   1.419   3.315
  871SOL    HW1 3512   4.662   1.469   3.382
  871SOL    HW2 3513   4.719   1.322   3.338
  872SOL     OW 3514   0.733   2.084   4.718
  872SOL    HW1 3515   0.740   1.990   4.749
  872SOL    HW2 3516   0.807   2.104   4.653
  873SOL     OW 3517   4.236   7.001   6.147
  873SOL    HW1 3518   4.302   0.052   6.117
  873SOL    HW2 3519   4.281   6.912   6.152
  874SOL     OW 3520   4.734   4.113   1.271
  874SOL    HW1 3521   4.748   4.042   1.201
  874SOL    HW2 3522   4.647   4.095   1.318
  875SOL     OW 3523   5.101   5.411   1.427
  875SOL    HW1 3524   5.118   5.439   1.522
  875SOL    HW2 3525   5.081   5.492   1.373
  876SOL     OW 3526   6.938   6.964   0.995
  876SOL    HW1 3527   6.897   6.873   0.982
  876SOL    HW2 3528   0.019   6.955   1.002
  877SOL     OW 3529   1.801   3.267   6.349
  877SOL    HW1 3530   1.897   3.292   6.344
  877SOL    HW2 3531   1.792   3.167   6.354
  878SOL     OW 3532   4.396   6.394   4.597
  878SOL    HW1 3533   4.475   6.361   4.545
  878SOL    HW2 3534   4.317   6.337   4.577
  879SOL     OW 3535   5.919   0.005   0.710
  879SOL    HW1 3536   5.973   7.002   0.792
  879SOL    HW2 3537   5.980   0.014   0.632
  880SOL     OW 3538   2.816   3.491   2.228
  880SOL    HW1 3539   2.724   3.494   2.268
  880SOL    HW2 3540   2.811   3.508   2.130
  881SOL     OW 3541   4.303   1.703   0.480
  881SOL    HW1 3542   4.243   1.676   0.555
  881SOL    HW2 3543   4.253   1.698   0.394
  882SOL     OW 3544   1.447   3.180   4.350
  882SOL    HW1 3545   1.373   3.191   4.416
  882SOL    HW2 3546   1.529   3.226   4.384
  883SOL     OW 3547   2.616   7.004   2.550
  883SOL    HW1 3548   2.524   6.968   2.564
  883SOL    HW2 3549   2.683   6.931   2.563
  884SOL     OW 3550   4.648   3.559   5.792
  884SOL    HW1 3551   4.608   3.474   5.758
  884SOL    HW2 3552   4.683   3.613   5.716
  885SOL     OW 3553   3.801   2.604   6.150
  885SOL    HW1 3554   3.845   2.518   6.177
  885SOL    HW2 3555   3.737   2.586   6.075
  886SOL     OW 3556   3.407   0.421   6.739
  886SOL    HW1 3557   3.443   0.475   6.664
  886SOL    HW2 3558   3.460   0.438   6.822
  887SOL     OW 3559   5.010   1.419   4.256
  887SOL    HW1 3560   5.020   1.367   4.341
  887SOL    HW2 3561   5.013   1.517   4.276
  888SOL     OW 3562   6.678   6.595   3.118
  888SOL    HW1 3563   6.755   6.553   3.071
  888SOL    HW2 3564   6.677   6.567   3.214
  889SOL     OW 3565   0.708   3.510   6.668
  889SOL    HW1 3566   0.658   3.594   6.646
  889SOL    HW2 3567   0.646   3.446   6.714
  890SOL     OW 3568   2.259   4.929   4.018
  890SOL    HW1 3569   2.163   4.956   4.032
  890SOL    HW2 3570   2.318   4.996   4.063
  891SOL     OW 3571   4.765   5.983   1.454
  891SOL    HW1 3572   4.775   5.966   1.356
  891SOL    HW2 3573   4.668   5.985   1.479
  892SOL     OW 3574   2.765   4.269   0.368
  892SOL    HW1 3575   2.864   4.281   0.380
  892SOL    HW2 3576   2.717   4.320   0.439
  893SOL     OW 3577   2.361   6.605   2.421
  893SOL    HW1 3578   2.459   6.619   2.404
  893SOL    HW2 3579   2.331   6.521   2.375
  894SOL     OW 3580   0.726   4.230   0.749
  894SOL    HW1 3581   0.765   4.157   0.805
  894SOL    HW2 3582   0.632   4.248   0.776
  895SOL     OW 3583   0.627   5.631   3.974
  895SOL    HW1 3584   0.573   5.654   3.892
  895SOL    HW2 3585   0.616   5.534   3.995
  896SOL     OW 3586   6.769   6.922   5.898
  896SOL    HW1 3587   6.672   6.942   5.881
  896SOL    HW2 3588   6.792   6.833   5.859
  897SOL     OW 3589   5.124   1.242   6.918
  897SOL    HW1 3590   5.216   1.277   6.901
  897SOL    HW2 3591   5.128   1.143   6.934
  898SOL     OW 3592   4.194   5.954   3.042
  898SOL    HW1 3593   4.278   5.911   3.076
  898SOL    HW2 3594   4.181   6.042   3.087
  899SOL     OW 3595   0.278   5.070   0.252
  899SOL    HW1 3596   0.360   5.012   0.251
  899SOL    HW2 3597   0.219   5.046   0.175
  900SOL     OW 3598   5.121   5.207   0.629
  900SOL    HW1 3599   5.148   5.111   0.633
  900SOL    HW2 3600   5.202   5.265   0.640
  901SOL     OW 3601   1.464   1.063   2.481
  901SOL    HW1 3602   1.397   1.109   2.540
  901SOL    HW2 3603   1.537   1.127   2.457
  902SOL     OW 3604   6.145   3.649   1.797
  902SOL    HW1 3605   6.097   3.727   1.837
  902SOL    HW2 3606   6.078   3.580   1.770
  903SOL     OW 3607   0.274   2.482   0.798
  903SOL    HW1 3608   0.293   2.465   0.702
  903SOL    HW2 3609   0.221   2.567   0.807
  904SOL     OW 3610   2.932   1.563   2.324
  904SOL    HW1 3611   2.844   1.601   2.353
  904SOL    HW2 3612   3.006   1.608   2.374
  905SOL     OW 3613   6.143   2.903   6.406
  905SOL    HW1 3614   6.139   2.889   6.307
  905SOL    HW2 3615   6.225   2.957   6.428
  906SOL     OW 3616   6.114   3.836   6.865
  906SOL    HW1 3617   6.064   3.785   6.795
  906SOL    HW2 3618   6.084   3.806   6.955
  907SOL     OW 3619   5.374   4.124   0.128
  907SOL    HW1 3620   5.447   4.183   0.164
  907SOL    HW2 3621   5.320   4.175   0.061
  908SOL     OW 3622   1.344   4.189   2.204
  908SOL    HW1 3623   1.298   4.247   2.136
  908SOL    HW2 3624   1.298   4.199   2.292
  909SOL     OW 3625   5.101   5.217   6.703
  909SOL    HW1 3626   5.002   5.210   6.694
  909SOL    HW2 3627   5.145   5.148   6.645
  910SOL     OW 3628   2.325   3.801   0.944
  910SOL    HW1 3629   2.256   3.846   0.888
  910SOL    HW2 3630   2.280   3.760   1.024
  911SOL     OW 3631   1.184   5.227   6.354
  911SOL    HW1 3632   1.092   5.236   6.314
  911SOL    HW2 3633   1.201   5.131   6.377
  912SOL     OW 3634   5.013   2.090   2.960
  912SOL    HW1 3635   4.955   2.133   2.890
  912SOL    HW2 3636   4.959   2.076   3.043
  913SOL     OW 3637   4.973   6.632   2.922
  913SOL    HW1 3638   4.974   6.732   2.933
  913SOL    HW2 3639   4.879   6.598   2.930
  914SOL     OW 3640   2.908   0.059   0.113
  914SOL    HW1 3641   2.833   0.125   0.109
  914SOL    HW2 3642   2.967   0.079   0.191
  915SOL     OW 3643   5.586   5.224   0.643
  915SOL    HW1 3644   5.664   5.288   0.640
  915SOL    HW2 3645   5.593   5.160   0.567
  916SOL     OW 3646   1.268   2.175   2.397
  916SOL    HW1 3647   1.300   2.135   2.482
  916SOL    HW2 3648   1.265   2.104   2.326
  917SOL     OW 3649   6.803   6.723   0.766
  917SOL    HW1 3650   6.835   6.684   0.853
  917SOL    HW2 3651   6.854   6.681   0.691
  918SOL     OW 3652   2.181   5.422   0.260
  918SOL    HW1 3653   2.218   5.355   0.195
  918SOL    HW2 3654   2.102   5.468   0.219
  919SOL     OW 3655   5.731   2.310   4.780
  919SOL    HW1 3656   5.831   2.301   4.781
  919SOL    HW2 3657   5.689   2.221   4.766
  920SOL     OW 3658   2.690   5.469   2.210
  920SOL    HW1 3659   2.624   5.504   2.277
  920SOL    HW2 3660   2.655   5.384   2.171
  921SOL     OW 3661   4.931   5.039   5.114
  921SOL    HW1 3662   5.028   5.021   5.098
  921SOL    HW2 3663   4.904   5.123   5.066
  922SOL     OW 3664   3.572   2.864   3.576
  922SOL    HW1 3665   3.560   2.941   3.639
  922SOL    HW2 3666   3.503   2.870   3.503
  923SOL     OW 3667   2.257   3.579   5.291
  923SOL    HW1 3668   2.186   3.535   5.235
  923SOL    HW2 3669   2.298   3.511   5.351
  924SOL     OW 3670   0.359   3.836   2.811
  924SOL    HW1 3671   0.276   3.810   2.859
  924SOL    HW2 3672   0.438   3.797   2.858
  925SOL     OW 3673   6.946   1.909   6.946
  925SOL    HW1 3674   7.013   1.842   6.978
  925SOL    HW2 3675   6.862   1.900   6.999
  926SOL     OW 3676   1.394   1.481   2.071
  926SOL    HW1 3677   1.466   1.550   2.069
  926SOL    HW2 3678   1.381   1.444   1.979
  927SOL     OW 3679   5.905   3.624   3.795
  927SOL    HW1 3680   5.925   3.675   3.878
  927SOL    HW2 3681   5.841   3.676   3.738
  928SOL     OW 3682   3.097   4.826   6.160
  928SOL    HW1 3683   3.160   4.749   6.172
  928SOL    HW2 3684   3.150   4.909   6.138
  929SOL     OW 3685   6.807   1.106   5.182
  929SOL    HW1 3686   6.840   1.178   5.243
  929SOL    HW2 3687   6.884   1.054   5.146
  930SOL     OW 3688   5.702   4.778   6.176
  930SOL    HW1 3689   5.787   4.759   6.225
  930SOL    HW2 3690   5.644   4.696   6.177
  931SOL     OW 3691   6.371   1.660   3.325
  931SOL    HW1 3692   6.425   1.635   3.405
  931SOL    HW2 3693   6.421   1.729   3.272
  932SOL     OW 3694   3.755   0.542   3.565
  932SOL    HW1 3695   3.713   0.482   3.632
  932SOL    HW2 3696   3.779   0.629   3.608
  933SOL     OW 3697   1.170   5.661   1.596
  933SOL    HW1 3698   1.124   5.607   1.666
  933SOL    HW2 3699   1.269   5.663   1.615
  934SOL     OW 3700   1.317   3.680   0.091
  934SOL    HW1 3701   1.248   3.683   0.018
  934SOL    HW2 3702   1.285   3.621   0.165
  935SOL     OW 3703   6.005   3.201   3.908
  935SOL    HW1 3704   6.096   3.228   3.941
  935SOL    HW2 3705   5.953   3.162   3.984
  936SOL     OW 3706   1.482   6.940   6.062
  936SOL    HW1 3707   1.535   6.902   5.986
  936SOL    HW2 3708   1.475   0.020   6.052
  937SOL     OW 3709   3.929   1.643   5.852
  937SOL    HW1 3710   3.997   1.572   5.837
  937SOL    HW2 3711   3.856   1.634   5.785
  938SOL     OW 3712   5.938   5.497   4.185
  938SOL    HW1 3713   5.838   5.486   4.188
  938SOL    HW2 3714   5.965   5.530   4.095
  939SOL     OW 3715   7.018   6.658   6.122
  939SOL    HW1 3716   0.044   6.616   6.202
  939SOL    HW2 3717   0.063   6.657   6.045
  940SOL     OW 3718   2.111   4.753   6.931
  940SOL    HW1 3719   2.103   4.719   0.006
  940SOL    HW2 3720   2.170   4.834   6.930
  941SOL     OW 3721   3.628   0.644   0.180
  941SOL    HW1 3722   3.704   0.656   0.244
  941SOL    HW2 3723   3.632   0.714   0.109
  942SOL     OW 3724   7.017   5.377   0.469
  942SOL    HW1 3725   0.068   5.320   0.424
  942SOL    HW2 3726   6.942   5.395   0.405
  943SOL     OW 3727   3.365   5.615   1.694
  943SOL    HW1 3728   3.421   5.649   1.618
  943SOL    HW2 3729   3.363   5.683   1.767
  944SOL     OW 3730   6.382   6.717   4.183
  944SOL    HW1 3731   6.348   6.662   4.106
  944SOL    HW2 3732   6.474   6.751   4.161
  945SOL     OW 3733   0.977   5.744   7.017
  945SOL    HW1 3734   0.972   5.739   6.917
  945SOL    HW2 3735   0.885   5.757   0.035
  946SOL     OW 3736   5.086   2.820   4.236
  946SOL    HW1 3737   5.103   2.756   4.311
  946SOL    HW2 3738   5.172   2.841   4.190
  947SOL     OW 3739   4.013   3.886   3.940
  947SOL    HW1 3740   4.040   3.832   3.861
  947SOL    HW2 3741   3.935   3.944   3.917
  948SOL     OW 3742   4.304   0.852   2.368
  948SOL    HW1 3743   4.254   0.881   2.286
  948SOL    HW2 3744   4.325   0.932   2.424
  949SOL     OW 3745   2.860   6.989   6.104
  949SOL    HW1 3746   2.796   6.918   6.132
  949SOL    HW2 3747   2.836   0.004   6.013
  950SOL     OW 3748   6.853   0.291   2.183
  950SOL    HW1 3749   6.775   0.279   2.122
  950SOL    HW2 3750   6.932   0.243   2.145
  951SOL     OW 3751   2.370   6.682   3.248
  951SOL    HW1 3752   2.433   6.750   3.208
  951SOL    HW2 3753   2.418   6.631   3.320
  952SOL     OW 3754   3.063   1.097   2.733
  952SOL    HW1 3755   3.081   1.182   2.782
  952SOL    HW2 3756   3.135   1.082   2.666
  953SOL     OW 3757   6.599   4.694   5.926
  953SOL    HW1 3758   6.593   4.605   5.880
  953SOL    HW2 3759   6.507   4.734   5.933
  954SOL     OW 3760   4.392   5.608   2.830
  954SOL    HW1 3761   4.448   5.526   2.832
  954SOL    HW2 3762   4.307   5.592   2.881
  955SOL     OW 3763   1.869   4.860   0.121
  955SOL    HW1 3764   1.796   4.917   0.083
  955SOL    HW2 3765   1.835   4.768   0.138
  956SOL     OW 3766   4.970   0.523   1.208
  956SOL    HW1 3767   4.948   0.609   1.162
  956SOL    HW2 3768   4.887   0.483   1.246
  957SOL     OW 3769   5.880   0.962   3.416
  957SOL    HW1 3770   5.890   0.906   3.334
  957SOL    HW2 3771   5.940   0.926   3.488
  958SOL     OW 3772   5.296   7.000   1.733
  958SOL    HW1 3773   5.210   6.989   1.782
  958SOL    HW2 3774   5.282   0.045   1.656
  959SOL     OW 3775   4.187   6.713   4.092
  959SOL    HW1 3776   4.278   6.754   4.096
  959SOL    HW2 3777   4.121   6.783   4.062
  960SOL     OW 3778   1.708   6.753   6.492
  960SOL    HW1 3779   1.648   6.789   6.421
  960SOL    HW2 3780   1.782   6.818   6.511
  961SOL     OW 3781   3.387   6.975   3.183
  961SOL    HW1 3782   3.368   6.880   3.209
  961SOL    HW2 3783   3.464   6.977   3.120
  962SOL     OW 3784   6.195   0.650   4.749
  962SOL    HW1 3785   6.270   0.584   4.759
  962SOL    HW2 3786   6.222   0.722   4.685
  963SOL     OW 3787   5.425   3.205   1.026
  963SOL    HW1 3788   5.417   3.166   0.935
  963SOL    HW2 3789   5.339   3.190   1.077
  964SOL     OW 3790   4.581   5.008   5.449
  964SOL    HW1 3791   4.681   5.000   5.449
  964SOL    HW2 3792   4.553   5.075   5.380
  965SOL     OW 3793   5.704   2.509   3.320
  965SOL    HW1 3794   5.654   2.424   3.339
  965SOL    HW2 3795   5.674   2.580   3.383
  966SOL     OW 3796   4.390   1.333   4.484
  966SOL    HW1 3797   4.488   1.349   4.470
  966SOL    HW2 3798   4.338   1.381   4.413
  967SOL     OW 3799   4.637   3.878   6.281
  967SOL    HW1 3800   4.610   3.796   6.330
  967SOL    HW2 3801   4.592   3.880   6.192
  968SOL     OW 3802   3.940   0.542   1.446
  968SOL    HW1 3803   3.942   0.466   1.510
  968SOL    HW2 3804   3.846   0.558   1.415
  969SOL     OW 3805   3.084   4.237   6.661
  969SOL    HW1 3806   3.103   4.253   6.564
  969SOL    HW2 3807   3.113   4.144   6.685
  970SOL     OW 3808   5.192   6.776   5.940
  970SOL    HW1 3809   5.285   6.779   5.976
  970SOL    HW2 3810   5.136   6.716   5.997
  971SOL     OW 3811   5.273   3.603   3.279
  971SOL    HW1 3812   5.278   3.554   3.366
  971SOL    HW2 3813   5.248   3.539   3.206
  972SOL     OW 3814   0.083   2.936   0.663
  972SOL    HW1 3815   0.053   3.019   0.710
  972SOL    HW2 3816   0.025   2.920   0.583
  973SOL     OW 3817   0.279   3.053   6.097
  973SOL    HW1 3818   0.375   3.043   6.121
  973SOL    HW2 3819   0.262   3.146   6.067
  974SOL     OW 3820   6.980   4.897   2.859
  974SOL    HW1 3821   0.004   4.977   2.818
  974SOL    HW2 3822   0.011   4.872   2.943
  975SOL     OW 3823   3.383   0.775   1.874
  975SOL    HW1 3824   3.477   0.805   1.887
  975SOL    HW2 3825   3.359   0.780   1.777
  976SOL     OW 3826   6.968   3.494   3.338
  976SOL    HW1 3827   6.955   3.487   3.436
  976SOL    HW2 3828   6.973   3.402   3.298
  977SOL     OW 3829   6.598   0.562   2.202
  977SOL    HW1 3830   6.562   0.469   2.212
  977SOL    HW2 3831   6.660   0.582   2.279
  978SOL     OW 3832   5.265   3.227   2.219
  978SOL    HW1 3833   5.258   3.326   2.228
  978SOL    HW2 3834   5.203   3.195   2.147
  979SOL     OW 3835   0.379   4.173   6.742
  979SOL    HW1 3836   0.352   4.116   6.820
  979SOL    HW2 3837   0.352   4.127   6.657
  980SOL     OW 3838   3.459   1.211   4.424
  980SOL    HW1 3839   3.499   1.150   4.492
  980SOL    HW2 3840   3.372   1.247   4.459
  981SOL     OW 3841   0.221   7.000   5.582
  981SOL    HW1 3842   0.291   0.041   5.621
  981SOL    HW2 3843   0.148   6.985   5.649
  982SOL     OW 3844   5.912   1.119   5.709
  982SOL    HW1 3845   5.839   1.103   5.774
  982SOL    HW2 3846   5.886   1.083   5.619
  983SOL     OW 3847   0.539   5.009   4.055
  983SOL    HW1 3848   0.634   4.988   4.032
  983SOL    HW2 3849   0.528   5.108   4.065
  984SOL     OW 3850   0.472   3.355   3.833
  984SOL    HW1 3851   0.453   3.327   3.738
  984SOL    HW2 3852   0.386   3.367   3.882
  985SOL     OW 3853   6.200   4.857   5.269
  985SOL    HW1 3854   6.289   4.903   5.274
  985SOL    HW2 3855   6.157   4.859   5.359
  986SOL     OW 3856   4.878   5.226   1.557
  986SOL    HW1 3857   4.847   5.294   1.623
  986SOL    HW2 3858   4.939   5.270   1.490
  987SOL     OW 3859   4.562   4.468   4.351
  987SOL    HW1 3860   4.551   4.515   4.264
  987SOL    HW2 3861   4.624   4.390   4.339
  988SOL     OW 3862   2.300   4.556   1.841
  988SOL    HW1 3863   2.268   4.563   1.935
  988SOL    HW2 3864   2.395   4.588   1.835
  989SOL     OW 3865   1.213   1.851   0.840
  989SOL    HW1 3866   1.286   1.823   0.777
  989SOL    HW2 3867   1.212   1.789   0.918
  990SOL     OW 3868   3.706   0.176   4.162
  990SOL    HW1 3869   3.662   0.108   4.221
  990SOL    HW2 3870   3.802   0.187   4.188
  991SOL     OW 3871   6.985   5.511   3.584
  991SOL    HW1 3872   6.898   5.534   3.628
  991SOL    HW2 3873   6.969   5.495   3.487
  992SOL     OW 3874   6.794   2.223   0.257
  992SOL    HW1 3875   6.837   2.298   0.307
  992SOL    HW2 3876   6.800   2.139   0.312
  993SOL     OW 3877   1.608   5.125   6.895
  993SOL    HW1 3878   1.606   5.074   6.981
  993SOL    HW2 3879   1.576   5.218   6.910
  994SOL     OW 3880   3.403   5.854   0.183
  994SOL    HW1 3881   3.454   5.895   0.258
  994SOL    HW2 3882   3.346   5.924   0.139
  995SOL     OW 3883   6.197   4.226   6.342
  995SOL    HW1 3884   6.221   4.322   6.323
  995SOL    HW2 3885   6.265   4.166   6.300
  996SOL     OW 3886   3.984   5.494   4.513
  996SOL    HW1 3887   4.002   5.556   4.436
  996SOL    HW2 3888   3.971   5.548   4.596
  997SOL     OW 3889   1.616   6.487   3.379
  997SOL    HW1 3890   1.580   6.438   3.300
  997SOL    HW2 3891   1.557   6.469   3.458
  998SOL     OW 3892   5.059   0.595   6.264
  998SOL    HW1 3893   4.960   0.608   6.258
  998SOL    HW2 3894   5.084   0.510   6.217
  999SOL     OW 3895   4.878   3.737   2.753
  999SOL    HW1 3896   4.869   3.701   2.660
  999SOL    HW2 3897   4.975   3.747   2.776
 1000SOL     OW 3898   5.067   2.642   1.504
 1000SOL    HW1 3899   5.128   2.563   1.499
 1000SOL    HW2 3900   5.068   2.679   1.597
 1001SOL     OW 3901   2.978   0.194   2.394
 1001SOL    HW1 3902   3.037   0.206   2.314
 1001SOL    HW2 3903   2.883   0.183   2.363
 1002SOL     OW 3904   5.302   2.284   1.259
 1002SOL    HW1 3905   5.373   2.224   1.224
 1002SOL    HW2 3906   5.215   2.262   1.215
 1003SOL     OW 3907   0.569   0.627   3.192
 1003SOL    HW1 3908   0.643   0.611   3.257
 1003SOL    HW2 3909   0.536   0.721   3.202
 1004SOL     OW 3910   5.113   1.567   3.973
 1004SOL    HW1 3911   5.105   1.468   3.958
 1004SOL    HW2 3912   5.154   1.610   3.892
 1005SOL     OW 3913   1.607   4.907   2.041
 1005SOL    HW1 3914   1.531   4.897   1.976
 1005SOL    HW2 3915   1.636   5.003   2.045
 1006SOL     OW 3916   2.419   3.992   1.203
 1006SOL    HW1 3917   2.334   3.940   1.199
 1006SOL    HW2 3918   2.484   3.945   1.262
 1007SOL     OW 3919   4.588   0.927   6.673
 1007SOL    HW1 3920   4.588   0.985   6.591
 1007SOL    HW2 3921   4.495   0.919   6.708
 1008SOL     OW 3922   0.230   4.981   5.554
 1008SOL    HW1 3923   0.256   4.947   5.464
 1008SOL    HW2 3924   0.162   5.053   5.545
 1009SOL     OW 3925   0.113   5.634   5.787
 1009SOL    HW1 3926   0.129   5.550   5.735
 1009SOL    HW2 3927   0.199   5.683   5.800
 1010SOL     OW 3928   2.559   3.087   0.806
 1010SOL    HW1 3929   2.611   3.071   0.890
 1010SOL    HW2 3930   2.616   3.068   0.726
 1011SOL     OW 3931   0.036   5.238   2.490
 1011SOL    HW1 3932   0.013   5.145   2.460
 1011SOL    HW2 3933   0.066   5.292   2.411
 1012SOL     OW 3934   4.758   6.631   3.583
 1012SOL    HW1 3935   4.707   6.666   3.505
 1012SOL    HW2 3936   4.742   6.690   3.663
 1013SOL     OW 3937   7.015   6.884   6.737
 1013SOL    HW1 3938   0.095   6.879   6.719
 1013SOL    HW2 3939   6.979   6.792   6.756
 1014SOL     OW 3940   1.204   4.385   5.285
 1014SOL    HW1 3941   1.303   4.383   5.298
 1014SOL    HW2 3942   1.170   4.476   5.306
 1015SOL     OW 3943   2.942   6.631   6.859
 1015SOL    HW1 3944   2.965   6.670   6.770
 1015SOL    HW2 3945   2.974   6.691   6.932
 1016SOL     OW 3946   6.299   4.010   1.786
 1016SOL    HW1 3947   6.353   4.046   1.709
 1016SOL    HW2 3948   6.227   3.950   1.750
 1017SOL     OW 3949   2.335   1.510   1.825
 1017SOL    HW1 3950   2.256   1.460   1.859
 1017SOL    HW2 3951   2.327   1.525   1.727
 1018SOL     OW 3952   6.565   6.649   4.669
 1018SOL    HW1 3953   6.501   6.675   4.597
 1018SOL    HW2 3954   6.525   6.575   4.723
 1019SOL     OW 3955   6.458   4.423   0.916
 1019SOL    HW1 3956   6.418   4.513   0.894
 1019SOL    HW2 3957   6.556   4.434   0.932
 1020SOL     OW 3958   5.762   1.109   0.931
 1020SOL    HW1 3959   5.767   1.203   0.964
 1020SOL    HW2 3960   5.850   1.084   0.890
 1021SOL     OW 3961   0.388   6.725   1.347
 1021SOL    HW1 3962   0.447   6.780   1.406
 1021SOL    HW2 3963   0.396   6.756   1.252
 1022SOL     OW 3964   2.713   5.744   6.806
 1022SOL    HW1 3965   2.638   5.698   6.759
 1022SOL    HW2 3966   2.773   5.676   6.848
 1023SOL     OW 3967   0.607   1.061   3.376
 1023SOL    HW1 3968   0.678   1.117   3.334
 1023SOL    HW2 3969   0.519   1.109   3.370
 1024SOL     OW 3970   1.817   1.804   4.508
 1024SOL    HW1 3971   1.830   1.863   4.429
 1024SOL    HW2 3972   1.893   1.739   4.515
 1025SOL     OW 3973   4.516   3.918   0.182
 1025SOL    HW1 3974   4.466   3.863   0.115
 1025SOL    HW2 3975   4.538   3.862   0.261
 1026SOL     OW 3976   3.046   2.574   1.527
 1026SOL    HW1 3977   3.057   2.515   1.607
 1026SOL    HW2 3978   3.135   2.587   1.483
 1027SOL     OW 3979   0.814   6.896   0.556
 1027SOL    HW1 3980   0.801   6.869   0.651
 1027SOL    HW2 3981   0.836   6.993   0.551
 1028SOL     OW 3982   1.446   5.981   2.466
 1028SOL    HW1 3983   1.512   5.937   2.405
 1028SOL    HW2 3984   1.472   5.963   2.561
 1029SOL     OW 3985   0.879   1.133   5.926
 1029SOL    HW1 3986   0.856   1.158   5.831
 1029SOL    HW2 3987   0.973   1.099   5.929
 1030SOL     OW 3988   3.612   3.135   1.337
 1030SOL    HW1 3989   3.579   3.118   1.430
 1030SOL    HW2 3990   3.661   3.054   1.304
 1031SOL     OW 3991   3.832   2.685   0.878
 1031SOL    HW1 3992   3.802   2.686   0.783
 1031SOL    HW2 3993   3.929   2.710   0.883
 1032SOL     OW 3994   2.018   1.855   6.344
 1032SOL    HW1 3995   1.951   1.793   6.303
 1032SOL    HW2 3996   1.978   1.898   6.425
 1033SOL     OW 3997   0.574   6.478   2.152
 1033SOL    HW1 3998   0.644   6.420   2.195
 1033SOL    HW2 3999   0.610   6.515   2.067
 1034SOL     OW 4000   2.699   0.263   4.489
 1034SOL    HW1 4001   2.743   0.244   4.577
 1034SOL    HW2 4002   2.768   0.266   4.418
 1035SOL     OW 4003   1.487   1.458   6.541
 1035SOL    HW1 4004   1.442   1.547   6.533
 1035SOL    HW2 4005   1.585   1.470   6.525
 1036SOL     OW 4006   4.872   1.367   1.528
 1036SOL    HW1 4007   4.825   1.332   1.609
 1036SOL    HW2 4008   4.878   1.466   1.533
 1037SOL     OW 4009   1.502   3.235   1.608
 1037SOL    HW1 4010   1.505   3.145   1.652
 1037SOL    HW2 4011   1.479   3.305   1.675
 1038SOL     OW 4012   2.487   5.682   7.008
 1038SOL    HW1 4013   2.531   5.594   0.010
 1038SOL    HW2 4014   2.556   5.748   6.980
 1039SOL     OW 4015   3.572   2.910   2.847
 1039SOL    HW1 4016   3.659   2.922   2.798
 1039SOL    HW2 4017   3.496   2.917   2.783
 1040SOL     OW 4018   3.570   2.153   3.166
 1040SOL    HW1 4019   3.501   2.181   3.099
 1040SOL    HW2 4020   3.661   2.164   3.126
 1041SOL     OW 4021   6.811   5.792   6.399
 1041SOL    HW1 4022   6.899   5.769   6.357
 1041SOL    HW2 4023   6.737   5.758   6.342
 1042SOL     OW 4024   5.387   4.193   2.906
 1042SOL    HW1 4025   5.367   4.243   2.991
 1042SOL    HW2 4026   5.482   4.162   2.908
 1043SOL     OW 4027   2.974   2.195   3.596
 1043SOL    HW1 4028   3.060   2.157   3.562
 1043SOL    HW2 4029   2.960   2.167   3.691
 1044SOL     OW 4030   5.665   4.913   1.525
 1044SOL    HW1 4031   5.573   4.929   1.489
 1044SOL    HW2 4032   5.721   4.995   1.511
 1045SOL     OW 4033   2.285   0.401   2.144
 1045SOL    HW1 4034   2.251   0.423   2.053
 1045SOL    HW2 4035   2.216   0.427   2.212
 1046SOL     OW 4036   3.012   1.779   1.049
 1046SOL    HW1 4037   2.980   1.776   0.954
 1046SOL    HW2 4038   2.957   1.717   1.105
 1047SOL     OW 4039   3.826   5.927   3.755
 1047SOL    HW1 4040   3.837   5.993   3.830
 1047SOL    HW2 4041   3.746   5.953   3.700
 1048SOL     OW 4042   1.270   6.148   2.808
 1048SOL    HW1 4043   1.221   6.084   2.868
 1048SOL    HW2 4044   1.343   6.192   2.859
 1049SOL     OW 4045   4.069   6.050   4.791
 1049SOL    HW1 4046   4.034   5.956   4.788
 1049SOL    HW2 4047   4.169   6.049   4.782
 1050SOL     OW 4048   2.953   5.702   2.934
 1050SOL    HW1 4049   3.031   5.665   2.882
 1050SOL    HW2 4050   2.896   5.626   2.966
 1051SOL     OW 4051   0.881   0.750   6.203
 1051SOL    HW1 4052   0.820   0.677   6.234
 1051SOL    HW2 4053   0.829   0.818   6.153
 1052SOL     OW 4054   3.260   1.117   0.203
 1052SOL    HW1 4055   3.357   1.097   0.190
 1052SOL    HW2 4056   3.240   1.122   0.301
 1053SOL     OW 4057   5.020   2.188   3.881
 1053SOL    HW1 4058   4.945   2.123   3.888
 1053SOL    HW2 4059   5.100   2.152   3.930
 1054SOL     OW 4060   3.773   4.778   6.007
 1054SOL    HW1 4061   3.743   4.795   5.914
 1054SOL    HW2 4062   3.872   4.794   6.014
 1055SOL     OW 4063   4.968   5.725   6.324
 1055SOL    HW1 4064   4.880   5.693   6.357
 1055SOL    HW2 4065   5.032   5.648   6.318
 1056SOL     OW 4066   2.978   3.723   0.255
 1056SOL    HW1 4067   2.940   3.771   0.334
 1056SOL    HW2 4068   2.905   3.707   0.187
 1057SOL     OW 4069   3.218   2.563   0.959
 1057SOL    HW1 4070   3.211   2.579   0.861
 1057SOL    HW2 4071   3.189   2.470   0.980
 1058SOL     OW 4072   2.930   2.202   2.580
 1058SOL    HW1 4073   2.908   2.215   2.484
 1058SOL    HW2 4074   3.029   2.213   2.593
 1059SOL     OW 4075   2.524   6.510   1.455
 1059SOL    HW1 4076   2.517   6.451   1.535
 1059SOL    HW2 4077   2.436   6.513   1.407
 1060SOL     OW 4078   6.235   6.842   5.502
 1060SOL    HW1 4079   6.301   6.901   5.455
 1060SOL    HW2 4080   6.282   6.759   5.534
 1061SOL     OW 4081   0.132   3.763   6.344
 1061SOL    HW1 4082   0.097   3.703   6.416
 1061SOL    HW2 4083   0.056   3.812   6.302
 1062SOL     OW 4084   3.691   6.571   4.761
 1062SOL    HW1 4085   3.698   6.471   4.762
 1062SOL    HW2 4086   3.687   6.605   4.855
 1063SOL     OW 4087   3.265   6.726   5.198
 1063SOL    HW1 4088   3.198   6.780   5.249
 1063SOL    HW2 4089   3.286   6.643   5.249
 1064SOL     OW 4090   1.251   3.575   0.325
 1064SOL    HW1 4091   1.197   3.492   0.313
 1064SOL    HW2 4092   1.348   3.553   0.318
 1065SOL     OW 4093   4.886   0.825   4.417
 1065SOL    HW1 4094   4.787   0.824   4.433
 1065SOL    HW2 4095   4.919   0.731   4.407
 1066SOL     OW 4096   5.412   6.687   1.825
 1066SOL    HW1 4097   5.368   6.677   1.915
 1066SOL    HW2 4098   5.363   6.632   1.758
 1067SOL     OW 4099   2.646   1.593   0.193
 1067SOL    HW1 4100   2.687   1.556   0.276
 1067SOL    HW2 4101   2.708   1.662   0.153
 1068SOL     OW 4102   0.012   3.264   1.940
 1068SOL    HW1 4103   6.948   3.307   1.975
 1068SOL    HW2 4104   0.046   3.316   1.862
 1069SOL     OW 4105   6.620   3.755   1.838
 1069SOL    HW1 4106   6.532   3.763   1.791
 1069SOL    HW2 4107   6.636   3.659   1.861
 1070SOL     OW 4108   1.420   6.818   2.252
 1070SOL    HW1 4109   1.482   6.855   2.321
 1070SOL    HW2 4110   1.450   6.726   2.227
 1071SOL     OW 4111   0.021   2.980   5.261
 1071SOL    HW1 4112   0.086   2.923   5.311
 1071SOL    HW2 4113   0.067   3.064   5.231
 1072SOL     OW 4114   1.543   1.709   2.034
 1072SOL    HW1 4115   1.514   1.794   2.078
 1072SOL    HW2 4116   1.625   1.674   2.078
 1073SOL     OW 4117   4.283   2.328   3.501
 1073SOL    HW1 4118   4.215   2.358   3.434
 1073SOL    HW2 4119   4.326   2.243   3.470
 1074SOL     OW 4120   2.841   4.836   1.779
 1074SOL    HW1 4121   2.841   4.755   1.836
 1074SOL    HW2 4122   2.821   4.917   1.835
 1075SOL     OW 4123   6.062   4.377   5.942
 1075SOL    HW1 4124   6.111   4.301   5.985
 1075SOL    HW2 4125   5.981   4.398   5.996
 1076SOL     OW 4126   1.994   4.456   4.787
 1076SOL    HW1 4127   2.032   4.365   4.799
 1076SOL    HW2 4128   2.027   4.496   4.702
 1077SOL     OW 4129   0.203   6.958   0.090
 1077SOL    HW1 4130   0.115   6.999   0.068
 1077SOL    HW2 4131   0.190   6.882   0.154
 1078SOL     OW 4132   6.060   6.964   4.535
 1078SOL    HW1 4133   5.965   6.956   4.506
 1078SOL    HW2 4134   6.110   0.002   4.470
 1079SOL     OW 4135   0.838   0.131   1.985
 1079SOL    HW1 4136   0.875   0.048   2.026
 1079SOL    HW2 4137   0.907   0.173   1.925
 1080SOL     OW 4138   3.514   6.272   6.647
 1080SOL    HW1 4139   3.457   6.255   6.728
 1080SOL    HW2 4140   3.493   6.204   6.577
 1081SOL     OW 4141   6.882   6.112   4.573
 1081SOL    HW1 4142   6.898   6.018   4.544
 1081SOL    HW2 4143   6.820   6.113   4.651
 1082SOL     OW 4144   4.328   6.721   6.951
 1082SOL    HW1 4145   4.344   6.820   6.952
 1082SOL    HW2 4146   4.401   6.675   7.002
 1083SOL     OW 4147   5.148   4.169   1.654
 1083SOL    HW1 4148   5.168   4.073   1.671
 1083SOL    HW2 4149   5.111   4.180   1.562
 1084SOL     OW 4150   6.513   0.709   5.016
 1084SOL    HW1 4151   6.428   0.662   4.993
 1084SOL    HW2 4152   6.507   0.805   4.988
 1085SOL     OW 4153   1.718   3.719   4.534
 1085SOL    HW1 4154   1.802   3.760   4.571
 1085SOL    HW2 4155   1.647   3.789   4.529
 1086SOL     OW 4156   5.879   5.558   0.869
 1086SOL    HW1 4157   5.780   5.563   0.886
 1086SOL    HW2 4158   5.919   5.650   0.878
 1087SOL     OW 4159   3.047   0.467   5.322
 1087SOL    HW1 4160   3.043   0.418   5.409
 1087SOL    HW2 4161   3.139   0.503   5.308
 1088SOL     OW 4162   6.565   5.048   3.382
 1088SOL    HW1 4163   6.572   4.949   3.366
 1088SOL    HW2 4164   6.589   5.067   3.478
 1089SOL     OW 4165   6.621   4.508   4.711
 1089SOL    HW1 4166   6.710   4.527   4.669
 1089SOL    HW2 4167   6.570   4.593   4.720
 1090SOL     OW 4168   5.383   2.059   5.135
 1090SOL    HW1 4169   5.314   1.987   5.149
 1090SOL    HW2 4170   5.350   2.123   5.067
 1091SOL     OW 4171   2.082   2.531   2.458
 1091SOL    HW1 4172   2.039   2.469   2.523
 1091SOL    HW2 4173   2.012   2.573   2.399
 1092SOL     OW 4174   0.657   5.904   1.204
 1092SOL    HW1 4175   0.581   5.933   1.146
 1092SOL    HW2 4176   0.726   5.858   1.148
 1093SOL     OW 4177   2.091   0.452   3.026
 1093SOL    HW1 4178   2.013   0.399   2.992
 1093SOL    HW2 4179   2.059   0.520   3.092
 1094SOL     OW 4180   0.777   0.453   3.493
 1094SOL    HW1 4181   0.715   0.453   3.571
 1094SOL    HW2 4182   0.820   0.543   3.485
 1095SOL     OW 4183   4.967   3.664   0.633
 1095SOL    HW1 4184   5.029   3.641   0.559
 1095SOL    HW2 4185   4.878   3.619   0.619
 1096SOL     OW 4186   2.858   6.145   1.512
 1096SOL    HW1 4187   2.922   6.101   1.449
 1096SOL    HW2 4188   2.814   6.222   1.466
 1097SOL     OW 4189   3.275   5.254   4.566
 1097SOL    HW1 4190   3.222   5.253   4.481
 1097SOL    HW2 4191   3.315   5.163   4.581
 1098SOL     OW 4192   6.149   4.481   0.763
 1098SOL    HW1 4193   6.168   4.510   0.856
 1098SOL    HW2 4194   6.096   4.552   0.716
 1099SOL     OW 4195   4.464   6.730   5.687
 1099SOL    HW1 4196   4.381   6.781   5.709
 1099SOL    HW2 4197   4.449   6.677   5.603
 1100SOL     OW 4198   3.609   1.769   4.322
 1100SOL    HW1 4199   3.548   1.694   4.299
 1100SOL    HW2 4200   3.637   1.761   4.417
 1101SOL     OW 4201   5.775   3.068   6.666
 1101SOL    HW1 4202   5.691   3.107   6.627
 1101SOL    HW2 4203   5.845   3.062   6.595
 1102SOL     OW 4204   2.854   1.014   3.242
 1102SOL    HW1 4205   2.868   1.087   3.308
 1102SOL    HW2 4206   2.817   1.052   3.157
 1103SOL     OW 4207   2.999   6.763   0.299
 1103SOL    HW1 4208   3.005   6.768   0.199
 1103SOL    HW2 4209   3.079   6.807   0.339
 1104SOL     OW 4210   0.849   2.943   4.126
 1104SOL    HW1 4211   0.886   2.955   4.033
 1104SOL    HW2 4212   0.820   3.032   4.162
 1105SOL     OW 4213   5.128   1.162   5.798
 1105SOL    HW1 4214   5.100   1.257   5.812
 1105SOL    HW2 4215   5.047   1.103   5.798
 1106SOL     OW 4216   0.102   1.627   0.319
 1106SOL    HW1 4217   0.170   1.576   0.265
 1106SOL    HW2 4218   0.056   1.694   0.260
 1107SOL     OW 4219   0.800   1.437   6.609
 1107SOL    HW1 4220   0.821   1.498   6.685
 1107SOL    HW2 4221   0.845   1.471   6.525
 1108SOL     OW 4222   2.505   6.985   3.538
 1108SOL    HW1 4223   2.573   0.036   3.561
 1108SOL    HW2 4224   2.448   7.018   3.463
 1109SOL     OW 4225   4.589   2.182   4.510
 1109SOL    HW1 4226   4.596   2.147   4.603
 1109SOL    HW2 4227   4.595   2.106   4.445
 1110SOL     OW 4228   2.861   0.994   2.386
 1110SOL    HW1 4229   2.931   0.928   2.359
 1110SOL    HW2 4230   2.841   1.054   2.308
 1111SOL     OW 4231   5.814   3.865   6.680
 1111SOL    HW1 4232   5.795   3.951   6.728
 1111SOL    HW2 4233   5.880   3.882   6.607
 1112SOL     OW 4234   5.341   0.431   2.214
 1112SOL    HW1 4235   5.247   0.402   2.230
 1112SOL    HW2 4236   5.342   0.502   2.144
 1113SOL     OW 4237   5.602   4.389   2.421
 1113SOL    HW1 4238   5.590   4.433   2.332
 1113SOL    HW2 4239   5.695   4.354   2.429
 1114SOL     OW 4240   3.644   3.938   5.260
 1114SOL    HW1 4241   3.692   3.948   5.174
 1114SOL    HW2 4242   3.702   3.890   5.326
 1115SOL     OW 4243   2.926   4.386   5.594
 1115SOL    HW1 4244   3.015   4.422   5.624
 1115SOL    HW2 4245   2.934   4.288   5.576
 1116SOL     OW 4246   4.311   6.765   6.634
 1116SOL    HW1 4247   4.262   6.683   6.605
 1116SOL    HW2 4248   4.311   6.832   6.559
 1117SOL     OW 4249   1.941   2.605   1.395
 1117SOL    HW1 4250   2.017   2.576   1.337
 1117SOL    HW2 4251   1.888   2.676   1.348
 1118SOL     OW 4252   3.954   4.693   0.140
 1118SOL    HW1 4253   3.902   4.742   0.210
 1118SOL    HW2 4254   3.922   4.598   0.134
 1119SOL     OW 4255   2.833   5.159   4.254
 1119SOL    HW1 4256   2.807   5.254   4.240
 1119SOL    HW2 4257   2.872   5.123   4.170
 1120SOL     OW 4258   6.779   3.916   0.879
 1120SOL    HW1 4259   6.839   3.945   0.953
 1120SOL    HW2 4260   6.706   3.983   0.867
 1121SOL     OW 4261   6.733   4.918   4.073
 1121SOL    HW1 4262   6.802   4.968   4.124
 1121SOL    HW2 4263   6.768   4.827   4.050
 1122SOL     OW 4264   5.474   2.619   1.719
 1122SOL    HW1 4265   5.377   2.608   1.739
 1122SOL    HW2 4266   5.503   2.551   1.652
 1123SOL     OW 4267   3.927   1.131   3.312
 1123SOL    HW1 4268   3.838   1.086   3.322
 1123SOL    HW2 4269   3.970   1.103   3.226
 1124SOL     OW 4270   2.333   2.698   4.147
 1124SOL    HW1 4271   2.359   2.617   4.093
 1124SOL    HW2 4272   2.250   2.678   4.199
 1125SOL     OW 4273   2.166   4.004   3.413
 1125SOL    HW1 4274   2.225   3.987   3.491
 1125SOL    HW2 4275   2.173   4.100   3.386
 1126SOL     OW 4276   3.976   4.870   4.742
 1126SOL    HW1 4277   4.025   4.786   4.719
 1126SOL    HW2 4278   3.901   4.848   4.806
 1127SOL     OW 4279   6.102   6.826   2.498
 1127SOL    HW1 4280   6.181   6.887   2.507
 1127SOL    HW2 4281   6.018   6.879   2.509
 1128SOL     OW 4282   5.107   1.316   4.023
 1128SOL    HW1 4283   5.155   1.235   4.057
 1128SOL    HW2 4284   5.086   1.376   4.100
 1129SOL     OW 4285   1.358   0.912   0.664
 1129SOL    HW1 4286   1.276   0.965   0.647
 1129SOL    HW2 4287   1.432   0.943   0.604
 1130SOL     OW 4288   1.720   4.686   1.920
 1130SOL    HW1 4289   1.700   4.741   2.001
 1130SOL    HW2 4290   1.720   4.744   1.839
 1131SOL     OW 4291   1.016   5.083   4.290
 1131SOL    HW1 4292   0.965   5.166   4.266
 1131SOL    HW2 4293   1.113   5.103   4.294
 1132SOL     OW 4294   2.380   1.408   2.626
 1132SOL    HW1 4295   2.418   1.391   2.717
 1132SOL    HW2 4296   2.451   1.444   2.566
 1133SOL     OW 4297   0.942   6.963   5.351
 1133SOL    HW1 4298   1.015   6.956   5.419
 1133SOL    HW2 4299   0.969   0.009   5.279
 1134SOL     OW 4300   3.777   6.955   1.371
 1134SOL    HW1 4301   3.868   6.957   1.412
 1134SOL    HW2 4302   3.735   6.865   1.387
 1135SOL     OW 4303   1.927   5.438   3.402
 1135SOL    HW1 4304   1.975   5.525   3.399
 1135SOL    HW2 4305   1.845   5.448   3.459
 1136SOL     OW 4306   1.438   5.544   1.581
 1136SOL    HW1 4307   1.462   5.486   1.660
 1136SOL    HW2 4308   1.425   5.486   1.501
 1137SOL     OW 4309   0.894   5.416   5.086
 1137SOL    HW1 4310   0.879   5.376   4.995
 1137SOL    HW2 4311   0.805   5.438   5.128
 1138SOL     OW 4312   2.070   3.439   4.520
 1138SOL    HW1 4313   2.091   3.483   4.608
 1138SOL    HW2 4314   1.985   3.387   4.529
 1139SOL     OW 4315   2.806   5.468   4.695
 1139SOL    HW1 4316   2.903   5.470   4.718
 1139SOL    HW2 4317   2.782   5.378   4.660
 1140SOL     OW 4318   1.618   1.922   0.688
 1140SOL    HW1 4319   1.544   1.989   0.680
 1140SOL    HW2 4320   1.585   1.832   0.659
 1141SOL     OW 4321   0.191   4.761   6.347
 1141SOL    HW1 4322   0.175   4.794   6.254
 1141SOL    HW2 4323   0.153   4.826   6.412
 1142SOL     OW 4324   2.442   6.379   1.935
 1142SOL    HW1 4325   2.506   6.318   1.980
 1142SOL    HW2 4326   2.368   6.326   1.894
 1143SOL     OW 4327   1.036   4.253   1.564
 1143SOL    HW1 4328   1.025   4.314   1.642
 1143SOL    HW2 4329   0.998   4.163   1.588
 1144SOL     OW 4330   5.580   4.579   1.259
 1144SOL    HW1 4331   5.606   4.658   1.315
 1144SOL    HW2 4332   5.599   4.495   1.310
 1145SOL     OW 4333   5.850   0.465   1.143
 1145SOL    HW1 4334   5.867   0.561   1.161
 1145SOL    HW2 4335   5.771   0.456   1.082
 1146SOL     OW 4336   0.638   0.964   1.352
 1146SOL    HW1 4337   0.680   0.957   1.442
 1146SOL    HW2 4338   0.706   0.994   1.285
 1147SOL     OW 4339   2.256   6.462   1.336
 1147SOL    HW1 4340   2.196   6.457   1.415
 1147SOL    HW2 4341   2.253   6.374   1.287
 1148SOL     OW 4342   4.683   5.323   3.386
 1148SOL    HW1 4343   4.741   5.256   3.432
 1148SOL    HW2 4344   4.666   5.400   3.448
 1149SOL     OW 4345   4.411   3.301   1.549
 1149SOL    HW1 4346   4.378   3.383   1.502
 1149SOL    HW2 4347   4.510   3.293   1.537
 1150SOL     OW 4348   1.724   3.560   0.115
 1150SOL    HW1 4349   1.651   3.565   0.047
 1150SOL    HW2 4350   1.792   3.631   0.097
 1151SOL     OW 4351   6.255   5.353   3.961
 1151SOL    HW1 4352   6.348   5.387   3.952
 1151SOL    HW2 4353   6.199   5.387   3.886
 1152SOL     OW 4354   3.969   6.317   6.446
 1152SOL    HW1 4355   3.992   6.292   6.540
 1152SOL    HW2 4356   4.028   6.268   6.383
 1153SOL     OW 4357   5.842   0.168   1.674
 1153SOL    HW1 4358   5.850   0.152   1.575
 1153SOL    HW2 4359   5.783   0.099   1.714
 1154SOL     OW 4360   1.991   2.510   0.965
 1154SOL    HW1 4361   2.007   2.483   1.060
 1154SOL    HW2 4362   1.983   2.610   0.960
 1155SOL     OW 4363   2.786   6.671   4.521
 1155SOL    HW1 4364   2.686   6.667   4.527
 1155SOL    HW2 4365   2.820   6.590   4.473
 1156SOL     OW 4366   2.369   1.668   3.795
 1156SOL    HW1 4367   2.370   1.687   3.697
 1156SOL    HW2 4368   2.305   1.730   3.840
 1157SOL     OW 4369   3.691   0.763   6.920
 1157SOL    HW1 4370   3.644   0.728   6.839
 1157SOL    HW2 4371   3.701   0.862   6.914
 1158SOL     OW 4372   5.832   4.868   3.249
 1158SOL    HW1 4373   5.891   4.837   3.174
 1158SOL    HW2 4374   5.838   4.968   3.256
 1159SOL     OW 4375   6.178   5.758   1.381
 1159SOL    HW1 4376   6.276   5.742   1.379
 1159SOL    HW2 4377   6.147   5.759   1.476
 1160SOL     OW 4378   5.577   1.955   0.438
 1160SOL    HW1 4379   5.532   1.870   0.466
 1160SOL    HW2 4380   5.509   2.016   0.397
 1161SOL     OW 4381   0.280   5.589   0.777
 1161SOL    HW1 4382   0.319   5.513   0.726
 1161SOL    HW2 4383   0.181   5.589   0.766
 1162SOL     OW 4384   3.049   2.172   4.805
 1162SOL    HW1 4385   3.051   2.198   4.901
 1162SOL    HW2 4386   2.961   2.198   4.765
 1163SOL     OW 4387   5.573   3.185   1.994
 1163SOL    HW1 4388   5.475   3.178   1.976
 1163SOL    HW2 4389   5.588   3.232   2.081
 1164SOL     OW 4390   4.424   1.908   5.451
 1164SOL    HW1 4391   4.454   1.919   5.546
 1164SOL    HW2 4392   4.493   1.858   5.399
 1165SOL     OW 4393   3.978   6.163   3.616
 1165SOL    HW1 4394   3.995   6.137   3.521
 1165SOL    HW2 4395   3.952   6.082   3.669
 1166SOL     OW 4396   3.263   4.584   6.149
 1166SOL    HW1 4397   3.326   4.575   6.226
 1166SOL    HW2 4398   3.213   4.499   6.136
 1167SOL     OW 4399   5.428   5.028   2.715
 1167SOL    HW1 4400   5.397   4.933   2.720
 1167SOL    HW2 4401   5.523   5.030   2.684
 1168SOL     OW 4402   6.393   0.957   3.128
 1168SOL    HW1 4403   6.349   0.931   3.215
 1168SOL    HW2 4404   6.467   0.893   3.108
 1169SOL     OW 4405   5.334   1.166   5.632
 1169SOL    HW1 4406   5.256   1.149   5.692
 1169SOL    HW2 4407   5.303   1.170   5.537
 1170SOL     OW 4408   5.127   6.302   4.051
 1170SOL    HW1 4409   5.077   6.222   4.019
 1170SOL    HW2 4410   5.126   6.373   3.981
 1171SOL     OW 4411   0.727   6.625   1.235
 1171SOL    HW1 4412   0.716   6.711   1.185
 1171SOL    HW2 4413   0.758   6.645   1.328
 1172SOL     OW 4414   6.831   3.441   6.242
 1172SOL    HW1 4415   6.757   3.506   6.261
 1172SOL    HW2 4416   6.912   3.491   6.213
 1173SOL     OW 4417   3.602   1.626   0.615
 1173SOL    HW1 4418   3.636   1.720   0.620
 1173SOL    HW2 4419   3.670   1.563   0.653
 1174SOL     OW 4420   2.796   3.654   0.902
 1174SOL    HW1 4421   2.780   3.558   0.877
 1174SOL    HW2 4422   2.826   3.659   0.997
 1175SOL     OW 4423   3.342   2.887   4.161
 1175SOL    HW1 4424   3.257   2.907   4.113
 1175SOL    HW2 4425   3.419   2.894   4.098
 1176SOL     OW 4426   5.647   3.623   6.159
 1176SOL    HW1 4427   5.574   3.656   6.219
 1176SOL    HW2 4428   5.609   3.599   6.070
 1177SOL     OW 4429   6.800   1.840   4.622
 1177SOL    HW1 4430   6.781   1.760   4.564
 1177SOL    HW2 4431   6.754   1.920   4.584
 1178SOL     OW 4432   3.605   5.270   0.230
 1178SOL    HW1 4433   3.673   5.342   0.244
 1178SOL    HW2 4434   3.539   5.299   0.161
 1179SOL     OW 4435   1.866   5.520   0.224
 1179SOL    HW1 4436   1.766   5.522   0.213
 1179SOL    HW2 4437   1.904   5.609   0.198
 1180SOL     OW 4438   3.325   5.767   1.027
 1180SOL    HW1 4439   3.230   5.776   0.996
 1180SOL    HW2 4440   3.377   5.847   0.999
 1181SOL     OW 4441   0.288   6.330   0.842
 1181SOL    HW1 4442   0.327   6.247   0.802
 1181SOL    HW2 4443   0.357   6.375   0.899
 1182SOL     OW 4444   4.966   4.673   2.802
 1182SOL    HW1 4445   4.926   4.582   2.804
 1182SOL    HW2 4446   5.023   4.686   2.883
 1183SOL     OW 4447   2.438   3.296   5.712
 1183SOL    HW1 4448   2.357   3.249   5.747
 1183SOL    HW2 4449   2.505   3.304   5.785
 1184SOL     OW 4450   0.854   0.011   6.183
 1184SOL    HW1 4451   0.782   7.014   6.115
 1184SOL    HW2 4452   0.849   0.106   6.214
 1185SOL     OW 4453   6.699   1.486   6.583
 1185SOL    HW1 4454   6.668   1.399   6.622
 1185SOL    HW2 4455   6.795   1.500   6.604
 1186SOL     OW 4456   5.401   6.225   4.856
 1186SOL    HW1 4457   5.411   6.205   4.758
 1186SOL    HW2 4458   5.489   6.213   4.901
 1187SOL     OW 4459   5.992   0.713   6.322
 1187SOL    HW1 4460   5.939   0.636   6.288
 1187SOL    HW2 4461   6.002   0.706   6.422
 1188SOL     OW 4462   2.784   6.688   6.042
 1188SOL    HW1 4463   2.854   6.677   6.113
 1188SOL    HW2 4464   2.773   6.601   5.993
 1189SOL     OW 4465   5.692   3.247   3.145
 1189SOL    HW1 4466   5.620   3.178   3.156
 1189SOL    HW2 4467   5.747   3.252   3.228
 1190SOL     OW 4468   1.821   5.940   2.826
 1190SOL    HW1 4469   1.899   5.889   2.789
 1190SOL    HW2 4470   1.763   5.970   2.751
 1191SOL     OW 4471   3.852   5.650   2.416
 1191SOL    HW1 4472   3.842   5.750   2.413
 1191SOL    HW2 4473   3.948   5.626   2.433
 1192SOL     OW 4474   5.564   6.436   3.884
 1192SOL    HW1 4475   5.547   6.535   3.890
 1192SOL    HW2 4476   5.545   6.395   3.973
 1193SOL     OW 4477   6.252   5.403   4.261
 1193SOL    HW1 4478   6.346   5.425   4.236
 1193SOL    HW2 4479   6.197   5.394   4.178
 1194SOL     OW 4480   3.764   1.041   1.256
 1194SOL    HW1 4481   3.819   1.019   1.337
 1194SOL    HW2 4482   3.688   0.977   1.248
 1195SOL     OW 4483   5.125   2.565   3.350
 1195SOL    HW1 4484   5.180   2.550   3.431
 1195SOL    HW2 4485   5.184   2.577   3.271
 1196SOL     OW 4486   6.029   6.607   5.282
 1196SOL    HW1 4487   5.967   6.581   5.208
 1196SOL    HW2 4488   5.989   6.578   5.369
 1197SOL     OW 4489   2.052   6.423   6.882
 1197SOL    HW1 4490   1.994   6.479   6.823
 1197SOL    HW2 4491   2.147   6.453   6.873
 1198SOL     OW 4492   1.648   2.740   0.343
 1198SOL    HW1 4493   1.732   2.783   0.309
 1198SOL    HW2 4494   1.590   2.809   0.385
 1199SOL     OW 4495   5.555   4.025   2.066
 1199SOL    HW1 4496   5.518   4.099   2.010
 1199SOL    HW2 4497   5.510   4.025   2.155
 1200SOL     OW 4498   3.273   3.735   1.867
 1200SOL    HW1 4499   3.332   3.673   1.919
 1200SOL    HW2 4500   3.195   3.685   1.831
 1201SOL     OW 4501   1.537   2.010   4.689
 1201SOL    HW1 4502   1.626   1.974   4.664
 1201SOL    HW2 4503   1.547   2.105   4.719
 1202SOL     OW 4504   0.428   5.455   6.324
 1202SOL    HW1 4505   0.512   5.444   6.269
 1202SOL    HW2 4506   0.355   5.489   6.265
 1203SOL     OW 4507   4.549   5.834   5.865
 1203SOL    HW1 4508   4.644   5.809   5.848
 1203SOL    HW2 4509   4.506   5.766   5.925
 1204SOL     OW 4510   2.097   0.034   2.593
 1204SOL    HW1 4511   2.038   0.056   2.515
 1204SOL    HW2 4512   2.159   6.978   2.567
 1205SOL     OW 4513   5.262   4.506   2.021
 1205SOL    HW1 4514   5.264   4.573   1.946
 1205SOL    HW2 4515   5.346   4.451   2.018
 1206SOL     OW 4516   3.408   3.541   5.040
 1206SOL    HW1 4517   3.470   3.546   4.963
 1206SOL    HW2 4518   3.458   3.560   5.125
 1207SOL     OW 4519   1.709   6.566   1.790
 1207SOL    HW1 4520   1.690   6.471   1.765
 1207SOL    HW2 4521   1.626   6.620   1.776
 1208SOL     OW 4522   3.372   3.863   6.442
 1208SOL    HW1 4523   3.341   3.781   6.490
 1208SOL    HW2 4524   3.470   3.854   6.421
 1209SOL     OW 4525   3.949   6.370   5.418
 1209SOL    HW1 4526   3.985   6.428   5.344
 1209SOL    HW2 4527   4.014   6.299   5.440
 1210SOL     OW 4528   3.331   1.116   3.398
 1210SOL    HW1 4529   3.426   1.128   3.370
 1210SOL    HW2 4530   3.327   1.056   3.478
 1211SOL     OW 4531   1.129   3.357   0.228
 1211SOL    HW1 4532   1.122   3.338   0.130
 1211SOL    HW2 4533   1.105   3.274   0.280
 1212SOL     OW 4534   1.217   6.398   0.147
 1212SOL    HW1 4535   1.166   6.434   0.069
 1212SOL    HW2 4536   1.249   6.305   0.126
 1213SOL     OW 4537   5.483   2.836   0.987
 1213SOL    HW1 4538   5.539   2.755   0.975
 1213SOL    HW2 4539   5.407   2.816   1.049
 1214SOL     OW 4540   0.140   2.213   1.877
 1214SOL    HW1 4541   0.222   2.157   1.887
 1214SOL    HW2 4542   0.156   2.303   1.918
 1215SOL     OW 4543   1.479   5.659   4.407
 1215SOL    HW1 4544   1.512   5.740   4.455
 1215SOL    HW2 4545   1.382   5.645   4.428
 1216SOL     OW 4546   4.174   6.638   0.505
 1216SOL    HW1 4547   4.125   6.666   0.588
 1216SOL    HW2 4548   4.272   6.656   0.517
 1217SOL     OW 4549   2.644   4.166   0.120
 1217SOL    HW1 4550   2.711   4.123   0.059
 1217SOL    HW2 4551   2.690   4.198   0.202
 1218SOL     OW 4552   1.641   4.613   3.580
 1218SOL    HW1 4553   1.609   4.590   3.488
 1218SOL    HW2 4554   1.709   4.685   3.575
 1219SOL     OW 4555   4.505   5.965   2.777
 1219SOL    HW1 4556   4.411   5.944   2.749
 1219SOL    HW2 4557   4.569   5.925   2.710
 1220SOL     OW 4558   1.146   4.604   2.855
 1220SOL    HW1 4559   1.230   4.549   2.862
 1220SOL    HW2 4560   1.069   4.552   2.893
 1221SOL     OW 4561   5.710   3.900   6.132
 1221SOL    HW1 4562   5.612   3.923   6.135
 1221SOL    HW2 4563   5.740   3.873   6.224
 1222SOL     OW 4564   6.715   6.639   6.576
 1222SOL    HW1 4565   6.774   6.649   6.656
 1222SOL    HW2 4566   6.772   6.642   6.493
 1223SOL     OW 4567   3.163   6.225   0.340
 1223SOL    HW1 4568   3.071   6.208   0.374
 1223SOL    HW2 4569   3.229   6.218   0.416
 1224SOL     OW 4570   3.203   0.579   1.957
 1224SOL    HW1 4571   3.266   0.655   1.941
 1224SOL    HW2 4572   3.109   0.612   1.954
 1225SOL     OW 4573   2.576   4.337   6.699
 1225SOL    HW1 4574   2.572   4.343   6.599
 1225SOL    HW2 4575   2.661   4.379   6.731
 1226SOL     OW 4576   2.035   4.416   0.931
 1226SOL    HW1 4577   1.981   4.375   0.857
 1226SOL    HW2 4578   2.100   4.349   0.966
 1227SOL     OW 4579   0.518   3.235   6.568
 1227SOL    HW1 4580   0.424   3.242   6.600
 1227SOL    HW2 4581   0.580   3.271   6.638
 1228SOL     OW 4582   3.828   1.276   5.643
 1228SOL    HW1 4583   3.787   1.195   5.602
 1228SOL    HW2 4584   3.892   1.249   5.715
 1229SOL     OW 4585   3.888   4.274   6.537
 1229SOL    HW1 4586   3.818   4.208   6.508
 1229SOL    HW2 4587   3.843   4.358   6.567
 1230SOL     OW 4588   4.619   6.162   3.665
 1230SOL    HW1 4589   4.574   6.231   3.721
 1230SOL    HW2 4590   4.616   6.190   3.569
 1231SOL     OW 4591   1.786   4.526   4.301
 1231SOL    HW1 4592   1.875   4.480   4.299
 1231SOL    HW2 4593   1.753   4.540   4.208
 1232SOL     OW 4594   1.666   2.380   4.462
 1232SOL    HW1 4595   1.724   2.304   4.492
 1232SOL    HW2 4596   1.570   2.354   4.472
 1233SOL     OW 4597   1.001   3.163   4.634
 1233SOL    HW1 4598   1.049   3.201   4.713
 1233SOL    HW2 4599   1.047   3.080   4.603
 1234SOL     OW 4600   6.314   4.320   4.325
 1234SOL    HW1 4601   6.330   4.233   4.280
 1234SOL    HW2 4602   6.400   4.356   4.360
 1235SOL     OW 4603   6.069   6.076   4.446
 1235SOL    HW1 4604   6.072   5.991   4.394
 1235SOL    HW2 4605   6.144   6.136   4.417
 1236SOL     OW 4606   5.066   0.731   0.251
 1236SOL    HW1 4607   5.149   0.757   0.202
 1236SOL    HW2 4608   5.035   0.808   0.307
 1237SOL     OW 4609   2.949   4.311   6.883
 1237SOL    HW1 4610   3.011   4.280   6.811
 1237SOL    HW2 4611   3.002   4.357   6.954
 1238SOL     OW 4612   1.916   1.584   1.585
 1238SOL    HW1 4613   1.913   1.666   1.528
 1238SOL    HW2 4614   1.828   1.572   1.631
 1239SOL     OW 4615   7.015   6.610   6.589
 1239SOL    HW1 4616   0.076   6.658   6.626
 1239SOL    HW2 4617   0.018   6.576   6.497
 1240SOL     OW 4618   4.576   6.151   2.170
 1240SOL    HW1 4619   4.480   6.180   2.172
 1240SOL    HW2 4620   4.634   6.228   2.197
 1241SOL     OW 4621   6.218   3.229   3.263
 1241SOL    HW1 4622   6.187   3.248   3.356
 1241SOL    HW2 4623   6.311   3.264   3.250
 1242SOL     OW 4624   2.254   3.820   6.690
 1242SOL    HW1 4625   2.293   3.843   6.779
 1242SOL    HW2 4626   2.304   3.743   6.650
 1243SOL     OW 4627   2.677   5.383   5.429
 1243SOL    HW1 4628   2.661   5.441   5.348
 1243SOL    HW2 4629   2.606   5.313   5.435
 1244SOL     OW 4630   0.625   0.781   3.395
 1244SOL    HW1 4631   0.561   0.748   3.464
 1244SOL    HW2 4632   0.605   0.876   3.372
 1245SOL     OW 4633   2.930   3.303   6.066
 1245SOL    HW1 4634   2.929   3.312   5.966
 1245SOL    HW2 4635   3.025   3.301   6.098
 1246SOL     OW 4636   1.207   6.490   2.701
 1246SOL    HW1 4637   1.154   6.409   2.726
 1246SOL    HW2 4638   1.145   6.564   2.675
 1247SOL     OW 4639   1.829   6.592   6.952
 1247SOL    HW1 4640   1.924   6.559   6.957
 1247SOL    HW2 4641   1.784   6.575   0.021
 1248SOL     OW 4642   1.728   5.528   3.672
 1248SOL    HW1 4643   1.814   5.573   3.649
 1248SOL    HW2 4644   1.741   5.429   3.671
 1249SOL     OW 4645   6.174   3.188   2.856
 1249SOL    HW1 4646   6.247   3.226   2.914
 1249SOL    HW2 4647   6.087   3.194   2.904
 1250SOL     OW 4648   0.831   4.764   4.477
 1250SOL    HW1 4649   0.928   4.779   4.454
 1250SOL    HW2 4650   0.776   4.837   4.438
 1251SOL     OW 4651   3.819   0.150   5.171
 1251SOL    HW1 4652   3.892   0.213   5.145
 1251SOL    HW2 4653   3.730   0.192   5.152
 1252SOL     OW 4654   3.429   3.321   6.667
 1252SOL    HW1 4655   3.446   3.398   6.729
 1252SOL    HW2 4656   3.418   3.356   6.573
 1253SOL     OW 4657   4.199   5.953   2.764
 1253SOL    HW1 4658   4.165   5.939   2.856
 1253SOL    HW2 4659   4.181   5.871   2.709
 1254SOL     OW 4660   6.865   1.528   2.655
 1254SOL    HW1 4661   6.848   1.580   2.738
 1254SOL    HW2 4662   6.952   1.556   2.615
 1255SOL     OW 4663   5.866   6.694   7.014
 1255SOL    HW1 4664   5.918   6.670   0.078
 1255SOL    HW2 4665   5.928   6.698   6.936
 1256SOL     OW 4666   4.403   1.288   3.673
 1256SOL    HW1 4667   4.497   1.308   3.702
 1256SOL    HW2 4668   4.368   1.365   3.618
 1257SOL     OW 4669   6.219   1.700   4.045
 1257SOL    HW1 4670   6.225   1.628   4.114
 1257SOL    HW2 4671   6.303   1.754   4.045
 1258SOL     OW 4672   0.173   6.879   3.728
 1258SOL    HW1 4673   0.209   6.952   3.671
 1258SOL    HW2 4674   0.204   6.791   3.694
 1259SOL     OW 4675   4.231   2.338   5.349
 1259SOL    HW1 4676   4.199   2.375   5.437
 1259SOL    HW2 4677   4.214   2.406   5.277
 1260SOL     OW 4678   1.070   1.342   6.369
 1260SOL    HW1 4679   1.013   1.306   6.295
 1260SOL    HW2 4680   1.146   1.394   6.331
 1261SOL     OW 4681   6.460   3.950   0.886
 1261SOL    HW1 4682   6.438   4.048   0.884
 1261SOL    HW2 4683   6.509   3.925   0.803
 1262SOL     OW 4684   5.456   5.906   2.557
 1262SOL    HW1 4685   5.394   5.984   2.567
 1262SOL    HW2 4686   5.425   5.832   2.617
 1263SOL     OW 4687   0.801   2.412   3.376
 1263SOL    HW1 4688   0.786   2.479   3.303
 1263SOL    HW2 4689   0.723   2.413   3.439
 1264SOL     OW 4690   0.557   2.636   5.247
 1264SOL    HW1 4691   0.578   2.607   5.154
 1264SOL    HW2 4692   0.466   2.678   5.249
 1265SOL     OW 4693   5.534   6.487   5.359
 1265SOL    HW1 4694   5.450   6.451   5.319
 1265SOL    HW2 4695   5.581   6.544   5.292
 1266SOL     OW 4696   1.740   1.451   5.060
 1266SOL    HW1 4697   1.748   1.501   5.146
 1266SOL    HW2 4698   1.653   1.473   5.016
 1267SOL     OW 4699   3.600   0.354   3.366
 1267SOL    HW1 4700   3.600   0.417   3.444
 1267SOL    HW2 4701   3.691   0.313   3.357
 1268SOL     OW 4702   4.235   2.735   5.641
 1268SOL    HW1 4703   4.184   2.717   5.726
 1268SOL    HW2 4704   4.311   2.670   5.634
 1269SOL     OW 4705   6.094   1.960   4.196
 1269SOL    HW1 4706   6.010   2.014   4.199
 1269SOL    HW2 4707   6.104   1.911   4.283
 1270SOL     OW 4708   6.382   5.659   2.828
 1270SOL    HW1 4709   6.302   5.674   2.771
 1270SOL    HW2 4710   6.358   5.678   2.924
 1271SOL     OW 4711   1.783   1.489   1.035
 1271SOL    HW1 4712   1.788   1.405   0.982
 1271SOL    HW2 4713   1.817   1.566   0.979
 1272SOL     OW 4714   6.197   3.446   6.167
 1272SOL    HW1 4715   6.293   3.467   6.184
 1272SOL    HW2 4716   6.188   3.348   6.149
 1273SOL     OW 4717   1.210   4.506   4.990
 1273SOL    HW1 4718   1.172   4.523   5.082
 1273SOL    HW2 4719   1.293   4.560   4.978
 1274SOL     OW 4720   0.032   5.235   3.132
 1274SOL    HW1 4721   6.968   5.179   3.133
 1274SOL    HW2 4722   0.028   5.300   3.056
 1275SOL     OW 4723   2.079   1.302   3.080
 1275SOL    HW1 4724   2.063   1.203   3.081
 1275SOL    HW2 4725   2.130   1.328   3.161
 1276SOL     OW 4726   5.680   4.688   4.224
 1276SOL    HW1 4727   5.664   4.767   4.283
 1276SOL    HW2 4728   5.611   4.618   4.243
 1277SOL     OW 4729   1.103   6.009   0.487
 1277SOL    HW1 4730   1.104   6.104   0.457
 1277SOL    HW2 4731   1.113   5.949   0.408
 1278SOL     OW 4732   0.915   6.237   2.991
 1278SOL    HW1 4733   0.876   6.224   2.900
 1278SOL    HW2 4734   0.858   6.190   3.058
 1279SOL     OW 4735   2.808   2.699   1.584
 1279SOL    HW1 4736   2.903   2.666   1.575
 1279SOL    HW2 4737   2.809   2.797   1.600
 1280SOL     OW 4738   1.959   2.266   3.796
 1280SOL    HW1 4739   1.956   2.245   3.893
 1280SOL    HW2 4740   1.998   2.357   3.782
 1281SOL     OW 4741   4.688   6.067   4.609
 1281SOL    HW1 4742   4.700   6.019   4.522
 1281SOL    HW2 4743   4.744   6.024   4.680
 1282SOL     OW 4744   0.040   2.645   1.228
 1282SOL    HW1 4745   0.080   2.555   1.211
 1282SOL    HW2 4746   7.011   2.676   1.145
 1283SOL     OW 4747   6.769   3.142   4.684
 1283SOL    HW1 4748   6.817   3.154   4.771
 1283SOL    HW2 4749   6.702   3.215   4.673
 1284SOL     OW 4750   4.039   2.041   1.920
 1284SOL    HW1 4751   4.053   2.079   2.011
 1284SOL    HW2 4752   4.090   1.955   1.911
 1285SOL     OW 4753   4.298   0.947   5.293
 1285SOL    HW1 4754   4.282   0.979   5.200
 1285SOL    HW2 4755   4.391   0.912   5.301
 1286SOL     OW 4756   5.507   2.360   1.592
 1286SOL    HW1 4757   5.562   2.311   1.523
 1286SOL    HW2 4758   5.518   2.316   1.681
 1287SOL     OW 4759   6.716   4.976   4.617
 1287SOL    HW1 4760   6.811   4.979   4.648
 1287SOL    HW2 4761   6.694   5.058   4.565
 1288SOL     OW 4762   4.682   4.427   0.129
 1288SOL    HW1 4763   4.655   4.469   0.043
 1288SOL    HW2 4764   4.680   4.328   0.120
 1289SOL     OW 4765   6.953   7.014   1.717
 1289SOL    HW1 4766   6.946   7.013   1.617
 1289SOL    HW2 4767   0.003   6.948   1.746
 1290SOL     OW 4768   1.425   6.729   5.498
 1290SOL    HW1 4769   1.428   6.747   5.400
 1290SOL    HW2 4770   1.361   6.654   5.516
 1291SOL     OW 4771   6.481   4.562   3.207
 1291SOL    HW1 4772   6.448   4.642   3.258
 1291SOL    HW2 4773   6.545   4.593   3.135
 1292SOL     OW 4774   0.878   6.849   1.790
 1292SOL    HW1 4775   0.920   6.873   1.878
 1292SOL    HW2 4776   0.925   6.898   1.716
 1293SOL     OW 4777   4.617   1.266   0.118
 1293SOL    HW1 4778   4.707   1.250   0.077
 1293SOL    HW2 4779   4.549   1.206   0.075
 1294SOL     OW 4780   2.004   4.193   4.779
 1294SOL    HW1 4781   2.073   4.143   4.727
 1294SOL    HW2 4782   1.978   4.140   4.859
 1295SOL     OW 4783   6.405   4.568   0.610
 1295SOL    HW1 4784   6.402   4.626   0.529
 1295SOL    HW2 4785   6.314   4.532   0.629
 1296SOL     OW 4786   5.337   0.054   6.052
 1296SOL    HW1 4787   5.289   0.001   6.122
 1296SOL    HW2 4788   5.397   0.121   6.095
 1297SOL     OW 4789   0.429   0.852   1.881
 1297SOL    HW1 4790   0.360   0.822   1.946
 1297SOL    HW2 4791   0.519   0.823   1.912
 1298SOL     OW 4792   4.979   0.142   2.355
 1298SOL    HW1 4793   4.887   0.127   2.390
 1298SOL    HW2 4794   4.994   0.084   2.275
 1299SOL     OW 4795   0.862   3.584   4.491
 1299SOL    HW1 4796   0.882   3.597   4.588
 1299SOL    HW2 4797   0.909   3.654   4.438
 1300SOL     OW 4798   0.723   5.035   1.667
 1300SOL    HW1 4799   0.697   4.952   1.716
 1300SOL    HW2 4800   0.739   5.014   1.571
 1301SOL     OW 4801   0.438   0.325   0.607
 1301SOL    HW1 4802   0.361   0.274   0.567
 1301SOL    HW2 4803   0.470   0.393   0.541
 1302SOL     OW 4804   5.853   6.982   5.082
 1302SOL    HW1 4805   5.925   0.001   5.022
 1302SOL    HW2 4806   5.771   6.965   5.028
 1303SOL     OW 4807   3.505   6.475   1.772
 1303SOL    HW1 4808   3.410   6.452   1.747
 1303SOL    HW2 4809   3.557   6.492   1.688
 1304SOL     OW 4810   1.123   1.020   0.587
 1304SOL    HW1 4811   1.040   1.074   0.600
 1304SOL    HW2 4812   1.105   0.946   0.523
 1305SOL     OW 4813   4.650   3.381   6.332
 1305SOL    HW1 4814   4.715   3.312   6.362
 1305SOL    HW2 4815   4.573   3.337   6.286
 1306SOL     OW 4816   2.877   5.613   3.895
 1306SOL    HW1 4817   2.800   5.548   3.896
 1306SOL    HW2 4818   2.960   5.566   3.867
 1307SOL     OW 4819   2.748   2.333   3.590
 1307SOL    HW1 4820   2.834   2.282   3.585
 1307SOL    HW2 4821   2.749   2.392   3.671
 1308SOL     OW 4822   0.657   4.437   6.206
 1308SOL    HW1 4823   0.565   4.400   6.192
 1308SOL    HW2 4824   0.716   4.367   6.246
 1309SOL     OW 4825   5.647   4.787   6.653
 1309SOL    HW1 4826   5.703   4.710   6.682
 1309SOL    HW2 4827   5.553   4.773   6.684
 1310SOL     OW 4828   1.448   3.887   3.162
 1310SOL    HW1 4829   1.395   3.927   3.237
 1310SOL    HW2 4830   1.466   3.791   3.182
 1311SOL     OW 4831   6.158   5.499   0.746
 1311SOL    HW1 4832   6.178   5.405   0.719
 1311SOL    HW2 4833   6.139   5.502   0.844
 1312SOL     OW 4834   2.620   0.968   6.324
 1312SOL    HW1 4835   2.623   1.065   6.300
 1312SOL    HW2 4836   2.598   0.915   6.242
 1313SOL     OW 4837   6.697   6.200   2.457
 1313SOL    HW1 4838   6.757   6.179   2.380
 1313SOL    HW2 4839   6.707   6.129   2.527
 1314SOL     OW 4840   2.418   1.579   4.983
 1314SOL    HW1 4841   2.352   1.514   4.945
 1314SOL    HW2 4842   2.460   1.541   5.066
 1315SOL     OW 4843   6.050   1.518   3.468
 1315SOL    HW1 4844   5.964   1.466   3.475
 1315SOL    HW2 4845   6.052   1.587   3.540
 1316SOL     OW 4846   4.801   0.254   6.815
 1316SOL    HW1 4847   4.757   0.289   6.898
 1316SOL    HW2 4848   4.899   0.277   6.818
 1317SOL     OW 4849   3.411   3.567   5.917
 1317SOL    HW1 4850   3.353   3.619   5.853
 1317SOL    HW2 4851   3.430   3.477   5.879
 1318SOL     OW 4852   1.858   2.050   6.006
 1318SOL    HW1 4853   1.794   2.113   5.962
 1318SOL    HW2 4854   1.919   2.102   6.066
 1319SOL     OW 4855   6.696   0.053   1.159
 1319SOL    HW1 4856   6.743   6.996   1.114
 1319SOL    HW2 4857   6.761   0.128   1.175
 1320SOL     OW 4858   3.442   3.289   5.841
 1320SOL    HW1 4859   3.390   3.277   5.757
 1320SOL    HW2 4860   3.523   3.230   5.840
 1321SOL     OW 4861   6.364   2.670   0.465
 1321SOL    HW1 4862   6.339   2.660   0.561
 1321SOL    HW2 4863   6.330   2.756   0.429
 1322SOL     OW 4864   3.568   2.040   0.422
 1322SOL    HW1 4865   3.539   1.985   0.500
 1322SOL    HW2 4866   3.590   1.979   0.345
 1323SOL     OW 4867   3.525   6.932   0.580
 1323SOL    HW1 4868   3.481   6.857   0.531
 1323SOL    HW2 4869   3.462   7.009   0.588
 1324SOL     OW 4870   1.828   3.828   0.052
 1324SOL    HW1 4871   1.855   3.893   0.124
 1324SOL    HW2 4872   1.737   3.853   0.018
 1325SOL     OW 4873   2.957   5.889   5.395
 1325SOL    HW1 4874   2.984   5.977   5.354
 1325SOL    HW2 4875   2.934   5.824   5.323
 1326SOL     OW 4876   4.726   2.351   4.000
 1326SOL    HW1 4877   4.685   2.313   3.917
 1326SOL    HW2 4878   4.742   2.278   4.066
 1327SOL     OW 4879   5.087   5.571   2.303
 1327SOL    HW1 4880   4.994   5.535   2.293
 1327SOL    HW2 4881   5.141   5.509   2.360
 1328SOL     OW 4882   1.815   2.720   5.100
 1328SOL    HW1 4883   1.888   2.656   5.076
 1328SOL    HW2 4884   1.810   2.792   5.031
 1329SOL     OW 4885   1.141   3.009   3.661
 1329SOL    HW1 4886   1.138   3.000   3.761
 1329SOL    HW2 4887   1.236   3.019   3.632
 1330SOL     OW 4888   6.357   2.882   1.977
 1330SOL    HW1 4889   6.270   2.917   2.012
 1330SOL    HW2 4890   6.357   2.782   1.984
 1331SOL     OW 4891   4.466   1.837   3.704
 1331SOL    HW1 4892   4.367   1.821   3.705
 1331SOL    HW2 4893   4.514   1.751   3.716
 1332SOL     OW 4894   1.612   6.064   0.129
 1332SOL    HW1 4895   1.601   6.052   0.228
 1332SOL    HW2 4896   1.601   6.161   0.106
 1333SOL     OW 4897   3.698   3.981   3.333
 1333SOL    HW1 4898   3.646   4.045   3.389
 1333SOL    HW2 4899   3.700   4.014   3.238
 1334SOL     OW 4900   6.749   3.415   1.671
 1334SOL    HW1 4901   6.689   3.366   1.608
 1334SOL    HW2 4902   6.706   3.419   1.761
 1335SOL     OW 4903   1.413   3.874   2.885
 1335SOL    HW1 4904   1.409   3.926   2.971
 1335SOL    HW2 4905   1.449   3.932   2.812
 1336SOL     OW 4906   2.761   0.169   5.628
 1336SOL    HW1 4907   2.847   0.209   5.597
 1336SOL    HW2 4908   2.694   0.241   5.645
 1337SOL     OW 4909   6.570   1.152   3.238
 1337SOL    HW1 4910   6.548   1.229   3.178
 1337SOL    HW2 4911   6.517   1.072   3.209
 1338SOL     OW 4912   6.743   4.123   4.960
 1338SOL    HW1 4913   6.760   4.221   4.974
 1338SOL    HW2 4914   6.824   4.071   4.988
 1339SOL     OW 4915   0.024   0.249   6.938
 1339SOL    HW1 4916   6.968   0.315   6.933
 1339SOL    HW2 4917   0.078   0.254   6.854
 1340SOL     OW 4918   4.107   2.894   1.397
 1340SOL    HW1 4919   4.207   2.891   1.387
 1340SOL    HW2 4920   4.074   2.987   1.380
 1341SOL     OW 4921   4.959   6.014   0.251
 1341SOL    HW1 4922   4.879   5.973   0.209
 1341SOL    HW2 4923   4.961   5.990   0.348
 1342SOL     OW 4924   2.232   6.845   1.815
 1342SOL    HW1 4925   2.244   6.754   1.856
 1342SOL    HW2 4926   2.312   6.867   1.760
 1343SOL     OW 4927   5.849   5.800   3.391
 1343SOL    HW1 4928   5.939   5.785   3.432
 1343SOL    HW2 4929   5.806   5.712   3.373
 1344SOL     OW 4930   0.545   0.889   4.586
 1344SOL    HW1 4931   0.606   0.853   4.516
 1344SOL    HW2 4932   0.541   0.826   4.663
 1345SOL     OW 4933   0.040   6.313   0.334
 1345SOL    HW1 4934   6.998   6.375   0.385
 1345SOL    HW2 4935   0.124   6.361   0.309
 1346SOL     OW 4936   3.194   5.522   5.062
 1346SOL    HW1 4937   3.126   5.456   5.094
 1346SOL    HW2 4938   3.186   5.607   5.114
 1347SOL     OW 4939   1.295   6.936   6.513
 1347SOL    HW1 4940   1.294   7.001   6.589
 1347SOL    HW2 4941   1.216   6.953   6.454
 1348SOL     OW 4942   0.980   6.369   5.773
 1348SOL    HW1 4943   0.917   6.342   5.846
 1348SOL    HW2 4944   1.022   6.287   5.734
 1349SOL     OW 4945   4.832   2.804   3.728
 1349SOL    HW1 4946   4.757   2.741   3.710
 1349SOL    HW2 4947   4.827   2.836   3.822
 1350SOL     OW 4948   4.258   4.147   6.877
 1350SOL    HW1 4949   4.300   4.111   6.960
 1350SOL    HW2 4950   4.221   4.238   6.894
 1351SOL     OW 4951   0.226   2.527   5.092
 1351SOL    HW1 4952   0.184   2.570   5.012
 1351SOL    HW2 4953   0.324   2.513   5.074
 1352SOL     OW 4954   6.856   0.328   2.446
 1352SOL    HW1 4955   6.865   0.321   2.347
 1352SOL    HW2 4956   6.777   0.276   2.477
 1353SOL     OW 4957   0.686   1.064   0.551
 1353SOL    HW1 4958   0.753   1.102   0.614
 1353SOL    HW2 4959   0.713   1.085   0.457
 1354SOL     OW 4960   5.075   4.682   3.040
 1354SOL    HW1 4961   5.064   4.757   3.104
 1354SOL    HW2 4962   5.172   4.664   3.024
 1355SOL     OW 4963   5.731   2.993   6.241
 1355SOL    HW1 4964   5.747   3.024   6.147
 1355SOL    HW2 4965   5.642   3.025   6.272
 1356SOL     OW 4966   2.990   3.192   0.683
 1356SOL    HW1 4967   3.064   3.132   0.713
 1356SOL    HW2 4968   3.027   3.281   0.658
 1357SOL     OW 4969   0.509   3.573   4.666
 1357SOL    HW1 4970   0.536   3.478   4.678
 1357SOL    HW2 4971   0.461   3.583   4.578
 1358SOL     OW 4972   1.991   6.955   0.143
 1358SOL    HW1 4973   2.041   6.901   0.075
 1358SOL    HW2 4974   1.959   6.895   0.216
 1359SOL     OW 4975   6.933   4.676   2.173
 1359SOL    HW1 4976   6.881   4.595   2.202
 1359SOL    HW2 4977   6.905   4.702   2.081
 1360SOL     OW 4978   2.130   2.552   6.897
 1360SOL    HW1 4979   2.045   2.498   6.890
 1360SOL    HW2 4980   2.116   2.640   6.853
 1361SOL     OW 4981   0.303   4.869   5.309
 1361SOL    HW1 4982   0.376   4.833   5.252
 1361SOL    HW2 4983   0.216   4.827   5.282
 1362SOL     OW 4984   3.179   2.992   2.770
 1362SOL    HW1 4985   3.220   3.068   2.821
 1362SOL    HW2 4986   3.242   2.962   2.698
 1363SOL     OW 4987   0.913   6.327   4.250
 1363SOL    HW1 4988   0.850   6.256   4.219
 1363SOL    HW2 4989   1.001   6.317   4.203
 1364SOL     OW 4990   4.253   4.148   0.935
 1364SOL    HW1 4991   4.245   4.232   0.880
 1364SOL    HW2 4992   4.335   4.154   0.992
 1365SOL     OW 4993   0.450   3.037   6.986
 1365SOL    HW1 4994   0.380   2.993   6.930
 1365SOL    HW2 4995   0.445   3.001   0.061
 1366SOL     OW 4996   3.376   0.140   5.135
 1366SOL    HW1 4997   3.470   0.171   5.119
 1366SOL    HW2 4998   3.330   0.125   5.048
 1367SOL     OW 4999   2.184   1.352   2.455
 1367SOL    HW1 5000   2.145   1.280   2.513
 1367SOL    HW2 5001   2.276   1.373   2.486
 1368SOL     OW 5002   5.289   6.441   3.375
 1368SOL    HW1 5003   5.203   6.463   3.330
 1368SOL    HW2 5004   5.322   6.520   3.426
 1369SOL     OW 5005   1.066   0.820   2.942
 1369SOL    HW1 5006   1.048   0.867   2.855
 1369SOL    HW2 5007   1.145   0.863   2.986
 1370SOL     OW 5008   2.060   0.597   1.273
 1370SOL    HW1 5009   2.144   0.596   1.328
 1370SOL    HW2 5010   2.056   0.681   1.220
 1371SOL     OW 5011   3.943   0.673   6.791
 1371SOL    HW1 5012   3.914   0.585   6.754
 1371SOL    HW2 5013   3.862   0.725   6.819
 1372SOL     OW 5014   3.100   2.068   2.087
 1372SOL    HW1 5015   3.148   2.060   2.174
 1372SOL    HW2 5016   3.046   2.151   2.086
 1373SOL     OW 5017   1.272   5.943   0.699
 1373SOL    HW1 5018   1.219   5.862   0.676
 1373SOL    HW2 5019   1.303   5.988   0.615
 1374SOL     OW 5020   5.064   3.194   0.239
 1374SOL    HW1 5021   4.985   3.166   0.292
 1374SOL    HW2 5022   5.040   3.272   0.182
 1375SOL     OW 5023   0.535   4.027   5.294
 1375SOL    HW1 5024   0.471   4.073   5.233
 1375SOL    HW2 5025   0.594   4.094   5.339
 1376SOL     OW 5026   4.798   1.365   2.387
 1376SOL    HW1 5027   4.704   1.398   2.380
 1376SOL    HW2 5028   4.839   1.399   2.471
 1377SOL     OW 5029   1.052   5.794   4.564
 1377SOL    HW1 5030   0.952   5.797   4.554
 1377SOL    HW2 5031   1.077   5.716   4.620
 1378SOL     OW 5032   1.861   2.172   6.734
 1378SOL    HW1 5033   1.886   2.183   6.830
 1378SOL    HW2 5034   1.789   2.237   6.710
 1379SOL     OW 5035   4.019   5.997   0.909
 1379SOL    HW1 5036   3.935   6.051   0.906
 1379SOL    HW2 5037   4.062   5.998   0.818
 1380SOL     OW 5038   6.414   6.379   3.050
 1380SOL    HW1 5039   6.492   6.369   2.988
 1380SOL    HW2 5040   6.399   6.476   3.069
 1381SOL     OW 5041   6.220   0.316   1.467
 1381SOL    HW1 5042   6.125   0.344   1.456
 1381SOL    HW2 5043   6.228   0.252   1.543
 1382SOL     OW 5044   6.902   5.021   6.451
 1382SOL    HW1 5045   6.909   4.986   6.544
 1382SOL    HW2 5046   6.957   5.104   6.442
 1383SOL     OW 5047   2.496   0.115   0.573
 1383SOL    HW1 5048   2.559   0.113   0.495
 1383SOL    HW2 5049   2.445   0.029   0.577
 1384SOL     OW 5050   2.867   1.943   2.200
 1384SOL    HW1 5051   2.938   1.945   2.130
 1384SOL    HW2 5052   2.850   2.036   2.234
 1385SOL     OW 5053   5.445   2.851   3.598
 1385SOL    HW1 5054   5.392   2.929   3.632
 1385SOL    HW2 5055   5.383   2.784   3.558
 1386SOL     OW 5056   2.353   2.473   3.734
 1386SOL    HW1 5057   2.367   2.382   3.694
 1386SOL    HW2 5058   2.376   2.470   3.831
 1387SOL     OW 5059   2.268   0.310   4.848
 1387SOL    HW1 5060   2.282   0.364   4.766
 1387SOL    HW2 5061   2.354   0.263   4.871
 1388SOL     OW 5062   6.120   1.481   5.169
 1388SOL    HW1 5063   6.171   1.489   5.083
 1388SOL    HW2 5064   6.184   1.463   5.244
 1389SOL     OW 5065   6.337   0.841   4.196
 1389SOL    HW1 5066   6.300   0.917   4.250
 1389SOL    HW2 5067   6.378   0.877   4.112
 1390SOL     OW 5068   4.369   2.153   2.015
 1390SOL    HW1 5069   4.384   2.217   1.940
 1390SOL    HW2 5070   4.292   2.184   2.070
 1391SOL     OW 5071   5.743   1.521   4.872
 1391SOL    HW1 5072   5.708   1.615   4.863
 1391SOL    HW2 5073   5.760   1.501   4.969
 1392SOL     OW 5074   4.727   6.122   5.771
 1392SOL    HW1 5075   4.677   6.205   5.797
 1392SOL    HW2 5076   4.707   6.099   5.676
 1393SOL     OW 5077   4.880   0.601   0.072
 1393SOL    HW1 5078   4.876   0.638   0.165
 1393SOL    HW2 5079   4.967   0.553   0.059
 1394SOL     OW 5080   4.540   0.461   3.659
 1394SOL    HW1 5081   4.515   0.537   3.599
 1394SOL    HW2 5082   4.535   0.375   3.609
 1395SOL     OW 5083   1.285   5.383   2.318
 1395SOL    HW1 5084   1.268   5.317   2.245
 1395SOL    HW2 5085   1.323   5.467   2.280
 1396SOL     OW 5086   1.515   0.783   3.546
 1396SOL    HW1 5087   1.582   0.776   3.620
 1396SOL    HW2 5088   1.532   0.710   3.479
 1397SOL     OW 5089   0.450   5.341   4.827
 1397SOL    HW1 5090   0.426   5.344   4.730
 1397SOL    HW2 5091   0.490   5.252   4.849
 1398SOL     OW 5092   2.126   6.604   6.614
 1398SOL    HW1 5093   2.084   6.585   6.525
 1398SOL    HW2 5094   2.213   6.555   6.622
 1399SOL     OW 5095   3.821   6.946   0.374
 1399SOL    HW1 5096   3.830   6.849   0.399
 1399SOL    HW2 5097   3.725   6.967   0.357
 1400SOL     OW 5098   0.659   1.241   5.131
 1400SOL    HW1 5099   0.668   1.143   5.149
 1400SOL    HW2 5100   0.568   1.271   5.159
 1401SOL     OW 5101   5.254   0.239   2.872
 1401SOL    HW1 5102   5.232   0.329   2.833
 1401SOL    HW2 5103   5.234   0.168   2.805
 1402SOL     OW 5104   0.048   4.370   2.353
 1402SOL    HW1 5105   0.122   4.375   2.286
 1402SOL    HW2 5106   0.036   4.275   2.382
 1403SOL     OW 5107   3.250   3.006   6.454
 1403SOL    HW1 5108   3.309   3.022   6.533
 1403SOL    HW2 5109   3.154   3.016   6.481
 1404SOL     OW 5110   4.225   6.345   0.706
 1404SOL    HW1 5111   4.153   6.415   0.707
 1404SOL    HW2 5112   4.313   6.388   0.727
 1405SOL     OW 5113   0.653   3.894   0.634
 1405SOL    HW1 5114   0.686   3.944   0.714
 1405SOL    HW2 5115   0.635   3.958   0.560
 1406SOL     OW 5116   2.253   3.099   0.382
 1406SOL    HW1 5117   2.343   3.109   0.424
 1406SOL    HW2 5118   2.205   3.021   0.424
 1407SOL     OW 5119   0.844   2.942   1.559
 1407SOL    HW1 5120   0.828   2.915   1.465
 1407SOL    HW2 5121   0.942   2.936   1.579
 1408SOL     OW 5122   5.314   6.536   0.828
 1408SOL    HW1 5123   5.315   6.445   0.786
 1408SOL    HW2 5124   5.227   6.549   0.876
 1409SOL     OW 5125   6.348   1.472   5.713
 1409SOL    HW1 5126   6.287   1.414   5.658
 1409SOL    HW2 5127   6.293   1.536   5.767
 1410SOL     OW 5128   3.175   0.430   0.055
 1410SOL    HW1 5129   3.183   0.480   0.141
 1410SOL    HW2 5130   3.264   0.427   0.009
 1411SOL     OW 5131   3.790   4.986   6.625
 1411SOL    HW1 5132   3.799   5.006   6.527
 1411SOL    HW2 5133   3.880   4.976   6.665
 1412SOL     OW 5134   2.279   2.091   0.439
 1412SOL    HW1 5135   2.279   2.040   0.353
 1412SOL    HW2 5136   2.258   2.028   0.514
 1413SOL     OW 5137   2.340   1.928   5.276
 1413SOL    HW1 5138   2.388   1.854   5.323
 1413SOL    HW2 5139   2.395   2.012   5.282
 1414SOL     OW 5140   0.558   4.836   2.116
 1414SOL    HW1 5141   0.581   4.849   2.212
 1414SOL    HW2 5142   0.513   4.918   2.081
 1415SOL     OW 5143   2.908   1.943   4.690
 1415SOL    HW1 5144   2.874   2.015   4.750
 1415SOL    HW2 5145   2.897   1.971   4.595
 1416SOL     OW 5146   4.545   0.413   4.803
 1416SOL    HW1 5147   4.517   0.319   4.824
 1416SOL    HW2 5148   4.549   0.467   4.887
 1417SOL     OW 5149   3.621   3.495   4.396
 1417SOL    HW1 5150   3.656   3.407   4.426
 1417SOL    HW2 5151   3.525   3.504   4.425
 1418SOL     OW 5152   3.630   3.804   6.362
 1418SOL    HW1 5153   3.726   3.809   6.392
 1418SOL    HW2 5154   3.627   3.773   6.267
 1419SOL     OW 5155   1.601   6.160   2.270
 1419SOL    HW1 5156   1.697   6.187   2.275
 1419SOL    HW2 5157   1.543   6.241   2.263
 1420SOL     OW 5158   3.082   6.247   2.226
 1420SOL    HW1 5159   3.065   6.288   2.136
 1420SOL    HW2 5160   3.102   6.150   2.215
 1421SOL     OW 5161   1.963   5.296   6.555
 1421SOL    HW1 5162   1.893   5.244   6.506
 1421SOL    HW2 5163   2.053   5.262   6.530
 1422SOL     OW 5164   1.760   2.972   6.332
 1422SOL    HW1 5165   1.673   2.998   6.290
 1422SOL    HW2 5166   1.742   2.915   6.412
 1423SOL     OW 5167   3.928   0.545   5.327
 1423SOL    HW1 5168   3.997   0.612   5.301
 1423SOL    HW2 5169   3.848   0.592   5.364
 1424SOL     OW 5170   6.299   2.878   0.890
 1424SOL    HW1 5171   6.250   2.925   0.817
 1424SOL    HW2 5172   6.383   2.929   0.912
 1425SOL     OW 5173   5.540   6.964   3.759
 1425SOL    HW1 5174   5.466   6.986   3.695
 1425SOL    HW2 5175   5.532   0.003   3.840
 1426SOL     OW 5176   4.240   0.349   7.015
 1426SOL    HW1 5177   4.150   0.393   0.003
 1426SOL    HW2 5178   4.307   0.401   0.050
 1427SOL     OW 5179   1.824   0.283   4.212
 1427SOL    HW1 5180   1.770   0.281   4.296
 1427SOL    HW2 5181   1.766   0.258   4.135
 1428SOL     OW 5182   1.711   3.423   4.081
 1428SOL    HW1 5183   1.719   3.445   4.178
 1428SOL    HW2 5184   1.716   3.508   4.027
 1429SOL     OW 5185   6.216   0.461   2.132
 1429SOL    HW1 5186   6.117   0.454   2.123
 1429SOL    HW2 5187   6.239   0.490   2.224
 1430SOL     OW 5188   2.197   3.925   4.220
 1430SOL    HW1 5189   2.222   4.021   4.230
 1430SOL    HW2 5190   2.227   3.892   4.131
 1431SOL     OW 5191   3.331   1.735   0.104
 1431SOL    HW1 5192   3.371   1.826   0.098
 1431SOL    HW2 5193   3.233   1.741   0.084
 1432SOL     OW 5194   4.063   0.356   2.478
 1432SOL    HW1 5195   4.053   0.276   2.538
 1432SOL    HW2 5196   3.973   0.384   2.444
 1433SOL     OW 5197   3.034   1.308   4.143
 1433SOL    HW1 5198   3.006   1.333   4.050
 1433SOL    HW2 5199   3.023   1.386   4.204
 1434SOL     OW 5200   5.741   4.289   0.509
 1434SOL    HW1 5201   5.780   4.378   0.487
 1434SOL    HW2 5202   5.675   4.300   0.584
 1435SOL     OW 5203   1.467   6.984   3.983
 1435SOL    HW1 5204   1.563   7.000   4.007
 1435SOL    HW2 5205   1.424   6.928   4.054
 1436SOL     OW 5206   5.667   0.972   0.407
 1436SOL    HW1 5207   5.752   0.955   0.356
 1436SOL    HW2 5208   5.663   1.069   0.433
 1437SOL     OW 5209   3.692   1.030   0.793
 1437SOL    HW1 5210   3.731   1.085   0.720
 1437SOL    HW2 5211   3.763   1.007   0.859
 1438SOL     OW 5212   2.368   0.135   2.225
 1438SOL    HW1 5213   2.413   0.082   2.153
 1438SOL    HW2 5214   2.352   0.229   2.192
 1439SOL     OW 5215   0.122   5.162   6.960
 1439SOL    HW1 5216   0.066   5.163   6.877
 1439SOL    HW2 5217   0.209   5.117   6.940
 1440SOL     OW 5218   3.820   2.981   2.699
 1440SOL    HW1 5219   3.915   2.986   2.672
 1440SOL    HW2 5220   3.765   2.946   2.623
 1441SOL     OW 5221   6.266   2.176   5.075
 1441SOL    HW1 5222   6.219   2.089   5.055
 1441SOL    HW2 5223   6.312   2.208   4.993
 1442SOL     OW 5224   5.225   0.200   0.360
 1442SOL    HW1 5225   5.244   0.260   0.437
 1442SOL    HW2 5226   5.312   0.169   0.320
 1443SOL     OW 5227   1.539   2.558   3.629
 1443SOL    HW1 5228   1.461   2.605   3.671
 1443SOL    HW2 5229   1.614   2.552   3.695
 1444SOL     OW 5230   5.058   0.093   5.130
 1444SOL    HW1 5231   5.093   0.004   5.099
 1444SOL    HW2 5232   5.132   0.143   5.176
 1445SOL     OW 5233   6.721   1.892   0.116
 1445SOL    HW1 5234   6.622   1.907   0.124
 1445SOL    HW2 5235   6.747   1.813   0.171
 1446SOL     OW 5236   3.741   6.745   1.005
 1446SOL    HW1 5237   3.801   6.819   1.037
 1446SOL    HW2 5238   3.679   6.718   1.079
 1447SOL     OW 5239   6.239   1.452   4.893
 1447SOL    HW1 5240   6.304   1.516   4.852
 1447SOL    HW2 5241   6.147   1.472   4.860
 1448SOL     OW 5242   5.443   0.774   6.767
 1448SOL    HW1 5243   5.430   0.701   6.699
 1448SOL    HW2 5244   5.383   0.851   6.744
 1449SOL     OW 5245   4.594   6.135   0.869
 1449SOL    HW1 5246   4.676   6.094   0.828
 1449SOL    HW2 5247   4.518   6.128   0.805
 1450SOL     OW 5248   5.755   2.412   3.668
 1450SOL    HW1 5249   5.836   2.411   3.608
 1450SOL    HW2 5250   5.763   2.339   3.736
 1451SOL     OW 5251   1.781   6.591   2.037
 1451SOL    HW1 5252   1.855   6.658   2.044
 1451SOL    HW2 5253   1.757   6.578   1.940
 1452SOL     OW 5254   3.676   0.695   5.438
 1452SOL    HW1 5255   3.640   0.605   5.460
 1452SOL    HW2 5256   3.751   0.717   5.500
 1453SOL     OW 5257   4.237   4.706   4.331
 1453SOL    HW1 5258   4.176   4.678   4.258
 1453SOL    HW2 5259   4.189   4.703   4.418
 1454SOL     OW 5260   4.664   4.685   0.908
 1454SOL    HW1 5261   4.667   4.667   1.006
 1454SOL    HW2 5262   4.678   4.783   0.892
 1455SOL     OW 5263   2.756   1.920   1.482
 1455SOL    HW1 5264   2.750   1.920   1.382
 1455SOL    HW2 5265   2.750   2.014   1.516
 1456SOL     OW 5266   6.167   5.278   4.772
 1456SOL    HW1 5267   6.221   5.303   4.692
 1456SOL    HW2 5268   6.085   5.336   4.777
 1457SOL     OW 5269   2.292   0.027   3.707
 1457SOL    HW1 5270   2.366   0.031   3.640
 1457SOL    HW2 5271   2.210   7.008   3.664
 1458SOL     OW 5272   0.425   5.887   0.227
 1458SOL    HW1 5273   0.446   5.830   0.306
 1458SOL    HW2 5274   0.342   5.853   0.183
 1459SOL     OW 5275   2.421   6.974   0.893
 1459SOL    HW1 5276   2.393   6.937   0.804
 1459SOL    HW2 5277   2.499   6.922   0.928
 1460SOL     OW 5278   0.952   6.949   6.924
 1460SOL    HW1 5279   0.924   6.882   6.993
 1460SOL    HW2 5280   0.989   6.902   6.844
 1461SOL     OW 5281   4.633   5.454   2.385
 1461SOL    HW1 5282   4.551   5.454   2.329
 1461SOL    HW2 5283   4.713   5.430   2.329
 1462SOL     OW 5284   5.040   0.453   5.181
 1462SOL    HW1 5285   5.077   0.398   5.107
 1462SOL    HW2 5286   5.039   0.549   5.155
 1463SOL     OW 5287   0.442   1.706   5.727
 1463SOL    HW1 5288   0.343   1.701   5.721
 1463SOL    HW2 5289   0.471   1.801   5.723
 1464SOL     OW 5290   0.193   1.124   1.546
 1464SOL    HW1 5291   0.264   1.086   1.605
 1464SOL    HW2 5292   0.232   1.192   1.485
 1465SOL     OW 5293   0.725   0.393   4.418
 1465SOL    HW1 5294   0.791   0.323   4.444
 1465SOL    HW2 5295   0.644   0.387   4.476
 1466SOL     OW 5296   5.533   5.079   4.743
 1466SOL    HW1 5297   5.496   5.081   4.650
 1466SOL    HW2 5298   5.629   5.052   4.739
 1467SOL     OW 5299   5.634   3.497   3.499
 1467SOL    HW1 5300   5.603   3.403   3.491
 1467SOL    HW2 5301   5.732   3.502   3.478
 1468SOL     OW 5302   5.563   6.985   2.213
 1468SOL    HW1 5303   5.636   0.026   2.249
 1468SOL    HW2 5304   5.587   6.955   2.121
 1469SOL     OW 5305   0.544   0.989   2.407
 1469SOL    HW1 5306   0.540   0.890   2.393
 1469SOL    HW2 5307   0.562   1.008   2.504
 1470SOL     OW 5308   6.798   1.159   3.045
 1470SOL    HW1 5309   6.872   1.217   3.079
 1470SOL    HW2 5310   6.753   1.113   3.122
 1471SOL     OW 5311   6.288   0.332   1.223
 1471SOL    HW1 5312   6.298   0.430   1.207
 1471SOL    HW2 5313   6.272   0.315   1.320
 1472SOL     OW 5314   4.167   5.512   5.061
 1472SOL    HW1 5315   4.210   5.444   5.120
 1472SOL    HW2 5316   4.076   5.533   5.095
 1473SOL     OW 5317   5.966   3.965   2.942
 1473SOL    HW1 5318   5.908   3.900   2.992
 1473SOL    HW2 5319   6.062   3.938   2.951
 1474SOL     OW 5320   4.692   4.962   4.030
 1474SOL    HW1 5321   4.712   5.043   4.085
 1474SOL    HW2 5322   4.774   4.935   3.980
 1475SOL     OW 5323   6.203   0.527   3.686
 1475SOL    HW1 5324   6.291   0.563   3.656
 1475SOL    HW2 5325   6.218   0.447   3.745
 1476SOL     OW 5326   6.640   2.604   1.452
 1476SOL    HW1 5327   6.674   2.576   1.362
 1476SOL    HW2 5328   6.717   2.623   1.513
 1477SOL     OW 5329   2.313   5.836   3.430
 1477SOL    HW1 5330   2.237   5.772   3.438
 1477SOL    HW2 5331   2.399   5.788   3.448
 1478SOL     OW 5332   6.769   4.564   1.500
 1478SOL    HW1 5333   6.689   4.622   1.485
 1478SOL    HW2 5334   6.853   4.615   1.479
 1479SOL     OW 5335   0.818   4.743   0.454
 1479SOL    HW1 5336   0.822   4.644   0.468
 1479SOL    HW2 5337   0.886   4.770   0.386
 1480SOL     OW 5338   2.892   1.138   0.289
 1480SOL    HW1 5339   2.936   1.073   0.227
 1480SOL    HW2 5340   2.846   1.209   0.236
 1481SOL     OW 5341   0.100   2.639   5.917
 1481SOL    HW1 5342   0.138   2.568   5.976
 1481SOL    HW2 5343   0.009   2.611   5.886
 1482SOL     OW 5344   5.346   0.591   6.564
 1482SOL    HW1 5345   5.333   0.632   6.473
 1482SOL    HW2 5346   5.265   0.537   6.587
 1483SOL     OW 5347   6.435   2.389   6.662
 1483SOL    HW1 5348   6.455   2.470   6.607
 1483SOL    HW2 5349   6.358   2.408   6.722
 1484SOL     OW 5350   6.431   6.935   3.188
 1484SOL    HW1 5351   6.388   7.000   3.250
 1484SOL    HW2 5352   6.432   6.844   3.229
 1485SOL     OW 5353   5.984   2.539   3.915
 1485SOL    HW1 5354   6.046   2.462   3.895
 1485SOL    HW2 5355   6.003   2.614   3.853
 1486SOL     OW 5356   5.213   2.553   1.808
 1486SOL    HW1 5357   5.245   2.531   1.901
 1486SOL    HW2 5358   5.190   2.468   1.760
 1487SOL     OW 5359   6.429   1.212   6.185
 1487SOL    HW1 5360   6.340   1.171   6.167
 1487SOL    HW2 5361   6.426   1.309   6.163
 1488SOL     OW 5362   4.838   1.834   3.393
 1488SOL    HW1 5363   4.856   1.786   3.307
 1488SOL    HW2 5364   4.740   1.852   3.402
 1489SOL     OW 5365   4.128   5.261   4.476
 1489SOL    HW1 5366   4.179   5.226   4.554
 1489SOL    HW2 5367   4.073   5.340   4.504
 1490SOL     OW 5368   2.355   2.707   1.218
 1490SOL    HW1 5369   2.359   2.762   1.302
 1490SOL    HW2 5370   2.324   2.764   1.142
 1491SOL     OW 5371   6.772   2.142   5.345
 1491SOL    HW1 5372   6.812   2.221   5.298
 1491SOL    HW2 5373   6.678   2.130   5.315
 1492SOL     OW 5374   5.710   2.833   2.110
 1492SOL    HW1 5375   5.696   2.786   2.023
 1492SOL    HW2 5376   5.673   2.926   2.104
 1493SOL     OW 5377   5.963   1.747   4.926
 1493SOL    HW1 5378   5.908   1.748   5.010
 1493SOL    HW2 5379   5.927   1.814   4.862
 1494SOL     OW 5380   5.642   1.966   4.518
 1494SOL    HW1 5381   5.659   2.041   4.455
 1494SOL    HW2 5382   5.660   1.879   4.471
 1495SOL     OW 5383   0.886   3.157   2.850
 1495SOL    HW1 5384   0.974   3.194   2.822
 1495SOL    HW2 5385   0.856   3.087   2.784
 1496SOL     OW 5386   0.698   0.738   2.899
 1496SOL    HW1 5387   0.751   0.793   2.963
 1496SOL    HW2 5388   0.607   0.720   2.937
 1497SOL     OW 5389   5.310   4.510   5.919
 1497SOL    HW1 5390   5.278   4.477   6.008
 1497SOL    HW2 5391   5.234   4.549   5.868
 1498SOL     OW 5392   2.008   5.730   0.149
 1498SOL    HW1 5393   2.062   5.747   0.066
 1498SOL    HW2 5394   2.070   5.724   0.228
 1499SOL     OW 5395   0.910   4.567   4.699
 1499SOL    HW1 5396   0.929   4.475   4.664
 1499SOL    HW2 5397   0.912   4.632   4.623
 1500SOL     OW 5398   4.363   6.580   5.478
 1500SOL    HW1 5399   4.307   6.590   5.396
 1500SOL    HW2 5400   4.429   6.506   5.464
 1501SOL     OW 5401   3.954   0.420   7.016
 1501SOL    HW1 5402   3.893   0.380   0.067
 1501SOL    HW2 5403   3.902   0.439   6.933
 1502SOL     OW 5404   0.113   6.019   6.712
 1502SOL    HW1 5405   0.159   6.057   6.793
 1502SOL    HW2 5406   0.025   6.065   6.700
 1503SOL     OW 5407   3.277   4.396   5.517
 1503SOL    HW1 5408   3.263   4.495   5.507
 1503SOL    HW2 5409   3.259   4.351   5.429
 1504SOL     OW 5410   2.594   6.423   4.296
 1504SOL    HW1 5411   2.562   6.449   4.387
 1504SOL    HW2 5412   2.658   6.492   4.262
 1505SOL     OW 5413   4.905   5.802   2.158
 1505SOL    HW1 5414   4.828   5.747   2.127
 1505SOL    HW2 5415   4.990   5.757   2.133
 1506SOL     OW 5416   1.058   6.630   2.958
 1506SOL    HW1 5417   1.130   6.617   3.027
 1506SOL    HW2 5418   0.976   6.580   2.986
 1507SOL     OW 5419   2.801   2.353   6.418
 1507SOL    HW1 5420   2.861   2.333   6.495
 1507SOL    HW2 5421   2.832   2.303   6.337
 1508SOL     OW 5422   4.210   0.071   0.455
 1508SOL    HW1 5423   4.181   0.043   0.364
 1508SOL    HW2 5424   4.130   0.100   0.508
 1509SOL     OW 5425   5.593   1.661   0.198
 1509SOL    HW1 5426   5.556   1.646   0.106
 1509SOL    HW2 5427   5.637   1.578   0.230
 1510SOL     OW 5428   0.208   2.016   3.319
 1510SOL    HW1 5429   0.144   2.004   3.242
 1510SOL    HW2 5430   0.176   1.964   3.398
 1511SOL     OW 5431   1.412   2.727   0.589
 1511SOL    HW1 5432   1.370   2.673   0.661
 1511SOL    HW2 5433   1.495   2.681   0.557
 1512SOL     OW 5434   6.201   0.794   2.468
 1512SOL    HW1 5435   6.103   0.809   2.457
 1512SOL    HW2 5436   6.234   0.845   2.548
 1513SOL     OW 5437   3.810   0.971   2.326
 1513SOL    HW1 5438   3.835   1.010   2.237
 1513SOL    HW2 5439   3.716   0.997   2.348
 1514SOL     OW 5440   4.843   1.113   6.318
 1514SOL    HW1 5441   4.861   1.018   6.290
 1514SOL    HW2 5442   4.902   1.174   6.266
 1515SOL     OW 5443   6.042   5.574   5.203
 1515SOL    HW1 5444   6.133   5.548   5.170
 1515SOL    HW2 5445   6.049   5.605   5.298
 1516SOL     OW 5446   0.366   0.912   0.764
 1516SOL    HW1 5447   0.421   0.887   0.685
 1516SOL    HW2 5448   0.312   0.994   0.743
 1517SOL     OW 5449   3.622   5.307   3.615
 1517SOL    HW1 5450   3.574   5.222   3.592
 1517SOL    HW2 5451   3.605   5.329   3.711
 1518SOL     OW 5452   0.779   5.034   0.818
 1518SOL    HW1 5453   0.832   4.957   0.855
 1518SOL    HW2 5454   0.780   5.109   0.884
 1519SOL     OW 5455   0.207   4.205   1.336
 1519SOL    HW1 5456   0.115   4.198   1.374
 1519SOL    HW2 5457   0.274   4.186   1.408
 1520SOL     OW 5458   1.576   2.653   2.583
 1520SOL    HW1 5459   1.654   2.716   2.589
 1520SOL    HW2 5460   1.511   2.687   2.516
 1521SOL     OW 5461   2.718   4.199   5.354
 1521SOL    HW1 5462   2.784   4.271   5.373
 1521SOL    HW2 5463   2.767   4.115   5.330
 1522SOL     OW 5464   0.905   2.640   6.273
 1522SOL    HW1 5465   0.970   2.671   6.204
 1522SOL    HW2 5466   0.825   2.600   6.229
 1523SOL     OW 5467   6.640   0.995   0.771
 1523SOL    HW1 5468   6.607   0.982   0.677
 1523SOL    HW2 5469   6.694   1.079   0.776
 1524SOL     OW 5470   6.330   0.630   3.181
 1524SOL    HW1 5471   6.261   0.578   3.232
 1524SOL    HW2 5472   6.399   0.666   3.244
 1525SOL     OW 5473   4.583   1.443   5.861
 1525SOL    HW1 5474   4.548   1.354   5.833
 1525SOL    HW2 5475   4.520   1.515   5.831
 1526SOL     OW 5476   6.644   1.454   0.035
 1526SOL    HW1 5477   6.737   1.458   7.018
 1526SOL    HW2 5478   6.611   1.546   0.054
 1527SOL     OW 5479   3.096   1.495   5.648
 1527SOL    HW1 5480   3.125   1.508   5.553
 1527SOL    HW2 5481   3.101   1.583   5.697
 1528SOL     OW 5482   5.005   5.593   4.137
 1528SOL    HW1 5483   4.934   5.649   4.095
 1528SOL    HW2 5484   4.964   5.509   4.172
 1529SOL     OW 5485   2.892   0.712   5.081
 1529SOL    HW1 5486   2.868   0.773   5.156
 1529SOL    HW2 5487   2.900   0.765   4.996
 1530SOL     OW 5488   3.104   0.092   1.897
 1530SOL    HW1 5489   3.036   0.019   1.908
 1530SOL    HW2 5490   3.062   0.170   1.853
 1531SOL     OW 5491   5.683   0.235   6.308
 1531SOL    HW1 5492   5.603   0.232   6.366
 1531SOL    HW2 5493   5.680   0.160   6.242
 1532SOL     OW 5494   3.257   2.551   5.355
 1532SOL    HW1 5495   3.227   2.478   5.293
 1532SOL    HW2 5496   3.262   2.515   5.448
 1533SOL     OW 5497   5.041   2.793   6.690
 1533SOL    HW1 5498   5.043   2.739   6.773
 1533SOL    HW2 5499   4.980   2.871   6.702
 1534SOL     OW 5500   6.594   6.829   2.322
 1534SOL    HW1 5501   6.576   6.777   2.239
 1534SOL    HW2 5502   6.515   6.887   2.343
 1535SOL     OW 5503   4.916   4.347   4.486
 1535SOL    HW1 5504   4.862   4.428   4.510
 1535SOL    HW2 5505   4.863   4.288   4.426
 1536SOL     OW 5506   3.082   5.235   3.567
 1536SOL    HW1 5507   3.130   5.270   3.487
 1536SOL    HW2 5508   3.145   5.182   3.624
 1537SOL     OW 5509   2.524   5.399   4.115
 1537SOL    HW1 5510   2.429   5.425   4.106
 1537SOL    HW2 5511   2.548   5.334   4.043
 1538SOL     OW 5512   3.439   5.001   6.326
 1538SOL    HW1 5513   3.395   5.022   6.413
 1538SOL    HW2 5514   3.373   4.955   6.266
 1539SOL     OW 5515   3.744   5.413   1.887
 1539SOL    HW1 5516   3.662   5.388   1.836
 1539SOL    HW2 5517   3.742   5.511   1.908
 1540SOL     OW 5518   5.842   0.401   5.184
 1540SOL    HW1 5519   5.875   0.492   5.210
 1540SOL    HW2 5520   5.918   0.336   5.190
 1541SOL     OW 5521   4.603   1.502   1.088
 1541SOL    HW1 5522   4.605   1.535   0.993
 1541SOL    HW2 5523   4.695   1.502   1.126
 1542SOL     OW 5524   0.976   6.217   0.983
 1542SOL    HW1 5525   0.928   6.269   0.913
 1542SOL    HW2 5526   1.073   6.211   0.960
 1543SOL     OW 5527   3.471   3.830   3.338
 1543SOL    HW1 5528   3.563   3.863   3.360
 1543SOL    HW2 5529   3.415   3.827   3.421
 1544SOL     OW 5530   3.520   3.707   2.859
 1544SOL    HW1 5531   3.485   3.757   2.938
 1544SOL    HW2 5532   3.540   3.612   2.885
 1545SOL     OW 5533   0.031   0.769   4.087
 1545SOL    HW1 5534   0.038   0.841   4.157
 1545SOL    HW2 5535   6.959   0.727   4.092
 1546SOL     OW 5536   6.521   6.918   6.288
 1546SOL    HW1 5537   6.426   6.946   6.272
 1546SOL    HW2 5538   6.543   6.840   6.229
 1547SOL     OW 5539   3.134   5.861   6.852
 1547SOL    HW1 5540   3.093   5.873   6.761
 1547SOL    HW2 5541   3.063   5.871   6.922
 1548SOL     OW 5542   5.671   3.989   4.228
 1548SOL    HW1 5543   5.750   4.038   4.264
 1548SOL    HW2 5544   5.662   3.901   4.275
 1549SOL     OW 5545   6.665   2.239   0.578
 1549SOL    HW1 5546   6.618   2.300   0.642
 1549SOL    HW2 5547   6.601   2.214   0.504
 1550SOL     OW 5548   2.260   5.836   2.546
 1550SOL    HW1 5549   2.342   5.880   2.582
 1550SOL    HW2 5550   2.274   5.737   2.544
 1551SOL     OW 5551   0.494   3.786   1.181
 1551SOL    HW1 5552   0.543   3.700   1.187
 1551SOL    HW2 5553   0.559   3.861   1.166
 1552SOL     OW 5554   0.797   6.651   1.493
 1552SOL    HW1 5555   0.754   6.574   1.540
 1552SOL    HW2 5556   0.869   6.689   1.551
 1553SOL     OW 5557   5.544   1.177   6.196
 1553SOL    HW1 5558   5.578   1.088   6.164
 1553SOL    HW2 5559   5.486   1.217   6.126
 1554SOL     OW 5560   2.563   2.312   1.337
 1554SOL    HW1 5561   2.481   2.255   1.343
 1554SOL    HW2 5562   2.637   2.272   1.390
 1555SOL     OW 5563   4.155   0.741   0.127
 1555SOL    HW1 5564   4.067   0.785   0.109
 1555SOL    HW2 5565   4.194   0.709   0.041
 1556SOL     OW 5566   4.228   1.962   6.514
 1556SOL    HW1 5567   4.192   1.998   6.600
 1556SOL    HW2 5568   4.201   1.867   6.504
 1557SOL     OW 5569   1.642   3.637   0.578
 1557SOL    HW1 5570   1.728   3.590   0.596
 1557SOL    HW2 5571   1.567   3.587   0.622
 1558SOL     OW 5572   4.861   2.700   6.243
 1558SOL    HW1 5573   4.921   2.622   6.262
 1558SOL    HW2 5574   4.850   2.754   6.326
 1559SOL     OW 5575   3.120   5.855   3.093
 1559SOL    HW1 5576   3.055   5.802   3.039
 1559SOL    HW2 5577   3.172   5.915   3.032
 1560SOL     OW 5578   3.710   2.510   1.255
 1560SOL    HW1 5579   3.715   2.473   1.162
 1560SOL    HW2 5580   3.743   2.604   1.256
 1561SOL     OW 5581   5.588   6.529   0.975
 1561SOL    HW1 5582   5.493   6.510   0.950
 1561SOL    HW2 5583   5.647   6.455   0.943
 1562SOL     OW 5584   3.731   0.151   2.218
 1562SOL    HW1 5585   3.828   0.133   2.233
 1562SOL    HW2 5586   3.716   0.173   2.121
 1563SOL     OW 5587   1.982   2.259   4.057
 1563SOL    HW1 5588   2.079   2.250   4.079
 1563SOL    HW2 5589   1.928   2.204   4.120
 1564SOL     OW 5590   0.544   1.163   2.792
 1564SOL    HW1 5591   0.537   1.068   2.763
 1564SOL    HW2 5592   0.553   1.222   2.712
 1565SOL     OW 5593   4.031   1.347   4.651
 1565SOL    HW1 5594   4.099   1.353   4.724
 1565SOL    HW2 5595   4.010   1.438   4.616
 1566SOL     OW 5596   6.409   3.958   3.841
 1566SOL    HW1 5597   6.475   4.032   3.858
 1566SOL    HW2 5598   6.378   3.963   3.746
 1567SOL     OW 5599   5.416   0.526   5.045
 1567SOL    HW1 5600   5.423   0.504   5.142
 1567SOL    HW2 5601   5.363   0.611   5.034
 1568SOL     OW 5602   2.793   4.722   1.534
 1568SOL    HW1 5603   2.803   4.759   1.627
 1568SOL    HW2 5604   2.815   4.625   1.535
 1569SOL     OW 5605   3.043   0.765   2.338
 1569SOL    HW1 5606   2.985   0.691   2.372
 1569SOL    HW2 5607   3.127   0.769   2.393
 1570SOL     OW 5608   2.847   6.172   6.129
 1570SOL    HW1 5609   2.873   6.076   6.140
 1570SOL    HW2 5610   2.797   6.202   6.210
 1571SOL     OW 5611   6.764   3.394   3.928
 1571SOL    HW1 5612   6.716   3.398   4.015
 1571SOL    HW2 5613   6.863   3.393   3.945
 1572SOL     OW 5614   2.781   5.835   2.768
 1572SOL    HW1 5615   2.733   5.755   2.731
 1572SOL    HW2 5616   2.863   5.805   2.817
 1573SOL     OW 5617   5.127   6.186   0.106
 1573SOL    HW1 5618   5.140   6.263   0.169
 1573SOL    HW2 5619   5.073   6.114   0.150
 1574SOL     OW 5620   0.617   4.598   2.740
 1574SOL    HW1 5621   0.645   4.520   2.796
 1574SOL    HW2 5622   0.560   4.565   2.665
 1575SOL     OW 5623   6.951   2.633   0.257
 1575SOL    HW1 5624   6.933   2.542   0.294
 1575SOL    HW2 5625   6.941   2.631   0.158
 1576SOL     OW 5626   2.092   6.149   1.650
 1576SOL    HW1 5627   2.173   6.094   1.627
 1576SOL    HW2 5628   2.090   6.230   1.593
 1577SOL     OW 5629   3.772   5.882   4.567
 1577SOL    HW1 5630   3.782   5.980   4.581
 1577SOL    HW2 5631   3.836   5.852   4.496
 1578SOL     OW 5632   5.325   1.086   1.977
 1578SOL    HW1 5633   5.385   1.110   1.900
 1578SOL    HW2 5634   5.380   1.080   2.060
 1579SOL     OW 5635   1.409   2.618   1.745
 1579SOL    HW1 5636   1.375   2.700   1.791
 1579SOL    HW2 5637   1.418   2.544   1.812
 1580SOL     OW 5638   3.130   3.603   2.498
 1580SOL    HW1 5639   3.064   3.560   2.559
 1580SOL    HW2 5640   3.082   3.651   2.425
 1581SOL     OW 5641   6.272   4.398   5.186
 1581SOL    HW1 5642   6.250   4.489   5.151
 1581SOL    HW2 5643   6.206   4.373   5.257
 1582SOL     OW 5644   4.529   5.934   5.133
 1582SOL    HW1 5645   4.554   5.989   5.053
 1582SOL    HW2 5646   4.600   5.865   5.149
 1583SOL     OW 5647   1.465   5.301   4.946
 1583SOL    HW1 5648   1.512   5.348   4.871
 1583SOL    HW2 5649   1.502   5.209   4.956
 1584SOL     OW 5650   0.055   3.509   0.179
 1584SOL    HW1 5651   0.065   3.580   0.110
 1584SOL    HW2 5652   6.982   3.514   0.219
 1585SOL     OW 5653   4.463   6.316   3.823
 1585SOL    HW1 5654   4.458   6.380   3.900
 1585SOL    HW2 5655   4.370   6.292   3.795
 1586SOL     OW 5656   3.270   6.042   2.901
 1586SOL    HW1 5657   3.231   6.003   2.817
 1586SOL    HW2 5658   3.364   6.010   2.912
 1587SOL     OW 5659   3.149   6.240   6.578
 1587SOL    HW1 5660   3.212   6.283   6.643
 1587SOL    HW2 5661   3.067   6.210   6.625
 1588SOL     OW 5662   6.395   1.751   3.784
 1588SOL    HW1 5663   6.337   1.815   3.733
 1588SOL    HW2 5664   6.440   1.690   3.720
 1589SOL     OW 5665   6.568   3.848   4.464
 1589SOL    HW1 5666   6.491   3.826   4.404
 1589SOL    HW2 5667   6.557   3.941   4.500
 1590SOL     OW 5668   6.569   1.887   3.271
 1590SOL    HW1 5669   6.549   1.927   3.181
 1590SOL    HW2 5670   6.646   1.824   3.263
 1591SOL     OW 5671   1.574   5.876   1.093
 1591SOL    HW1 5672   1.528   5.799   1.136
 1591SOL    HW2 5673   1.508   5.930   1.041
 1592SOL     OW 5674   0.182   3.378   6.296
 1592SOL    HW1 5675   0.183   3.278   6.305
 1592SOL    HW2 5676   0.271   3.409   6.262
 1593SOL     OW 5677   3.508   6.676   0.155
 1593SOL    HW1 5678   3.445   6.627   0.095
 1593SOL    HW2 5679   3.595   6.627   0.159
 1594SOL     OW 5680   5.649   0.925   2.649
 1594SOL    HW1 5681   5.577   0.962   2.590
 1594SOL    HW2 5682   5.607   0.874   2.724
 1595SOL     OW 5683   0.664   3.316   0.090
 1595SOL    HW1 5684   0.682   3.383   0.162
 1595SOL    HW2 5685   0.750   3.288   0.048
 1596SOL     OW 5686   5.131   4.618   2.580
 1596SOL    HW1 5687   5.061   4.651   2.643
 1596SOL    HW2 5688   5.131   4.518   2.580
 1597SOL     OW 5689   3.377   5.757   6.959
 1597SOL    HW1 5690   3.297   5.808   6.927
 1597SOL    HW2 5691   3.403   5.788   0.031
 1598SOL     OW 5692   0.906   4.766   6.367
 1598SOL    HW1 5693   0.943   4.685   6.321
 1598SOL    HW2 5694   0.874   4.740   6.458
 1599SOL     OW 5695   4.497   5.137   2.996
 1599SOL    HW1 5696   4.591   5.115   3.022
 1599SOL    HW2 5697   4.497   5.203   2.921
 1600SOL     OW 5698   4.112   0.458   1.829
 1600SOL    HW1 5699   4.082   0.549   1.856
 1600SOL    HW2 5700   4.140   0.407   1.911
 1601SOL     OW 5701   6.399   1.242   4.698
 1601SOL    HW1 5702   6.344   1.183   4.758
 1601SOL    HW2 5703   6.431   1.188   4.620
 1602SOL     OW 5704   4.104   5.797   4.052
 1602SOL    HW1 5705   4.016   5.833   4.085
 1602SOL    HW2 5706   4.132   5.721   4.109
 1603SOL     OW 5707   2.829   4.735   2.764
 1603SOL    HW1 5708   2.768   4.681   2.705
 1603SOL    HW2 5709   2.827   4.698   2.857
 1604SOL     OW 5710   4.700   4.788   2.779
 1604SOL    HW1 5711   4.662   4.735   2.855
 1604SOL    HW2 5712   4.800   4.783   2.781
 1605SOL     OW 5713   4.819   4.911   0.597
 1605SOL    HW1 5714   4.883   4.984   0.574
 1605SOL    HW2 5715   4.777   4.931   0.686
 1606SOL     OW 5716   3.028   5.899   4.505
 1606SOL    HW1 5717   3.111   5.955   4.507
 1606SOL    HW2 5718   3.019   5.856   4.415
 1607SOL     OW 5719   4.463   4.942   3.554
 1607SOL    HW1 5720   4.432   4.884   3.629
 1607SOL    HW2 5721   4.501   5.027   3.591
 1608SOL     OW 5722   5.341   1.979   3.595
 1608SOL    HW1 5723   5.425   1.939   3.557
 1608SOL    HW2 5724   5.271   1.982   3.523
 1609SOL     OW 5725   2.232   6.900   1.484
 1609SOL    HW1 5726   2.314   6.859   1.445
 1609SOL    HW2 5727   2.215   6.860   1.574
 1610SOL     OW 5728   5.609   0.201   1.133
 1610SOL    HW1 5729   5.562   0.280   1.171
 1610SOL    HW2 5730   5.541   0.132   1.106
 1611SOL     OW 5731   1.362   4.338   0.139
 1611SOL    HW1 5732   1.432   4.290   0.193
 1611SOL    HW2 5733   1.376   4.319   0.042
 1612SOL     OW 5734   4.721   0.332   2.551
 1612SOL    HW1 5735   4.710   0.327   2.650
 1612SOL    HW2 5736   4.641   0.376   2.511
 1613SOL     OW 5737   6.720   5.423   2.354
 1613SOL    HW1 5738   6.706   5.432   2.256
 1613SOL    HW2 5739   6.644   5.466   2.403
 1614SOL     OW 5740   6.172   1.621   5.866
 1614SOL    HW1 5741   6.166   1.719   5.846
 1614SOL    HW2 5742   6.145   1.604   5.961
 1615SOL     OW 5743   0.195   3.873   6.055
 1615SOL    HW1 5744   0.111   3.898   6.103
 1615SOL    HW2 5745   0.199   3.921   5.967
 1616SOL     OW 5746   0.873   0.131   3.908
 1616SOL    HW1 5747   0.811   0.205   3.884
 1616SOL    HW2 5748   0.843   0.090   3.994
 1617SOL     OW 5749   6.287   5.735   3.669
 1617SOL    HW1 5750   6.243   5.781   3.591
 1617SOL    HW2 5751   6.368   5.788   3.696
 1618SOL     OW 5752   3.502   5.448   3.396
 1618SOL    HW1 5753   3.572   5.476   3.331
 1618SOL    HW2 5754   3.545   5.415   3.480
 1619SOL     OW 5755   0.793   4.245   6.903
 1619SOL    HW1 5756   0.800   4.325   6.963
 1619SOL    HW2 5757   0.882   4.227   6.862
 1620SOL     OW 5758   3.618   5.666   4.437
 1620SOL    HW1 5759   3.558   5.740   4.409
 1620SOL    HW2 5760   3.709   5.702   4.458
 1621SOL     OW 5761   4.703   5.484   0.669
 1621SOL    HW1 5762   4.798   5.456   0.679
 1621SOL    HW2 5763   4.651   5.410   0.626
 1622SOL     OW 5764   6.535   4.105   4.561
 1622SOL    HW1 5765   6.623   4.119   4.606
 1622SOL    HW2 5766   6.497   4.193   4.534
 1623SOL     OW 5767   0.242   1.767   2.791
 1623SOL    HW1 5768   0.314   1.760   2.722
 1623SOL    HW2 5769   0.247   1.688   2.852
 1624SOL     OW 5770   4.045   3.017   0.584
 1624SOL    HW1 5771   3.965   3.004   0.527
 1624SOL    HW2 5772   4.047   3.112   0.617
 1625SOL     OW 5773   0.732   6.814   1.015
 1625SOL    HW1 5774   0.713   6.896   0.961
 1625SOL    HW2 5775   0.755   6.738   0.953
 1626SOL     OW 5776   2.808   1.636   1.987
 1626SOL    HW1 5777   2.902   1.639   2.022
 1626SOL    HW2 5778   2.783   1.727   1.953
 1627SOL     OW 5779   3.933   2.131   5.965
 1627SOL    HW1 5780   3.842   2.132   6.005
 1627SOL    HW2 5781   3.931   2.081   5.878
 1628SOL     OW 5782   5.648   6.778   1.036
 1628SOL    HW1 5783   5.595   6.814   0.960
 1628SOL    HW2 5784   5.639   6.678   1.040
 1629SOL     OW 5785   1.788   0.088   3.716
 1629SOL    HW1 5786   1.825   7.016   3.737
 1629SOL    HW2 5787   1.859   0.157   3.727
 1630SOL     OW 5788   0.546   3.697   6.378
 1630SOL    HW1 5789   0.539   3.706   6.477
 1630SOL    HW2 5790   0.510   3.779   6.334
 1631SOL     OW 5791   6.788   3.485   0.305
 1631SOL    HW1 5792   6.711   3.480   0.241
 1631SOL    HW2 5793   6.753   3.501   0.397
 1632SOL     OW 5794   6.481   5.471   2.475
 1632SOL    HW1 5795   6.418   5.395   2.492
 1632SOL    HW2 5796   6.429   5.556   2.468
 1633SOL     OW 5797   5.497   3.698   5.183
 1633SOL    HW1 5798   5.575   3.675   5.241
 1633SOL    HW2 5799   5.423   3.633   5.200
 1634SOL     OW 5800   6.859   1.878   5.254
 1634SOL    HW1 5801   6.864   1.870   5.154
 1634SOL    HW2 5802   6.847   1.974   5.279
 1635SOL     OW 5803   3.149   6.454   3.446
 1635SOL    HW1 5804   3.136   6.537   3.501
 1635SOL    HW2 5805   3.079   6.451   3.375
 1636SOL     OW 5806   6.035   6.293   1.265
 1636SOL    HW1 5807   5.943   6.274   1.299
 1636SOL    HW2 5808   6.077   6.364   1.323
 1637SOL     OW 5809   0.841   0.904   3.074
 1637SOL    HW1 5810   0.818   0.996   3.041
 1637SOL    HW2 5811   0.929   0.875   3.034
 1638SOL     OW 5812   5.619   2.680   2.300
 1638SOL    HW1 5813   5.675   2.730   2.234
 1638SOL    HW2 5814   5.574   2.745   2.362
 1639SOL     OW 5815   4.883   2.522   2.553
 1639SOL    HW1 5816   4.847   2.444   2.501
 1639SOL    HW2 5817   4.810   2.589   2.567
 1640SOL     OW 5818   5.806   0.575   6.701
 1640SOL    HW1 5819   5.841   0.661   6.665
 1640SOL    HW2 5820   5.722   0.593   6.754
 1641SOL     OW 5821   6.057   2.289   3.054
 1641SOL    HW1 5822   6.091   2.270   3.146
 1641SOL    HW2 5823   5.988   2.361   3.057
 1642SOL     OW 5824   6.915   3.086   6.465
 1642SOL    HW1 5825   6.835   3.127   6.422
 1642SOL    HW2 5826   6.979   3.056   6.394
 1643SOL     OW 5827   2.256   5.451   4.045
 1643SOL    HW1 5828   2.159   5.476   4.049
 1643SOL    HW2 5829   2.290   5.464   3.952
 1644SOL     OW 5830   6.193   2.234   1.776
 1644SOL    HW1 5831   6.179   2.316   1.720
 1644SOL    HW2 5832   6.118   2.170   1.760
 1645SOL     OW 5833   2.301   0.472   5.451
 1645SOL    HW1 5834   2.250   0.529   5.516
 1645SOL    HW2 5835   2.323   0.525   5.369
 1646SOL     OW 5836   1.390   4.920   0.509
 1646SOL    HW1 5837   1.295   4.904   0.485
 1646SOL    HW2 5838   1.412   4.871   0.593
 1647SOL     OW 5839   5.194   3.142   4.348
 1647SOL    HW1 5840   5.236   3.070   4.404
 1647SOL    HW2 5841   5.105   3.166   4.387
 1648SOL     OW 5842   5.548   6.486   1.534
 1648SOL    HW1 5843   5.513   6.580   1.525
 1648SOL    HW2 5844   5.575   6.452   1.445
 1649SOL     OW 5845   3.577   1.630   3.199
 1649SOL    HW1 5846   3.649   1.599   3.261
 1649SOL    HW2 5847   3.491   1.583   3.220
 1650SOL     OW 5848   2.985   3.996   5.598
 1650SOL    HW1 5849   3.007   3.961   5.689
 1650SOL    HW2 5850   2.899   3.956   5.567
 1651SOL     OW 5851   1.226   2.399   3.865
 1651SOL    HW1 5852   1.134   2.389   3.903
 1651SOL    HW2 5853   1.233   2.346   3.781
 1652SOL     OW 5854   0.714   3.050   1.786
 1652SOL    HW1 5855   0.617   3.041   1.767
 1652SOL    HW2 5856   0.767   3.037   1.702
 1653SOL     OW 5857   0.349   4.759   2.608
 1653SOL    HW1 5858   0.440   4.745   2.568
 1653SOL    HW2 5859   0.314   4.848   2.581
 1654SOL     OW 5860   0.437   3.285   2.358
 1654SOL    HW1 5861   0.431   3.270   2.260
 1654SOL    HW2 5862   0.357   3.335   2.390
 1655SOL     OW 5863   0.029   0.446   5.323
 1655SOL    HW1 5864   6.961   0.480   5.287
 1655SOL    HW2 5865   0.027   0.346   5.329
 1656SOL     OW 5866   2.076   4.485   3.039
 1656SOL    HW1 5867   2.151   4.419   3.046
 1656SOL    HW2 5868   2.114   4.574   3.013
 1657SOL     OW 5869   0.211   6.653   5.926
 1657SOL    HW1 5870   0.282   6.610   5.983
 1657SOL    HW2 5871   0.208   6.608   5.837
 1658SOL     OW 5872   5.480   6.350   6.059
 1658SOL    HW1 5873   5.384   6.348   6.088
 1658SOL    HW2 5874   5.529   6.419   6.112
 1659SOL     OW 5875   4.001   0.016   5.788
 1659SOL    HW1 5876   3.956   7.013   5.875
 1659SOL    HW2 5877   3.932   0.039   5.719
 1660SOL     OW 5878   2.133   0.835   2.114
 1660SOL    HW1 5879   2.077   0.833   2.031
 1660SOL    HW2 5880   2.229   0.823   2.090
 1661SOL     OW 5881   5.138   4.359   2.514
 1661SOL    HW1 5882   5.116   4.310   2.598
 1661SOL    HW2 5883   5.056   4.370   2.458
 1662SOL     OW 5884   0.584   2.033   3.716
 1662SOL    HW1 5885   0.681   2.051   3.727
 1662SOL    HW2 5886   0.568   1.934   3.711
 1663SOL     OW 5887   5.039   4.402   0.901
 1663SOL    HW1 5888   5.105   4.438   0.967
 1663SOL    HW2 5889   4.966   4.355   0.950
 1664SOL     OW 5890   0.960   0.129   6.635
 1664SOL    HW1 5891   1.046   0.167   6.601
 1664SOL    HW2 5892   0.885   0.192   6.616
 1665SOL     OW 5893   2.843   4.081   6.964
 1665SOL    HW1 5894   2.932   4.045   6.992
 1665SOL    HW2 5895   2.856   4.167   6.915
 1666SOL     OW 5896   4.924   6.421   5.867
 1666SOL    HW1 5897   4.913   6.321   5.858
 1666SOL    HW2 5898   4.871   6.466   5.796
 1667SOL     OW 5899   6.723   6.275   1.288
 1667SOL    HW1 5900   6.817   6.293   1.259
 1667SOL    HW2 5901   6.687   6.197   1.237
 1668SOL     OW 5902   5.836   3.726   2.312
 1668SOL    HW1 5903   5.935   3.735   2.300
 1668SOL    HW2 5904   5.812   3.755   2.405
 1669SOL     OW 5905   6.973   3.400   5.485
 1669SOL    HW1 5906   6.930   3.485   5.516
 1669SOL    HW2 5907   0.024   3.420   5.416
 1670SOL     OW 5908   2.534   4.634   5.734
 1670SOL    HW1 5909   2.583   4.718   5.707
 1670SOL    HW2 5910   2.595   4.556   5.726
 1671SOL     OW 5911   6.124   2.219   0.716
 1671SOL    HW1 5912   6.078   2.133   0.738
 1671SOL    HW2 5913   6.220   2.201   0.694
 1672SOL     OW 5914   0.626   2.507   1.044
 1672SOL    HW1 5915   0.546   2.562   1.018
 1672SOL    HW2 5916   0.700   2.524   0.979
 1673SOL     OW 5917   1.591   0.697   4.441
 1673SOL    HW1 5918   1.684   0.672   4.466
 1673SOL    HW2 5919   1.581   0.694   4.342
 1674SOL     OW 5920   4.859   1.772   2.814
 1674SOL    HW1 5921   4.773   1.803   2.772
 1674SOL    HW2 5922   4.861   1.672   2.816
 1675SOL     OW 5923   5.041   0.714   1.770
 1675SOL    HW1 5924   5.100   0.647   1.727
 1675SOL    HW2 5925   5.077   0.736   1.861
 1676SOL     OW 5926   1.211   2.426   3.005
 1676SOL    HW1 5927   1.205   2.437   2.906
 1676SOL    HW2 5928   1.272   2.495   3.043
 1677SOL     OW 5929   3.283   2.921   3.482
 1677SOL    HW1 5930   3.229   2.854   3.432
 1677SOL    HW2 5931   3.341   2.972   3.418
 1678SOL     OW 5932   1.215   0.090   0.670
 1678SOL    HW1 5933   1.280   0.031   0.622
 1678SOL    HW2 5934   1.255   0.181   0.682
 1679SOL     OW 5935   6.877   1.844   6.660
 1679SOL    HW1 5936   6.895   1.782   6.583
 1679SOL    HW2 5937   6.942   1.826   6.734
 1680SOL     OW 5938   5.507   2.612   3.160
 1680SOL    HW1 5939   5.471   2.527   3.122
 1680SOL    HW2 5940   5.581   2.591   3.224
 1681SOL     OW 5941   2.905   6.224   4.883
 1681SOL    HW1 5942   3.002   6.239   4.901
 1681SOL    HW2 5943   2.862   6.311   4.857
 1682SOL     OW 5944   3.651   0.104   3.877
 1682SOL    HW1 5945   3.692   0.163   3.946
 1682SOL    HW2 5946   3.698   0.016   3.876
 1683SOL     OW 5947   6.238   3.590   3.021
 1683SOL    HW1 5948   6.282   3.505   2.992
 1683SOL    HW2 5949   6.231   3.592   3.120
 1684SOL     OW 5950   2.474   5.161   2.137
 1684SOL    HW1 5951   2.543   5.205   2.079
 1684SOL    HW2 5952   2.418   5.100   2.081
 1685SOL     OW 5953   0.381   1.090   5.764
 1685SOL    HW1 5954   0.396   1.057   5.671
 1685SOL    HW2 5955   0.328   1.175   5.761
 1686SOL     OW 5956   4.767   5.061   3.060
 1686SOL    HW1 5957   4.847   5.109   3.095
 1686SOL    HW2 5958   4.789   5.018   2.972
 1687SOL     OW 5959   4.917   4.763   1.177
 1687SOL    HW1 5960   4.859   4.683   1.164
 1687SOL    HW2 5961   4.863   4.838   1.215
 1688SOL     OW 5962   1.077   0.649   2.552
 1688SOL    HW1 5963   1.134   0.726   2.522
 1688SOL    HW2 5964   1.128   0.564   2.539
 1689SOL     OW 5965   4.397   0.740   1.490
 1689SOL    HW1 5966   4.336   0.664   1.513
 1689SOL    HW2 5967   4.422   0.733   1.393
 1690SOL     OW 5968   0.236   5.210   3.818
 1690SOL    HW1 5969   0.155   5.227   3.762
 1690SOL    HW2 5970   0.258   5.113   3.816
 1691SOL     OW 5971   4.454   2.470   5.061
 1691SOL    HW1 5972   4.476   2.566   5.049
 1691SOL    HW2 5973   4.355   2.458   5.059
 1692SOL     OW 5974   5.001   4.983   1.610
 1692SOL    HW1 5975   4.966   4.961   1.701
 1692SOL    HW2 5976   4.962   5.070   1.580
 1693SOL     OW 5977   5.631   6.755   5.795
 1693SOL    HW1 5978   5.553   6.787   5.848
 1693SOL    HW2 5979   5.665   6.830   5.738
 1694SOL     OW 5980   4.722   1.739   6.152
 1694SOL    HW1 5981   4.641   1.781   6.111
 1694SOL    HW2 5982   4.761   1.800   6.221
 1695SOL     OW 5983   3.217   0.865   6.653
 1695SOL    HW1 5984   3.263   0.937   6.706
 1695SOL    HW2 5985   3.222   0.778   6.703
 1696SOL     OW 5986   4.629   5.931   0.538
 1696SOL    HW1 5987   4.589   6.022   0.547
 1696SOL    HW2 5988   4.568   5.864   0.579
 1697SOL     OW 5989   4.709   2.715   2.132
 1697SOL    HW1 5990   4.804   2.687   2.144
 1697SOL    HW2 5991   4.706   2.807   2.091
 1698SOL     OW 5992   4.172   1.329   1.277
 1698SOL    HW1 5993   4.263   1.354   1.310
 1698SOL    HW2 5994   4.127   1.410   1.240
 1699SOL     OW 5995   2.333   0.291   0.185
 1699SOL    HW1 5996   2.401   0.243   0.241
 1699SOL    HW2 5997   2.360   0.387   0.176
 1700SOL     OW 5998   5.208   2.626   3.104
 1700SOL    HW1 5999   5.203   2.540   3.053
 1700SOL    HW2 6000   5.176   2.701   3.047
 1701SOL     OW 6001   6.911   6.162   5.129
 1701SOL    HW1 6002   6.915   6.185   5.226
 1701SOL    HW2 6003   6.874   6.240   5.078
 1702SOL     OW 6004   2.388   2.471   6.837
 1702SOL    HW1 6005   2.295   2.505   6.854
 1702SOL    HW2 6006   2.384   2.394   6.773
 1703SOL     OW 6007   1.289   1.695   1.920
 1703SOL    HW1 6008   1.354   1.661   1.988
 1703SOL    HW2 6009   1.339   1.735   1.843
 1704SOL     OW 6010   3.465   2.259   0.814
 1704SOL    HW1 6011   3.515   2.340   0.843
 1704SOL    HW2 6012   3.444   2.202   0.893
 1705SOL     OW 6013   4.815   2.922   0.683
 1705SOL    HW1 6014   4.914   2.930   0.679
 1705SOL    HW2 6015   4.789   2.826   0.674
 1706SOL     OW 6016   5.838   2.676   6.368
 1706SOL    HW1 6017   5.782   2.603   6.406
 1706SOL    HW2 6018   5.845   2.750   6.435
 1707SOL     OW 6019   4.523   1.336   2.347
 1707SOL    HW1 6020   4.443   1.282   2.322
 1707SOL    HW2 6021   4.497   1.433   2.351
 1708SOL     OW 6022   2.915   4.759   2.138
 1708SOL    HW1 6023   2.863   4.695   2.082
 1708SOL    HW2 6024   2.997   4.788   2.088
 1709SOL     OW 6025   4.791   5.280   0.941
 1709SOL    HW1 6026   4.856   5.271   1.016
 1709SOL    HW2 6027   4.822   5.351   0.878
 1710SOL     OW 6028   4.929   4.400   2.277
 1710SOL    HW1 6029   4.843   4.442   2.249
 1710SOL    HW2 6030   4.912   4.306   2.308
 1711SOL     OW 6031   4.022   5.186   6.825
 1711SOL    HW1 6032   3.930   5.192   6.863
 1711SOL    HW2 6033   4.036   5.095   6.786
 1712SOL     OW 6034   0.748   1.608   1.758
 1712SOL    HW1 6035   0.842   1.639   1.768
 1712SOL    HW2 6036   0.729   1.593   1.661
 1713SOL     OW 6037   3.610   1.440   2.969
 1713SOL    HW1 6038   3.568   1.528   2.990
 1713SOL    HW2 6039   3.598   1.378   3.047
 1714SOL     OW 6040   3.051   3.869   0.937
 1714SOL    HW1 6041   3.093   3.859   0.846
 1714SOL    HW2 6042   3.022   3.963   0.950
 1715SOL     OW 6043   2.113   6.333   2.080
 1715SOL    HW1 6044   2.050   6.389   2.026
 1715SOL    HW2 6045   2.164   6.272   2.020
 1716SOL     OW 6046   4.051   1.079   3.087
 1716SOL    HW1 6047   4.022   1.159   3.035
 1716SOL    HW2 6048   4.014   0.996   3.044
 1717SOL     OW 6049   3.406   5.950   4.721
 1717SOL    HW1 6050   3.402   5.850   4.717
 1717SOL    HW2 6051   3.374   5.989   4.634
 1718SOL     OW 6052   1.559   2.940   1.416
 1718SOL    HW1 6053   1.572   3.010   1.346
 1718SOL    HW2 6054   1.522   2.857   1.373
 1719SOL     OW 6055   0.804   5.360   2.341
 1719SOL    HW1 6056   0.880   5.295   2.347
 1719SOL    HW2 6057   0.727   5.327   2.395
 1720SOL     OW 6058   0.640   3.228   5.251
 1720SOL    HW1 6059   0.569   3.174   5.207
 1720SOL    HW2 6060   0.717   3.169   5.274
 1721SOL     OW 6061   2.200   2.834   0.202
 1721SOL    HW1 6062   2.141   2.901   0.246
 1721SOL    HW2 6063   2.269   2.802   0.267
 1722SOL     OW 6064   2.600   2.475   4.766
 1722SOL    HW1 6065   2.569   2.526   4.685
 1722SOL    HW2 6066   2.585   2.531   4.848
 1723SOL     OW 6067   6.178   4.410   1.376
 1723SOL    HW1 6068   6.273   4.433   1.358
 1723SOL    HW2 6069   6.160   4.411   1.474
 1724SOL     OW 6070   6.002   2.632   0.998
 1724SOL    HW1 6071   5.977   2.728   1.001
 1724SOL    HW2 6072   6.009   2.602   0.903
 1725SOL     OW 6073   1.931   6.215   6.304
 1725SOL    HW1 6074   1.836   6.227   6.335
 1725SOL    HW2 6075   1.932   6.175   6.213
 1726SOL     OW 6076   5.512   3.940   2.688
 1726SOL    HW1 6077   5.553   4.031   2.681
 1726SOL    HW2 6078   5.415   3.946   2.663
 1727SOL     OW 6079   3.189   4.092   3.141
 1727SOL    HW1 6080   3.168   4.073   3.237
 1727SOL    HW2 6081   3.132   4.034   3.083
 1728SOL     OW 6082   5.371   2.722   4.265
 1728SOL    HW1 6083   5.414   2.812   4.272
 1728SOL    HW2 6084   5.308   2.709   4.341
 1729SOL     OW 6085   1.507   2.886   2.928
 1729SOL    HW1 6086   1.536   2.798   2.889
 1729SOL    HW2 6087   1.409   2.899   2.914
 1730SOL     OW 6088   2.022   5.945   4.168
 1730SOL    HW1 6089   2.121   5.935   4.182
 1730SOL    HW2 6090   1.990   6.028   4.213
 1731SOL     OW 6091   5.696   5.152   3.657
 1731SOL    HW1 6092   5.714   5.200   3.572
 1731SOL    HW2 6093   5.767   5.174   3.724
 1732SOL     OW 6094   2.631   3.581   5.427
 1732SOL    HW1 6095   2.725   3.585   5.392
 1732SOL    HW2 6096   2.578   3.656   5.388
 1733SOL     OW 6097   1.949   3.008   5.938
 1733SOL    HW1 6098   1.959   3.083   5.873
 1733SOL    HW2 6099   1.982   3.037   6.028
 1734SOL     OW 6100   6.554   2.978   0.966
 1734SOL    HW1 6101   6.572   2.910   1.037
 1734SOL    HW2 6102   6.581   3.068   0.999
 1735SOL     OW 6103   3.865   5.495   6.197
 1735SOL    HW1 6104   3.936   5.530   6.259
 1735SOL    HW2 6105   3.793   5.451   6.250
 1736SOL     OW 6106   5.201   2.392   6.491
 1736SOL    HW1 6107   5.286   2.443   6.505
 1736SOL    HW2 6108   5.205   2.344   6.404
 1737SOL     OW 6109   3.484   1.267   5.672
 1737SOL    HW1 6110   3.407   1.204   5.671
 1737SOL    HW2 6111   3.558   1.230   5.616
 1738SOL     OW 6112   2.111   3.202   3.172
 1738SOL    HW1 6113   2.140   3.178   3.079
 1738SOL    HW2 6114   2.159   3.144   3.238
 1739SOL     OW 6115   5.482   0.104   3.011
 1739SOL    HW1 6116   5.416   0.162   2.963
 1739SOL    HW2 6117   5.466   0.008   2.988
 1740SOL     OW 6118   6.021   3.051   4.888
 1740SOL    HW1 6119   6.016   2.961   4.844
 1740SOL    HW2 6120   5.943   3.063   4.949
 1741SOL     OW 6121   0.395   1.834   4.989
 1741SOL    HW1 6122   0.400   1.928   5.023
 1741SOL    HW2 6123   0.414   1.833   4.891
 1742SOL     OW 6124   6.509   6.803   6.566
 1742SOL    HW1 6125   6.579   6.732   6.567
 1742SOL    HW2 6126   6.508   6.847   6.476
 1743SOL     OW 6127   1.763   1.587   2.150
 1743SOL    HW1 6128   1.822   1.523   2.199
 1743SOL    HW2 6129   1.751   1.670   2.205
 1744SOL     OW 6130   3.723   2.193   5.315
 1744SOL    HW1 6131   3.811   2.186   5.361
 1744SOL    HW2 6132   3.735   2.181   5.216
 1745SOL     OW 6133   6.077   6.314   0.974
 1745SOL    HW1 6134   6.084   6.303   1.073
 1745SOL    HW2 6135   6.161   6.282   0.931
 1746SOL     OW 6136   2.501   4.625   3.260
 1746SOL    HW1 6137   2.460   4.565   3.191
 1746SOL    HW2 6138   2.504   4.718   3.225
 1747SOL     OW 6139   3.900   7.008   2.808
 1747SOL    HW1 6140   3.904   6.926   2.864
 1747SOL    HW2 6141   3.830   6.998   2.738
 1748SOL     OW 6142   0.009   2.400   4.378
 1748SOL    HW1 6143   0.060   2.423   4.295
 1748SOL    HW2 6144   6.963   2.473   4.399
 1749SOL     OW 6145   0.089   5.333   1.452
 1749SOL    HW1 6146   0.056   5.384   1.373
 1749SOL    HW2 6147   0.042   5.364   1.534
 1750SOL     OW 6148   2.907   0.693   0.217
 1750SOL    HW1 6149   2.991   0.640   0.232
 1750SOL    HW2 6150   2.907   0.727   0.123
 1751SOL     OW 6151   5.350   3.411   4.631
 1751SOL    HW1 6152   5.258   3.440   4.607
 1751SOL    HW2 6153   5.356   3.312   4.628
 1752SOL     OW 6154   6.999   0.738   2.282
 1752SOL    HW1 6155   6.908   0.698   2.288
 1752SOL    HW2 6156   6.993   0.826   2.233
 1753SOL     OW 6157   6.502   1.398   1.274
 1753SOL    HW1 6158   6.484   1.383   1.177
 1753SOL    HW2 6159   6.533   1.312   1.315
 1754SOL     OW 6160   3.110   5.657   3.511
 1754SOL    HW1 6161   3.028   5.602   3.500
 1754SOL    HW2 6162   3.094   5.748   3.474
 1755SOL     OW 6163   6.892   6.821   5.497
 1755SOL    HW1 6164   6.896   6.921   5.489
 1755SOL    HW2 6165   6.910   6.779   5.408
 1756SOL     OW 6166   4.903   5.868   0.504
 1756SOL    HW1 6167   4.808   5.860   0.535
 1756SOL    HW2 6168   4.929   5.786   0.453
 1757SOL     OW 6169   2.892   4.809   5.264
 1757SOL    HW1 6170   2.866   4.769   5.176
 1757SOL    HW2 6171   2.900   4.737   5.332
 1758SOL     OW 6172   1.482   5.970   3.960
 1758SOL    HW1 6173   1.517   5.879   3.984
 1758SOL    HW2 6174   1.488   6.030   4.039
 1759SOL     OW 6175   1.259   6.147   0.075
 1759SOL    HW1 6176   1.189   6.113   0.012
 1759SOL    HW2 6177   1.268   6.085   0.153
 1760SOL     OW 6178   6.926   1.736   4.361
 1760SOL    HW1 6179   6.983   1.785   4.427
 1760SOL    HW2 6180   6.984   1.686   4.297
 1761SOL     OW 6181   5.137   0.983   2.638
 1761SOL    HW1 6182   5.215   0.989   2.700
 1761SOL    HW2 6183   5.068   1.050   2.663
 1762SOL     OW 6184   0.667   1.532   5.555
 1762SOL    HW1 6185   0.676   1.629   5.578
 1762SOL    HW2 6186   0.592   1.491   5.608
 1763SOL     OW 6187   1.233   4.953   3.908
 1763SOL    HW1 6188   1.210   4.857   3.921
 1763SOL    HW2 6189   1.235   4.975   3.811
 1764SOL     OW 6190   1.204   6.197   3.520
 1764SOL    HW1 6191   1.129   6.219   3.582
 1764SOL    HW2 6192   1.268   6.274   3.515
 1765SOL     OW 6193   5.815   3.968   2.107
 1765SOL    HW1 6194   5.735   4.015   2.071
 1765SOL    HW2 6195   5.792   3.923   2.193
 1766SOL     OW 6196   4.294   4.608   3.929
 1766SOL    HW1 6197   4.206   4.637   3.966
 1766SOL    HW2 6198   4.326   4.676   3.864
 1767SOL     OW 6199   0.214   5.055   2.127
 1767SOL    HW1 6200   0.138   5.119   2.115
 1767SOL    HW2 6201   0.195   4.994   2.203
 1768SOL     OW 6202   5.627   4.814   2.267
 1768SOL    HW1 6203   5.605   4.762   2.184
 1768SOL    HW2 6204   5.556   4.798   2.336
 1769SOL     OW 6205   5.469   0.417   0.904
 1769SOL    HW1 6206   5.548   0.357   0.915
 1769SOL    HW2 6207   5.489   0.486   0.835
 1770SOL     OW 6208   1.748   4.908   0.578
 1770SOL    HW1 6209   1.834   4.939   0.536
 1770SOL    HW2 6210   1.705   4.985   0.626
 1771SOL     OW 6211   1.938   3.189   5.740
 1771SOL    HW1 6212   1.957   3.147   5.652
 1771SOL    HW2 6213   1.951   3.288   5.734
 1772SOL     OW 6214   2.303   4.157   2.287
 1772SOL    HW1 6215   2.232   4.116   2.229
 1772SOL    HW2 6216   2.303   4.111   2.376
 1773SOL     OW 6217   2.276   6.090   5.881
 1773SOL    HW1 6218   2.373   6.114   5.882
 1773SOL    HW2 6219   2.263   6.004   5.831
 1774SOL     OW 6220   5.355   5.480   1.110
 1774SOL    HW1 6221   5.397   5.451   1.196
 1774SOL    HW2 6222   5.426   5.515   1.049
 1775SOL     OW 6223   2.005   5.119   0.860
 1775SOL    HW1 6224   2.085   5.125   0.920
 1775SOL    HW2 6225   2.020   5.047   0.793
 1776SOL     OW 6226   4.539   2.818   5.626
 1776SOL    HW1 6227   4.565   2.818   5.723
 1776SOL    HW2 6228   4.613   2.857   5.571
 1777SOL     OW 6229   4.397   5.862   0.050
 1777SOL    HW1 6230   4.433   5.954   0.039
 1777SOL    HW2 6231   4.422   5.826   0.141
 1778SOL     OW 6232   6.543   0.297   4.441
 1778SOL    HW1 6233   6.477   0.230   4.474
 1778SOL    HW2 6234   6.523   0.320   4.346
 1779SOL     OW 6235   5.799   0.424   4.291
 1779SOL    HW1 6236   5.836   0.380   4.209
 1779SOL    HW2 6237   5.842   0.513   4.302
 1780SOL     OW 6238   2.387   5.480   5.564
 1780SOL    HW1 6239   2.419   5.424   5.640
 1780SOL    HW2 6240   2.456   5.550   5.544
 1781SOL     OW 6241   4.166   0.721   5.291
 1781SOL    HW1 6242   4.232   0.796   5.296
 1781SOL    HW2 6243   4.188   0.653   5.361
 1782SOL     OW 6244   5.439   1.501   2.336
 1782SOL    HW1 6245   5.413   1.573   2.400
 1782SOL    HW2 6246   5.535   1.476   2.349
 1783SOL     OW 6247   1.825   4.125   0.040
 1783SOL    HW1 6248   1.910   4.081   0.068
 1783SOL    HW2 6249   1.749   4.092   0.096
 1784SOL     OW 6250   2.976   0.309   1.761
 1784SOL    HW1 6251   2.940   0.289   1.670
 1784SOL    HW2 6252   2.910   0.363   1.812
 1785SOL     OW 6253   1.433   6.580   4.492
 1785SOL    HW1 6254   1.477   6.592   4.403
 1785SOL    HW2 6255   1.503   6.578   4.564
 1786SOL     OW 6256   0.973   6.256   1.576
 1786SOL    HW1 6257   0.971   6.275   1.478
 1786SOL    HW2 6258   1.060   6.214   1.600
 1787SOL     OW 6259   2.130   3.310   5.513
 1787SOL    HW1 6260   2.224   3.339   5.529
 1787SOL    HW2 6261   2.129   3.215   5.484
 1788SOL     OW 6262   4.270   3.365   0.765
 1788SOL    HW1 6263   4.259   3.273   0.804
 1788SOL    HW2 6264   4.190   3.421   0.789
 1789SOL     OW 6265   6.500   3.247   2.300
 1789SOL    HW1 6266   6.410   3.209   2.279
 1789SOL    HW2 6267   6.491   3.345   2.320
 1790SOL     OW 6268   1.640   2.225   4.821
 1790SOL    HW1 6269   1.588   2.293   4.872
 1790SOL    HW2 6270   1.674   2.155   4.884
 1791SOL     OW 6271   4.972   0.326   3.849
 1791SOL    HW1 6272   4.983   0.390   3.925
 1791SOL    HW2 6273   4.976   0.232   3.884
 1792SOL     OW 6274   0.339   2.521   6.580
 1792SOL    HW1 6275   0.290   2.564   6.505
 1792SOL    HW2 6276   0.343   2.422   6.565
 1793SOL     OW 6277   6.658   1.351   5.456
 1793SOL    HW1 6278   6.659   1.401   5.543
 1793SOL    HW2 6279   6.609   1.265   5.467
 1794SOL     OW 6280   0.313   0.895   6.381
 1794SOL    HW1 6281   0.255   0.896   6.463
 1794SOL    HW2 6282   0.403   0.858   6.405
 1795SOL     OW 6283   5.387   4.572   1.105
 1795SOL    HW1 6284   5.389   4.491   1.048
 1795SOL    HW2 6285   5.465   4.571   1.168
 1796SOL     OW 6286   6.808   0.182   0.525
 1796SOL    HW1 6287   6.769   0.094   0.552
 1796SOL    HW2 6288   6.896   0.194   0.570
 1797SOL     OW 6289   2.833   5.461   5.663
 1797SOL    HW1 6290   2.915   5.517   5.668
 1797SOL    HW2 6291   2.816   5.435   5.568
 1798SOL     OW 6292   2.193   3.875   5.309
 1798SOL    HW1 6293   2.196   3.775   5.314
 1798SOL    HW2 6294   2.268   3.908   5.253
 1799SOL     OW 6295   2.973   1.476   1.416
 1799SOL    HW1 6296   2.971   1.492   1.515
 1799SOL    HW2 6297   3.060   1.507   1.379
 1800SOL     OW 6298   6.245   3.148   5.519
 1800SOL    HW1 6299   6.311   3.096   5.573
 1800SOL    HW2 6300   6.291   3.225   5.475
 1801SOL     OW 6301   0.532   0.431   3.018
 1801SOL    HW1 6302   0.525   0.507   3.082
 1801SOL    HW2 6303   0.607   0.371   3.045
 1802SOL     OW 6304   6.553   5.092   4.182
 1802SOL    HW1 6305   6.456   5.076   4.202
 1802SOL    HW2 6306   6.589   5.016   4.128
 1803SOL     OW 6307   0.004   0.226   3.695
 1803SOL    HW1 6308   0.058   0.189   3.620
 1803SOL    HW2 6309   6.965   0.154   3.734
 1804SOL     OW 6310   1.991   2.736   6.039
 1804SOL    HW1 6311   1.905   2.734   6.090
 1804SOL    HW2 6312   2.013   2.830   6.014
 1805SOL     OW 6313   6.391   4.854   0.741
 1805SOL    HW1 6314   6.319   4.848   0.671
 1805SOL    HW2 6315   6.433   4.945   0.737
 1806SOL     OW 6316   0.009   1.436   0.767
 1806SOL    HW1 6317   0.053   1.385   0.842
 1806SOL    HW2 6318   0.057   1.522   0.752
 1807SOL     OW 6319   6.291   2.821   2.899
 1807SOL    HW1 6320   6.250   2.885   2.834
 1807SOL    HW2 6321   6.376   2.784   2.861
 1808SOL     OW 6322   5.379   1.460   6.246
 1808SOL    HW1 6323   5.330   1.454   6.333
 1808SOL    HW2 6324   5.457   1.523   6.255
 1809SOL     OW 6325   5.429   0.383   5.316
 1809SOL    HW1 6326   5.367   0.443   5.368
 1809SOL    HW2 6327   5.522   0.393   5.351
 1810SOL     OW 6328   1.363   0.628   4.087
 1810SOL    HW1 6329   1.419   0.693   4.036
 1810SOL    HW2 6330   1.337   0.552   4.027
 1811SOL     OW 6331   3.671   6.098   1.977
 1811SOL    HW1 6332   3.736   6.060   1.910
 1811SOL    HW2 6333   3.708   6.089   2.069
 1812SOL     OW 6334   4.206   6.481   6.804
 1812SOL    HW1 6335   4.247   6.560   6.850
 1812SOL    HW2 6336   4.107   6.491   6.803
 1813SOL     OW 6337   4.819   3.929   2.201
 1813SOL    HW1 6338   4.833   3.848   2.257
 1813SOL    HW2 6339   4.804   4.008   2.259
 1814SOL     OW 6340   6.444   5.957   0.516
 1814SOL    HW1 6341   6.345   5.941   0.514
 1814SOL    HW2 6342   6.472   5.999   0.430
 1815SOL     OW 6343   5.196   5.956   1.074
 1815SOL    HW1 6344   5.222   5.979   0.980
 1815SOL    HW2 6345   5.151   5.867   1.075
 1816SOL     OW 6346   4.481   4.747   5.518
 1816SOL    HW1 6347   4.389   4.761   5.555
 1816SOL    HW2 6348   4.510   4.829   5.468
 1817SOL     OW 6349   0.525   2.803   3.679
 1817SOL    HW1 6350   0.477   2.827   3.763
 1817SOL    HW2 6351   0.624   2.806   3.695
 1818SOL     OW 6352   2.483   1.274   0.668
 1818SOL    HW1 6353   2.449   1.366   0.687
 1818SOL    HW2 6354   2.425   1.207   0.714
 1819SOL     OW 6355   1.622   3.942   2.066
 1819SOL    HW1 6356   1.636   4.040   2.077
 1819SOL    HW2 6357   1.557   3.910   2.135
 1820SOL     OW 6358   3.549   0.333   4.427
 1820SOL    HW1 6359   3.512   0.246   4.395
 1820SOL    HW2 6360   3.606   0.374   4.355
 1821SOL     OW 6361   3.394   1.615   2.798
 1821SOL    HW1 6362   3.320   1.617   2.865
 1821SOL    HW2 6363   3.374   1.680   2.725
 1822SOL     OW 6364   0.885   4.105   3.456
 1822SOL    HW1 6365   0.858   4.038   3.525
 1822SOL    HW2 6366   0.863   4.069   3.365
 1823SOL     OW 6367   4.263   6.487   2.910
 1823SOL    HW1 6368   4.353   6.520   2.939
 1823SOL    HW2 6369   4.268   6.388   2.895
 1824SOL     OW 6370   4.330   3.080   1.687
 1824SOL    HW1 6371   4.324   3.163   1.632
 1824SOL    HW2 6372   4.408   3.086   1.749
 1825SOL     OW 6373   0.848   3.063   5.700
 1825SOL    HW1 6374   0.802   2.981   5.735
 1825SOL    HW2 6375   0.864   3.053   5.602
 1826SOL     OW 6376   3.275   2.277   1.290
 1826SOL    HW1 6377   3.327   2.348   1.338
 1826SOL    HW2 6378   3.224   2.222   1.356
 1827SOL     OW 6379   5.428   4.748   0.822
 1827SOL    HW1 6380   5.501   4.806   0.859
 1827SOL    HW2 6381   5.468   4.666   0.782
 1828SOL     OW 6382   1.476   3.969   4.784
 1828SOL    HW1 6383   1.567   3.957   4.825
 1828SOL    HW2 6384   1.410   3.989   4.857
 1829SOL     OW 6385   3.750   6.558   2.096
 1829SOL    HW1 6386   3.664   6.607   2.080
 1829SOL    HW2 6387   3.823   6.602   2.044
 1830SOL     OW 6388   4.233   1.100   6.286
 1830SOL    HW1 6389   4.316   1.094   6.341
 1830SOL    HW2 6390   4.216   1.195   6.262
 1831SOL     OW 6391   3.229   4.532   0.430
 1831SOL    HW1 6392   3.280   4.617   0.445
 1831SOL    HW2 6393   3.294   4.456   0.420
 1832SOL     OW 6394   2.373   3.128   6.187
 1832SOL    HW1 6395   2.359   3.218   6.144
 1832SOL    HW2 6396   2.436   3.075   6.131
 1833SOL     OW 6397   6.060   0.991   6.993
 1833SOL    HW1 6398   6.150   0.991   6.949
 1833SOL    HW2 6399   6.066   0.942   0.062
 1834SOL     OW 6400   0.451   3.471   6.204
 1834SOL    HW1 6401   0.473   3.549   6.263
 1834SOL    HW2 6402   0.400   3.504   6.124
 1835SOL     OW 6403   6.963   6.078   1.108
 1835SOL    HW1 6404   6.868   6.050   1.125
 1835SOL    HW2 6405   0.005   6.026   1.169
 1836SOL     OW 6406   5.197   1.686   3.121
 1836SOL    HW1 6407   5.171   1.740   3.042
 1836SOL    HW2 6408   5.204   1.589   3.095
 1837SOL     OW 6409   2.618   2.150   0.051
 1837SOL    HW1 6410   2.601   2.154   0.150
 1837SOL    HW2 6411   2.682   2.076   0.031
 1838SOL     OW 6412   5.024   1.161   1.061
 1838SOL    HW1 6413   5.067   1.218   1.131
 1838SOL    HW2 6414   4.972   1.219   0.998
 1839SOL     OW 6415   6.053   0.374   0.324
 1839SOL    HW1 6416   6.064   0.295   0.264
 1839SOL    HW2 6417   6.101   0.453   0.285
 1840SOL     OW 6418   4.482   6.461   4.063
 1840SOL    HW1 6419   4.428   6.531   4.109
 1840SOL    HW2 6420   4.475   6.375   4.113
 1841SOL     OW 6421   1.481   0.788   1.749
 1841SOL    HW1 6422   1.446   0.779   1.842
 1841SOL    HW2 6423   1.550   0.861   1.745
 1842SOL     OW 6424   0.587   5.302   1.478
 1842SOL    HW1 6425   0.640   5.349   1.548
 1842SOL    HW2 6426   0.614   5.334   1.387
 1843SOL     OW 6427   2.589   0.694   7.002
 1843SOL    HW1 6428   2.593   0.614   0.043
 1843SOL    HW2 6429   2.670   0.751   7.018
 1844SOL     OW 6430   5.500   2.826   6.401
 1844SOL    HW1 6431   5.586   2.839   6.450
 1844SOL    HW2 6432   5.428   2.878   6.446
 1845SOL     OW 6433   1.146   2.691   3.617
 1845SOL    HW1 6434   1.059   2.727   3.582
 1845SOL    HW2 6435   1.222   2.735   3.568
 1846SOL     OW 6436   2.727   1.309   1.335
 1846SOL    HW1 6437   2.807   1.353   1.377
 1846SOL    HW2 6438   2.673   1.263   1.406
 1847SOL     OW 6439   2.199   5.476   6.097
 1847SOL    HW1 6440   2.227   5.565   6.060
 1847SOL    HW2 6441   2.114   5.486   6.148
 1848SOL     OW 6442   3.640   6.610   3.610
 1848SOL    HW1 6443   3.683   6.524   3.583
 1848SOL    HW2 6444   3.632   6.613   3.710
 1849SOL     OW 6445   4.504   2.478   2.278
 1849SOL    HW1 6446   4.600   2.461   2.299
 1849SOL    HW2 6447   4.494   2.571   2.241
 1850SOL     OW 6448   4.164   2.017   1.045
 1850SOL    HW1 6449   4.234   2.058   0.987
 1850SOL    HW2 6450   4.185   2.036   1.141
 1851SOL     OW 6451   0.047   4.953   4.604
 1851SOL    HW1 6452   0.053   4.972   4.506
 1851SOL    HW2 6453   0.134   4.972   4.648
 1852SOL     OW 6454   0.990   0.299   3.191
 1852SOL    HW1 6455   0.979   0.379   3.133
 1852SOL    HW2 6456   1.016   0.328   3.283
 1853SOL     OW 6457   0.497   2.496   5.811
 1853SOL    HW1 6458   0.519   2.564   5.741
 1853SOL    HW2 6459   0.581   2.470   5.859
 1854SOL     OW 6460   0.513   0.174   3.273
 1854SOL    HW1 6461   0.550   0.102   3.331
 1854SOL    HW2 6462   0.581   0.200   3.204
 1855SOL     OW 6463   5.629   2.482   4.974
 1855SOL    HW1 6464   5.643   2.438   4.886
 1855SOL    HW2 6465   5.552   2.438   5.021
 1856SOL     OW 6466   4.406   3.542   6.882
 1856SOL    HW1 6467   4.503   3.528   6.901
 1856SOL    HW2 6468   4.352   3.496   6.952
 1857SOL     OW 6469   3.965   0.983   6.515
 1857SOL    HW1 6470   3.900   0.931   6.572
 1857SOL    HW2 6471   4.044   0.925   6.494
 1858SOL     OW 6472   5.411   2.003   4.215
 1858SOL    HW1 6473   5.408   2.071   4.288
 1858SOL    HW2 6474   5.330   1.944   4.221
 1859SOL     OW 6475   0.101   1.124   4.107
 1859SOL    HW1 6476   0.184   1.068   4.097
 1859SOL    HW2 6477   0.044   1.087   4.180
 1860SOL     OW 6478   2.663   1.297   6.641
 1860SOL    HW1 6479   2.621   1.304   6.732
 1860SOL    HW2 6480   2.662   1.201   6.611
 1861SOL     OW 6481   6.194   6.747   4.647
 1861SOL    HW1 6482   6.242   6.762   4.733
 1861SOL    HW2 6483   6.141   6.829   4.624
 1862SOL     OW 6484   3.262   5.926   5.451
 1862SOL    HW1 6485   3.247   5.992   5.377
 1862SOL    HW2 6486   3.208   5.953   5.531
 1863SOL     OW 6487   6.624   1.768   0.785
 1863SOL    HW1 6488   6.683   1.762   0.704
 1863SOL    HW2 6489   6.584   1.860   0.790
 1864SOL     OW 6490   3.162   6.257   1.617
 1864SOL    HW1 6491   3.072   6.214   1.606
 1864SOL    HW2 6492   3.198   6.237   1.708
 1865SOL     OW 6493   6.378   2.474   5.950
 1865SOL    HW1 6494   6.358   2.409   6.023
 1865SOL    HW2 6495   6.467   2.452   5.910
 1866SOL     OW 6496   0.556   5.616   3.496
 1866SOL    HW1 6497   0.590   5.589   3.406
 1866SOL    HW2 6498   0.481   5.681   3.485
 1867SOL     OW 6499   0.831   2.059   1.550
 1867SOL    HW1 6500   0.786   1.986   1.601
 1867SOL    HW2 6501   0.866   2.128   1.613
 1868SOL     OW 6502   5.762   3.322   6.408
 1868SOL    HW1 6503   5.809   3.235   6.398
 1868SOL    HW2 6504   5.664   3.308   6.395
 1869SOL     OW 6505   5.302   0.812   5.131
 1869SOL    HW1 6506   5.343   0.799   5.221
 1869SOL    HW2 6507   5.205   0.786   5.134
 1870SOL     OW 6508   6.178   0.221   6.088
 1870SOL    HW1 6509   6.105   0.286   6.069
 1870SOL    HW2 6510   6.153   0.165   6.167
 1871SOL     OW 6511   0.819   6.316   0.034
 1871SOL    HW1 6512   0.844   6.223   0.062
 1871SOL    HW2 6513   0.842   6.329   6.956
 1872SOL     OW 6514   2.331   2.877   1.460
 1872SOL    HW1 6515   2.264   2.827   1.515
 1872SOL    HW2 6516   2.367   2.954   1.513
 1873SOL     OW 6517   6.294   1.107   1.073
 1873SOL    HW1 6518   6.280   1.080   1.169
 1873SOL    HW2 6519   6.333   1.030   1.023
 1874SOL     OW 6520   1.272   5.628   0.211
 1874SOL    HW1 6521   1.287   5.682   0.128
 1874SOL    HW2 6522   1.214   5.550   0.190
 1875SOL     OW 6523   0.159   6.280   1.952
 1875SOL    HW1 6524   0.247   6.292   1.998
 1875SOL    HW2 6525   0.087   6.322   2.007
 1876SOL     OW 6526   0.367   4.895   0.857
 1876SOL    HW1 6527   0.458   4.907   0.897
 1876SOL    HW2 6528   0.376   4.880   0.758
 1877SOL     OW 6529   1.344   2.044   2.624
 1877SOL    HW1 6530   1.309   2.103   2.697
 1877SOL    HW2 6531   1.350   1.950   2.657
 1878SOL     OW 6532   5.200   3.853   4.160
 1878SOL    HW1 6533   5.122   3.910   4.186
 1878SOL    HW2 6534   5.284   3.906   4.169
 1879SOL     OW 6535   4.610   6.268   4.434
 1879SOL    HW1 6536   4.577   6.214   4.356
 1879SOL    HW2 6537   4.647   6.207   4.503
 1880SOL     OW 6538   0.564   1.389   4.610
 1880SOL    HW1 6539   0.502   1.396   4.532
 1880SOL    HW2 6540   0.658   1.410   4.580
 1881SOL     OW 6541   2.104   1.014   3.837
 1881SOL    HW1 6542   2.007   1.023   3.813
 1881SOL    HW2 6543   2.152   0.967   3.762
 1882SOL     OW 6544   2.464   5.554   0.368
 1882SOL    HW1 6545   2.365   5.565   0.369
 1882SOL    HW2 6546   2.489   5.485   0.299
 1883SOL     OW 6547   2.477   2.562   2.493
 1883SOL    HW1 6548   2.438   2.650   2.523
 1883SOL    HW2 6549   2.499   2.507   2.574
 1884SOL     OW 6550   4.875   1.125   0.549
 1884SOL    HW1 6551   4.907   1.102   0.641
 1884SOL    HW2 6552   4.936   1.083   0.482
 1885SOL     OW 6553   0.405   1.994   0.572
 1885SOL    HW1 6554   0.379   2.088   0.550
 1885SOL    HW2 6555   0.455   1.993   0.659
 1886SOL     OW 6556   3.573   2.765   5.786
 1886SOL    HW1 6557   3.504   2.800   5.851
 1886SOL    HW2 6558   3.529   2.748   5.698
 1887SOL     OW 6559   0.606   6.352   5.169
 1887SOL    HW1 6560   0.699   6.347   5.133
 1887SOL    HW2 6561   0.550   6.280   5.128
 1888SOL     OW 6562   2.166   2.232   5.390
 1888SOL    HW1 6563   2.181   2.209   5.486
 1888SOL    HW2 6564   2.134   2.151   5.341
 1889SOL     OW 6565   2.925   3.151   0.358
 1889SOL    HW1 6566   2.883   3.138   0.448
 1889SOL    HW2 6567   3.024   3.142   0.365
 1890SOL     OW 6568   6.198   5.917   6.662
 1890SOL    HW1 6569   6.129   5.880   6.725
 1890SOL    HW2 6570   6.262   5.845   6.637
 1891SOL     OW 6571   5.612   3.730   6.789
 1891SOL    HW1 6572   5.690   3.776   6.747
 1891SOL    HW2 6573   5.585   3.780   6.872
 1892SOL     OW 6574   4.090   0.094   2.608
 1892SOL    HW1 6575   4.137   0.006   2.595
 1892SOL    HW2 6576   4.037   0.091   2.693
 1893SOL     OW 6577   3.032   0.987   5.545
 1893SOL    HW1 6578   2.973   0.909   5.523
 1893SOL    HW2 6579   2.982   1.072   5.528
 1894SOL     OW 6580   5.038   3.807   1.582
 1894SOL    HW1 6581   5.059   3.720   1.537
 1894SOL    HW2 6582   4.962   3.793   1.646
 1895SOL     OW 6583   4.288   6.142   3.605
 1895SOL    HW1 6584   4.250   6.191   3.684
 1895SOL    HW2 6585   4.332   6.207   3.544
 1896SOL     OW 6586   5.971   1.898   5.849
 1896SOL    HW1 6587   5.979   1.975   5.786
 1896SOL    HW2 6588   5.896   1.915   5.914
 1897SOL     OW 6589   5.870   4.777   3.501
 1897SOL    HW1 6590   5.840   4.784   3.406
 1897SOL    HW2 6591   5.944   4.710   3.507
 1898SOL     OW 6592   5.580   6.458   6.809
 1898SOL    HW1 6593   5.574   6.484   6.713
 1898SOL    HW2 6594   5.584   6.541   6.866
 1899SOL     OW 6595   1.721   2.080   3.453
 1899SOL    HW1 6596   1.662   2.158   3.471
 1899SOL    HW2 6597   1.724   2.061   3.355
 1900SOL     OW 6598   2.730   6.615   1.672
 1900SOL    HW1 6599   2.773   6.642   1.586
 1900SOL    HW2 6600   2.786   6.646   1.748
 1901SOL     OW 6601   1.344   0.649   5.982
 1901SOL    HW1 6602   1.417   0.580   5.982
 1901SOL    HW2 6603   1.279   0.627   5.909
 1902SOL     OW 6604   1.276   2.580   5.244
 1902SOL    HW1 6605   1.237   2.656   5.192
 1902SOL    HW2 6606   1.215   2.557   5.320
 1903SOL     OW 6607   6.793   4.649   3.972
 1903SOL    HW1 6608   6.758   4.615   3.884
 1903SOL    HW2 6609   6.882   4.607   3.991
 1904SOL     OW 6610   0.721   0.520   4.126
 1904SOL    HW1 6611   0.719   0.432   4.079
 1904SOL    HW2 6612   0.655   0.520   4.201
 1905SOL     OW 6613   6.189   2.893   4.340
 1905SOL    HW1 6614   6.138   2.976   4.362
 1905SOL    HW2 6615   6.137   2.813   4.370
 1906SOL     OW 6616   3.171   6.075   6.346
 1906SOL    HW1 6617   3.184   6.125   6.431
 1906SOL    HW2 6618   3.096   6.010   6.357
 1907SOL     OW 6619   4.548   6.029   3.916
 1907SOL    HW1 6620   4.554   6.099   3.844
 1907SOL    HW2 6621   4.637   6.019   3.960
 1908SOL     OW 6622   5.089   6.501   0.605
 1908SOL    HW1 6623   5.183   6.467   0.605
 1908SOL    HW2 6624   5.090   6.601   0.603
 1909SOL     OW 6625   4.557   5.345   4.027
 1909SOL    HW1 6626   4.485   5.277   4.014
 1909SOL    HW2 6627   4.521   5.424   4.076
 1910SOL     OW 6628   5.062   3.281   5.207
 1910SOL    HW1 6629   5.019   3.247   5.124
 1910SOL    HW2 6630   5.123   3.358   5.185
 1911SOL     OW 6631   0.264   3.689   5.779
 1911SOL    HW1 6632   0.228   3.613   5.724
 1911SOL    HW2 6633   0.259   3.774   5.726
 1912SOL     OW 6634   2.648   5.738   3.208
 1912SOL    HW1 6635   2.631   5.767   3.114
 1912SOL    HW2 6636   2.666   5.818   3.265
 1913SOL     OW 6637   1.653   4.572   5.211
 1913SOL    HW1 6638   1.713   4.594   5.135
 1913SOL    HW2 6639   1.701   4.590   5.297
 1914SOL     OW 6640   4.492   1.177   5.560
 1914SOL    HW1 6641   4.454   1.147   5.647
 1914SOL    HW2 6642   4.418   1.189   5.494
 1915SOL     OW 6643   3.134   0.635   4.984
 1915SOL    HW1 6644   3.205   0.648   5.053
 1915SOL    HW2 6645   3.045   0.625   5.029
 1916SOL     OW 6646   4.131   6.132   2.540
 1916SOL    HW1 6647   4.226   6.162   2.538
 1916SOL    HW2 6648   4.122   6.053   2.600
 1917SOL     OW 6649   3.370   3.541   4.432
 1917SOL    HW1 6650   3.339   3.605   4.502
 1917SOL    HW2 6651   3.326   3.563   4.345
 1918SOL     OW 6652   6.664   6.855   5.304
 1918SOL    HW1 6653   6.569   6.855   5.274
 1918SOL    HW2 6654   6.724   6.870   5.226
 1919SOL     OW 6655   6.488   0.309   2.220
 1919SOL    HW1 6656   6.544   0.258   2.156
 1919SOL    HW2 6657   6.408   0.254   2.246
 1920SOL     OW 6658   6.507   6.477   4.914
 1920SOL    HW1 6659   6.426   6.463   4.970
 1920SOL    HW2 6660   6.569   6.542   4.958
 1921SOL     OW 6661   1.525   0.104   6.726
 1921SOL    HW1 6662   1.441   0.128   6.678
 1921SOL    HW2 6663   1.548   0.008   6.707
 1922SOL     OW 6664   4.009   4.039   0.845
 1922SOL    HW1 6665   4.091   4.080   0.883
 1922SOL    HW2 6666   3.986   4.083   0.759
 1923SOL     OW 6667   1.865   2.881   0.297
 1923SOL    HW1 6668   1.903   2.922   0.214
 1923SOL    HW2 6669   1.818   2.950   0.351
 1924SOL     OW 6670   0.249   4.508   1.312
 1924SOL    HW1 6671   0.163   4.549   1.280
 1924SOL    HW2 6672   0.253   4.413   1.282
 1925SOL     OW 6673   3.674   4.300   0.319
 1925SOL    HW1 6674   3.662   4.204   0.295
 1925SOL    HW2 6675   3.768   4.315   0.349
 1926SOL     OW 6676   0.566   0.449   3.673
 1926SOL    HW1 6677   0.485   0.412   3.627
 1926SOL    HW2 6678   0.566   0.548   3.666
 1927SOL     OW 6679   4.359   3.543   0.588
 1927SOL    HW1 6680   4.430   3.608   0.615
 1927SOL    HW2 6681   4.328   3.493   0.668
 1928SOL     OW 6682   0.129   5.680   5.158
 1928SOL    HW1 6683   0.067   5.608   5.125
 1928SOL    HW2 6684   0.092   5.769   5.131
 1929SOL     OW 6685   1.679   6.113   3.094
 1929SOL    HW1 6686   1.751   6.144   3.157
 1929SOL    HW2 6687   1.664   6.015   3.106
 1930SOL     OW 6688   6.999   5.196   6.724
 1930SOL    HW1 6689   6.927   5.128   6.708
 1930SOL    HW2 6690   0.042   5.198   6.646
 1931SOL     OW 6691   0.444   1.635   5.175
 1931SOL    HW1 6692   0.444   1.683   5.263
 1931SOL    HW2 6693   0.427   1.701   5.101
 1932SOL     OW 6694   5.930   2.808   2.852
 1932SOL    HW1 6695   5.920   2.800   2.752
 1932SOL    HW2 6696   5.841   2.826   2.893
 1933SOL     OW 6697   2.027   4.768   0.408
 1933SOL    HW1 6698   2.008   4.675   0.441
 1933SOL    HW2 6699   1.964   4.791   0.334
 1934SOL     OW 6700   0.102   6.464   4.257
 1934SOL    HW1 6701   0.045   6.406   4.199
 1934SOL    HW2 6702   0.074   6.559   4.246
 1935SOL     OW 6703   2.254   0.804   3.689
 1935SOL    HW1 6704   2.286   0.728   3.745
 1935SOL    HW2 6705   2.239   0.772   3.595
 1936SOL     OW 6706   6.933   6.184   5.486
 1936SOL    HW1 6707   0.013   6.181   5.469
 1936SOL    HW2 6708   6.913   6.138   5.572
 1937SOL     OW 6709   4.183   0.792   2.604
 1937SOL    HW1 6710   4.219   0.799   2.512
 1937SOL    HW2 6711   4.245   0.737   2.661
 1938SOL     OW 6712   5.084   1.216   4.424
 1938SOL    HW1 6713   5.015   1.207   4.495
 1938SOL    HW2 6714   5.172   1.241   4.465
 1939SOL     OW 6715   2.927   0.510   3.671
 1939SOL    HW1 6716   2.844   0.553   3.637
 1939SOL    HW2 6717   2.922   0.499   3.770
 1940SOL     OW 6718   6.583   5.266   6.414
 1940SOL    HW1 6719   6.662   5.315   6.377
 1940SOL    HW2 6720   6.519   5.332   6.454
 1941SOL     OW 6721   5.618   4.771   2.886
 1941SOL    HW1 6722   5.567   4.825   2.953
 1941SOL    HW2 6723   5.654   4.689   2.931
 1942SOL     OW 6724   6.570   4.149   3.314
 1942SOL    HW1 6725   6.512   4.175   3.391
 1942SOL    HW2 6726   6.664   4.136   3.346
 1943SOL     OW 6727   3.178   5.966   2.231
 1943SOL    HW1 6728   3.140   5.910   2.157
 1943SOL    HW2 6729   3.189   5.910   2.313
 1944SOL     OW 6730   6.885   6.890   2.273
 1944SOL    HW1 6731   6.869   6.861   2.178
 1944SOL    HW2 6732   6.812   6.855   2.331
 1945SOL     OW 6733   3.299   5.131   3.676
 1945SOL    HW1 6734   3.300   5.103   3.772
 1945SOL    HW2 6735   3.336   5.057   3.619
 1946SOL     OW 6736   1.727   6.541   0.163
 1946SOL    HW1 6737   1.666   6.594   0.222
 1946SOL    HW2 6738   1.811   6.520   0.213
 1947SOL     OW 6739   5.288   0.069   3.700
 1947SOL    HW1 6740   5.231   0.019   3.765
 1947SOL    HW2 6741   5.283   0.025   3.610
 1948SOL     OW 6742   0.104   4.007   5.477
 1948SOL    HW1 6743   0.187   3.971   5.521
 1948SOL    HW2 6744   0.098   3.973   5.384
 1949SOL     OW 6745   5.331   3.870   6.392
 1949SOL    HW1 6746   5.303   3.966   6.389
 1949SOL    HW2 6747   5.314   3.834   6.484
 1950SOL     OW 6748   2.932   4.747   1.004
 1950SOL    HW1 6749   2.841   4.781   0.980
 1950SOL    HW2 6750   2.995   4.765   0.928
 1951SOL     OW 6751   6.816   3.247   0.134
 1951SOL    HW1 6752   6.856   3.321   0.190
 1951SOL    HW2 6753   6.718   3.240   0.153
 1952SOL     OW 6754   3.660   2.852   5.087
 1952SOL    HW1 6755   3.686   2.939   5.130
 1952SOL    HW2 6756   3.601   2.801   5.150
 1953SOL     OW 6757   0.127   2.439   4.635
 1953SOL    HW1 6758   0.095   2.516   4.690
 1953SOL    HW2 6759   0.050   2.396   4.589
 1954SOL     OW 6760   2.381   2.202   3.622
 1954SOL    HW1 6761   2.422   2.119   3.660
 1954SOL    HW2 6762   2.311   2.176   3.555
 1955SOL     OW 6763   6.067   5.535   1.907
 1955SOL    HW1 6764   6.016   5.531   1.993
 1955SOL    HW2 6765   6.076   5.443   1.869
 1956SOL     OW 6766   5.453   6.173   2.150
 1956SOL    HW1 6767   5.440   6.251   2.089
 1956SOL    HW2 6768   5.510   6.201   2.228
 1957SOL     OW 6769   0.865   6.535   5.577
 1957SOL    HW1 6770   0.788   6.475   5.554
 1957SOL    HW2 6771   0.929   6.485   5.635
 1958SOL     OW 6772   4.453   3.193   5.871
 1958SOL    HW1 6773   4.522   3.207   5.943
 1958SOL    HW2 6774   4.414   3.101   5.881
 1959SOL     OW 6775   2.266   1.949   0.209
 1959SOL    HW1 6776   2.243   2.008   0.132
 1959SOL    HW2 6777   2.209   1.867   0.207
 1960SOL     OW 6778   5.222   6.125   2.643
 1960SOL    HW1 6779   5.278   6.100   2.721
 1960SOL    HW2 6780   5.213   6.224   2.638
 1961SOL     OW 6781   5.868   5.155   5.411
 1961SOL    HW1 6782   5.829   5.064   5.394
 1961SOL    HW2 6783   5.889   5.199   5.324
 1962SOL     OW 6784   6.543   6.653   3.610
 1962SOL    HW1 6785   6.445   6.656   3.592
 1962SOL    HW2 6786   6.572   6.738   3.653
 1963SOL     OW 6787   2.829   0.394   3.147
 1963SOL    HW1 6788   2.765   0.470   3.136
 1963SOL    HW2 6789   2.912   0.426   3.192
 1964SOL     OW 6790   5.815   4.447   2.087
 1964SOL    HW1 6791   5.877   4.373   2.115
 1964SOL    HW2 6792   5.809   4.514   2.161
 1965SOL     OW 6793   2.011   5.428   3.790
 1965SOL    HW1 6794   2.087   5.474   3.744
 1965SOL    HW2 6795   1.946   5.394   3.722
 1966SOL     OW 6796   6.477   6.387   6.479
 1966SOL    HW1 6797   6.416   6.384   6.399
 1966SOL    HW2 6798   6.434   6.440   6.552
 1967SOL     OW 6799   4.899   3.621   4.588
 1967SOL    HW1 6800   4.966   3.692   4.610
 1967SOL    HW2 6801   4.816   3.637   4.641
 1968SOL     OW 6802   3.830   5.712   5.861
 1968SOL    HW1 6803   3.831   5.632   5.800
 1968SOL    HW2 6804   3.833   5.796   5.807
 1969SOL     OW 6805   6.826   2.329   1.451
 1969SOL    HW1 6806   6.861   2.237   1.434
 1969SOL    HW2 6807   6.787   2.366   1.366
 1970SOL     OW 6808   2.104   6.555   3.544
 1970SOL    HW1 6809   2.073   6.600   3.629
 1970SOL    HW2 6810   2.024   6.532   3.488
 1971SOL     OW 6811   0.460   0.916   5.972
 1971SOL    HW1 6812   0.464   0.987   5.902
 1971SOL    HW2 6813   0.380   0.929   6.030
 1972SOL     OW 6814   1.544   5.605   3.858
 1972SOL    HW1 6815   1.591   5.617   3.946
 1972SOL    HW2 6816   1.611   5.607   3.784
 1973SOL     OW 6817   2.467   2.677   6.546
 1973SOL    HW1 6818   2.494   2.590   6.587
 1973SOL    HW2 6819   2.509   2.685   6.455
 1974SOL     OW 6820   5.641   6.880   4.723
 1974SOL    HW1 6821   5.699   6.852   4.799
 1974SOL    HW2 6822   5.632   6.979   4.722
 1975SOL     OW 6823   3.121   0.681   3.582
 1975SOL    HW1 6824   3.057   0.613   3.616
 1975SOL    HW2 6825   3.076   0.739   3.514
 1976SOL     OW 6826   6.587   4.080   7.008
 1976SOL    HW1 6827   6.664   4.069   6.946
 1976SOL    HW2 6828   6.595   4.167   0.039
 1977SOL     OW 6829   2.805   2.356   5.271
 1977SOL    HW1 6830   2.903   2.349   5.292
 1977SOL    HW2 6831   2.785   2.305   5.188
 1978SOL     OW 6832   6.979   1.715   4.827
 1978SOL    HW1 6833   6.913   1.752   4.761
 1978SOL    HW2 6834   0.029   1.661   4.779
 1979SOL     OW 6835   5.770   4.588   3.061
 1979SOL    HW1 6836   5.839   4.515   3.065
 1979SOL    HW2 6837   5.815   4.676   3.051
 1980SOL     OW 6838   3.405   0.911   1.060
 1980SOL    HW1 6839   3.433   1.006   1.046
 1980SOL    HW2 6840   3.405   0.892   1.158
 1981SOL     OW 6841   5.051   3.492   1.777
 1981SOL    HW1 6842   5.071   3.443   1.692
 1981SOL    HW2 6843   5.134   3.538   1.809
 1982SOL     OW 6844   5.876   0.046   5.577
 1982SOL    HW1 6845   5.795   0.096   5.548
 1982SOL    HW2 6846   5.903   7.000   5.505
 1983SOL     OW 6847   0.652   4.335   2.241
 1983SOL    HW1 6848   0.732   4.278   2.259
 1983SOL    HW2 6849   0.663   4.423   2.288
 1984SOL     OW 6850   4.401   1.141   5.807
 1984SOL    HW1 6851   4.310   1.100   5.805
 1984SOL    HW2 6852   4.429   1.154   5.902
 1985SOL     OW 6853   1.819   6.645   1.287
 1985SOL    HW1 6854   1.899   6.705   1.294
 1985SOL    HW2 6855   1.746   6.693   1.238
 1986SOL     OW 6856   0.542   2.039   6.298
 1986SOL    HW1 6857   0.483   2.118   6.279
 1986SOL    HW2 6858   0.626   2.070   6.343
 1987SOL     OW 6859   2.701   3.999   0.462
 1987SOL    HW1 6860   2.709   4.095   0.436
 1987SOL    HW2 6861   2.789   3.966   0.495
 1988SOL     OW 6862   4.774   3.509   0.538
 1988SOL    HW1 6863   4.709   3.450   0.586
 1988SOL    HW2 6864   4.752   3.510   0.441
 1989SOL     OW 6865   2.749   0.823   4.260
 1989SOL    HW1 6866   2.731   0.922   4.260
 1989SOL    HW2 6867   2.839   0.806   4.299
 1990SOL     OW 6868   2.469   1.441   2.871
 1990SOL    HW1 6869   2.500   1.446   2.966
 1990SOL    HW2 6870   2.434   1.531   2.843
 1991SOL     OW 6871   4.815   5.270   3.694
 1991SOL    HW1 6872   4.877   5.286   3.772
 1991SOL    HW2 6873   4.867   5.232   3.618
 1992SOL     OW 6874   2.140   6.618   5.227
 1992SOL    HW1 6875   2.071   6.549   5.209
 1992SOL    HW2 6876   2.119   6.666   5.312
 1993SOL     OW 6877   3.318   3.156   4.350
 1993SOL    HW1 6878   3.343   3.065   4.316
 1993SOL    HW2 6879   3.329   3.158   4.449
 1994SOL     OW 6880   6.099   2.639   2.251
 1994SOL    HW1 6881   6.025   2.706   2.257
 1994SOL    HW2 6882   6.066   2.556   2.207
 1995SOL     OW 6883   4.411   2.605   1.283
 1995SOL    HW1 6884   4.324   2.563   1.256
 1995SOL    HW2 6885   4.468   2.617   1.202
 1996SOL     OW 6886   2.747   3.875   5.572
 1996SOL    HW1 6887   2.665   3.916   5.614
 1996SOL    HW2 6888   2.727   3.850   5.478
 1997SOL     OW 6889   5.810   0.113   4.168
 1997SOL    HW1 6890   5.759   0.139   4.086
 1997SOL    HW2 6891   5.849   0.022   4.155
 1998SOL     OW 6892   2.838   5.001   4.895
 1998SOL    HW1 6893   2.779   5.019   4.973
 1998SOL    HW2 6894   2.895   5.081   4.876
 1999SOL     OW 6895   1.756   0.730   2.001
 1999SOL    HW1 6896   1.810   0.767   1.926
 1999SOL    HW2 6897   1.813   0.721   2.082
 2000SOL     OW 6898   3.883   1.669   4.787
 2000SOL    HW1 6899   3.935   1.750   4.758
 2000SOL    HW2 6900   3.789   1.696   4.806
 2001SOL     OW 6901   2.648   3.316   0.405
 2001SOL    HW1 6902   2.715   3.265   0.350
 2001SOL    HW2 6903   2.696   3.384   0.461
 2002SOL     OW 6904   1.703   5.258   4.799
 2002SOL    HW1 6905   1.782   5.315   4.820
 2002SOL    HW2 6906   1.651   5.299   4.724
 2003SOL     OW 6907   6.273   4.707   3.315
 2003SOL    HW1 6908   6.277   4.789   3.372
 2003SOL    HW2 6909   6.198   4.648   3.346
 2004SOL     OW 6910   3.265   0.360   6.389
 2004SOL    HW1 6911   3.352   0.313   6.382
 2004SOL    HW2 6912   3.215   0.327   6.470
 2005SOL     OW 6913   2.903   6.648   5.159
 2005SOL    HW1 6914   2.972   6.701   5.109
 2005SOL    HW2 6915   2.931   6.552   5.161
 2006SOL     OW 6916   4.155   5.445   3.552
 2006SOL    HW1 6917   4.124   5.529   3.507
 2006SOL    HW2 6918   4.090   5.372   3.535
 2007SOL     OW 6919   6.627   5.193   0.453
 2007SOL    HW1 6920   6.644   5.290   0.473
 2007SOL    HW2 6921   6.557   5.186   0.382
 2008SOL     OW 6922   6.954   6.557   4.559
 2008SOL    HW1 6923   6.973   6.533   4.654
 2008SOL    HW2 6924   0.023   6.573   4.511
 2009SOL     OW 6925   0.475   0.546   0.759
 2009SOL    HW1 6926   0.553   0.604   0.783
 2009SOL    HW2 6927   0.507   0.464   0.712
 2010SOL     OW 6928   0.733   0.040   0.861
 2010SOL    HW1 6929   0.826   0.005   0.849
 2010SOL    HW2 6930   0.705   0.089   0.779
 2011SOL     OW 6931   6.859   2.243   4.726
 2011SOL    HW1 6932   6.867   2.310   4.800
 2011SOL    HW2 6933   6.946   2.192   4.718
 2012SOL     OW 6934   0.347   3.431   0.963
 2012SOL    HW1 6935   0.379   3.424   0.869
 2012SOL    HW2 6936   0.420   3.405   1.026
 2013SOL     OW 6937   4.750   0.842   2.294
 2013SOL    HW1 6938   4.720   0.863   2.201
 2013SOL    HW2 6939   4.815   0.911   2.325
 2014SOL     OW 6940   2.500   5.212   3.391
 2014SOL    HW1 6941   2.573   5.147   3.367
 2014SOL    HW2 6942   2.456   5.246   3.308
 2015SOL     OW 6943   3.397   6.880   7.012
 2015SOL    HW1 6944   3.434   6.851   0.082
 2015SOL    HW2 6945   3.453   6.843   6.938
 2016SOL     OW 6946   6.191   4.933   3.508
 2016SOL    HW1 6947   6.103   4.971   3.534
 2016SOL    HW2 6948   6.255   4.942   3.584
 2017SOL     OW 6949   2.453   5.440   1.870
 2017SOL    HW1 6950   2.457   5.532   1.832
 2017SOL    HW2 6951   2.371   5.393   1.835
 2018SOL     OW 6952   0.421   4.318   6.187
 2018SOL    HW1 6953   0.417   4.227   6.145
 2018SOL    HW2 6954   0.330   4.360   6.182
 2019SOL     OW 6955   5.471   1.760   3.089
 2019SOL    HW1 6956   5.372   1.763   3.106
 2019SOL    HW2 6957   5.491   1.688   3.022
 2020SOL     OW 6958   1.681   5.473   2.987
 2020SOL    HW1 6959   1.636   5.554   3.023
 2020SOL    HW2 6960   1.754   5.444   3.049
 2021SOL     OW 6961   1.536   6.789   1.684
 2021SOL    HW1 6962   1.530   6.860   1.614
 2021SOL    HW2 6963   1.476   6.813   1.760
 2022SOL     OW 6964   2.599   4.606   1.089
 2022SOL    HW1 6965   2.651   4.525   1.061
 2022SOL    HW2 6966   2.650   4.656   1.158
 2023SOL     OW 6967   6.308   1.576   6.400
 2023SOL    HW1 6968   6.355   1.619   6.477
 2023SOL    HW2 6969   6.210   1.569   6.420
 2024SOL     OW 6970   5.971   0.326   2.868
 2024SOL    HW1 6971   5.903   0.388   2.907
 2024SOL    HW2 6972   6.061   0.348   2.906
 2025SOL     OW 6973   6.604   0.785   0.441
 2025SOL    HW1 6974   6.677   0.716   0.446
 2025SOL    HW2 6975   6.521   0.748   0.484
 2026SOL     OW 6976   1.384   1.826   5.682
 2026SOL    HW1 6977   1.428   1.877   5.608
 2026SOL    HW2 6978   1.288   1.810   5.658
 2027SOL     OW 6979   0.313   1.693   2.460
 2027SOL    HW1 6980   0.338   1.682   2.364
 2027SOL    HW2 6981   0.396   1.706   2.515
 2028SOL     OW 6982   3.632   3.721   6.077
 2028SOL    HW1 6983   3.555   3.699   6.018
 2028SOL    HW2 6984   3.718   3.698   6.031
 2029SOL     OW 6985   1.565   0.448   0.361
 2029SOL    HW1 6986   1.486   0.494   0.401
 2029SOL    HW2 6987   1.567   0.353   0.394
 2030SOL     OW 6988   1.132   1.485   2.805
 2030SOL    HW1 6989   1.215   1.536   2.830
 2030SOL    HW2 6990   1.056   1.516   2.863
 2031SOL     OW 6991   4.673   0.066   2.908
 2031SOL    HW1 6992   4.764   0.069   2.868
 2031SOL    HW2 6993   4.679   0.076   3.007
 2032SOL     OW 6994   5.348   6.746   1.526
 2032SOL    HW1 6995   5.311   6.760   1.434
 2032SOL    HW2 6996   5.298   6.672   1.571
 2033SOL     OW 6997   0.256   5.242   6.314
 2033SOL    HW1 6998   0.285   5.197   6.230
 2033SOL    HW2 6999   0.324   5.310   6.341
 2034SOL     OW 7000   2.887   0.093   3.200
 2034SOL    HW1 7001   2.931   0.182   3.191
 2034SOL    HW2 7002   2.947   0.022   3.163
 2035SOL     OW 7003   1.109   3.060   1.799
 2035SOL    HW1 7004   1.142   3.123   1.728
 2035SOL    HW2 7005   1.146   3.089   1.888
 2036SOL     OW 7006   1.064   4.415   0.160
 2036SOL    HW1 7007   1.019   4.327   0.170
 2036SOL    HW2 7008   1.160   4.401   0.137
 2037SOL     OW 7009   6.945   0.930   6.195
 2037SOL    HW1 7010   6.970   0.834   6.184
 2037SOL    HW2 7011   6.945   0.975   6.105
 2038SOL     OW 7012   0.907   0.080   4.838
 2038SOL    HW1 7013   0.947   0.148   4.777
 2038SOL    HW2 7014   0.885   7.016   4.785
 2039SOL     OW 7015   1.094   4.914   1.974
 2039SOL    HW1 7016   1.187   4.947   1.988
 2039SOL    HW2 7017   1.088   4.819   2.005
 2040SOL     OW 7018   3.237   3.638   4.186
 2040SOL    HW1 7019   3.174   3.563   4.205
 2040SOL    HW2 7020   3.306   3.608   4.121
 2041SOL     OW 7021   6.433   3.524   6.361
 2041SOL    HW1 7022   6.341   3.500   6.392
 2041SOL    HW2 7023   6.488   3.552   6.440
 2042SOL     OW 7024   3.507   5.561   0.379
 2042SOL    HW1 7025   3.544   5.522   0.295
 2042SOL    HW2 7026   3.563   5.637   0.409
 2043SOL     OW 7027   4.276   4.656   2.243
 2043SOL    HW1 7028   4.306   4.657   2.148
 2043SOL    HW2 7029   4.221   4.574   2.260
 2044SOL     OW 7030   6.420   0.674   2.035
 2044SOL    HW1 7031   6.349   0.609   2.007
 2044SOL    HW2 7032   6.485   0.628   2.095
 2045SOL     OW 7033   2.094   4.970   5.862
 2045SOL    HW1 7034   2.158   5.046   5.873
 2045SOL    HW2 7035   2.014   4.986   5.920
 2046SOL     OW 7036   5.954   0.516   4.771
 2046SOL    HW1 7037   5.887   0.545   4.703
 2046SOL    HW2 7038   6.037   0.571   4.761
 2047SOL     OW 7039   5.936   2.870   0.046
 2047SOL    HW1 7040   5.865   2.933   0.013
 2047SOL    HW2 7041   5.897   2.778   0.056
 2048SOL     OW 7042   4.090   6.766   5.559
 2048SOL    HW1 7043   4.067   6.792   5.465
 2048SOL    HW2 7044   4.156   6.830   5.596
 2049SOL     OW 7045   4.802   6.211   0.399
 2049SOL    HW1 7046   4.769   6.194   0.492
 2049SOL    HW2 7047   4.839   6.127   0.361
 2050SOL     OW 7048   5.337   1.508   4.123
 2050SOL    HW1 7049   5.262   1.525   4.060
 2050SOL    HW2 7050   5.423   1.535   4.081
 2051SOL     OW 7051   1.941   5.266   0.582
 2051SOL    HW1 7052   1.855   5.274   0.631
 2051SOL    HW2 7053   1.946   5.176   0.537
 2052SOL     OW 7054   1.168   2.834   0.591
 2052SOL    HW1 7055   1.149   2.916   0.644
 2052SOL    HW2 7056   1.265   2.834   0.564
 2053SOL     OW 7057   5.225   0.796   0.848
 2053SOL    HW1 7058   5.211   0.739   0.929
 2053SOL    HW2 7059   5.155   0.867   0.845
 2054SOL     OW 7060   6.939   3.502   1.519
 2054SOL    HW1 7061   6.859   3.458   1.561
 2054SOL    HW2 7062   0.000   3.489   1.578
 2055SOL     OW 7063   6.518   2.189   3.953
 2055SOL    HW1 7064   6.483   2.095   3.946
 2055SOL    HW2 7065   6.516   2.219   4.049
 2056SOL     OW 7066   1.621   0.582   2.742
 2056SOL    HW1 7067   1.559   0.579   2.664
 2056SOL    HW2 7068   1.570   0.605   2.825
 2057SOL     OW 7069   6.658   2.632   4.041
 2057SOL    HW1 7070   6.755   2.649   4.058
 2057SOL    HW2 7071   6.606   2.655   4.123
 2058SOL     OW 7072   0.299   2.056   1.340
 2058SOL    HW1 7073   0.211   2.095   1.366
 2058SOL    HW2 7074   0.338   2.007   1.418
 2059SOL     OW 7075   1.620   1.054   6.568
 2059SOL    HW1 7076   1.525   1.065   6.539
 2059SOL    HW2 7077   1.635   1.106   6.653
 2060SOL     OW 7078   0.575   5.147   2.298
 2060SOL    HW1 7079   0.498   5.202   2.331
 2060SOL    HW2 7080   0.566   5.134   2.199
 2061SOL     OW 7081   0.041   1.459   1.536
 2061SOL    HW1 7082   6.961   1.446   1.542
 2061SOL    HW2 7083   0.061   1.522   1.461
 2062SOL     OW 7084   4.477   0.352   3.330
 2062SOL    HW1 7085   4.425   0.428   3.367
 2062SOL    HW2 7086   4.548   0.324   3.395
 2063SOL     OW 7087   2.900   1.800   0.445
 2063SOL    HW1 7088   2.939   1.886   0.476
 2063SOL    HW2 7089   2.820   1.818   0.388
 2064SOL     OW 7090   0.817   2.359   0.099
 2064SOL    HW1 7091   0.718   2.368   0.091
 2064SOL    HW2 7092   0.843   2.357   0.195
 2065SOL     OW 7093   6.115   2.938   2.092
 2065SOL    HW1 7094   6.072   2.958   2.004
 2065SOL    HW2 7095   6.045   2.927   2.162
 2066SOL     OW 7096   2.330   6.431   3.598
 2066SOL    HW1 7097   2.321   6.408   3.695
 2066SOL    HW2 7098   2.246   6.476   3.567
 2067SOL     OW 7099   0.191   0.009   1.109
 2067SOL    HW1 7100   0.231   6.938   1.125
 2067SOL    HW2 7101   0.253   0.064   1.053
 2068SOL     OW 7102   1.853   1.650   5.258
 2068SOL    HW1 7103   1.895   1.677   5.345
 2068SOL    HW2 7104   1.911   1.678   5.182
 2069SOL     OW 7105   0.653   1.903   1.668
 2069SOL    HW1 7106   0.660   1.820   1.613
 2069SOL    HW2 7107   0.625   1.879   1.761
 2070SOL     OW 7108   0.745   1.142   3.014
 2070SOL    HW1 7109   0.669   1.136   2.948
 2070SOL    HW2 7110   0.744   1.231   3.058
 2071SOL     OW 7111   1.497   6.079   4.914
 2071SOL    HW1 7112   1.461   6.098   5.005
 2071SOL    HW2 7113   1.426   6.034   4.859
 2072SOL     OW 7114   5.168   4.929   2.275
 2072SOL    HW1 7115   5.168   5.007   2.213
 2072SOL    HW2 7116   5.260   4.889   2.278
 2073SOL     OW 7117   3.111   6.859   5.402
 2073SOL    HW1 7118   3.084   6.933   5.340
 2073SOL    HW2 7119   3.097   6.888   5.496
 2074SOL     OW 7120   6.338   1.977   1.706
 2074SOL    HW1 7121   6.310   1.892   1.751
 2074SOL    HW2 7122   6.345   2.050   1.774
 2075SOL     OW 7123   4.236   3.381   5.830
 2075SOL    HW1 7124   4.320   3.333   5.853
 2075SOL    HW2 7125   4.158   3.332   5.869
 2076SOL     OW 7126   4.714   0.401   1.421
 2076SOL    HW1 7127   4.646   0.445   1.363
 2076SOL    HW2 7128   4.765   0.471   1.471
 2077SOL     OW 7129   5.435   1.609   3.366
 2077SOL    HW1 7130   5.505   1.679   3.377
 2077SOL    HW2 7131   5.347   1.644   3.397
 2078SOL     OW 7132   4.240   5.812   5.476
 2078SOL    HW1 7133   4.336   5.787   5.490
 2078SOL    HW2 7134   4.204   5.852   5.560
 2079SOL     OW 7135   5.701   1.656   3.693
 2079SOL    HW1 7136   5.603   1.637   3.693
 2079SOL    HW2 7137   5.752   1.571   3.709
 2080SOL     OW 7138   3.029   2.213   4.485
 2080SOL    HW1 7139   2.932   2.235   4.472
 2080SOL    HW2 7140   3.055   2.230   4.580
 2081SOL     OW 7141   0.404   6.533   5.205
 2081SOL    HW1 7142   0.335   6.477   5.249
 2081SOL    HW2 7143   0.494   6.489   5.213
 2082SOL     OW 7144   5.241   0.499   1.708
 2082SOL    HW1 7145   5.202   0.459   1.625
 2082SOL    HW2 7146   5.218   0.442   1.787
 2083SOL     OW 7147   3.599   5.460   5.505
 2083SOL    HW1 7148   3.621   5.413   5.591
 2083SOL    HW2 7149   3.512   5.427   5.471
 2084SOL     OW 7150   6.960   3.286   2.861
 2084SOL    HW1 7151   6.966   3.355   2.933
 2084SOL    HW2 7152   6.885   3.223   2.881
 2085SOL     OW 7153   5.565   6.471   6.526
 2085SOL    HW1 7154   5.580   6.557   6.477
 2085SOL    HW2 7155   5.478   6.431   6.498
 2086SOL     OW 7156   2.730   5.081   1.227
 2086SOL    HW1 7157   2.789   5.132   1.164
 2086SOL    HW2 7158   2.645   5.057   1.181
 2087SOL     OW 7159   5.747   6.292   3.741
 2087SOL    HW1 7160   5.693   6.212   3.714
 2087SOL    HW2 7161   5.687   6.362   3.778
 2088SOL     OW 7162   2.685   6.823   0.707
 2088SOL    HW1 7163   2.696   6.882   0.627
 2088SOL    HW2 7164   2.609   6.760   0.692
 2089SOL     OW 7165   2.937   0.500   6.672
 2089SOL    HW1 7166   2.915   0.458   6.584
 2089SOL    HW2 7167   2.943   0.430   6.742
 2090SOL     OW 7168   3.179   3.052   3.991
 2090SOL    HW1 7169   3.256   3.116   3.990
 2090SOL    HW2 7170   3.189   2.986   3.917
 2091SOL     OW 7171   1.946   5.075   0.415
 2091SOL    HW1 7172   1.999   5.002   0.371
 2091SOL    HW2 7173   1.912   5.138   0.345
 2092SOL     OW 7174   6.421   6.430   0.781
 2092SOL    HW1 7175   6.508   6.465   0.746
 2092SOL    HW2 7176   6.406   6.465   0.874
 2093SOL     OW 7177   1.493   2.079   1.574
 2093SOL    HW1 7178   1.446   1.996   1.543
 2093SOL    HW2 7179   1.478   2.090   1.673
 2094SOL     OW 7180   5.578   0.347   2.302
 2094SOL    HW1 7181   5.481   0.357   2.280
 2094SOL    HW2 7182   5.628   0.427   2.268
 2095SOL     OW 7183   6.812   4.976   4.991
 2095SOL    HW1 7184   6.818   4.936   5.083
 2095SOL    HW2 7185   6.716   4.987   4.966
 2096SOL     OW 7186   4.862   3.570   2.990
 2096SOL    HW1 7187   4.868   3.635   2.913
 2096SOL    HW2 7188   4.860   3.621   3.076
 2097SOL     OW 7189   0.004   3.075   6.715
 2097SOL    HW1 7190   6.987   3.097   6.625
 2097SOL    HW2 7191   6.979   3.134   6.784
 2098SOL     OW 7192   4.783   0.577   4.044
 2098SOL    HW1 7193   4.810   0.520   4.121
 2098SOL    HW2 7194   4.766   0.670   4.076
 2099SOL     OW 7195   2.658   1.447   4.137
 2099SOL    HW1 7196   2.734   1.511   4.152
 2099SOL    HW2 7197   2.619   1.462   4.046
 2100SOL     OW 7198   3.563   3.958   6.918
 2100SOL    HW1 7199   3.499   3.981   6.844
 2100SOL    HW2 7200   3.621   4.037   6.937
 2101SOL     OW 7201   6.972   0.636   3.436
 2101SOL    HW1 7202   0.015   0.590   3.500
 2101SOL    HW2 7203   6.896   0.678   3.486
 2102SOL     OW 7204   0.091   4.851   2.286
 2102SOL    HW1 7205   0.024   4.780   2.267
 2102SOL    HW2 7206   0.058   4.908   2.362
 2103SOL     OW 7207   2.814   3.617   6.700
 2103SOL    HW1 7208   2.818   3.560   6.618
 2103SOL    HW2 7209   2.796   3.712   6.674
 2104SOL     OW 7210   1.189   3.683   5.000
 2104SOL    HW1 7211   1.244   3.644   5.074
 2104SOL    HW2 7212   1.144   3.609   4.949
 2105SOL     OW 7213   5.683   5.819   1.430
 2105SOL    HW1 7214   5.738   5.892   1.391
 2105SOL    HW2 7215   5.689   5.738   1.371
 2106SOL     OW 7216   5.099   6.012   6.921
 2106SOL    HW1 7217   5.126   5.918   6.939
 2106SOL    HW2 7218   5.112   6.067   7.004
 2107SOL     OW 7219   3.452   4.329   6.764
 2107SOL    HW1 7220   3.450   4.312   6.862
 2107SOL    HW2 7221   3.433   4.243   6.715
 2108SOL     OW 7222   5.535   4.546   5.783
 2108SOL    HW1 7223   5.593   4.621   5.814
 2108SOL    HW2 7224   5.460   4.533   5.848
 2109SOL     OW 7225   5.481   6.635   2.671
 2109SOL    HW1 7226   5.580   6.643   2.680
 2109SOL    HW2 7227   5.447   6.574   2.743
 2110SOL     OW 7228   2.587   4.959   5.627
 2110SOL    HW1 7229   2.575   5.005   5.539
 2110SOL    HW2 7230   2.670   4.904   5.625
 2111SOL     OW 7231   1.454   2.766   6.546
 2111SOL    HW1 7232   1.401   2.793   6.626
 2111SOL    HW2 7233   1.405   2.791   6.463
 2112SOL     OW 7234   5.075   3.384   1.053
 2112SOL    HW1 7235   5.164   3.411   1.014
 2112SOL    HW2 7236   5.011   3.365   0.978
 2113SOL     OW 7237   0.012   1.291   3.157
 2113SOL    HW1 7238   0.045   1.357   3.224
 2113SOL    HW2 7239   0.012   1.332   3.066
 2114SOL     OW 7240   1.632   3.902   6.890
 2114SOL    HW1 7241   1.630   3.804   6.905
 2114SOL    HW2 7242   1.553   3.928   6.834
 2115SOL     OW 7243   2.595   4.836   2.227
 2115SOL    HW1 7244   2.674   4.787   2.264
 2115SOL    HW2 7245   2.611   4.934   2.232
 2116SOL     OW 7246   0.130   4.344   3.320
 2116SOL    HW1 7247   0.177   4.375   3.237
 2116SOL    HW2 7248   0.130   4.244   3.322
 2117SOL     OW 7249   6.520   5.109   0.715
 2117SOL    HW1 7250   6.593   5.073   0.774
 2117SOL    HW2 7251   6.560   5.147   0.632
 2118SOL     OW 7252   6.759   3.855   2.185
 2118SOL    HW1 7253   6.768   3.931   2.250
 2118SOL    HW2 7254   6.701   3.884   2.109
 2119SOL     OW 7255   3.155   5.552   1.040
 2119SOL    HW1 7256   3.217   5.630   1.038
 2119SOL    HW2 7257   3.202   5.473   1.079
 2120SOL     OW 7258   0.151   5.407   2.292
 2120SOL    HW1 7259   0.080   5.476   2.295
 2120SOL    HW2 7260   0.187   5.399   2.199
 2121SOL     OW 7261   0.587   4.257   4.758
 2121SOL    HW1 7262   0.581   4.164   4.794
 2121SOL    HW2 7263   0.654   4.310   4.811
 2122SOL     OW 7264   4.524   4.344   5.222
 2122SOL    HW1 7265   4.574   4.338   5.135
 2122SOL    HW2 7266   4.427   4.354   5.204
 2123SOL     OW 7267   5.602   4.726   3.330
 2123SOL    HW1 7268   5.693   4.730   3.290
 2123SOL    HW2 7269   5.534   4.751   3.261
 2124SOL     OW 7270   2.369   1.564   0.712
 2124SOL    HW1 7271   2.304   1.632   0.680
 2124SOL    HW2 7272   2.416   1.598   0.794
 2125SOL     OW 7273   2.605   6.855   1.071
 2125SOL    HW1 7274   2.699   6.887   1.067
 2125SOL    HW2 7275   2.603   6.758   1.095
 2126SOL     OW 7276   2.682   0.908   1.981
 2126SOL    HW1 7277   2.774   0.870   1.983
 2126SOL    HW2 7278   2.673   0.977   2.052
 2127SOL     OW 7279   5.784   3.008   5.019
 2127SOL    HW1 7280   5.741   2.923   4.989
 2127SOL    HW2 7281   5.766   3.023   5.116
 2128SOL     OW 7282   0.480   5.163   4.335
 2128SOL    HW1 7283   0.448   5.071   4.312
 2128SOL    HW2 7284   0.406   5.229   4.325
 2129SOL     OW 7285   3.885   1.958   5.746
 2129SOL    HW1 7286   3.808   1.970   5.684
 2129SOL    HW2 7287   3.868   1.879   5.806
 2130SOL     OW 7288   4.119   6.328   3.359
 2130SOL    HW1 7289   4.025   6.338   3.390
 2130SOL    HW2 7290   4.168   6.414   3.374
 2131SOL     OW 7291   5.772   2.295   7.008
 2131SOL    HW1 7292   5.788   2.269   0.085
 2131SOL    HW2 7293   5.689   2.250   6.975
 2132SOL     OW 7294   2.399   2.759   0.368
 2132SOL    HW1 7295   2.418   2.661   0.358
 2132SOL    HW2 7296   2.386   2.781   0.464
 2133SOL     OW 7297   3.096   3.492   5.845
 2133SOL    HW1 7298   3.101   3.572   5.906
 2133SOL    HW2 7299   3.022   3.505   5.779
 2134SOL     OW 7300   1.148   0.043   1.286
 2134SOL    HW1 7301   1.137   0.098   1.368
 2134SOL    HW2 7302   1.191   0.097   1.214
 2135SOL     OW 7303   6.814   4.282   4.415
 2135SOL    HW1 7304   6.758   4.243   4.489
 2135SOL    HW2 7305   6.907   4.297   4.448
 2136SOL     OW 7306   1.594   5.034   1.198
 2136SOL    HW1 7307   1.693   5.019   1.207
 2136SOL    HW2 7308   1.577   5.129   1.176
 2137SOL     OW 7309   1.669   6.011   4.313
 2137SOL    HW1 7310   1.659   5.984   4.409
 2137SOL    HW2 7311   1.609   5.955   4.256
 2138SOL     OW 7312   5.108   1.630   1.830
 2138SOL    HW1 7313   5.071   1.698   1.893
 2138SOL    HW2 7314   5.208   1.626   1.839
 2139SOL     OW 7315   2.737   0.604   5.341
 2139SOL    HW1 7316   2.830   0.577   5.315
 2139SOL    HW2 7317   2.701   0.669   5.274
 2140SOL     OW 7318   2.263   1.311   4.956
 2140SOL    HW1 7319   2.278   1.251   5.034
 2140SOL    HW2 7320   2.176   1.287   4.913
 2141SOL     OW 7321   6.719   3.695   2.578
 2141SOL    HW1 7322   6.740   3.603   2.546
 2141SOL    HW2 7323   6.703   3.693   2.677
 2142SOL     OW 7324   1.598   2.203   2.831
 2142SOL    HW1 7325   1.515   2.149   2.846
 2142SOL    HW2 7326   1.574   2.288   2.783
 2143SOL     OW 7327   1.201   4.439   6.763
 2143SOL    HW1 7328   1.145   4.356   6.768
 2143SOL    HW2 7329   1.297   4.417   6.781
 2144SOL     OW 7330   6.095   4.630   3.679
 2144SOL    HW1 7331   6.075   4.695   3.753
 2144SOL    HW2 7332   6.038   4.548   3.690
 2145SOL     OW 7333   4.402   0.588   3.464
 2145SOL    HW1 7334   4.304   0.589   3.483
 2145SOL    HW2 7335   4.425   0.664   3.403
 2146SOL     OW 7336   2.355   2.897   6.997
 2146SOL    HW1 7337   2.305   2.894   0.065
 2146SOL    HW2 7338   2.432   2.832   7.001
 2147SOL     OW 7339   5.842   0.199   4.431
 2147SOL    HW1 7340   5.831   0.148   4.346
 2147SOL    HW2 7341   5.833   0.297   4.412
 2148SOL     OW 7342   0.547   3.221   6.091
 2148SOL    HW1 7343   0.608   3.238   6.014
 2148SOL    HW2 7344   0.487   3.300   6.105
 2149SOL     OW 7345   0.750   0.337   0.250
 2149SOL    HW1 7346   0.796   0.258   0.290
 2149SOL    HW2 7347   0.803   0.420   0.269
 2150SOL     OW 7348   2.540   2.575   1.499
 2150SOL    HW1 7349   2.616   2.633   1.529
 2150SOL    HW2 7350   2.574   2.509   1.431
 2151SOL     OW 7351   1.327   5.244   0.380
 2151SOL    HW1 7352   1.255   5.195   0.428
 2151SOL    HW2 7353   1.340   5.334   0.422
 2152SOL     OW 7354   5.120   5.914   4.482
 2152SOL    HW1 7355   5.215   5.898   4.453
 2152SOL    HW2 7356   5.066   5.832   4.466
 2153SOL     OW 7357   4.679   1.176   3.380
 2153SOL    HW1 7358   4.674   1.076   3.383
 2153SOL    HW2 7359   4.637   1.214   3.462
 2154SOL     OW 7360   3.420   0.100   3.413
 2154SOL    HW1 7361   3.397   0.045   3.332
 2154SOL    HW2 7362   3.515   0.131   3.406
 2155SOL     OW 7363   4.517   0.466   1.022
 2155SOL    HW1 7364   4.497   0.470   0.924
 2155SOL    HW2 7365   4.504   0.372   1.055
 2156SOL     OW 7366   5.001   1.661   4.846
 2156SOL    HW1 7367   4.904   1.683   4.842
 2156SOL    HW2 7368   5.051   1.734   4.893
 2157SOL     OW 7369   3.339   6.114   4.080
 2157SOL    HW1 7370   3.376   6.025   4.054
 2157SOL    HW2 7371   3.254   6.102   4.132
 2158SOL     OW 7372   3.414   0.490   0.289
 2158SOL    HW1 7373   3.486   0.551   0.257
 2158SOL    HW2 7374   3.437   0.396   0.267
 2159SOL     OW 7375   0.654   1.225   5.670
 2159SOL    HW1 7376   0.581   1.293   5.674
 2159SOL    HW2 7377   0.634   1.158   5.598
 2160SOL     OW 7378   5.820   6.691   0.332
 2160SOL    HW1 7379   5.840   6.593   0.320
 2160SOL    HW2 7380   5.896   6.745   0.296
 2161SOL     OW 7381   1.669   2.625   1.723
 2161SOL    HW1 7382   1.725   2.700   1.689
 2161SOL    HW2 7383   1.572   2.648   1.712
 2162SOL     OW 7384   1.356   6.907   1.871
 2162SOL    HW1 7385   1.259   6.892   1.892
 2162SOL    HW2 7386   1.395   6.970   1.938
 2163SOL     OW 7387   1.891   2.654   2.936
 2163SOL    HW1 7388   1.906   2.675   2.839
 2163SOL    HW2 7389   1.930   2.727   2.992
 2164SOL     OW 7390   2.231   3.013   2.669
 2164SOL    HW1 7391   2.321   3.057   2.674
 2164SOL    HW2 7392   2.192   3.025   2.578
 2165SOL     OW 7393   6.735   1.696   3.657
 2165SOL    HW1 7394   6.645   1.652   3.664
 2165SOL    HW2 7395   6.807   1.630   3.676
 2166SOL     OW 7396   6.937   4.131   2.729
 2166SOL    HW1 7397   6.995   4.117   2.649
 2166SOL    HW2 7398   6.841   4.131   2.702
 2167SOL     OW 7399   2.401   1.968   3.413
 2167SOL    HW1 7400   2.309   1.937   3.436
 2167SOL    HW2 7401   2.420   1.950   3.317
 2168SOL     OW 7402   1.228   1.783   3.197
 2168SOL    HW1 7403   1.319   1.823   3.202
 2168SOL    HW2 7404   1.234   1.684   3.207
 2169SOL     OW 7405   0.698   0.266   1.638
 2169SOL    HW1 7406   0.704   0.255   1.539
 2169SOL    HW2 7407   0.611   0.228   1.671
 2170SOL     OW 7408   1.126   3.890   5.208
 2170SOL    HW1 7409   1.062   3.886   5.132
 2170SOL    HW2 7410   1.143   3.798   5.242
 2171SOL     OW 7411   6.964   5.375   1.739
 2171SOL    HW1 7412   6.942   5.293   1.793
 2171SOL    HW2 7413   6.887   5.439   1.744
 2172SOL     OW 7414   1.400   1.594   5.382
 2172SOL    HW1 7415   1.391   1.584   5.481
 2172SOL    HW2 7416   1.347   1.522   5.337
 2173SOL     OW 7417   6.283   1.088   5.166
 2173SOL    HW1 7418   6.324   1.136   5.088
 2173SOL    HW2 7419   6.352   1.030   5.209
 2174SOL     OW 7420   5.885   0.228   6.046
 2174SOL    HW1 7421   5.818   0.164   6.084
 2174SOL    HW2 7422   5.866   0.240   5.948
 2175SOL     OW 7423   2.538   3.863   5.351
 2175SOL    HW1 7424   2.493   3.887   5.437
 2175SOL    HW2 7425   2.487   3.901   5.274
 2176SOL     OW 7426   5.343   2.413   2.471
 2176SOL    HW1 7427   5.260   2.468   2.485
 2176SOL    HW2 7428   5.391   2.403   2.558
 2177SOL     OW 7429   0.429   0.390   4.443
 2177SOL    HW1 7430   0.344   0.401   4.495
 2177SOL    HW2 7431   0.459   0.479   4.409
 2178SOL     OW 7432   0.395   1.961   2.986
 2178SOL    HW1 7433   0.416   1.896   2.914
 2178SOL    HW2 7434   0.311   2.010   2.964
 2179SOL     OW 7435   1.395   4.295   6.350
 2179SOL    HW1 7436   1.336   4.346   6.287
 2179SOL    HW2 7437   1.421   4.208   6.308
 2180SOL     OW 7438   0.871   6.122   2.714
 2180SOL    HW1 7439   0.944   6.104   2.648
 2180SOL    HW2 7440   0.798   6.055   2.701
 2181SOL     OW 7441   2.947   4.948   4.663
 2181SOL    HW1 7442   2.903   4.887   4.597
 2181SOL    HW2 7443   2.908   4.933   4.753
 2182SOL     OW 7444   6.890   6.496   2.973
 2182SOL    HW1 7445   6.891   6.514   2.874
 2182SOL    HW2 7446   6.971   6.536   3.015
 2183SOL     OW 7447   3.361   2.685   6.330
 2183SOL    HW1 7448   3.348   2.715   6.424
 2183SOL    HW2 7449   3.446   2.633   6.323
 2184SOL     OW 7450   6.671   1.704   6.774
 2184SOL    HW1 7451   6.653   1.619   6.724
 2184SOL    HW2 7452   6.750   1.750   6.733
 2185SOL     OW 7453   1.255   0.150   6.679
 2185SOL    HW1 7454   1.229   0.247   6.687
 2185SOL    HW2 7455   1.232   0.103   6.764
 2186SOL     OW 7456   0.122   5.397   5.682
 2186SOL    HW1 7457   0.111   5.429   5.588
 2186SOL    HW2 7458   0.044   5.340   5.707
 2187SOL     OW 7459   0.917   5.775   2.877
 2187SOL    HW1 7460   0.986   5.824   2.823
 2187SOL    HW2 7461   0.861   5.719   2.816
 2188SOL     OW 7462   2.426   0.377   1.008
 2188SOL    HW1 7463   2.452   0.470   1.033
 2188SOL    HW2 7464   2.481   0.346   0.931
 2189SOL     OW 7465   2.135   1.415   1.630
 2189SOL    HW1 7466   2.111   1.336   1.686
 2189SOL    HW2 7467   2.058   1.479   1.629
 2190SOL     OW 7468   6.452   3.987   2.050
 2190SOL    HW1 7469   6.426   3.990   1.953
 2190SOL    HW2 7470   6.390   4.044   2.103
 2191SOL     OW 7471   2.581   0.122   0.247
 2191SOL    HW1 7472   2.663   0.153   0.199
 2191SOL    HW2 7473   2.537   0.049   0.194
 2192SOL     OW 7474   4.624   1.999   1.699
 2192SOL    HW1 7475   4.620   1.949   1.612
 2192SOL    HW2 7476   4.697   2.067   1.695
 2193SOL     OW 7477   1.864   6.898   5.815
 2193SOL    HW1 7478   1.863   6.954   5.732
 2193SOL    HW2 7479   1.940   6.927   5.873
 2194SOL     OW 7480   1.072   3.815   6.032
 2194SOL    HW1 7481   0.984   3.769   6.016
 2194SOL    HW2 7482   1.130   3.804   5.952
 2195SOL     OW 7483   0.127   3.672   5.171
 2195SOL    HW1 7484   0.203   3.628   5.122
 2195SOL    HW2 7485   0.041   3.652   5.123
 2196SOL     OW 7486   2.528   0.495   6.622
 2196SOL    HW1 7487   2.471   0.555   6.678
 2196SOL    HW2 7488   2.571   0.425   6.679
 2197SOL     OW 7489   3.691   5.719   6.100
 2197SOL    HW1 7490   3.749   5.649   6.142
 2197SOL    HW2 7491   3.734   5.752   6.016
 2198SOL     OW 7492   0.708   0.431   7.006
 2198SOL    HW1 7493   0.609   0.420   6.998
 2198SOL    HW2 7494   0.737   0.405   0.081
 2199SOL     OW 7495   3.876   6.513   5.027
 2199SOL    HW1 7496   3.823   6.428   5.023
 2199SOL    HW2 7497   3.815   6.590   5.046
 2200SOL     OW 7498   2.548   1.747   4.101
 2200SOL    HW1 7499   2.501   1.689   4.035
 2200SOL    HW2 7500   2.491   1.758   4.182
 2201SOL     OW 7501   6.526   3.986   4.828
 2201SOL    HW1 7502   6.506   4.031   4.741
 2201SOL    HW2 7503   6.599   4.035   4.876
 2202SOL     OW 7504   3.689   6.724   1.482
 2202SOL    HW1 7505   3.614   6.750   1.542
 2202SOL    HW2 7506   3.724   6.635   1.509
 2203SOL     OW 7507   2.061   4.139   0.618
 2203SOL    HW1 7508   2.031   4.226   0.657
 2203SOL    HW2 7509   1.997   4.110   0.547
 2204SOL     OW 7510   5.617   3.419   1.026
 2204SOL    HW1 7511   5.540   3.356   1.037
 2204SOL    HW2 7512   5.584   3.506   0.990
 2205SOL     OW 7513   0.542   5.468   0.547
 2205SOL    HW1 7514   0.486   5.386   0.532
 2205SOL    HW2 7515   0.638   5.443   0.551
 2206SOL     OW 7516   3.640   2.318   5.756
 2206SOL    HW1 7517   3.724   2.300   5.703
 2206SOL    HW2 7518   3.601   2.231   5.786
 2207SOL     OW 7519   4.424   5.932   1.014
 2207SOL    HW1 7520   4.468   6.001   0.957
 2207SOL    HW2 7521   4.421   5.964   1.108
 2208SOL     OW 7522   6.710   6.443   3.789
 2208SOL    HW1 7523   6.682   6.350   3.764
 2208SOL    HW2 7524   6.750   6.488   3.709
 2209SOL     OW 7525   2.814   5.828   4.057
 2209SOL    HW1 7526   2.895   5.886   4.054
 2209SOL    HW2 7527   2.832   5.743   4.007
 2210SOL     OW 7528   4.805   0.163   1.134
 2210SOL    HW1 7529   4.797   0.115   1.047
 2210SOL    HW2 7530   4.818   0.261   1.116
 2211SOL     OW 7531   0.513   1.992   0.831
 2211SOL    HW1 7532   0.469   1.937   0.903
 2211SOL    HW2 7533   0.525   2.086   0.863
 2212SOL     OW 7534   3.015   5.930   6.613
 2212SOL    HW1 7535   2.926   5.971   6.593
 2212SOL    HW2 7536   3.048   5.880   6.533
 2213SOL     OW 7537   3.471   1.614   4.936
 2213SOL    HW1 7538   3.467   1.533   4.994
 2213SOL    HW2 7539   3.393   1.673   4.955
 2214SOL     OW 7540   4.520   3.984   6.776
 2214SOL    HW1 7541   4.486   3.901   6.819
 2214SOL    HW2 7542   4.613   3.967   6.741
 2215SOL     OW 7543   4.008   6.917   0.154
 2215SOL    HW1 7544   3.944   6.937   0.228
 2215SOL    HW2 7545   4.075   6.991   0.146
 2216SOL     OW 7546   0.575   6.889   6.697
 2216SOL    HW1 7547   0.629   6.940   6.763
 2216SOL    HW2 7548   0.495   6.942   6.671
 2217SOL     OW 7549   4.227   0.853   3.812
 2217SOL    HW1 7550   4.189   0.765   3.839
 2217SOL    HW2 7551   4.311   0.870   3.865
 2218SOL     OW 7552   0.857   6.005   5.529
 2218SOL    HW1 7553   0.781   6.060   5.562
 2218SOL    HW2 7554   0.939   6.061   5.521
 2219SOL     OW 7555   5.981   0.960   0.785
 2219SOL    HW1 7556   5.989   1.036   0.721
 2219SOL    HW2 7557   5.992   0.873   0.736
 2220SOL     OW 7558   0.569   5.831   4.956
 2220SOL    HW1 7559   0.505   5.756   4.935
 2220SOL    HW2 7560   0.579   5.889   4.875
 2221SOL     OW 7561   6.497   1.531   3.560
 2221SOL    HW1 7562   6.436   1.453   3.572
 2221SOL    HW2 7563   6.573   1.505   3.500
 2222SOL     OW 7564   5.001   6.723   2.152
 2222SOL    HW1 7565   5.022   6.653   2.220
 2222SOL    HW2 7566   4.904   6.746   2.155
 2223SOL     OW 7567   0.527   6.338   5.684
 2223SOL    HW1 7568   0.574   6.404   5.743
 2223SOL    HW2 7569   0.454   6.383   5.634
 2224SOL     OW 7570   6.040   3.804   0.726
 2224SOL    HW1 7571   5.965   3.807   0.792
 2224SOL    HW2 7572   6.127   3.806   0.776
 2225SOL     OW 7573   6.654   6.293   2.968
 2225SOL    HW1 7574   6.723   6.364   2.985
 2225SOL    HW2 7575   6.700   6.210   2.936
 2226SOL     OW 7576   2.282   4.902   0.951
 2226SOL    HW1 7577   2.240   4.887   0.861
 2226SOL    HW2 7578   2.264   4.824   1.010
 2227SOL     OW 7579   3.611   2.121   1.719
 2227SOL    HW1 7580   3.695   2.126   1.664
 2227SOL    HW2 7581   3.618   2.183   1.797
 2228SOL     OW 7582   5.776   5.210   6.843
 2228SOL    HW1 7583   5.750   5.246   6.753
 2228SOL    HW2 7584   5.697   5.212   6.904
 2229SOL     OW 7585   3.496   3.430   3.554
 2229SOL    HW1 7586   3.579   3.383   3.523
 2229SOL    HW2 7587   3.494   3.523   3.517
 2230SOL     OW 7588   5.280   0.526   0.266
 2230SOL    HW1 7589   5.362   0.530   0.323
 2230SOL    HW2 7590   5.202   0.564   0.316
 2231SOL     OW 7591   1.519   6.865   6.674
 2231SOL    HW1 7592   1.571   6.798   6.622
 2231SOL    HW2 7593   1.422   6.857   6.651
 2232SOL     OW 7594   0.995   0.836   4.775
 2232SOL    HW1 7595   1.020   0.932   4.790
 2232SOL    HW2 7596   1.076   0.778   4.787
 2233SOL     OW 7597   2.738   4.373   1.013
 2233SOL    HW1 7598   2.678   4.319   1.072
 2233SOL    HW2 7599   2.825   4.390   1.059
 2234SOL     OW 7600   5.013   1.645   1.460
 2234SOL    HW1 7601   5.111   1.625   1.460
 2234SOL    HW2 7602   4.996   1.724   1.401
 2235SOL     OW 7603   1.205   1.507   3.263
 2235SOL    HW1 7604   1.293   1.476   3.227
 2235SOL    HW2 7605   1.132   1.451   3.224
 2236SOL     OW 7606   1.822   4.589   5.447
 2236SOL    HW1 7607   1.913   4.614   5.414
 2236SOL    HW2 7608   1.809   4.627   5.539
 2237SOL     OW 7609   6.689   5.346   5.896
 2237SOL    HW1 7610   6.628   5.279   5.938
 2237SOL    HW2 7611   6.643   5.390   5.819
 2238SOL     OW 7612   5.735   4.388   1.828
 2238SOL    HW1 7613   5.641   4.385   1.795
 2238SOL    HW2 7614   5.735   4.395   1.927
 2239SOL     OW 7615   4.258   6.563   3.426
 2239SOL    HW1 7616   4.354   6.545   3.448
 2239SOL    HW2 7617   4.243   6.662   3.423
 2240SOL     OW 7618   5.004   4.852   3.229
 2240SOL    HW1 7619   4.908   4.829   3.219
 2240SOL    HW2 7620   5.029   4.849   3.326
 2241SOL     OW 7621   0.705   1.283   1.519
 2241SOL    HW1 7622   0.635   1.248   1.457
 2241SOL    HW2 7623   0.661   1.321   1.601
 2242SOL     OW 7624   4.734   2.852   3.203
 2242SOL    HW1 7625   4.813   2.887   3.254
 2242SOL    HW2 7626   4.673   2.804   3.266
 2243SOL     OW 7627   1.855   6.373   0.692
 2243SOL    HW1 7628   1.817   6.373   0.785
 2243SOL    HW2 7629   1.831   6.287   0.647
 2244SOL     OW 7630   2.701   0.980   0.409
 2244SOL    HW1 7631   2.616   1.017   0.371
 2244SOL    HW2 7632   2.777   1.041   0.386
 2245SOL     OW 7633   0.296   0.336   0.322
 2245SOL    HW1 7634   0.349   0.410   0.363
 2245SOL    HW2 7635   0.358   0.271   0.278
 2246SOL     OW 7636   2.607   0.865   4.823
 2246SOL    HW1 7637   2.706   0.867   4.811
 2246SOL    HW2 7638   2.574   0.771   4.813
 2247SOL     OW 7639   3.097   3.828   2.654
 2247SOL    HW1 7640   3.004   3.843   2.621
 2247SOL    HW2 7641   3.115   3.730   2.661
 2248SOL     OW 7642   4.858   4.010   5.172
 2248SOL    HW1 7643   4.864   4.059   5.259
 2248SOL    HW2 7644   4.811   3.923   5.186
 2249SOL     OW 7645   1.973   5.847   3.181
 2249SOL    HW1 7646   1.913   5.823   3.105
 2249SOL    HW2 7647   1.924   5.907   3.245
 2250SOL     OW 7648   4.671   5.440   6.151
 2250SOL    HW1 7649   4.743   5.508   6.149
 2250SOL    HW2 7650   4.663   5.402   6.243
 2251SOL     OW 7651   5.418   6.403   5.796
 2251SOL    HW1 7652   5.355   6.325   5.803
 2251SOL    HW2 7653   5.465   6.416   5.883
 2252SOL     OW 7654   4.448   1.615   2.905
 2252SOL    HW1 7655   4.539   1.593   2.942
 2252SOL    HW2 7656   4.430   1.557   2.826
 2253SOL     OW 7657   0.428   3.532   1.365
 2253SOL    HW1 7658   0.418   3.451   1.307
 2253SOL    HW2 7659   0.524   3.545   1.388
 2254SOL     OW 7660   3.685   3.473   2.610
 2254SOL    HW1 7661   3.719   3.486   2.517
 2254SOL    HW2 7662   3.586   3.485   2.612
 2255SOL     OW 7663   3.313   3.429   6.401
 2255SOL    HW1 7664   3.387   3.450   6.337
 2255SOL    HW2 7665   3.248   3.367   6.358
 2256SOL     OW 7666   4.284   0.070   2.023
 2256SOL    HW1 7667   4.208   0.020   1.983
 2256SOL    HW2 7668   4.353   0.089   1.953
 2257SOL     OW 7669   0.521   0.999   4.937
 2257SOL    HW1 7670   0.550   1.064   4.868
 2257SOL    HW2 7671   0.589   0.995   5.010
 2258SOL     OW 7672   2.526   5.758   3.868
 2258SOL    HW1 7673   2.439   5.750   3.820
 2258SOL    HW2 7674   2.511   5.802   3.957
 2259SOL     OW 7675   5.769   2.164   4.348
 2259SOL    HW1 7676   5.715   2.112   4.282
 2259SOL    HW2 7677   5.807   2.245   4.304
 2260SOL     OW 7678   0.912   3.956   1.402
 2260SOL    HW1 7679   0.992   3.927   1.350
 2260SOL    HW2 7680   0.846   3.998   1.340
 2261SOL     OW 7681   5.553   4.075   6.903
 2261SOL    HW1 7682   5.485   4.093   6.974
 2261SOL    HW2 7683   5.628   4.022   6.941
 2262SOL     OW 7684   6.514   0.615   4.610
 2262SOL    HW1 7685   6.569   0.594   4.530
 2262SOL    HW2 7686   6.551   0.695   4.657
 2263SOL     OW 7687   2.325   4.334   6.789
 2263SOL    HW1 7688   2.294   4.422   6.753
 2263SOL    HW2 7689   2.423   4.324   6.771
 2264SOL     OW 7690   2.489   0.158   5.744
 2264SOL    HW1 7691   2.463   0.160   5.647
 2264SOL    HW2 7692   2.430   0.221   5.795
 2265SOL     OW 7693   0.538   6.449   4.904
 2265SOL    HW1 7694   0.605   6.401   4.847
 2265SOL    HW2 7695   0.571   6.452   4.998
 2266SOL     OW 7696   4.549   1.942   6.704
 2266SOL    HW1 7697   4.522   1.960   6.609
 2266SOL    HW2 7698   4.584   1.849   6.712
 2267SOL     OW 7699   4.761   2.529   4.360
 2267SOL    HW1 7700   4.830   2.517   4.288
 2267SOL    HW2 7701   4.775   2.460   4.431
 2268SOL     OW 7702   0.566   5.486   5.119
 2268SOL    HW1 7703   0.497   5.526   5.179
 2268SOL    HW2 7704   0.524   5.418   5.059
 2269SOL     OW 7705   2.068   2.190   5.002
 2269SOL    HW1 7706   2.084   2.093   5.020
 2269SOL    HW2 7707   2.015   2.230   5.077
 2270SOL     OW 7708   4.768   2.011   5.969
 2270SOL    HW1 7709   4.730   1.921   5.946
 2270SOL    HW2 7710   4.868   2.005   5.974
 2271SOL     OW 7711   5.092   5.264   6.165
 2271SOL    HW1 7712   5.088   5.165   6.181
 2271SOL    HW2 7713   5.036   5.287   6.086
 2272SOL     OW 7714   5.547   1.074   5.863
 2272SOL    HW1 7715   5.636   1.083   5.907
 2272SOL    HW2 7716   5.550   1.116   5.772
 2273SOL     OW 7717   1.198   2.446   2.720
 2273SOL    HW1 7718   1.296   2.435   2.702
 2273SOL    HW2 7719   1.151   2.361   2.696
 2274SOL     OW 7720   0.192   1.623   6.386
 2274SOL    HW1 7721   0.259   1.678   6.336
 2274SOL    HW2 7722   0.238   1.546   6.431
 2275SOL     OW 7723   5.711   4.974   2.690
 2275SOL    HW1 7724   5.667   4.909   2.752
 2275SOL    HW2 7725   5.807   4.986   2.718
 2276SOL     OW 7726   1.298   2.607   1.095
 2276SOL    HW1 7727   1.368   2.544   1.061
 2276SOL    HW2 7728   1.209   2.561   1.094
 2277SOL     OW 7729   3.704   3.302   3.460
 2277SOL    HW1 7730   3.749   3.314   3.372
 2277SOL    HW2 7731   3.712   3.206   3.488
 2278SOL     OW 7732   0.198   2.411   3.925
 2278SOL    HW1 7733   0.288   2.442   3.894
 2278SOL    HW2 7734   0.198   2.312   3.934
 2279SOL     OW 7735   0.484   6.061   5.158
 2279SOL    HW1 7736   0.492   6.007   5.242
 2279SOL    HW2 7737   0.505   6.003   5.079
 2280SOL     OW 7738   4.764   1.556   5.050
 2280SOL    HW1 7739   4.729   1.590   4.962
 2280SOL    HW2 7740   4.856   1.518   5.037
 2281SOL     OW 7741   5.147   0.087   2.667
 2281SOL    HW1 7742   5.231   0.034   2.654
 2281SOL    HW2 7743   5.120   0.128   2.579
 2282SOL     OW 7744   4.115   6.144   5.492
 2282SOL    HW1 7745   4.113   6.073   5.563
 2282SOL    HW2 7746   4.210   6.172   5.475
 2283SOL     OW 7747   0.274   0.388   3.870
 2283SOL    HW1 7748   0.201   0.382   3.801
 2283SOL    HW2 7749   0.323   0.301   3.874
 2284SOL     OW 7750   1.650   2.953   6.762
 2284SOL    HW1 7751   1.677   2.885   6.695
 2284SOL    HW2 7752   1.571   2.919   6.814
 2285SOL     OW 7753   1.344   4.116   6.664
 2285SOL    HW1 7754   1.360   4.170   6.582
 2285SOL    HW2 7755   1.346   4.019   6.642
 2286SOL     OW 7756   4.428   5.579   4.077
 2286SOL    HW1 7757   4.435   5.659   4.018
 2286SOL    HW2 7758   4.332   5.565   4.104
 2287SOL     OW 7759   2.034   0.995   3.317
 2287SOL    HW1 7760   2.020   0.917   3.379
 2287SOL    HW2 7761   1.964   0.994   3.246
 2288SOL     OW 7762   0.096   6.668   3.013
 2288SOL    HW1 7763   0.031   6.741   2.994
 2288SOL    HW2 7764   0.186   6.707   3.034
 2289SOL     OW 7765   0.788   5.350   1.928
 2289SOL    HW1 7766   0.751   5.261   1.957
 2289SOL    HW2 7767   0.816   5.345   1.832
 2290SOL     OW 7768   0.585   5.922   0.817
 2290SOL    HW1 7769   0.529   5.889   0.893
 2290SOL    HW2 7770   0.682   5.919   0.842
 2291SOL     OW 7771   2.485   2.053   6.385
 2291SOL    HW1 7772   2.388   2.044   6.407
 2291SOL    HW2 7773   2.539   2.051   6.469
 2292SOL     OW 7774   1.431   1.050   4.762
 2292SOL    HW1 7775   1.464   1.137   4.799
 2292SOL    HW2 7776   1.437   1.052   4.662
 2293SOL     OW 7777   5.695   5.066   2.406
 2293SOL    HW1 7778   5.687   4.987   2.346
 2293SOL    HW2 7779   5.701   5.036   2.502
 2294SOL     OW 7780   3.957   6.601   6.493
 2294SOL    HW1 7781   3.950   6.610   6.592
 2294SOL    HW2 7782   3.925   6.510   6.465
 2295SOL     OW 7783   0.545   2.361   1.290
 2295SOL    HW1 7784   0.572   2.424   1.363
 2295SOL    HW2 7785   0.589   2.389   1.205
 2296SOL     OW 7786   3.368   6.459   6.933
 2296SOL    HW1 7787   3.325   6.383   6.884
 2296SOL    HW2 7788   3.448   6.491   6.882
 2297SOL     OW 7789   4.365   5.509   5.764
 2297SOL    HW1 7790   4.432   5.501   5.691
 2297SOL    HW2 7791   4.410   5.498   5.852
 2298SOL     OW 7792   4.220   3.174   0.307
 2298SOL    HW1 7793   4.162   3.201   0.230
 2298SOL    HW2 7794   4.222   3.075   0.314
 2299SOL     OW 7795   4.946   5.553   0.106
 2299SOL    HW1 7796   4.915   5.476   0.161
 2299SOL    HW2 7797   5.036   5.583   0.139
 2300SOL     OW 7798   1.815   5.121   1.338
 2300SOL    HW1 7799   1.814   5.197   1.273
 2300SOL    HW2 7800   1.907   5.113   1.377
 2301SOL     OW 7801   4.137   3.464   2.497
 2301SOL    HW1 7802   4.158   3.385   2.439
 2301SOL    HW2 7803   4.091   3.433   2.580
 2302SOL     OW 7804   3.180   5.609   2.797
 2302SOL    HW1 7805   3.195   5.544   2.872
 2302SOL    HW2 7806   3.261   5.667   2.788
 2303SOL     OW 7807   1.101   2.806   4.873
 2303SOL    HW1 7808   1.153   2.873   4.820
 2303SOL    HW2 7809   1.050   2.747   4.810
 2304SOL     OW 7810   2.208   1.052   4.089
 2304SOL    HW1 7811   2.280   0.983   4.080
 2304SOL    HW2 7812   2.151   1.052   4.007
 2305SOL     OW 7813   3.514   5.190   1.951
 2305SOL    HW1 7814   3.507   5.250   1.871
 2305SOL    HW2 7815   3.598   5.136   1.945
 2306SOL     OW 7816   1.048   3.762   0.719
 2306SOL    HW1 7817   1.111   3.701   0.670
 2306SOL    HW2 7818   1.015   3.716   0.801
 2307SOL     OW 7819   0.433   2.450   3.004
 2307SOL    HW1 7820   0.452   2.382   2.933
 2307SOL    HW2 7821   0.352   2.423   3.056
 2308SOL     OW 7822   0.036   6.971   0.546
 2308SOL    HW1 7823   0.027   0.028   0.611
 2308SOL    HW2 7824   0.094   6.999   0.469
 2309SOL     OW 7825   3.427   5.469   6.442
 2309SOL    HW1 7826   3.452   5.540   6.508
 2309SOL    HW2 7827   3.507   5.442   6.390
 2310SOL     OW 7828   5.805   0.538   1.834
 2310SOL    HW1 7829   5.810   0.635   1.810
 2310SOL    HW2 7830   5.710   0.509   1.835
 2311SOL     OW 7831   3.252   0.176   2.786
 2311SOL    HW1 7832   3.290   0.102   2.730
 2311SOL    HW2 7833   3.188   0.229   2.730
 2312SOL     OW 7834   3.853   1.151   2.833
 2312SOL    HW1 7835   3.922   1.108   2.774
 2312SOL    HW2 7836   3.763   1.112   2.813
 2313SOL     OW 7837   5.180   3.926   2.149
 2313SOL    HW1 7838   5.083   3.945   2.136
 2313SOL    HW2 7839   5.231   4.011   2.157
 2314SOL     OW 7840   6.659   0.394   3.146
 2314SOL    HW1 7841   6.650   0.408   3.047
 2314SOL    HW2 7842   6.740   0.443   3.179
 2315SOL     OW 7843   4.469   4.796   5.882
 2315SOL    HW1 7844   4.537   4.852   5.835
 2315SOL    HW2 7845   4.383   4.799   5.831
 2316SOL     OW 7846   3.071   1.324   5.941
 2316SOL    HW1 7847   3.006   1.314   5.865
 2316SOL    HW2 7848   3.032   1.384   6.011
 2317SOL     OW 7849   6.125   5.523   3.730
 2317SOL    HW1 7850   6.208   5.577   3.712
 2317SOL    HW2 7851   6.049   5.585   3.748
 2318SOL     OW 7852   1.776   4.595   4.927
 2318SOL    HW1 7853   1.699   4.613   4.866
 2318SOL    HW2 7854   1.842   4.537   4.881
 2319SOL     OW 7855   2.385   5.138   4.138
 2319SOL    HW1 7856   2.420   5.182   4.221
 2319SOL    HW2 7857   2.312   5.194   4.099
 2320SOL     OW 7858   1.355   3.428   4.985
 2320SOL    HW1 7859   1.289   3.405   4.914
 2320SOL    HW2 7860   1.426   3.488   4.947
 2321SOL     OW 7861   3.006   5.193   6.232
 2321SOL    HW1 7862   2.958   5.197   6.144
 2321SOL    HW2 7863   3.055   5.279   6.247
 2322SOL     OW 7864   1.378   3.668   2.194
 2322SOL    HW1 7865   1.295   3.656   2.248
 2322SOL    HW2 7866   1.413   3.579   2.167
 2323SOL     OW 7867   1.928   5.060   1.774
 2323SOL    HW1 7868   1.933   5.000   1.854
 2323SOL    HW2 7869   2.009   5.046   1.717
 2324SOL     OW 7870   0.338   5.561   1.614
 2324SOL    HW1 7871   0.371   5.469   1.592
 2324SOL    HW2 7872   0.264   5.554   1.682
 2325SOL     OW 7873   6.637   5.474   2.098
 2325SOL    HW1 7874   6.649   5.567   2.066
 2325SOL    HW2 7875   6.542   5.445   2.082
 2326SOL     OW 7876   1.063   0.710   6.596
 2326SOL    HW1 7877   1.075   0.764   6.513
 2326SOL    HW2 7878   1.143   0.723   6.656
 2327SOL     OW 7879   6.503   0.511   2.662
 2327SOL    HW1 7880   6.572   0.522   2.733
 2327SOL    HW2 7881   6.412   0.507   2.703
 2328SOL     OW 7882   1.822   2.511   2.198
 2328SOL    HW1 7883   1.747   2.501   2.132
 2328SOL    HW2 7884   1.902   2.461   2.165
 2329SOL     OW 7885   0.821   5.661   3.661
 2329SOL    HW1 7886   0.739   5.632   3.612
 2329SOL    HW2 7887   0.862   5.738   3.612
 2330SOL     OW 7888   6.708   3.052   6.898
 2330SOL    HW1 7889   6.662   3.139   6.877
 2330SOL    HW2 7890   6.802   3.070   6.926
 2331SOL     OW 7891   3.800   5.768   6.980
 2331SOL    HW1 7892   3.846   5.752   6.893
 2331SOL    HW2 7893   3.866   5.758   0.036
 2332SOL     OW 7894   5.110   6.759   6.362
 2332SOL    HW1 7895   5.040   6.690   6.383
 2332SOL    HW2 7896   5.120   6.768   6.263
 2333SOL     OW 7897   0.099   5.102   2.766
 2333SOL    HW1 7898   0.097   5.173   2.695
 2333SOL    HW2 7899   0.193   5.068   2.775
 2334SOL     OW 7900   2.553   0.803   5.713
 2334SOL    HW1 7901   2.621   0.829   5.782
 2334SOL    HW2 7902   2.555   0.704   5.700
 2335SOL     OW 7903   6.074   1.975   3.477
 2335SOL    HW1 7904   6.142   1.963   3.550
 2335SOL    HW2 7905   6.102   1.923   3.397
 2336SOL     OW 7906   2.164   1.616   2.639
 2336SOL    HW1 7907   2.218   1.540   2.605
 2336SOL    HW2 7908   2.108   1.654   2.565
 2337SOL     OW 7909   4.026   1.926   1.323
 2337SOL    HW1 7910   4.001   1.934   1.420
 2337SOL    HW2 7911   4.017   2.015   1.279
 2338SOL     OW 7912   0.452   3.873   4.308
 2338SOL    HW1 7913   0.389   3.931   4.255
 2338SOL    HW2 7914   0.406   3.788   4.332
 2339SOL     OW 7915   3.277   2.929   2.364
 2339SOL    HW1 7916   3.213   2.858   2.395
 2339SOL    HW2 7917   3.244   2.970   2.280
 2340SOL     OW 7918   1.131   4.909   6.339
 2340SOL    HW1 7919   1.041   4.865   6.345
 2340SOL    HW2 7920   1.156   4.920   6.242
 2341SOL     OW 7921   2.471   4.464   3.025
 2341SOL    HW1 7922   2.479   4.458   2.925
 2341SOL    HW2 7923   2.412   4.389   3.057
 2342SOL     OW 7924   3.178   6.425   4.229
 2342SOL    HW1 7925   3.187   6.396   4.134
 2342SOL    HW2 7926   3.108   6.369   4.275
 2343SOL     OW 7927   1.764   6.349   2.726
 2343SOL    HW1 7928   1.688   6.336   2.661
 2343SOL    HW2 7929   1.850   6.355   2.676
 2344SOL     OW 7930   6.392   4.688   0.985
 2344SOL    HW1 7931   6.292   4.679   0.980
 2344SOL    HW2 7932   6.424   4.744   0.909
 2345SOL     OW 7933   2.683   5.901   4.581
 2345SOL    HW1 7934   2.722   5.953   4.505
 2345SOL    HW2 7935   2.685   5.957   4.664
 2346SOL     OW 7936   4.092   3.744   5.908
 2346SOL    HW1 7937   4.112   3.724   5.812
 2346SOL    HW2 7938   4.130   3.672   5.966
 2347SOL     OW 7939   1.312   2.200   1.743
 2347SOL    HW1 7940   1.243   2.269   1.767
 2347SOL    HW2 7941   1.270   2.110   1.744
 2348SOL     OW 7942   1.298   5.406   3.072
 2348SOL    HW1 7943   1.352   5.330   3.108
 2348SOL    HW2 7944   1.207   5.372   3.046
 2349SOL     OW 7945   0.731   4.307   6.486
 2349SOL    HW1 7946   0.677   4.316   6.569
 2349SOL    HW2 7947   0.800   4.380   6.483
 2350SOL     OW 7948   6.206   4.487   6.249
 2350SOL    HW1 7949   6.264   4.560   6.212
 2350SOL    HW2 7950   6.119   4.487   6.201
 2351SOL     OW 7951   2.682   4.649   3.006
 2351SOL    HW1 7952   2.644   4.717   2.944
 2351SOL    HW2 7953   2.610   4.585   3.033
 2352SOL     OW 7954   0.200   3.184   3.508
 2352SOL    HW1 7955   0.152   3.159   3.423
 2352SOL    HW2 7956   0.133   3.194   3.582
 2353SOL     OW 7957   4.106   5.445   5.646
 2353SOL    HW1 7958   4.126   5.470   5.551
 2353SOL    HW2 7959   4.185   5.465   5.704
 2354SOL     OW 7960   2.551   1.929   4.381
 2354SOL    HW1 7961   2.522   1.897   4.471
 2354SOL    HW2 7962   2.651   1.924   4.375
 2355SOL     OW 7963   2.228   6.040   4.647
 2355SOL    HW1 7964   2.314   6.065   4.602
 2355SOL    HW2 7965   2.179   6.122   4.673
 2356SOL     OW 7966   0.509   2.950   6.675
 2356SOL    HW1 7967   0.597   2.962   6.630
 2356SOL    HW2 7968   0.511   2.992   6.766
 2357SOL     OW 7969   3.291   1.020   2.567
 2357SOL    HW1 7970   3.296   1.068   2.479
 2357SOL    HW2 7971   3.383   1.000   2.599
 2358SOL     OW 7972   3.511   4.794   6.111
 2358SOL    HW1 7973   3.444   4.843   6.055
 2358SOL    HW2 7974   3.597   4.786   6.060
 2359SOL     OW 7975   1.225   0.175   5.528
 2359SOL    HW1 7976   1.154   0.224   5.478
 2359SOL    HW2 7977   1.276   0.239   5.585
 2360SOL     OW 7978   6.396   3.318   0.687
 2360SOL    HW1 7979   6.434   3.225   0.693
 2360SOL    HW2 7980   6.453   3.381   0.739
 2361SOL     OW 7981   3.303   1.464   5.978
 2361SOL    HW1 7982   3.315   1.526   5.901
 2361SOL    HW2 7983   3.221   1.408   5.963
 2362SOL     OW 7984   3.531   5.016   3.566
 2362SOL    HW1 7985   3.623   4.985   3.540
 2362SOL    HW2 7986   3.465   4.982   3.499
 2363SOL     OW 7987   3.856   1.604   3.441
 2363SOL    HW1 7988   3.805   1.578   3.523
 2363SOL    HW2 7989   3.938   1.655   3.467
 2364SOL     OW 7990   1.082   2.386   1.750
 2364SOL    HW1 7991   1.140   2.405   1.671
 2364SOL    HW2 7992   0.988   2.414   1.729
 2365SOL     OW 7993   6.090   2.275   0.268
 2365SOL    HW1 7994   6.147   2.264   0.187
 2365SOL    HW2 7995   6.108   2.364   0.310
 2366SOL     OW 7996   3.774   5.354   0.756
 2366SOL    HW1 7997   3.685   5.355   0.801
 2366SOL    HW2 7998   3.839   5.303   0.813
 2367SOL     OW 7999   2.244   3.367   6.806
 2367SOL    HW1 8000   2.253   3.268   6.801
 2367SOL    HW2 8001   2.155   3.391   6.846
 2368SOL     OW 8002   6.087   6.809   3.926
 2368SOL    HW1 8003   6.017   6.840   3.862
 2368SOL    HW2 8004   6.054   6.822   4.019
 2369SOL     OW 8005   1.974   0.040   3.992
 2369SOL    HW1 8006   2.006   0.088   4.073
 2369SOL    HW2 8007   2.010   0.085   3.910
 2370SOL     OW 8008   5.712   2.825   6.565
 2370SOL    HW1 8009   5.737   2.759   6.637
 2370SOL    HW2 8010   5.736   2.917   6.595
 2371SOL     OW 8011   2.244   0.164   1.525
 2371SOL    HW1 8012   2.194   0.220   1.458
 2371SOL    HW2 8013   2.215   0.069   1.516
 2372SOL     OW 8014   0.218   2.796   2.321
 2372SOL    HW1 8015   0.237   2.826   2.415
 2372SOL    HW2 8016   0.157   2.717   2.323
 2373SOL     OW 8017   2.222   3.512   5.896
 2373SOL    HW1 8018   2.131   3.504   5.854
 2373SOL    HW2 8019   2.282   3.564   5.835
 2374SOL     OW 8020   6.368   1.752   4.589
 2374SOL    HW1 8021   6.296   1.821   4.580
 2374SOL    HW2 8022   6.399   1.724   4.498
 2375SOL     OW 8023   3.566   5.681   5.328
 2375SOL    HW1 8024   3.573   5.765   5.383
 2375SOL    HW2 8025   3.594   5.603   5.384
 2376SOL     OW 8026   6.217   3.260   3.536
 2376SOL    HW1 8027   6.301   3.255   3.589
 2376SOL    HW2 8028   6.142   3.289   3.595
 2377SOL     OW 8029   2.910   3.348   3.915
 2377SOL    HW1 8030   2.937   3.304   4.001
 2377SOL    HW2 8031   2.950   3.299   3.838
 2378SOL     OW 8032   5.154   2.413   0.051
 2378SOL    HW1 8033   5.159   2.499   7.018
 2378SOL    HW2 8034   5.060   2.398   0.082
 2379SOL     OW 8035   6.224   0.649   0.929
 2379SOL    HW1 8036   6.309   0.694   0.901
 2379SOL    HW2 8037   6.230   0.624   1.025
 2380SOL     OW 8038   6.340   2.660   1.082
 2380SOL    HW1 8039   6.248   2.669   1.121
 2380SOL    HW2 8040   6.370   2.749   1.046
 2381SOL     OW 8041   1.674   5.814   3.009
 2381SOL    HW1 8042   1.581   5.795   2.978
 2381SOL    HW2 8043   1.721   5.870   2.941
 2382SOL     OW 8044   2.031   3.111   4.670
 2382SOL    HW1 8045   2.100   3.106   4.598
 2382SOL    HW2 8046   1.999   3.019   4.693
 2383SOL     OW 8047   6.617   6.394   1.524
 2383SOL    HW1 8048   6.523   6.427   1.539
 2383SOL    HW2 8049   6.614   6.315   1.463
 2384SOL     OW 8050   4.855   2.188   1.945
 2384SOL    HW1 8051   4.775   2.141   1.983
 2384SOL    HW2 8052   4.825   2.245   1.868
 2385SOL     OW 8053   0.270   0.814   6.940
 2385SOL    HW1 8054   0.175   0.845   6.942
 2385SOL    HW2 8055   0.329   0.884   6.979
 2386SOL     OW 8056   5.192   5.933   5.275
 2386SOL    HW1 8057   5.242   6.020   5.275
 2386SOL    HW2 8058   5.237   5.869   5.337
 2387SOL     OW 8059   2.137   0.952   4.340
 2387SOL    HW1 8060   2.175   0.977   4.251
 2387SOL    HW2 8061   2.044   0.917   4.328
 2388SOL     OW 8062   6.695   2.922   3.392
 2388SOL    HW1 8063   6.627   2.865   3.438
 2388SOL    HW2 8064   6.684   2.912   3.293
 2389SOL     OW 8065   4.454   4.539   3.255
 2389SOL    HW1 8066   4.501   4.627   3.261
 2389SOL    HW2 8067   4.368   4.550   3.205
 2390SOL     OW 8068   4.022   3.804   2.865
 2390SOL    HW1 8069   3.926   3.784   2.847
 2390SOL    HW2 8070   4.029   3.859   2.949
 2391SOL     OW 8071   4.514   4.866   6.228
 2391SOL    HW1 8072   4.599   4.814   6.227
 2391SOL    HW2 8073   4.517   4.936   6.156
 2392SOL     OW 8074   2.688   0.352   6.797
 2392SOL    HW1 8075   2.761   0.400   6.845
 2392SOL    HW2 8076   2.637   0.296   6.863
 2393SOL     OW 8077   4.346   4.619   6.099
 2393SOL    HW1 8078   4.415   4.687   6.075
 2393SOL    HW2 8079   4.330   4.559   6.020
 2394SOL     OW 8080   0.231   4.200   4.721
 2394SOL    HW1 8081   0.284   4.247   4.792
 2394SOL    HW2 8082   0.274   4.112   4.700
 2395SOL     OW 8083   4.240   6.600   5.978
 2395SOL    HW1 8084   4.247   6.646   6.067
 2395SOL    HW2 8085   4.282   6.509   5.984
 2396SOL     OW 8086   3.877   4.772   0.827
 2396SOL    HW1 8087   3.958   4.830   0.818
 2396SOL    HW2 8088   3.869   4.714   0.746
 2397SOL     OW 8089   0.504   4.402   4.535
 2397SOL    HW1 8090   0.540   4.342   4.607
 2397SOL    HW2 8091   0.580   4.434   4.478
 2398SOL     OW 8092   5.008   4.463   6.294
 2398SOL    HW1 8093   5.011   4.544   6.353
 2398SOL    HW2 8094   5.092   4.458   6.240
 2399SOL     OW 8095   4.421   1.773   1.714
 2399SOL    HW1 8096   4.483   1.722   1.774
 2399SOL    HW2 8097   4.408   1.865   1.750
 2400SOL     OW 8098   2.319   4.608   1.112
 2400SOL    HW1 8099   2.292   4.531   1.054
 2400SOL    HW2 8100   2.418   4.619   1.111
 2401SOL     OW 8101   6.684   6.014   6.061
 2401SOL    HW1 8102   6.689   5.920   6.095
 2401SOL    HW2 8103   6.640   6.072   6.129
 2402SOL     OW 8104   0.829   6.901   4.382
 2402SOL    HW1 8105   0.908   6.867   4.331
 2402SOL    HW2 8106   0.757   6.832   4.383
 2403SOL     OW 8107   0.485   2.491   5.014
 2403SOL    HW1 8108   0.493   2.554   4.937
 2403SOL    HW2 8109   0.497   2.397   4.981
 2404SOL     OW 8110   1.740   0.553   0.875
 2404SOL    HW1 8111   1.830   0.521   0.905
 2404SOL    HW2 8112   1.724   0.525   0.781
 2405SOL     OW 8113   3.216   4.081   2.507
 2405SOL    HW1 8114   3.216   4.120   2.599
 2405SOL    HW2 8115   3.199   3.983   2.512
 2406SOL     OW 8116   3.999   2.100   0.829
 2406SOL    HW1 8117   4.038   2.037   0.896
 2406SOL    HW2 8118   4.071   2.128   0.765
 2407SOL     OW 8119   5.363   1.086   3.496
 2407SOL    HW1 8120   5.327   0.997   3.468
 2407SOL    HW2 8121   5.463   1.084   3.496
 2408SOL     OW 8122   4.600   4.517   1.962
 2408SOL    HW1 8123   4.690   4.551   1.986
 2408SOL    HW2 8124   4.605   4.418   1.944
 2409SOL     OW 8125   2.128   3.573   0.682
 2409SOL    HW1 8126   2.172   3.534   0.763
 2409SOL    HW2 8127   2.050   3.516   0.657
 2410SOL     OW 8128   3.197   3.366   3.391
 2410SOL    HW1 8129   3.245   3.326   3.469
 2410SOL    HW2 8130   3.258   3.427   3.341
 2411SOL     OW 8131   5.359   6.781   4.912
 2411SOL    HW1 8132   5.337   6.862   4.858
 2411SOL    HW2 8133   5.285   6.714   4.903
 2412SOL     OW 8134   5.342   3.707   1.112
 2412SOL    HW1 8135   5.296   3.703   1.200
 2412SOL    HW2 8136   5.399   3.789   1.108
 2413SOL     OW 8137   5.118   0.744   2.034
 2413SOL    HW1 8138   5.024   0.775   2.046
 2413SOL    HW2 8139   5.176   0.783   2.106
 2414SOL     OW 8140   4.982   3.079   4.007
 2414SOL    HW1 8141   5.001   2.982   4.018
 2414SOL    HW2 8142   4.936   3.094   3.919
 2415SOL     OW 8143   4.842   0.858   2.860
 2415SOL    HW1 8144   4.890   0.815   2.784
 2415SOL    HW2 8145   4.833   0.956   2.842
 2416SOL     OW 8146   5.232   1.516   5.992
 2416SOL    HW1 8147   5.224   1.491   6.088
 2416SOL    HW2 8148   5.307   1.582   5.981
 2417SOL     OW 8149   3.019   3.232   4.771
 2417SOL    HW1 8150   3.102   3.283   4.747
 2417SOL    HW2 8151   3.042   3.136   4.786
 2418SOL     OW 8152   3.476   3.061   3.329
 2418SOL    HW1 8153   3.568   3.088   3.357
 2418SOL    HW2 8154   3.481   3.011   3.242
 2419SOL     OW 8155   0.478   7.001   2.962
 2419SOL    HW1 8156   0.495   0.066   3.015
 2419SOL    HW2 8157   0.508   7.015   2.868
 2420SOL     OW 8158   2.428   0.058   1.981
 2420SOL    HW1 8159   2.515   0.087   1.941
 2420SOL    HW2 8160   2.353   0.095   1.927
 2421SOL     OW 8161   2.179   2.201   4.768
 2421SOL    HW1 8162   2.135   2.132   4.711
 2421SOL    HW2 8163   2.147   2.191   4.863
 2422SOL     OW 8164   4.862   1.533   1.189
 2422SOL    HW1 8165   4.876   1.517   1.287
 2422SOL    HW2 8166   4.943   1.502   1.139
 2423SOL     OW 8167   2.642   5.754   2.450
 2423SOL    HW1 8168   2.574   5.687   2.420
 2423SOL    HW2 8169   2.731   5.731   2.410
 2424SOL     OW 8170   6.287   1.094   0.573
 2424SOL    HW1 8171   6.358   1.024   0.580
 2424SOL    HW2 8172   6.327   1.177   0.533
 2425SOL     OW 8173   6.814   6.897   3.986
 2425SOL    HW1 8174   6.750   6.856   4.050
 2425SOL    HW2 8175   6.828   6.993   4.010
 2426SOL     OW 8176   2.469   4.746   4.287
 2426SOL    HW1 8177   2.478   4.752   4.386
 2426SOL    HW2 8178   2.372   4.738   4.262
 2427SOL     OW 8179   6.599   6.913   5.595
 2427SOL    HW1 8180   6.605   6.836   5.658
 2427SOL    HW2 8181   6.668   6.904   5.523
 2428SOL     OW 8182   0.652   0.734   0.917
 2428SOL    HW1 8183   0.730   0.760   0.974
 2428SOL    HW2 8184   0.574   0.793   0.939
 2429SOL     OW 8185   4.973   6.104   2.283
 2429SOL    HW1 8186   5.025   6.026   2.248
 2429SOL    HW2 8187   5.004   6.187   2.237
 2430SOL     OW 8188   6.289   0.731   2.938
 2430SOL    HW1 8189   6.320   0.825   2.926
 2430SOL    HW2 8190   6.291   0.707   3.035
 2431SOL     OW 8191   3.962   0.740   1.959
 2431SOL    HW1 8192   3.958   0.785   1.870
 2431SOL    HW2 8193   3.873   0.699   1.981
 2432SOL     OW 8194   3.490   6.411   2.048
 2432SOL    HW1 8195   3.520   6.432   1.955
 2432SOL    HW2 8196   3.416   6.343   2.045
 2433SOL     OW 8197   3.868   0.268   0.218
 2433SOL    HW1 8198   3.916   0.181   0.209
 2433SOL    HW2 8199   3.906   0.319   0.296
 2434SOL     OW 8200   4.168   2.227   5.836
 2434SOL    HW1 8201   4.090   2.225   5.899
 2434SOL    HW2 8202   4.174   2.139   5.788
 2435SOL     OW 8203   5.838   5.774   5.170
 2435SOL    HW1 8204   5.886   5.699   5.125
 2435SOL    HW2 8205   5.804   5.743   5.259
 2436SOL     OW 8206   2.666   5.350   0.141
 2436SOL    HW1 8207   2.603   5.372   0.066
 2436SOL    HW2 8208   2.739   5.417   0.144
 2437SOL     OW 8209   6.831   0.143   5.989
 2437SOL    HW1 8210   6.815   0.056   5.942
 2437SOL    HW2 8211   6.897   0.197   5.937
 2438SOL     OW 8212   2.604   2.666   1.090
 2438SOL    HW1 8213   2.680   2.608   1.119
 2438SOL    HW2 8214   2.543   2.682   1.167
 2439SOL     OW 8215   6.042   4.368   5.348
 2439SOL    HW1 8216   6.042   4.268   5.343
 2439SOL    HW2 8217   5.993   4.405   5.269
 2440SOL     OW 8218   5.911   5.069   6.363
 2440SOL    HW1 8219   5.937   5.011   6.286
 2440SOL    HW2 8220   5.869   5.153   6.329
 2441SOL     OW 8221   5.847   2.544   1.190
 2441SOL    HW1 8222   5.827   2.448   1.209
 2441SOL    HW2 8223   5.921   2.550   1.122
 2442SOL     OW 8224   6.843   3.805   4.811
 2442SOL    HW1 8225   6.766   3.849   4.766
 2442SOL    HW2 8226   6.868   3.857   4.892
 2443SOL     OW 8227   3.174   4.978   5.830
 2443SOL    HW1 8228   3.169   5.052   5.763
 2443SOL    HW2 8229   3.203   4.894   5.784
 2444SOL     OW 8230   2.950   3.653   5.587
 2444SOL    HW1 8231   2.858   3.670   5.622
 2444SOL    HW2 8232   2.954   3.680   5.491
 2445SOL     OW 8233   0.774   0.497   0.862
 2445SOL    HW1 8234   0.836   0.433   0.907
 2445SOL    HW2 8235   0.778   0.586   0.908
 2446SOL     OW 8236   6.203   3.932   6.143
 2446SOL    HW1 8237   6.261   3.959   6.066
 2446SOL    HW2 8238   6.257   3.879   6.209
 2447SOL     OW 8239   0.674   2.141   6.896
 2447SOL    HW1 8240   0.755   2.186   6.857
 2447SOL    HW2 8241   0.596   2.204   6.892
 2448SOL     OW 8242   0.902   0.166   4.503
 2448SOL    HW1 8243   0.852   0.080   4.508
 2448SOL    HW2 8244   0.911   0.194   4.407
 2449SOL     OW 8245   0.313   2.717   4.858
 2449SOL    HW1 8246   0.226   2.667   4.865
 2449SOL    HW2 8247   0.321   2.758   4.767
 2450SOL     OW 8248   2.119   3.360   2.841
 2450SOL    HW1 8249   2.090   3.287   2.903
 2450SOL    HW2 8250   2.041   3.420   2.823
 2451SOL     OW 8251   2.788   6.378   3.867
 2451SOL    HW1 8252   2.730   6.450   3.830
 2451SOL    HW2 8253   2.866   6.363   3.805
 2452SOL     OW 8254   1.213   2.388   4.391
 2452SOL    HW1 8255   1.253   2.480   4.400
 2452SOL    HW2 8256   1.280   2.320   4.421
 2453SOL     OW 8257   0.025   3.529   1.116
 2453SOL    HW1 8258   0.088   3.590   1.164
 2453SOL    HW2 8259   7.015   3.456   1.178
 2454SOL     OW 8260   2.166   0.629   2.321
 2454SOL    HW1 8261   2.134   0.643   2.415
 2454SOL    HW2 8262   2.103   0.674   2.257
 2455SOL     OW 8263   5.523   4.549   0.378
 2455SOL    HW1 8264   5.489   4.613   0.309
 2455SOL    HW2 8265   5.457   4.474   0.389
 2456SOL     OW 8266   3.267   6.241   1.260
 2456SOL    HW1 8267   3.349   6.187   1.277
 2456SOL    HW2 8268   3.187   6.182   1.265
 2457SOL     OW 8269   5.642   6.532   1.263
 2457SOL    HW1 8270   5.721   6.581   1.300
 2457SOL    HW2 8271   5.652   6.524   1.163
 2458SOL     OW 8272   0.366   5.815   3.583
 2458SOL    HW1 8273   0.415   5.847   3.664
 2458SOL    HW2 8274   0.281   5.770   3.610
 2459SOL     OW 8275   1.447   0.584   0.579
 2459SOL    HW1 8276   1.409   0.675   0.565
 2459SOL    HW2 8277   1.507   0.585   0.659
 2460SOL     OW 8278   3.451   5.076   1.297
 2460SOL    HW1 8279   3.522   5.129   1.344
 2460SOL    HW2 8280   3.422   5.001   1.357
 2461SOL     OW 8281   4.905   0.810   3.130
 2461SOL    HW1 8282   4.929   0.804   3.033
 2461SOL    HW2 8283   4.920   0.722   3.174
 2462SOL     OW 8284   2.721   4.598   6.335
 2462SOL    HW1 8285   2.764   4.655   6.405
 2462SOL    HW2 8286   2.676   4.520   6.379
 2463SOL     OW 8287   0.147   1.776   4.524
 2463SOL    HW1 8288   0.098   1.711   4.583
 2463SOL    HW2 8289   0.231   1.734   4.491
 2464SOL     OW 8290   1.083   3.500   1.269
 2464SOL    HW1 8291   1.034   3.423   1.228
 2464SOL    HW2 8292   1.094   3.484   1.367
 2465SOL     OW 8293   6.342   5.180   3.331
 2465SOL    HW1 8294   6.272   5.163   3.400
 2465SOL    HW2 8295   6.429   5.143   3.363
 2466SOL     OW 8296   3.432   1.638   2.036
 2466SOL    HW1 8297   3.343   1.616   1.996
 2466SOL    HW2 8298   3.486   1.691   1.971
 2467SOL     OW 8299   6.620   1.480   5.680
 2467SOL    HW1 8300   6.526   1.472   5.713
 2467SOL    HW2 8301   6.638   1.574   5.651
 2468SOL     OW 8302   0.152   3.858   0.194
 2468SOL    HW1 8303   0.058   3.848   0.161
 2468SOL    HW2 8304   0.151   3.888   0.290
 2469SOL     OW 8305   3.107   3.424   5.552
 2469SOL    HW1 8306   3.054   3.501   5.588
 2469SOL    HW2 8307   3.197   3.455   5.524
 2470SOL     OW 8308   5.394   2.882   0.301
 2470SOL    HW1 8309   5.442   2.920   0.223
 2470SOL    HW2 8310   5.297   2.872   0.280
 2471SOL     OW 8311   0.388   0.322   3.498
 2471SOL    HW1 8312   0.324   0.396   3.474
 2471SOL    HW2 8313   0.436   0.292   3.417
 2472SOL     OW 8314   5.290   1.351   3.442
 2472SOL    HW1 8315   5.326   1.402   3.364
 2472SOL    HW2 8316   5.365   1.300   3.485
 2473SOL     OW 8317   0.492   0.056   5.627
 2473SOL    HW1 8318   0.523   0.025   5.537
 2473SOL    HW2 8319   0.567   0.050   5.692
 2474SOL     OW 8320   5.900   6.088   4.664
 2474SOL    HW1 8321   5.954   6.081   4.580
 2474SOL    HW2 8322   5.893   5.998   4.707
 2475SOL     OW 8323   4.520   2.206   6.216
 2475SOL    HW1 8324   4.594   2.236   6.156
 2475SOL    HW2 8325   4.529   2.249   6.306
 2476SOL     OW 8326   0.823   1.662   3.753
 2476SOL    HW1 8327   0.820   1.738   3.819
 2476SOL    HW2 8328   0.789   1.693   3.665
 2477SOL     OW 8329   4.541   5.042   2.581
 2477SOL    HW1 8330   4.493   5.044   2.669
 2477SOL    HW2 8331   4.474   5.050   2.507
 2478SOL     OW 8332   6.342   6.682   3.359
 2478SOL    HW1 8333   6.294   6.688   3.271
 2478SOL    HW2 8334   6.363   6.587   3.379
 2479SOL     OW 8335   0.627   2.755   0.044
 2479SOL    HW1 8336   0.567   2.803   6.998
 2479SOL    HW2 8337   0.648   2.816   0.120
 2480SOL     OW 8338   1.017   4.681   2.082
 2480SOL    HW1 8339   0.995   4.709   2.176
 2480SOL    HW2 8340   1.063   4.593   2.083
 2481SOL     OW 8341   3.871   5.291   2.650
 2481SOL    HW1 8342   3.785   5.297   2.601
 2481SOL    HW2 8343   3.857   5.245   2.738
 2482SOL     OW 8344   4.443   2.527   3.857
 2482SOL    HW1 8345   4.512   2.550   3.788
 2482SOL    HW2 8346   4.478   2.551   3.947
 2483SOL     OW 8347   0.738   2.560   6.746
 2483SOL    HW1 8348   0.784   2.573   6.833
 2483SOL    HW2 8349   0.653   2.611   6.744
 2484SOL     OW 8350   3.697   2.936   6.439
 2484SOL    HW1 8351   3.755   2.937   6.357
 2484SOL    HW2 8352   3.613   2.986   6.421
 2485SOL     OW 8353   1.200   5.862   1.183
 2485SOL    HW1 8354   1.124   5.925   1.200
 2485SOL    HW2 8355   1.260   5.861   1.264
 2486SOL     OW 8356   0.560   5.314   3.017
 2486SOL    HW1 8357   0.510   5.302   2.931
 2486SOL    HW2 8358   0.523   5.252   3.086
 2487SOL     OW 8359   3.159   1.084   1.086
 2487SOL    HW1 8360   3.200   1.147   1.020
 2487SOL    HW2 8361   3.207   0.996   1.083
 2488SOL     OW 8362   3.411   6.504   6.545
 2488SOL    HW1 8363   3.427   6.511   6.447
 2488SOL    HW2 8364   3.451   6.420   6.580
 2489SOL     OW 8365   6.624   6.057   4.719
 2489SOL    HW1 8366   6.558   6.131   4.727
 2489SOL    HW2 8367   6.585   5.983   4.664
 2490SOL     OW 8368   5.420   3.507   1.660
 2490SOL    HW1 8369   5.372   3.560   1.730
 2490SOL    HW2 8370   5.461   3.569   1.594
 2491SOL     OW 8371   0.108   4.214   2.902
 2491SOL    HW1 8372   0.038   4.193   2.835
 2491SOL    HW2 8373   0.122   4.135   2.962
 2492SOL     OW 8374   4.447   2.005   5.699
 2492SOL    HW1 8375   4.348   2.001   5.688
 2492SOL    HW2 8376   4.470   2.068   5.772
 2493SOL     OW 8377   6.434   1.122   4.448
 2493SOL    HW1 8378   6.395   1.142   4.358
 2493SOL    HW2 8379   6.462   1.026   4.451
 2494SOL     OW 8380   4.066   4.607   1.359
 2494SOL    HW1 8381   4.132   4.535   1.379
 2494SOL    HW2 8382   4.029   4.593   1.267
 2495SOL     OW 8383   6.503   0.691   3.804
 2495SOL    HW1 8384   6.425   0.643   3.846
 2495SOL    HW2 8385   6.572   0.709   3.874
 2496SOL     OW 8386   1.787   5.842   6.563
 2496SOL    HW1 8387   1.850   5.836   6.486
 2496SOL    HW2 8388   1.704   5.889   6.534
 2497SOL     OW 8389   5.621   1.003   6.962
 2497SOL    HW1 8390   5.613   1.099   6.935
 2497SOL    HW2 8391   5.563   0.947   6.903
 2498SOL     OW 8392   0.757   3.082   4.749
 2498SOL    HW1 8393   0.839   3.093   4.693
 2498SOL    HW2 8394   0.782   3.054   4.841
 2499SOL     OW 8395   5.070   0.288   6.852
 2499SOL    HW1 8396   5.122   0.207   6.823
 2499SOL    HW2 8397   5.114   0.330   6.931
 2500SOL     OW 8398   4.535   3.673   6.417
 2500SOL    HW1 8399   4.567   3.579   6.409
 2500SOL    HW2 8400   4.442   3.674   6.454
 2501SOL     OW 8401   6.166   5.197   1.045
 2501SOL    HW1 8402   6.255   5.154   1.036
 2501SOL    HW2 8403   6.094   5.128   1.039
 2502SOL     OW 8404   1.536   6.542   2.992
 2502SOL    HW1 8405   1.464   6.611   3.006
 2502SOL    HW2 8406   1.625   6.583   3.009
 2503SOL     OW 8407   5.094   6.915   4.488
 2503SOL    HW1 8408   5.074   6.818   4.496
 2503SOL    HW2 8409   5.142   6.933   4.402
 2504SOL     OW 8410   1.898   4.164   2.898
 2504SOL    HW1 8411   1.846   4.211   2.969
 2504SOL    HW2 8412   1.964   4.102   2.940
 2505SOL     OW 8413   5.161   4.469   4.593
 2505SOL    HW1 8414   5.124   4.466   4.685
 2505SOL    HW2 8415   5.087   4.459   4.527
 2506SOL     OW 8416   0.767   1.912   0.852
 2506SOL    HW1 8417   0.773   1.816   0.880
 2506SOL    HW2 8418   0.672   1.942   0.856
 2507SOL     OW 8419   6.625   6.151   0.906
 2507SOL    HW1 8420   6.649   6.234   0.956
 2507SOL    HW2 8421   6.538   6.115   0.939
 2508SOL     OW 8422   2.531   2.470   1.793
 2508SOL    HW1 8423   2.517   2.496   1.697
 2508SOL    HW2 8424   2.571   2.378   1.797
 2509SOL     OW 8425   4.980   0.992   3.547
 2509SOL    HW1 8426   4.974   0.935   3.629
 2509SOL    HW2 8427   4.933   1.079   3.563
 2510SOL     OW 8428   3.762   5.870   1.826
 2510SOL    HW1 8429   3.743   5.784   1.874
 2510SOL    HW2 8430   3.679   5.903   1.782
 2511SOL     OW 8431   0.784   6.576   3.781
 2511SOL    HW1 8432   0.859   6.626   3.824
 2511SOL    HW2 8433   0.707   6.638   3.766
 2512SOL     OW 8434   5.291   2.927   4.522
 2512SOL    HW1 8435   5.218   2.860   4.522
 2512SOL    HW2 8436   5.380   2.881   4.521
 2513SOL     OW 8437   0.261   4.871   1.284
 2513SOL    HW1 8438   0.338   4.838   1.230
 2513SOL    HW2 8439   0.228   4.957   1.246
 2514SOL     OW 8440   0.472   2.364   3.362
 2514SOL    HW1 8441   0.413   2.429   3.313
 2514SOL    HW2 8442   0.501   2.404   3.448
 2515SOL     OW 8443   0.892   4.817   0.157
 2515SOL    HW1 8444   0.984   4.786   0.182
 2515SOL    HW2 8445   0.895   4.861   0.067
 2516SOL     OW 8446   5.063   6.345   4.345
 2516SOL    HW1 8447   5.087   6.435   4.380
 2516SOL    HW2 8448   5.083   6.340   4.247
 2517SOL     OW 8449   2.371   5.217   0.732
 2517SOL    HW1 8450   2.325   5.197   0.645
 2517SOL    HW2 8451   2.338   5.305   0.767
 2518SOL     OW 8452   2.128   2.973   6.496
 2518SOL    HW1 8453   2.062   3.047   6.501
 2518SOL    HW2 8454   2.220   3.009   6.514
 2519SOL     OW 8455   5.187   3.857   5.276
 2519SOL    HW1 8456   5.221   3.818   5.361
 2519SOL    HW2 8457   5.136   3.787   5.225
 2520SOL     OW 8458   3.143   5.438   1.577
 2520SOL    HW1 8459   3.168   5.514   1.637
 2520SOL    HW2 8460   3.224   5.407   1.528
 2521SOL     OW 8461   5.885   6.807   6.229
 2521SOL    HW1 8462   5.842   6.754   6.156
 2521SOL    HW2 8463   5.934   6.745   6.291
 2522SOL     OW 8464   1.993   4.326   4.403
 2522SOL    HW1 8465   2.043   4.386   4.466
 2522SOL    HW2 8466   1.900   4.311   4.437
 2523SOL     OW 8467   0.205   2.827   5.424
 2523SOL    HW1 8468   0.273   2.768   5.467
 2523SOL    HW2 8469   0.114   2.805   5.461
 2524SOL     OW 8470   1.190   6.878   5.115
 2524SOL    HW1 8471   1.169   6.969   5.079
 2524SOL    HW2 8472   1.276   6.881   5.165
 2525SOL     OW 8473   1.847   3.914   2.743
 2525SOL    HW1 8474   1.821   4.011   2.750
 2525SOL    HW2 8475   1.947   3.906   2.750
 2526SOL     OW 8476   0.629   2.208   4.951
 2526SOL    HW1 8477   0.677   2.163   4.877
 2526SOL    HW2 8478   0.669   2.181   5.039
 2527SOL     OW 8479   6.368   6.853   3.780
 2527SOL    HW1 8480   6.344   6.949   3.789
 2527SOL    HW2 8481   6.314   6.798   3.844
 2528SOL     OW 8482   6.049   5.103   0.570
 2528SOL    HW1 8483   5.981   5.082   0.640
 2528SOL    HW2 8484   6.130   5.142   0.614
 2529SOL     OW 8485   5.334   3.710   4.763
 2529SOL    HW1 8486   5.397   3.775   4.807
 2529SOL    HW2 8487   5.379   3.620   4.758
 2530SOL     OW 8488   1.328   6.464   3.562
 2530SOL    HW1 8489   1.279   6.548   3.586
 2530SOL    HW2 8490   1.365   6.422   3.645
 2531SOL     OW 8491   5.216   1.259   0.405
 2531SOL    HW1 8492   5.267   1.240   0.321
 2531SOL    HW2 8493   5.144   1.327   0.386
 2532SOL     OW 8494   1.056   4.567   6.168
 2532SOL    HW1 8495   1.012   4.488   6.211
 2532SOL    HW2 8496   1.005   4.592   6.085
 2533SOL     OW 8497   5.935   6.608   5.548
 2533SOL    HW1 8498   5.836   6.601   5.534
 2533SOL    HW2 8499   5.954   6.684   5.610
 2534SOL     OW 8500   6.908   1.664   2.912
 2534SOL    HW1 8501   6.934   1.649   3.007
 2534SOL    HW2 8502   6.881   1.759   2.900
 2535SOL     OW 8503   1.787   1.478   2.851
 2535SOL    HW1 8504   1.725   1.478   2.773
 2535SOL    HW2 8505   1.881   1.464   2.820
 2536SOL     OW 8506   0.476   0.583   3.906
 2536SOL    HW1 8507   0.403   0.523   3.873
 2536SOL    HW2 8508   0.548   0.527   3.948
 2537SOL     OW 8509   3.683   5.669   2.004
 2537SOL    HW1 8510   3.724   5.644   2.091
 2537SOL    HW2 8511   3.599   5.721   2.020
 2538SOL     OW 8512   1.335   4.190   4.722
 2538SOL    HW1 8513   1.400   4.113   4.717
 2538SOL    HW2 8514   1.384   4.276   4.708
 2539SOL     OW 8515   2.599   0.923   5.464
 2539SOL    HW1 8516   2.589   0.883   5.555
 2539SOL    HW2 8517   2.692   0.907   5.430
 2540SOL     OW 8518   5.227   1.854   2.667
 2540SOL    HW1 8519   5.187   1.848   2.758
 2540SOL    HW2 8520   5.253   1.949   2.647
 2541SOL     OW 8521   0.265   0.658   6.059
 2541SOL    HW1 8522   0.364   0.667   6.063
 2541SOL    HW2 8523   0.240   0.571   6.016
 2542SOL     OW 8524   3.994   2.031   3.508
 2542SOL    HW1 8525   3.976   2.055   3.603
 2542SOL    HW2 8526   3.925   2.074   3.449
 2543SOL     OW 8527   0.111   1.727   4.142
 2543SOL    HW1 8528   0.101   1.775   4.054
 2543SOL    HW2 8529   0.145   1.790   4.211
 2544SOL     OW 8530   6.559   5.977   1.819
 2544SOL    HW1 8531   6.644   6.009   1.861
 2544SOL    HW2 8532   6.571   5.885   1.783
 2545SOL     OW 8533   6.210   1.658   0.150
 2545SOL    HW1 8534   6.189   1.561   0.138
 2545SOL    HW2 8535   6.125   1.710   0.151
 2546SOL     OW 8536   6.610   3.488   1.906
 2546SOL    HW1 8537   6.525   3.439   1.883
 2546SOL    HW2 8538   6.657   3.441   1.981
 2547SOL     OW 8539   5.325   4.398   1.446
 2547SOL    HW1 8540   5.387   4.327   1.415
 2547SOL    HW2 8541   5.233   4.382   1.409
 2548SOL     OW 8542   6.138   0.415   5.660
 2548SOL    HW1 8543   6.188   0.456   5.736
 2548SOL    HW2 8544   6.134   0.315   5.672
 2549SOL     OW 8545   2.748   3.863   0.742
 2549SOL    HW1 8546   2.790   3.798   0.805
 2549SOL    HW2 8547   2.652   3.839   0.728
 2550SOL     OW 8548   3.772   6.058   0.188
 2550SOL    HW1 8549   3.761   6.094   0.096
 2550SOL    HW2 8550   3.682   6.043   0.229
 2551SOL     OW 8551   3.666   4.898   0.913
 2551SOL    HW1 8552   3.627   4.836   0.980
 2551SOL    HW2 8553   3.754   4.863   0.881
 2552SOL     OW 8554   2.036   4.696   1.963
 2552SOL    HW1 8555   1.942   4.730   1.963
 2552SOL    HW2 8556   2.085   4.731   1.884
 2553SOL     OW 8557   5.046   1.493   0.334
 2553SOL    HW1 8558   5.051   1.589   0.360
 2553SOL    HW2 8559   5.107   1.476   0.257
 2554SOL     OW 8560   1.511   5.280   1.107
 2554SOL    HW1 8561   1.513   5.309   1.011
 2554SOL    HW2 8562   1.418   5.255   1.133
 2555SOL     OW 8563   6.382   6.985   5.238
 2555SOL    HW1 8564   6.339   6.963   5.151
 2555SOL    HW2 8565   6.463   0.023   5.223
 2556SOL     OW 8566   4.026   6.797   0.738
 2556SOL    HW1 8567   3.973   6.859   0.681
 2556SOL    HW2 8568   4.120   6.831   0.746
 2557SOL     OW 8569   3.032   1.021   0.100
 2557SOL    HW1 8570   3.121   1.037   0.144
 2557SOL    HW2 8571   3.040   1.041   0.002
 2558SOL     OW 8572   5.265   2.441   1.516
 2558SOL    HW1 8573   5.270   2.410   1.421
 2558SOL    HW2 8574   5.353   2.424   1.561
 2559SOL     OW 8575   0.226   5.117   3.319
 2559SOL    HW1 8576   0.133   5.132   3.288
 2559SOL    HW2 8577   0.246   5.178   3.396
 2560SOL     OW 8578   5.097   2.299   2.663
 2560SOL    HW1 8579   5.136   2.341   2.745
 2560SOL    HW2 8580   5.038   2.365   2.617
 2561SOL     OW 8581   3.641   6.624   4.327
 2561SOL    HW1 8582   3.569   6.554   4.328
 2561SOL    HW2 8583   3.653   6.660   4.419
 2562SOL     OW 8584   1.492   6.905   4.780
 2562SOL    HW1 8585   1.419   6.849   4.817
 2562SOL    HW2 8586   1.479   7.000   4.807
 2563SOL     OW 8587   3.611   2.624   6.682
 2563SOL    HW1 8588   3.608   2.604   6.780
 2563SOL    HW2 8589   3.519   2.646   6.649
 2564SOL     OW 8590   1.108   1.898   0.157
 2564SOL    HW1 8591   1.034   1.891   0.223
 2564SOL    HW2 8592   1.122   1.994   0.132
 2565SOL     OW 8593   1.076   0.618   0.616
 2565SOL    HW1 8594   0.978   0.602   0.604
 2565SOL    HW2 8595   1.113   0.665   0.536
 2566SOL     OW 8596   2.893   0.781   1.039
 2566SOL    HW1 8597   2.930   0.703   1.090
 2566SOL    HW2 8598   2.900   0.864   1.095
 2567SOL     OW 8599   1.366   0.735   6.374
 2567SOL    HW1 8600   1.435   0.798   6.338
 2567SOL    HW2 8601   1.275   0.774   6.362
 2568SOL     OW 8602   1.827   5.649   1.035
 2568SOL    HW1 8603   1.870   5.586   0.970
 2568SOL    HW2 8604   1.891   5.669   1.109
 2569SOL     OW 8605   1.531   0.177   0.339
 2569SOL    HW1 8606   1.494   0.146   0.251
 2569SOL    HW2 8607   1.457   0.187   0.405
 2570SOL     OW 8608   0.558   6.010   4.751
 2570SOL    HW1 8609   0.462   6.031   4.769
 2570SOL    HW2 8610   0.584   6.048   4.662
 2571SOL     OW 8611   3.242   4.104   3.910
 2571SOL    HW1 8612   3.286   4.112   4.000
 2571SOL    HW2 8613   3.149   4.071   3.922
 2572SOL     OW 8614   1.802   5.382   2.283
 2572SOL    HW1 8615   1.829   5.346   2.372
 2572SOL    HW2 8616   1.831   5.319   2.211
 2573SOL     OW 8617   0.157   1.877   3.540
 2573SOL    HW1 8618   0.065   1.850   3.511
 2573SOL    HW2 8619   0.187   1.817   3.614
 2574SOL     OW 8620   0.851   3.691   2.391
 2574SOL    HW1 8621   0.941   3.647   2.394
 2574SOL    HW2 8622   0.794   3.647   2.322
 2575SOL     OW 8623   5.200   3.255   6.427
 2575SOL    HW1 8624   5.174   3.218   6.516
 2575SOL    HW2 8625   5.182   3.186   6.356
 2576SOL     OW 8626   1.787   6.966   3.232
 2576SOL    HW1 8627   1.750   0.014   3.297
 2576SOL    HW2 8628   1.887   6.967   3.238
 2577SOL     OW 8629   1.712   5.463   1.373
 2577SOL    HW1 8630   1.619   5.426   1.372
 2577SOL    HW2 8631   1.728   5.512   1.459
 2578SOL     OW 8632   4.345   1.894   4.384
 2578SOL    HW1 8633   4.331   1.795   4.393
 2578SOL    HW2 8634   4.341   1.936   4.475
 2579SOL     OW 8635   6.958   1.255   6.294
 2579SOL    HW1 8636   0.028   1.209   6.303
 2579SOL    HW2 8637   6.972   1.354   6.285
 2580SOL     OW 8638   1.515   1.588   6.208
 2580SOL    HW1 8639   1.566   1.516   6.161
 2580SOL    HW2 8640   1.530   1.675   6.163
 2581SOL     OW 8641   6.420   6.973   4.731
 2581SOL    HW1 8642   6.510   6.941   4.702
 2581SOL    HW2 8643   6.404   6.945   4.826
 2582SOL     OW 8644   0.538   5.689   2.854
 2582SOL    HW1 8645   0.497   5.720   2.768
 2582SOL    HW2 8646   0.615   5.627   2.833
 2583SOL     OW 8647   2.312   1.081   6.552
 2583SOL    HW1 8648   2.353   1.015   6.489
 2583SOL    HW2 8649   2.238   1.037   6.602
 2584SOL     OW 8650   4.972   6.724   2.624
 2584SOL    HW1 8651   4.980   6.660   2.700
 2584SOL    HW2 8652   5.064   6.752   2.595
 2585SOL     OW 8653   4.327   1.359   1.873
 2585SOL    HW1 8654   4.280   1.387   1.789
 2585SOL    HW2 8655   4.381   1.435   1.908
 2586SOL     OW 8656   6.590   1.381   4.113
 2586SOL    HW1 8657   6.582   1.353   4.017
 2586SOL    HW2 8658   6.681   1.359   4.147
 2587SOL     OW 8659   6.760   6.033   2.903
 2587SOL    HW1 8660   6.774   6.018   2.806
 2587SOL    HW2 8661   6.690   5.970   2.937
 2588SOL     OW 8662   5.173   0.346   1.940
 2588SOL    HW1 8663   5.137   0.390   2.022
 2588SOL    HW2 8664   5.232   0.269   1.965
 2589SOL     OW 8665   5.395   6.006   0.473
 2589SOL    HW1 8666   5.435   6.048   0.392
 2589SOL    HW2 8667   5.458   5.936   0.509
 2590SOL     OW 8668   3.246   6.261   3.042
 2590SOL    HW1 8669   3.242   6.195   2.967
 2590SOL    HW2 8670   3.155   6.272   3.082
 2591SOL     OW 8671   6.099   6.963   1.461
 2591SOL    HW1 8672   6.155   7.003   1.533
 2591SOL    HW2 8673   6.009   7.006   1.460
 2592SOL     OW 8674   3.145   4.767   1.535
 2592SOL    HW1 8675   3.071   4.834   1.529
 2592SOL    HW2 8676   3.106   4.675   1.546
 2593SOL     OW 8677   3.586   6.982   3.010
 2593SOL    HW1 8678   3.553   6.922   2.937
 2593SOL    HW2 8679   3.683   6.963   3.028
 2594SOL     OW 8680   1.432   6.502   6.960
 2594SOL    HW1 8681   1.421   6.490   6.862
 2594SOL    HW2 8682   1.343   6.493   7.005
 2595SOL     OW 8683   6.270   3.199   4.009
 2595SOL    HW1 8684   6.227   3.199   4.099
 2595SOL    HW2 8685   6.247   3.114   3.961
 2596SOL     OW 8686   4.079   2.408   1.365
 2596SOL    HW1 8687   4.159   2.348   1.368
 2596SOL    HW2 8688   4.067   2.453   1.453
 2597SOL     OW 8689   1.843   2.228   6.398
 2597SOL    HW1 8690   1.887   2.213   6.309
 2597SOL    HW2 8691   1.912   2.252   6.466
 2598SOL     OW 8692   6.054   1.395   2.908
 2598SOL    HW1 8693   6.105   1.357   2.831
 2598SOL    HW2 8694   6.012   1.320   2.960
 2599SOL     OW 8695   4.222   4.504   6.633
 2599SOL    HW1 8696   4.239   4.533   6.539
 2599SOL    HW2 8697   4.240   4.580   6.695
 2600SOL     OW 8698   6.633   3.174   3.792
 2600SOL    HW1 8699   6.584   3.153   3.877
 2600SOL    HW2 8700   6.676   3.264   3.801
 2601SOL     OW 8701   3.744   3.606   5.117
 2601SOL    HW1 8702   3.742   3.690   5.063
 2601SOL    HW2 8703   3.838   3.589   5.149
 2602SOL     OW 8704   6.268   5.927   5.644
 2602SOL    HW1 8705   6.325   5.920   5.562
 2602SOL    HW2 8706   6.186   5.980   5.622
 2603SOL     OW 8707   1.954   2.294   6.968
 2603SOL    HW1 8708   2.046   2.280   6.931
 2603SOL    HW2 8709   1.949   2.256   0.041
 2604SOL     OW 8710   6.089   1.507   1.090
 2604SOL    HW1 8711   6.016   1.485   1.155
 2604SOL    HW2 8712   6.106   1.606   1.091
 2605SOL     OW 8713   5.006   3.693   4.036
 2605SOL    HW1 8714   4.937   3.664   4.101
 2605SOL    HW2 8715   5.067   3.759   4.079
 2606SOL     OW 8716   6.711   4.747   1.237
 2606SOL    HW1 8717   6.738   4.761   1.142
 2606SOL    HW2 8718   6.642   4.674   1.241
 2607SOL     OW 8719   0.849   1.815   4.392
 2607SOL    HW1 8720   0.863   1.735   4.450
 2607SOL    HW2 8721   0.826   1.786   4.299
 2608SOL     OW 8722   5.475   0.157   0.617
 2608SOL    HW1 8723   5.496   0.135   0.713
 2608SOL    HW2 8724   5.550   0.126   0.559
 2609SOL     OW 8725   0.775   2.837   3.802
 2609SOL    HW1 8726   0.791   2.925   3.846
 2609SOL    HW2 8727   0.860   2.785   3.798
 2610SOL     OW 8728   5.579   5.350   5.055
 2610SOL    HW1 8729   5.617   5.304   4.975
 2610SOL    HW2 8730   5.605   5.301   5.138
 2611SOL     OW 8731   3.144   5.837   1.994
 2611SOL    HW1 8732   3.123   5.739   1.987
 2611SOL    HW2 8733   3.096   5.886   1.921
 2612SOL     OW 8734   6.587   0.148   5.230
 2612SOL    HW1 8735   6.659   0.184   5.170
 2612SOL    HW2 8736   6.572   0.212   5.305
 2613SOL     OW 8737   3.239   0.783   0.553
 2613SOL    HW1 8738   3.323   0.729   0.558
 2613SOL    HW2 8739   3.160   0.722   0.560
 2614SOL     OW 8740   6.487   6.235   6.735
 2614SOL    HW1 8741   6.461   6.243   6.639
 2614SOL    HW2 8742   6.547   6.311   6.759
 2615SOL     OW 8743   5.446   5.226   2.105
 2615SOL    HW1 8744   5.430   5.323   2.126
 2615SOL    HW2 8745   5.542   5.212   2.080
 2616SOL     OW 8746   3.987   3.666   2.419
 2616SOL    HW1 8747   4.057   3.602   2.450
 2616SOL    HW2 8748   3.901   3.618   2.408
 2617SOL     OW 8749   3.020   0.514   0.843
 2617SOL    HW1 8750   2.937   0.570   0.841
 2617SOL    HW2 8751   3.000   0.425   0.883
 2618SOL     OW 8752   0.855   0.600   0.278
 2618SOL    HW1 8753   0.924   0.630   0.212
 2618SOL    HW2 8754   0.806   0.680   0.313
 2619SOL     OW 8755   5.563   1.688   1.639
 2619SOL    HW1 8756   5.580   1.774   1.687
 2619SOL    HW2 8757   5.599   1.612   1.693
 2620SOL     OW 8758   1.283   5.267   4.079
 2620SOL    HW1 8759   1.298   5.204   4.155
 2620SOL    HW2 8760   1.336   5.238   4.000
 2621SOL     OW 8761   0.789   5.397   3.889
 2621SOL    HW1 8762   0.880   5.383   3.928
 2621SOL    HW2 8763   0.797   5.445   3.801
 2622SOL     OW 8764   2.563   3.055   5.992
 2622SOL    HW1 8765   2.655   3.018   6.004
 2622SOL    HW2 8766   2.534   3.043   5.897
 2623SOL     OW 8767   3.560   0.981   6.378
 2623SOL    HW1 8768   3.617   0.960   6.457
 2623SOL    HW2 8769   3.551   0.900   6.320
 2624SOL     OW 8770   6.948   2.045   3.752
 2624SOL    HW1 8771   6.972   2.117   3.817
 2624SOL    HW2 8772   6.902   2.087   3.673
 2625SOL     OW 8773   4.781   0.413   5.516
 2625SOL    HW1 8774   4.766   0.334   5.457
 2625SOL    HW2 8775   4.874   0.411   5.552
 2626SOL     OW 8776   2.642   0.132   2.296
 2626SOL    HW1 8777   2.627   0.061   2.365
 2626SOL    HW2 8778   2.556   0.153   2.250
 2627SOL     OW 8779   0.401   1.120   4.644
 2627SOL    HW1 8780   0.451   1.164   4.718
 2627SOL    HW2 8781   0.463   1.061   4.592
 2628SOL     OW 8782   4.019   5.973   6.093
 2628SOL    HW1 8783   4.107   5.957   6.048
 2628SOL    HW2 8784   4.033   6.030   6.174
 2629SOL     OW 8785   2.820   3.820   1.318
 2629SOL    HW1 8786   2.850   3.769   1.237
 2629SOL    HW2 8787   2.878   3.796   1.396
 2630SOL     OW 8788   2.853   2.198   2.307
 2630SOL    HW1 8789   2.906   2.224   2.227
 2630SOL    HW2 8790   2.772   2.257   2.314
 2631SOL     OW 8791   4.467   6.610   4.773
 2631SOL    HW1 8792   4.431   6.525   4.735
 2631SOL    HW2 8793   4.497   6.670   4.700
 2632SOL     OW 8794   5.792   1.487   1.243
 2632SOL    HW1 8795   5.811   1.577   1.283
 2632SOL    HW2 8796   5.776   1.421   1.316
 2633SOL     OW 8797   6.851   2.635   6.145
 2633SOL    HW1 8798   6.933   2.645   6.089
 2633SOL    HW2 8799   6.876   2.617   6.240
 2634SOL     OW 8800   3.016   4.995   1.177
 2634SOL    HW1 8801   3.107   5.026   1.151
 2634SOL    HW2 8802   2.998   4.905   1.135
 2635SOL     OW 8803   5.877   4.437   3.748
 2635SOL    HW1 8804   5.863   4.390   3.660
 2635SOL    HW2 8805   5.790   4.474   3.781
 2636SOL     OW 8806   5.873   0.267   4.886
 2636SOL    HW1 8807   5.785   0.298   4.923
 2636SOL    HW2 8808   5.912   0.339   4.827
 2637SOL     OW 8809   4.708   6.498   2.901
 2637SOL    HW1 8810   4.733   6.456   2.814
 2637SOL    HW2 8811   4.716   6.429   2.974
 2638SOL     OW 8812   5.674   5.601   0.713
 2638SOL    HW1 8813   5.737   5.527   0.688
 2638SOL    HW2 8814   5.707   5.688   0.677
 2639SOL     OW 8815   6.707   6.551   0.106
 2639SOL    HW1 8816   6.731   6.576   0.012
 2639SOL    HW2 8817   6.642   6.618   0.143
 2640SOL     OW 8818   6.020   0.170   6.318
 2640SOL    HW1 8819   5.958   0.170   6.240
 2640SOL    HW2 8820   5.985   0.232   6.388
 2641SOL     OW 8821   5.585   5.133   0.286
 2641SOL    HW1 8822   5.527   5.075   0.343
 2641SOL    HW2 8823   5.603   5.087   0.199
 2642SOL     OW 8824   6.558   0.093   3.522
 2642SOL    HW1 8825   6.635   0.129   3.468
 2642SOL    HW2 8826   6.590   0.017   3.578
 2643SOL     OW 8827   0.991   0.844   1.974
 2643SOL    HW1 8828   1.079   0.798   1.982
 2643SOL    HW2 8829   0.990   0.925   2.033
 2644SOL     OW 8830   0.231   5.614   6.113
 2644SOL    HW1 8831   0.205   5.709   6.098
 2644SOL    HW2 8832   0.172   5.554   6.059
 2645SOL     OW 8833   5.833   5.146   5.876
 2645SOL    HW1 8834   5.760   5.137   5.943
 2645SOL    HW2 8835   5.920   5.159   5.923
 2646SOL     OW 8836   6.628   6.429   6.847
 2646SOL    HW1 8837   6.560   6.445   6.919
 2646SOL    HW2 8838   6.674   6.515   6.825
 2647SOL     OW 8839   3.539   2.992   0.431
 2647SOL    HW1 8840   3.637   3.013   0.425
 2647SOL    HW2 8841   3.495   3.056   0.493
 2648SOL     OW 8842   3.694   0.945   3.070
 2648SOL    HW1 8843   3.774   0.924   3.126
 2648SOL    HW2 8844   3.718   0.936   2.973
 2649SOL     OW 8845   3.454   2.727   5.269
 2649SOL    HW1 8846   3.413   2.810   5.306
 2649SOL    HW2 8847   3.384   2.656   5.261
 2650SOL     OW 8848   0.116   6.693   2.109
 2650SOL    HW1 8849   0.199   6.660   2.063
 2650SOL    HW2 8850   0.132   6.696   2.208
 2651SOL     OW 8851   0.873   0.024   3.551
 2651SOL    HW1 8852   0.918   0.095   3.497
 2651SOL    HW2 8853   0.786   0.058   3.586
 2652SOL     OW 8854   3.420   3.002   2.617
 2652SOL    HW1 8855   3.480   2.948   2.559
 2652SOL    HW2 8856   3.369   3.068   2.561
 2653SOL     OW 8857   6.446   5.283   0.190
 2653SOL    HW1 8858   6.530   5.320   0.151
 2653SOL    HW2 8859   6.424   5.197   0.145
 2654SOL     OW 8860   5.320   1.813   6.190
 2654SOL    HW1 8861   5.383   1.791   6.264
 2654SOL    HW2 8862   5.362   1.789   6.102
 2655SOL     OW 8863   4.743   5.435   5.273
 2655SOL    HW1 8864   4.835   5.426   5.310
 2655SOL    HW2 8865   4.718   5.532   5.271
 2656SOL     OW 8866   5.179   3.476   4.272
 2656SOL    HW1 8867   5.266   3.517   4.244
 2656SOL    HW2 8868   5.148   3.412   4.202
 2657SOL     OW 8869   2.444   2.092   5.634
 2657SOL    HW1 8870   2.495   2.087   5.719
 2657SOL    HW2 8871   2.346   2.098   5.653
 2658SOL     OW 8872   5.713   4.325   5.898
 2658SOL    HW1 8873   5.638   4.365   5.845
 2658SOL    HW2 8874   5.754   4.395   5.956
 2659SOL     OW 8875   6.557   1.976   2.998
 2659SOL    HW1 8876   6.641   1.964   2.945
 2659SOL    HW2 8877   6.491   2.028   2.944
 2660SOL     OW 8878   6.356   1.922   2.609
 2660SOL    HW1 8879   6.332   1.981   2.686
 2660SOL    HW2 8880   6.382   1.832   2.644
 2661SOL     OW 8881   4.044   6.655   1.633
 2661SOL    HW1 8882   4.016   6.675   1.539
 2661SOL    HW2 8883   4.112   6.582   1.632
 2662SOL     OW 8884   3.746   6.854   3.912
 2662SOL    HW1 8885   3.829   6.807   3.882
 2662SOL    HW2 8886   3.667   6.795   3.896
 2663SOL     OW 8887   0.944   4.449   2.927
 2663SOL    HW1 8888   0.849   4.424   2.908
 2663SOL    HW2 8889   0.962   4.441   3.025
 2664SOL     OW 8890   4.157   3.725   1.834
 2664SOL    HW1 8891   4.242   3.686   1.801
 2664SOL    HW2 8892   4.153   3.822   1.811
 2665SOL     OW 8893   4.534   0.921   4.280
 2665SOL    HW1 8894   4.592   0.954   4.355
 2665SOL    HW2 8895   4.464   0.860   4.317
 2666SOL     OW 8896   5.527   6.001   1.953
 2666SOL    HW1 8897   5.499   6.054   2.033
 2666SOL    HW2 8898   5.622   5.972   1.963
 2667SOL     OW 8899   1.607   4.920   3.637
 2667SOL    HW1 8900   1.639   4.885   3.726
 2667SOL    HW2 8901   1.684   4.920   3.573
 2668SOL     OW 8902   6.255   2.375   5.469
 2668SOL    HW1 8903   6.279   2.292   5.519
 2668SOL    HW2 8904   6.158   2.395   5.482
 2669SOL     OW 8905   4.082   5.205   5.809
 2669SOL    HW1 8906   4.068   5.274   5.739
 2669SOL    HW2 8907   4.001   5.146   5.814
 2670SOL     OW 8908   1.776   0.200   6.173
 2670SOL    HW1 8909   1.850   0.267   6.163
 2670SOL    HW2 8910   1.711   0.211   6.098
 2671SOL     OW 8911   3.362   3.811   6.134
 2671SOL    HW1 8912   3.337   3.850   6.223
 2671SOL    HW2 8913   3.452   3.769   6.140
 2672SOL     OW 8914   1.071   3.962   0.402
 2672SOL    HW1 8915   0.979   3.930   0.427
 2672SOL    HW2 8916   1.127   3.884   0.375
 2673SOL     OW 8917   4.466   2.202   3.916
 2673SOL    HW1 8918   4.436   2.197   4.011
 2673SOL    HW2 8919   4.386   2.210   3.857
 2674SOL     OW 8920   5.794   5.465   5.530
 2674SOL    HW1 8921   5.747   5.396   5.585
 2674SOL    HW2 8922   5.893   5.450   5.534
 2675SOL     OW 8923   0.340   3.728   5.377
 2675SOL    HW1 8924   0.421   3.736   5.320
 2675SOL    HW2 8925   0.258   3.725   5.319
 2676SOL     OW 8926   4.151   0.372   2.094
 2676SOL    HW1 8927   4.216   0.297   2.102
 2676SOL    HW2 8928   4.162   0.434   2.172
 2677SOL     OW 8929   2.843   4.736   2.416
 2677SOL    HW1 8930   2.910   4.764   2.485
 2677SOL    HW2 8931   2.891   4.701   2.336
 2678SOL     OW 8932   0.337   6.250   6.468
 2678SOL    HW1 8933   0.249   6.220   6.431
 2678SOL    HW2 8934   0.327   6.271   6.565
 2679SOL     OW 8935   2.679   4.809   1.303
 2679SOL    HW1 8936   2.723   4.767   1.383
 2679SOL    HW2 8937   2.732   4.889   1.275
 2680SOL     OW 8938   1.170   1.947   1.785
 2680SOL    HW1 8939   1.124   1.886   1.721
 2680SOL    HW2 8940   1.214   1.893   1.857
 2681SOL     OW 8941   1.286   1.174   2.631
 2681SOL    HW1 8942   1.326   1.231   2.703
 2681SOL    HW2 8943   1.228   1.231   2.572
 2682SOL     OW 8944   6.634   2.392   3.172
 2682SOL    HW1 8945   6.549   2.375   3.223
 2682SOL    HW2 8946   6.677   2.476   3.206
 2683SOL     OW 8947   1.410   0.293   1.879
 2683SOL    HW1 8948   1.475   0.358   1.919
 2683SOL    HW2 8949   1.318   0.312   1.914
 2684SOL     OW 8950   2.556   6.050   2.802
 2684SOL    HW1 8951   2.648   6.080   2.827
 2684SOL    HW2 8952   2.492   6.127   2.808
 2685SOL     OW 8953   5.782   6.043   4.985
 2685SOL    HW1 8954   5.805   5.956   5.030
 2685SOL    HW2 8955   5.721   6.026   4.908
 2686SOL     OW 8956   1.140   2.942   4.547
 2686SOL    HW1 8957   1.232   2.914   4.573
 2686SOL    HW2 8958   1.133   2.947   4.448
 2687SOL     OW 8959   5.215   4.651   3.361
 2687SOL    HW1 8960   5.177   4.723   3.419
 2687SOL    HW2 8961   5.280   4.691   3.297
 2688SOL     OW 8962   3.620   5.342   5.752
 2688SOL    HW1 8963   3.697   5.364   5.812
 2688SOL    HW2 8964   3.567   5.267   5.792
 2689SOL     OW 8965   0.057   2.953   4.275
 2689SOL    HW1 8966   0.063   2.906   4.364
 2689SOL    HW2 8967   0.145   2.994   4.253
 2690SOL     OW 8968   2.934   3.499   3.193
 2690SOL    HW1 8969   2.876   3.461   3.265
 2690SOL    HW2 8970   2.976   3.425   3.141
 2691SOL     OW 8971   1.385   5.846   1.399
 2691SOL    HW1 8972   1.441   5.768   1.372
 2691SOL    HW2 8973   1.414   5.879   1.489
 2692SOL     OW 8974   6.674   5.379   3.302
 2692SOL    HW1 8975   6.772   5.379   3.319
 2692SOL    HW2 8976   6.652   5.309   3.234
 2693SOL     OW 8977   1.686   3.627   3.629
 2693SOL    HW1 8978   1.590   3.621   3.657
 2693SOL    HW2 8979   1.733   3.543   3.657
 2694SOL     OW 8980   2.724   0.573   2.587
 2694SOL    HW1 8981   2.703   0.671   2.582
 2694SOL    HW2 8982   2.649   0.526   2.635
 2695SOL     OW 8983   4.020   2.106   2.873
 2695SOL    HW1 8984   4.097   2.130   2.932
 2695SOL    HW2 8985   4.044   2.122   2.778
 2696SOL     OW 8986   4.130   3.545   4.836
 2696SOL    HW1 8987   4.090   3.455   4.853
 2696SOL    HW2 8988   4.216   3.553   4.887
 2697SOL     OW 8989   2.151   2.288   4.336
 2697SOL    HW1 8990   2.066   2.311   4.385
 2697SOL    HW2 8991   2.202   2.219   4.388
 2698SOL     OW 8992   2.328   3.421   6.546
 2698SOL    HW1 8993   2.410   3.476   6.555
 2698SOL    HW2 8994   2.271   3.431   6.627
 2699SOL     OW 8995   3.435   5.825   1.933
 2699SOL    HW1 8996   3.476   5.899   1.880
 2699SOL    HW2 8997   3.338   5.844   1.947
 2700SOL     OW 8998   1.150   3.506   2.991
 2700SOL    HW1 8999   1.229   3.446   2.982
 2700SOL    HW2 9000   1.089   3.471   3.062
 2701SOL     OW 9001   3.360   0.177   5.867
 2701SOL    HW1 9002   3.386   0.082   5.852
 2701SOL    HW2 9003   3.271   0.194   5.826
 2702SOL     OW 9004   6.689   0.023   3.001
 2702SOL    HW1 9005   6.604   7.007   3.041
 2702SOL    HW2 9006   6.670   0.067   2.914
 2703SOL     OW 9007   1.424   1.424   3.124
 2703SOL    HW1 9008   1.410   1.371   3.207
 2703SOL    HW2 9009   1.519   1.455   3.119
 2704SOL     OW 9010   1.611   5.870   0.442
 2704SOL    HW1 9011   1.645   5.812   0.516
 2704SOL    HW2 9012   1.684   5.930   0.410
 2705SOL     OW 9013   0.355   4.212   2.379
 2705SOL    HW1 9014   0.361   4.311   2.363
 2705SOL    HW2 9015   0.445   4.177   2.403
 2706SOL     OW 9016   6.641   2.032   1.873
 2706SOL    HW1 9017   6.575   1.980   1.927
 2706SOL    HW2 9018   6.692   1.970   1.813
 2707SOL     OW 9019   2.349   1.375   5.953
 2707SOL    HW1 9020   2.310   1.452   5.902
 2707SOL    HW2 9021   2.358   1.297   5.892
 2708SOL     OW 9022   1.821   3.276   0.760
 2708SOL    HW1 9023   1.888   3.252   0.830
 2708SOL    HW2 9024   1.797   3.194   0.707
 2709SOL     OW 9025   4.170   6.902   1.753
 2709SOL    HW1 9026   4.112   6.983   1.745
 2709SOL    HW2 9027   4.117   6.821   1.725
 2710SOL     OW 9028   6.128   4.049   2.350
 2710SOL    HW1 9029   6.090   3.983   2.285
 2710SOL    HW2 9030   6.086   4.036   2.440
 2711SOL     OW 9031   1.261   6.584   2.063
 2711SOL    HW1 9032   1.214   6.534   1.991
 2711SOL    HW2 9033   1.359   6.588   2.044
 2712SOL     OW 9034   3.266   5.032   1.094
 2712SOL    HW1 9035   3.284   4.966   1.022
 2712SOL    HW2 9036   3.349   5.045   1.149
 2713SOL     OW 9037   1.909   2.893   4.866
 2713SOL    HW1 9038   1.990   2.895   4.925
 2713SOL    HW2 9039   1.856   2.977   4.878
 2714SOL     OW 9040   5.289   6.773   5.493
 2714SOL    HW1 9041   5.194   6.804   5.491
 2714SOL    HW2 9042   5.304   6.716   5.575
 2715SOL     OW 9043   6.878   0.473   6.851
 2715SOL    HW1 9044   6.794   0.437   6.812
 2715SOL    HW2 9045   6.858   0.520   6.937
 2716SOL     OW 9046   0.811   6.653   2.682
 2716SOL    HW1 9047   0.714   6.675   2.673
 2716SOL    HW2 9048   0.824   6.554   2.673
 2717SOL     OW 9049   1.382   0.649   2.888
 2717SOL    HW1 9050   1.298   0.600   2.912
 2717SOL    HW2 9051   1.359   0.736   2.845
 2718SOL     OW 9052   1.181   4.603   3.215
 2718SOL    HW1 9053   1.207   4.623   3.309
 2718SOL    HW2 9054   1.087   4.568   3.213
 2719SOL     OW 9055   4.127   4.825   2.709
 2719SOL    HW1 9056   4.061   4.881   2.660
 2719SOL    HW2 9057   4.092   4.805   2.801
 2720SOL     OW 9058   0.448   5.761   4.176
 2720SOL    HW1 9059   0.514   5.729   4.107
 2720SOL    HW2 9060   0.417   5.853   4.152
 2721SOL     OW 9061   4.817   6.827   4.748
 2721SOL    HW1 9062   4.800   6.795   4.841
 2721SOL    HW2 9063   4.901   6.882   4.746
 2722SOL     OW 9064   1.458   5.645   1.228
 2722SOL    HW1 9065   1.378   5.611   1.178
 2722SOL    HW2 9066   1.517   5.568   1.252
 2723SOL     OW 9067   1.468   1.215   5.347
 2723SOL    HW1 9068   1.468   1.117   5.368
 2723SOL    HW2 9069   1.519   1.231   5.263
 2724SOL     OW 9070   3.062   5.573   6.170
 2724SOL    HW1 9071   3.027   5.532   6.254
 2724SOL    HW2 9072   3.041   5.513   6.092
 2725SOL     OW 9073   3.078   4.839   3.396
 2725SOL    HW1 9074   3.032   4.849   3.485
 2725SOL    HW2 9075   3.011   4.813   3.327
 2726SOL     OW 9076   4.781   5.912   2.388
 2726SOL    HW1 9077   4.816   6.005   2.376
 2726SOL    HW2 9078   4.815   5.853   2.315
 2727SOL     OW 9079   1.991   5.173   3.366
 2727SOL    HW1 9080   2.051   5.183   3.286
 2727SOL    HW2 9081   1.969   5.263   3.403
 2728SOL     OW 9082   3.947   0.120   5.421
 2728SOL    HW1 9083   3.886   0.150   5.347
 2728SOL    HW2 9084   3.974   0.025   5.406
 2729SOL     OW 9085   6.555   4.933   2.499
 2729SOL    HW1 9086   6.589   4.842   2.523
 2729SOL    HW2 9087   6.481   4.923   2.431
 2730SOL     OW 9088   1.477   4.293   1.322
 2730SOL    HW1 9089   1.415   4.332   1.389
 2730SOL    HW2 9090   1.570   4.327   1.338
 2731SOL     OW 9091   2.920   3.867   1.620
 2731SOL    HW1 9092   2.908   3.780   1.668
 2731SOL    HW2 9093   2.960   3.934   1.682
 2732SOL     OW 9094   5.485   2.408   3.695
 2732SOL    HW1 9095   5.584   2.414   3.708
 2732SOL    HW2 9096   5.454   2.317   3.723
 2733SOL     OW 9097   1.606   0.912   5.485
 2733SOL    HW1 9098   1.516   0.904   5.443
 2733SOL    HW2 9099   1.646   0.821   5.497
 2734SOL     OW 9100   2.552   6.105   3.655
 2734SOL    HW1 9101   2.615   6.149   3.591
 2734SOL    HW2 9102   2.458   6.128   3.630
 2735SOL     OW 9103   2.173   4.991   1.662
 2735SOL    HW1 9104   2.259   5.031   1.692
 2735SOL    HW2 9105   2.177   4.891   1.671
 2736SOL     OW 9106   3.655   6.952   6.507
 2736SOL    HW1 9107   3.594   6.929   6.431
 2736SOL    HW2 9108   3.607   7.012   6.571
 2737SOL     OW 9109   4.248   3.602   5.588
 2737SOL    HW1 9110   4.243   3.524   5.650
 2737SOL    HW2 9111   4.339   3.645   5.596
 2738SOL     OW 9112   6.309   4.724   4.188
 2738SOL    HW1 9113   6.316   4.751   4.092
 2738SOL    HW2 9114   6.251   4.643   4.196
 2739SOL     OW 9115   5.600   3.570   0.779
 2739SOL    HW1 9116   5.685   3.591   0.828
 2739SOL    HW2 9117   5.616   3.496   0.715
 2740SOL     OW 9118   6.714   2.830   3.143
 2740SOL    HW1 9119   6.805   2.809   3.178
 2740SOL    HW2 9120   6.718   2.838   3.043
 2741SOL     OW 9121   1.277   2.434   5.672
 2741SOL    HW1 9122   1.367   2.464   5.642
 2741SOL    HW2 9123   1.209   2.461   5.604
 2742SOL     OW 9124   2.275   6.499   5.796
 2742SOL    HW1 9125   2.241   6.478   5.704
 2742SOL    HW2 9126   2.246   6.427   5.860
 2743SOL     OW 9127   5.788   4.689   0.827
 2743SOL    HW1 9128   5.742   4.745   0.897
 2743SOL    HW2 9129   5.790   4.594   0.857
 2744SOL     OW 9130   4.210   0.698   6.876
 2744SOL    HW1 9131   4.122   0.658   6.852
 2744SOL    HW2 9132   4.247   0.746   6.796
 2745SOL     OW 9133   2.478   5.810   1.105
 2745SOL    HW1 9134   2.431   5.722   1.095
 2745SOL    HW2 9135   2.444   5.857   1.187
 2746SOL     OW 9136   1.318   2.556   6.250
 2746SOL    HW1 9137   1.328   2.482   6.317
 2746SOL    HW2 9138   1.262   2.523   6.174
 2747SOL     OW 9139   5.496   5.618   4.082
 2747SOL    HW1 9140   5.470   5.568   4.000
 2747SOL    HW2 9141   5.422   5.680   4.109
 2748SOL     OW 9142   3.802   1.272   4.465
 2748SOL    HW1 9143   3.755   1.195   4.507
 2748SOL    HW2 9144   3.893   1.282   4.507
 2749SOL     OW 9145   4.928   4.641   3.817
 2749SOL    HW1 9146   4.836   4.646   3.779
 2749SOL    HW2 9147   4.940   4.712   3.887
 2750SOL     OW 9148   0.145   6.116   1.725
 2750SOL    HW1 9149   0.146   6.176   1.645
 2750SOL    HW2 9150   0.159   6.171   1.808
 2751SOL     OW 9151   1.331   6.950   0.221
 2751SOL    HW1 9152   1.330   7.014   0.144
 2751SOL    HW2 9153   1.357   6.860   0.189
 2752SOL     OW 9154   6.631   6.367   5.755
 2752SOL    HW1 9155   6.544   6.414   5.767
 2752SOL    HW2 9156   6.616   6.278   5.713
 2753SOL     OW 9157   2.780   5.895   5.077
 2753SOL    HW1 9158   2.839   5.823   5.112
 2753SOL    HW2 9159   2.694   5.856   5.045
 2754SOL     OW 9160   1.075   5.971   4.293
 2754SOL    HW1 9161   1.085   6.020   4.380
 2754SOL    HW2 9162   0.982   5.935   4.286
 2755SOL     OW 9163   3.470   5.876   2.218
 2755SOL    HW1 9164   3.466   5.802   2.285
 2755SOL    HW2 9165   3.449   5.840   2.127
 2756SOL     OW 9166   0.144   3.222   5.190
 2756SOL    HW1 9167   0.158   3.295   5.258
 2756SOL    HW2 9168   0.116   3.262   5.103
 2757SOL     OW 9169   4.327   3.538   6.613
 2757SOL    HW1 9170   4.229   3.528   6.594
 2757SOL    HW2 9171   4.341   3.547   6.711
 2758SOL     OW 9172   6.866   6.778   2.029
 2758SOL    HW1 9173   6.934   6.735   2.088
 2758SOL    HW2 9174   6.835   6.712   1.960
 2759SOL     OW 9175   3.534   3.534   5.277
 2759SOL    HW1 9176   3.610   3.562   5.218
 2759SOL    HW2 9177   3.542   3.578   5.366
 2760SOL     OW 9178   5.809   6.165   2.769
 2760SOL    HW1 9179   5.777   6.236   2.831
 2760SOL    HW2 9180   5.901   6.135   2.796
 2761SOL     OW 9181   1.504   3.211   3.209
 2761SOL    HW1 9182   1.576   3.245   3.149
 2761SOL    HW2 9183   1.545   3.159   3.284
 2762SOL     OW 9184   3.314   2.200   0.597
 2762SOL    HW1 9185   3.312   2.102   0.579
 2762SOL    HW2 9186   3.364   2.217   0.682
 2763SOL     OW 9187   6.359   1.478   4.243
 2763SOL    HW1 9188   6.399   1.553   4.297
 2763SOL    HW2 9189   6.433   1.420   4.208
 2764SOL     OW 9190   0.215   2.990   3.065
 2764SOL    HW1 9191   0.161   3.010   3.146
 2764SOL    HW2 9192   0.224   3.072   3.009
 2765SOL     OW 9193   5.576   6.572   6.204
 2765SOL    HW1 9194   5.599   6.604   6.295
 2765SOL    HW2 9195   5.654   6.585   6.142
 2766SOL     OW 9196   4.462   6.803   0.155
 2766SOL    HW1 9197   4.374   6.807   0.202
 2766SOL    HW2 9198   4.534   6.837   0.215
 2767SOL     OW 9199   0.555   5.301   6.571
 2767SOL    HW1 9200   0.494   5.373   6.537
 2767SOL    HW2 9201   0.623   5.341   6.633
 2768SOL     OW 9202   3.937   0.094   1.734
 2768SOL    HW1 9203   3.974   0.078   1.826
 2768SOL    HW2 9204   3.840   0.071   1.733
 2769SOL     OW 9205   0.514   5.013   5.559
 2769SOL    HW1 9206   0.434   4.956   5.579
 2769SOL    HW2 9207   0.505   5.101   5.605
 2770SOL     OW 9208   2.356   6.361   0.502
 2770SOL    HW1 9209   2.324   6.310   0.581
 2770SOL    HW2 9210   2.439   6.318   0.465
 2771SOL     OW 9211   4.409   0.449   5.156
 2771SOL    HW1 9212   4.421   0.457   5.255
 2771SOL    HW2 9213   4.318   0.411   5.137
 2772SOL     OW 9214   4.577   0.931   3.432
 2772SOL    HW1 9215   4.631   0.848   3.439
 2772SOL    HW2 9216   4.511   0.935   3.508
 2773SOL     OW 9217   5.957   2.083   4.528
 2773SOL    HW1 9218   6.013   2.155   4.570
 2773SOL    HW2 9219   5.885   2.125   4.473
 2774SOL     OW 9220   5.874   1.725   4.111
 2774SOL    HW1 9221   5.910   1.632   4.116
 2774SOL    HW2 9222   5.934   1.787   4.160
 2775SOL     OW 9223   6.872   3.154   4.014
 2775SOL    HW1 9224   6.925   3.159   4.099
 2775SOL    HW2 9225   6.780   3.189   4.029
 2776SOL     OW 9226   4.909   4.789   6.263
 2776SOL    HW1 9227   4.957   4.754   6.343
 2776SOL    HW2 9228   4.826   4.735   6.248
 2777SOL     OW 9229   2.377   2.243   6.660
 2777SOL    HW1 9230   2.475   2.251   6.678
 2777SOL    HW2 9231   2.361   2.251   6.562
 2778SOL     OW 9232   2.469   0.860   6.521
 2778SOL    HW1 9233   2.450   0.762   6.513
 2778SOL    HW2 9234   2.501   0.895   6.433
 2779SOL     OW 9235   5.093   1.225   1.408
 2779SOL    HW1 9236   5.097   1.126   1.418
 2779SOL    HW2 9237   5.019   1.261   1.465
 2780SOL     OW 9238   0.045   1.492   4.936
 2780SOL    HW1 9239   0.119   1.491   4.868
 2780SOL    HW2 9240   7.006   1.573   4.921
 2781SOL     OW 9241   5.621   0.605   3.401
 2781SOL    HW1 9242   5.681   0.659   3.460
 2781SOL    HW2 9243   5.526   0.618   3.429
 2782SOL     OW 9244   5.478   0.682   6.045
 2782SOL    HW1 9245   5.519   0.773   6.038
 2782SOL    HW2 9246   5.404   0.683   6.111
 2783SOL     OW 9247   5.893   3.771   1.576
 2783SOL    HW1 9248   5.966   3.839   1.593
 2783SOL    HW2 9249   5.930   3.697   1.520
 2784SOL     OW 9250   0.467   3.079   1.009
 2784SOL    HW1 9251   0.418   2.992   1.015
 2784SOL    HW2 9252   0.408   3.148   0.966
 2785SOL     OW 9253   6.263   3.112   2.274
 2785SOL    HW1 9254   6.210   3.193   2.250
 2785SOL    HW2 9255   6.232   3.034   2.220
 2786SOL     OW 9256   0.968   6.538   6.615
 2786SOL    HW1 9257   1.007   6.570   6.528
 2786SOL    HW2 9258   0.915   6.611   6.657
 2787SOL     OW 9259   0.537   5.904   6.818
 2787SOL    HW1 9260   0.484   5.965   6.877
 2787SOL    HW2 9261   0.479   5.827   6.790
 2788SOL     OW 9262   2.445   7.006   6.517
 2788SOL    HW1 9263   2.399   0.060   6.567
 2788SOL    HW2 9264   2.543   0.008   6.511
 2789SOL     OW 9265   0.895   2.386   4.926
 2789SOL    HW1 9266   0.818   2.324   4.914
 2789SOL    HW2 9267   0.897   2.453   4.852
 2790SOL     OW 9268   0.803   5.394   1.650
 2790SOL    HW1 9269   0.882   5.372   1.593
 2790SOL    HW2 9270   0.799   5.492   1.665
 2791SOL     OW 9271   1.142   3.063   3.912
 2791SOL    HW1 9272   1.204   3.060   3.991
 2791SOL    HW2 9273   1.162   3.145   3.858
 2792SOL     OW 9274   3.701   1.907   6.131
 2792SOL    HW1 9275   3.693   1.842   6.207
 2792SOL    HW2 9276   3.646   1.874   6.054
 2793SOL     OW 9277   3.836   3.700   0.556
 2793SOL    HW1 9278   3.860   3.603   0.567
 2793SOL    HW2 9279   3.798   3.735   0.642
 2794SOL     OW 9280   1.831   2.408   0.217
 2794SOL    HW1 9281   1.872   2.497   0.235
 2794SOL    HW2 9282   1.902   2.338   0.219
 2795SOL     OW 9283   1.709   5.970   0.845
 2795SOL    HW1 9284   1.689   5.872   0.841
 2795SOL    HW2 9285   1.643   6.014   0.907
 2796SOL     OW 9286   2.054   6.162   6.734
 2796SOL    HW1 9287   2.070   6.248   6.783
 2796SOL    HW2 9288   1.956   6.150   6.721
 2797SOL     OW 9289   5.358   4.754   3.140
 2797SOL    HW1 9290   5.348   4.670   3.088
 2797SOL    HW2 9291   5.384   4.828   3.078
 2798SOL     OW 9292   5.545   0.801   2.001
 2798SOL    HW1 9293   5.587   0.822   1.913
 2798SOL    HW2 9294   5.607   0.825   2.075
 2799SOL     OW 9295   3.461   6.762   4.690
 2799SOL    HW1 9296   3.462   6.822   4.769
 2799SOL    HW2 9297   3.527   6.688   4.703
 2800SOL     OW 9298   5.058   0.473   6.623
 2800SOL    HW1 9299   4.967   0.450   6.586
 2800SOL    HW2 9300   5.082   0.409   6.695
 2801SOL     OW 9301   0.153   4.475   4.279
 2801SOL    HW1 9302   0.179   4.386   4.318
 2801SOL    HW2 9303   0.231   4.513   4.228
 2802SOL     OW 9304   1.598   5.050   4.935
 2802SOL    HW1 9305   1.666   4.978   4.950
 2802SOL    HW2 9306   1.639   5.125   4.883
 2803SOL     OW 9307   3.597   2.563   6.351
 2803SOL    HW1 9308   3.678   2.605   6.312
 2803SOL    HW2 9309   3.614   2.542   6.448
 2804SOL     OW 9310   0.065   2.756   3.458
 2804SOL    HW1 9311   0.161   2.781   3.447
 2804SOL    HW2 9312   0.029   2.797   3.542
 2805SOL     OW 9313   3.513   4.224   1.053
 2805SOL    HW1 9314   3.436   4.255   0.997
 2805SOL    HW2 9315   3.526   4.126   1.041
 2806SOL     OW 9316   0.534   2.999   5.465
 2806SOL    HW1 9317   0.469   3.066   5.428
 2806SOL    HW2 9318   0.506   2.973   5.557
 2807SOL     OW 9319   4.228   1.265   3.872
 2807SOL    HW1 9320   4.270   1.215   3.947
 2807SOL    HW2 9321   4.295   1.280   3.800
 2808SOL     OW 9322   0.815   5.548   5.527
 2808SOL    HW1 9323   0.843   5.460   5.488
 2808SOL    HW2 9324   0.882   5.577   5.595
 2809SOL     OW 9325   0.048   5.719   1.974
 2809SOL    HW1 9326   0.078   5.650   1.909
 2809SOL    HW2 9327   0.021   5.802   1.924
 2810SOL     OW 9328   1.567   6.942   3.027
 2810SOL    HW1 9329   1.586   6.930   2.929
 2810SOL    HW2 9330   1.653   6.936   3.078
 2811SOL     OW 9331   1.389   1.251   0.801
 2811SOL    HW1 9332   1.375   1.270   0.898
 2811SOL    HW2 9333   1.477   1.287   0.772
 2812SOL     OW 9334   1.194   2.165   0.420
 2812SOL    HW1 9335   1.209   2.197   0.327
 2812SOL    HW2 9336   1.195   2.065   0.422
 2813SOL     OW 9337   0.771   3.391   1.741
 2813SOL    HW1 9338   0.829   3.470   1.763
 2813SOL    HW2 9339   0.802   3.350   1.656
 2814SOL     OW 9340   2.653   4.070   6.780
 2814SOL    HW1 9341   2.718   4.085   6.854
 2814SOL    HW2 9342   2.652   4.149   6.719
 2815SOL     OW 9343   6.673   5.537   4.698
 2815SOL    HW1 9344   6.763   5.527   4.654
 2815SOL    HW2 9345   6.617   5.458   4.676
 2816SOL     OW 9346   0.720   5.796   4.556
 2816SOL    HW1 9347   0.700   5.698   4.564
 2816SOL    HW2 9348   0.712   5.839   4.646
 2817SOL     OW 9349   3.207   0.737   2.543
 2817SOL    HW1 9350   3.267   0.809   2.578
 2817SOL    HW2 9351   3.115   0.748   2.582
 2818SOL     OW 9352   1.938   0.635   0.469
 2818SOL    HW1 9353   1.980   0.725   0.457
 2818SOL    HW2 9354   1.988   0.583   0.537
 2819SOL     OW 9355   0.877   0.427   6.789
 2819SOL    HW1 9356   0.833   0.380   6.712
 2819SOL    HW2 9357   0.808   0.450   6.858
 2820SOL     OW 9358   1.383   1.857   0.036
 2820SOL    HW1 9359   1.369   1.916   6.975
 2820SOL    HW2 9360   1.310   1.872   0.102
 2821SOL     OW 9361   3.184   3.245   6.274
 2821SOL    HW1 9362   3.169   3.152   6.307
 2821SOL    HW2 9363   3.209   3.243   6.177
 2822SOL     OW 9364   4.860   2.343   0.528
 2822SOL    HW1 9365   4.780   2.402   0.532
 2822SOL    HW2 9366   4.926   2.379   0.462
 2823SOL     OW 9367   4.863   3.700   1.745
 2823SOL    HW1 9368   4.765   3.703   1.726
 2823SOL    HW2 9369   4.896   3.606   1.736
 2824SOL     OW 9370   1.228   4.458   4.702
 2824SOL    HW1 9371   1.217   4.358   4.701
 2824SOL    HW2 9372   1.213   4.492   4.794
 2825SOL     OW 9373   5.161   1.289   6.232
 2825SOL    HW1 9374   5.190   1.193   6.237
 2825SOL    HW2 9375   5.240   1.348   6.241
 2826SOL     OW 9376   2.633   2.903   6.565
 2826SOL    HW1 9377   2.563   2.832   6.560
 2826SOL    HW2 9378   2.637   2.953   6.479
 2827SOL     OW 9379   5.678   2.032   6.830
 2827SOL    HW1 9380   5.609   1.970   6.793
 2827SOL    HW2 9381   5.768   1.988   6.826
 2828SOL     OW 9382   1.698   3.606   1.492
 2828SOL    HW1 9383   1.720   3.511   1.471
 2828SOL    HW2 9384   1.744   3.666   1.426
 2829SOL     OW 9385   3.432   3.552   2.003
 2829SOL    HW1 9386   3.427   3.455   2.023
 2829SOL    HW2 9387   3.528   3.581   2.001
 2830SOL     OW 9388   2.946   5.850   4.760
 2830SOL    HW1 9389   2.942   5.882   4.665
 2830SOL    HW2 9390   2.868   5.886   4.810
 2831SOL     OW 9391   6.918   2.065   1.437
 2831SOL    HW1 9392   6.828   2.032   1.408
 2831SOL    HW2 9393   6.986   1.993   1.422
 2832SOL     OW 9394   0.949   3.858   2.762
 2832SOL    HW1 9395   1.007   3.777   2.761
 2832SOL    HW2 9396   0.860   3.836   2.721
 2833SOL     OW 9397   0.554   2.653   2.556
 2833SOL    HW1 9398   0.494   2.675   2.479
 2833SOL    HW2 9399   0.642   2.621   2.522
 2834SOL     OW 9400   3.804   6.849   4.174
 2834SOL    HW1 9401   3.763   6.766   4.213
 2834SOL    HW2 9402   3.765   6.865   4.083
 2835SOL     OW 9403   6.207   0.582   6.868
 2835SOL    HW1 9404   6.266   0.513   6.910
 2835SOL    HW2 9405   6.115   0.574   6.907
 2836SOL     OW 9406   3.294   5.565   3.270
 2836SOL    HW1 9407   3.372   5.543   3.328
 2836SOL    HW2 9408   3.219   5.598   3.327
 2837SOL     OW 9409   5.068   4.438   1.750
 2837SOL    HW1 9410   5.129   4.516   1.757
 2837SOL    HW2 9411   5.121   4.353   1.747
 2838SOL     OW 9412   6.892   4.147   6.081
 2838SOL    HW1 9413   6.933   4.207   6.013
 2838SOL    HW2 9414   6.872   4.198   6.164
 2839SOL     OW 9415   5.914   3.250   5.395
 2839SOL    HW1 9416   5.953   3.328   5.345
 2839SOL    HW2 9417   5.913   3.270   5.493
 2840SOL     OW 9418   6.183   6.461   4.236
 2840SOL    HW1 9419   6.175   6.548   4.285
 2840SOL    HW2 9420   6.217   6.390   4.298
 2841SOL     OW 9421   5.735   4.052   2.377
 2841SOL    HW1 9422   5.775   4.142   2.395
 2841SOL    HW2 9423   5.766   3.988   2.447
 2842SOL     OW 9424   0.834   6.773   3.465
 2842SOL    HW1 9425   0.827   6.870   3.489
 2842SOL    HW2 9426   0.927   6.754   3.432
 2843SOL     OW 9427   2.651   2.284   3.291
 2843SOL    HW1 9428   2.647   2.269   3.390
 2843SOL    HW2 9429   2.587   2.357   3.266
 2844SOL     OW 9430   5.011   3.679   0.888
 2844SOL    HW1 9431   5.111   3.667   0.886
 2844SOL    HW2 9432   4.976   3.679   0.794
 2845SOL     OW 9433   2.593   1.727   1.632
 2845SOL    HW1 9434   2.512   1.671   1.613
 2845SOL    HW2 9435   2.601   1.797   1.560
 2846SOL     OW 9436   6.383   0.046   6.585
 2846SOL    HW1 9437   6.418   6.972   6.595
 2846SOL    HW2 9438   6.399   0.078   6.492
 2847SOL     OW 9439   4.544   5.523   1.030
 2847SOL    HW1 9440   4.611   5.485   0.966
 2847SOL    HW2 9441   4.562   5.487   1.122
 2848SOL     OW 9442   0.675   4.058   5.879
 2848SOL    HW1 9443   0.665   4.151   5.842
 2848SOL    HW2 9444   0.715   3.999   5.809
 2849SOL     OW 9445   5.366   0.830   1.588
 2849SOL    HW1 9446   5.303   0.854   1.662
 2849SOL    HW2 9447   5.320   0.770   1.523
 2850SOL     OW 9448   1.092   0.563   1.723
 2850SOL    HW1 9449   1.073   0.465   1.725
 2850SOL    HW2 9450   1.162   0.581   1.653
 2851SOL     OW 9451   2.888   3.169   1.324
 2851SOL    HW1 9452   2.899   3.087   1.381
 2851SOL    HW2 9453   2.905   3.250   1.380
 2852SOL     OW 9454   0.334   5.376   5.885
 2852SOL    HW1 9455   0.397   5.312   5.841
 2852SOL    HW2 9456   0.263   5.404   5.820
 2853SOL     OW 9457   0.335   4.543   5.498
 2853SOL    HW1 9458   0.338   4.632   5.454
 2853SOL    HW2 9459   0.392   4.479   5.446
 2854SOL     OW 9460   3.274   0.816   6.384
 2854SOL    HW1 9461   3.257   0.829   6.482
 2854SOL    HW2 9462   3.202   0.860   6.331
 2855SOL     OW 9463   2.432   1.210   4.133
 2855SOL    HW1 9464   2.445   1.169   4.223
 2855SOL    HW2 9465   2.348   1.174   4.092
 2856SOL     OW 9466   0.215   5.552   4.145
 2856SOL    HW1 9467   0.188   5.646   4.128
 2856SOL    HW2 9468   0.270   5.519   4.068
 2857SOL     OW 9469   6.729   4.490   0.952
 2857SOL    HW1 9470   6.785   4.570   0.933
 2857SOL    HW2 9471   6.787   4.416   0.988
 2858SOL     OW 9472   5.360   4.645   2.333
 2858SOL    HW1 9473   5.266   4.630   2.304
 2858SOL    HW2 9474   5.367   4.631   2.432
 2859SOL     OW 9475   5.616   5.169   1.733
 2859SOL    HW1 9476   5.673   5.203   1.808
 2859SOL    HW2 9477   5.547   5.106   1.769
 2860SOL     OW 9478   1.270   0.267   2.797
 2860SOL    HW1 9479   1.254   0.364   2.813
 2860SOL    HW2 9480   1.211   0.213   2.857
 2861SOL     OW 9481   5.084   4.041   6.204
 2861SOL    HW1 9482   5.138   4.088   6.274
 2861SOL    HW2 9483   5.011   4.101   6.173
 2862SOL     OW 9484   4.862   1.806   0.683
 2862SOL    HW1 9485   4.847   1.875   0.754
 2862SOL    HW2 9486   4.824   1.839   0.596
 2863SOL     OW 9487   5.893   2.093   4.992
 2863SOL    HW1 9488   5.870   2.167   5.056
 2863SOL    HW2 9489   5.943   2.021   5.040
 2864SOL     OW 9490   3.531   4.235   0.653
 2864SOL    HW1 9491   3.477   4.158   0.686
 2864SOL    HW2 9492   3.625   4.227   0.687
 2865SOL     OW 9493   5.655   4.925   5.435
 2865SOL    HW1 9494   5.610   4.948   5.348
 2865SOL    HW2 9495   5.600   4.857   5.484
 2866SOL     OW 9496   3.624   4.510   0.660
 2866SOL    HW1 9497   3.572   4.427   0.642
 2866SOL    HW2 9498   3.570   4.572   0.716
 2867SOL     OW 9499   6.158   6.169   3.498
 2867SOL    HW1 9500   6.156   6.192   3.401
 2867SOL    HW2 9501   6.073   6.123   3.524
 2868SOL     OW 9502   0.359   0.388   5.681
 2868SOL    HW1 9503   0.304   0.344   5.752
 2868SOL    HW2 9504   0.410   0.464   5.721
 2869SOL     OW 9505   6.321   4.727   3.904
 2869SOL    HW1 9506   6.350   4.712   3.810
 2869SOL    HW2 9507   6.221   4.733   3.908
 2870SOL     OW 9508   6.898   2.058   1.740
 2870SOL    HW1 9509   6.906   2.046   1.642
 2870SOL    HW2 9510   6.841   2.138   1.760
 2871SOL     OW 9511   5.294   1.462   3.009
 2871SOL    HW1 9512   5.393   1.453   3.023
 2871SOL    HW2 9513   5.250   1.374   3.024
 2872SOL     OW 9514   2.330   2.205   2.183
 2872SOL    HW1 9515   2.419   2.161   2.194
 2872SOL    HW2 9516   2.335   2.300   2.216
 2873SOL     OW 9517   1.149   0.141   1.545
 2873SOL    HW1 9518   1.103   0.223   1.512
 2873SOL    HW2 9519   1.242   0.164   1.573
 2874SOL     OW 9520   2.190   1.481   3.292
 2874SOL    HW1 9521   2.244   1.548   3.342
 2874SOL    HW2 9522   2.100   1.472   3.335
 2875SOL     OW 9523   2.605   0.139   3.180
 2875SOL    HW1 9524   2.692   0.147   3.229
 2875SOL    HW2 9525   2.622   0.145   3.082
 2876SOL     OW 9526   1.440   6.131   0.985
 2876SOL    HW1 9527   1.360   6.164   0.934
 2876SOL    HW2 9528   1.411   6.102   1.076
 2877SOL     OW 9529   1.531   2.632   6.016
 2877SOL    HW1 9530   1.567   2.645   6.109
 2877SOL    HW2 9531   1.549   2.714   5.962
 2878SOL     OW 9532   4.115   3.245   4.439
 2878SOL    HW1 9533   4.132   3.234   4.341
 2878SOL    HW2 9534   4.135   3.339   4.466
 2879SOL     OW 9535   5.554   4.462   0.074
 2879SOL    HW1 9536   5.551   4.471   6.993
 2879SOL    HW2 9537   5.464   4.486   0.112
 2880SOL     OW 9538   1.945   1.233   3.657
 2880SOL    HW1 9539   1.880   1.247   3.732
 2880SOL    HW2 9540   1.952   1.135   3.637
 2881SOL     OW 9541   5.213   4.949   0.616
 2881SOL    HW1 9542   5.263   4.951   0.530
 2881SOL    HW2 9543   5.276   4.930   0.691
 2882SOL     OW 9544   4.702   6.255   0.134
 2882SOL    HW1 9545   4.741   6.228   0.222
 2882SOL    HW2 9546   4.654   6.342   0.145
 2883SOL     OW 9547   5.813   6.713   3.536
 2883SOL    HW1 9548   5.866   6.677   3.612
 2883SOL    HW2 9549   5.860   6.793   3.497
 2884SOL     OW 9550   5.980   5.863   4.273
 2884SOL    HW1 9551   5.910   5.829   4.335
 2884SOL    HW2 9552   5.936   5.905   4.193
 2885SOL     OW 9553   1.665   2.460   3.890
 2885SOL    HW1 9554   1.665   2.387   3.822
 2885SOL    HW2 9555   1.601   2.438   3.964
 2886SOL     OW 9556   2.278   4.538   5.571
 2886SOL    HW1 9557   2.309   4.554   5.664
 2886SOL    HW2 9558   2.347   4.572   5.506
 2887SOL     OW 9559   7.016   5.786   2.908
 2887SOL    HW1 9560   0.019   5.884   2.911
 2887SOL    HW2 9561   6.935   5.767   2.963
 2888SOL     OW 9562   4.899   0.001   6.383
 2888SOL    HW1 9563   4.945   6.951   6.441
 2888SOL    HW2 9564   4.866   0.076   6.441
 2889SOL     OW 9565   4.489   6.178   4.163
 2889SOL    HW1 9566   4.446   6.111   4.223
 2889SOL    HW2 9567   4.493   6.141   4.070
 2890SOL     OW 9568   1.154   2.335   0.845
 2890SOL    HW1 9569   1.142   2.243   0.809
 2890SOL    HW2 9570   1.093   2.350   0.922
 2891SOL     OW 9571   0.683   1.935   5.379
 2891SOL    HW1 9572   0.653   2.022   5.339
 2891SOL    HW2 9573   0.604   1.876   5.393
 2892SOL     OW 9574   5.375   4.215   1.905
 2892SOL    HW1 9575   5.327   4.228   1.992
 2892SOL    HW2 9576   5.320   4.158   1.845
 2893SOL     OW 9577   6.899   5.780   5.369
 2893SOL    HW1 9578   6.847   5.695   5.356
 2893SOL    HW2 9579   6.960   5.794   5.291
 2894SOL     OW 9580   2.195   5.727   1.733
 2894SOL    HW1 9581   2.287   5.763   1.717
 2894SOL    HW2 9582   2.167   5.671   1.655
 2895SOL     OW 9583   4.035   6.680   5.808
 2895SOL    HW1 9584   4.102   6.663   5.880
 2895SOL    HW2 9585   4.078   6.730   5.733
 2896SOL     OW 9586   5.596   0.639   4.827
 2896SOL    HW1 9587   5.515   0.607   4.876
 2896SOL    HW2 9588   5.641   0.711   4.880
 2897SOL     OW 9589   3.571   4.890   3.165
 2897SOL    HW1 9590   3.524   4.809   3.201
 2897SOL    HW2 9591   3.510   4.969   3.169
 2898SOL     OW 9592   4.767   2.347   2.345
 2898SOL    HW1 9593   4.733   2.253   2.342
 2898SOL    HW2 9594   4.827   2.364   2.267
 2899SOL     OW 9595   6.904   3.353   0.795
 2899SOL    HW1 9596   6.841   3.422   0.831
 2899SOL    HW2 9597   6.953   3.390   0.717
 2900SOL     OW 9598   2.426   2.997   5.765
 2900SOL    HW1 9599   2.479   3.065   5.714
 2900SOL    HW2 9600   2.407   2.918   5.708
 2901SOL     OW 9601   1.059   4.044   2.961
 2901SOL    HW1 9602   0.975   4.041   3.016
 2901SOL    HW2 9603   1.054   3.975   2.888
 2902SOL     OW 9604   6.011   5.391   3.517
 2902SOL    HW1 9605   6.067   5.452   3.572
 2902SOL    HW2 9606   6.007   5.425   3.423
 2903SOL     OW 9607   6.000   4.671   0.641
 2903SOL    HW1 9608   5.913   4.701   0.681
 2903SOL    HW2 9609   6.059   4.751   0.626
 2904SOL     OW 9610   2.126   4.573   5.101
 2904SOL    HW1 9611   2.140   4.625   5.017
 2904SOL    HW2 9612   2.056   4.504   5.086
 2905SOL     OW 9613   2.095   5.595   1.128
 2905SOL    HW1 9614   2.093   5.523   1.197
 2905SOL    HW2 9615   2.182   5.592   1.078
 2906SOL     OW 9616   6.276   6.361   5.037
 2906SOL    HW1 9617   6.200   6.328   4.982
 2906SOL    HW2 9618   6.355   6.300   5.025
 2907SOL     OW 9619   0.914   0.798   5.100
 2907SOL    HW1 9620   0.879   0.709   5.070
 2907SOL    HW2 9621   0.985   0.829   5.038
 2908SOL     OW 9622   4.400   6.655   3.107
 2908SOL    HW1 9623   4.394   6.754   3.094
 2908SOL    HW2 9624   4.309   6.618   3.125
 2909SOL     OW 9625   6.700   6.733   1.603
 2909SOL    HW1 9626   6.675   6.829   1.591
 2909SOL    HW2 9627   6.740   6.698   1.518
 2910SOL     OW 9628   0.638   0.881   4.213
 2910SOL    HW1 9629   0.688   0.835   4.286
 2910SOL    HW2 9630   0.675   0.853   4.124
 2911SOL     OW 9631   0.144   4.472   6.067
 2911SOL    HW1 9632   0.244   4.472   6.054
 2911SOL    HW2 9633   0.123   4.481   6.164
 2912SOL     OW 9634   1.181   1.185   1.357
 2912SOL    HW1 9635   1.237   1.268   1.362
 2912SOL    HW2 9636   1.107   1.191   1.424
 2913SOL     OW 9637   2.357   6.791   2.798
 2913SOL    HW1 9638   2.330   6.876   2.843
 2913SOL    HW2 9639   2.456   6.791   2.785
 2914SOL     OW 9640   3.944   5.252   0.959
 2914SOL    HW1 9641   3.862   5.200   0.983
 2914SOL    HW2 9642   3.964   5.318   1.032
 2915SOL     OW 9643   2.872   0.337   3.453
 2915SOL    HW1 9644   2.944   0.311   3.389
 2915SOL    HW2 9645   2.908   0.402   3.520
 2916SOL     OW 9646   1.582   5.494   0.187
 2916SOL    HW1 9647   1.515   5.519   0.256
 2916SOL    HW2 9648   1.537   5.485   0.098
 2917SOL     OW 9649   2.625   6.770   2.776
 2917SOL    HW1 9650   2.678   6.698   2.733
 2917SOL    HW2 9651   2.686   6.835   2.821
 2918SOL     OW 9652   5.328   2.930   1.870
 2918SOL    HW1 9653   5.268   3.010   1.870
 2918SOL    HW2 9654   5.390   2.935   1.792
 2919SOL     OW 9655   0.052   5.883   4.839
 2919SOL    HW1 9656   0.147   5.895   4.813
 2919SOL    HW2 9657   7.012   5.898   4.759
 2920SOL     OW 9658   2.592   2.209   1.793
 2920SOL    HW1 9659   2.492   2.206   1.794
 2920SOL    HW2 9660   2.624   2.199   1.699
 2921SOL     OW 9661   1.336   5.981   3.418
 2921SOL    HW1 9662   1.268   6.038   3.464
 2921SOL    HW2 9663   1.309   5.965   3.323
 2922SOL     OW 9664   4.162   5.078   4.248
 2922SOL    HW1 9665   4.227   5.026   4.303
 2922SOL    HW2 9666   4.126   5.154   4.302
 2923SOL     OW 9667   6.974   5.492   5.065
 2923SOL    HW1 9668   6.958   5.394   5.062
 2923SOL    HW2 9669   6.987   5.527   4.972
 2924SOL     OW 9670   5.911   2.039   6.407
 2924SOL    HW1 9671   5.923   2.049   6.308
 2924SOL    HW2 9672   5.817   2.061   6.432
 2925SOL     OW 9673   5.878   6.759   4.879
 2925SOL    HW1 9674   5.845   6.712   4.961
 2925SOL    HW2 9675   5.887   6.693   4.804
 2926SOL     OW 9676   6.653   2.436   3.859
 2926SOL    HW1 9677   6.622   2.357   3.911
 2926SOL    HW2 9678   6.666   2.514   3.921
 2927SOL     OW 9679   0.739   2.182   1.832
 2927SOL    HW1 9680   0.723   2.196   1.929
 2927SOL    HW2 9681   0.836   2.164   1.816
 2928SOL     OW 9682   6.228   3.115   0.340
 2928SOL    HW1 9683   6.189   3.165   0.417
 2928SOL    HW2 9684   6.248   3.178   0.266
 2929SOL     OW 9685   1.691   2.023   4.344
 2929SOL    HW1 9686   1.719   2.075   4.425
 2929SOL    HW2 9687   1.629   2.079   4.289
 2930SOL     OW 9688   0.148   3.751   4.126
 2930SOL    HW1 9689   0.061   3.707   4.149
 2930SOL    HW2 9690   0.204   3.688   4.072
 2931SOL     OW 9691   5.398   4.271   5.731
 2931SOL    HW1 9692   5.434   4.256   5.639
 2931SOL    HW2 9693   5.418   4.364   5.760
 2932SOL     OW 9694   5.813   5.198   1.538
 2932SOL    HW1 9695   5.726   5.201   1.586
 2932SOL    HW2 9696   5.874   5.134   1.584
 2933SOL     OW 9697   0.897   6.677   0.012
 2933SOL    HW1 9698   0.825   6.620   0.051
 2933SOL    HW2 9699   0.983   6.661   0.061
 2934SOL     OW 9700   4.474   5.365   1.366
 2934SOL    HW1 9701   4.497   5.272   1.397
 2934SOL    HW2 9702   4.433   5.415   1.442
 2935SOL     OW 9703   0.719   2.793   5.724
 2935SOL    HW1 9704   0.738   2.781   5.627
 2935SOL    HW2 9705   0.770   2.725   5.777
 2936SOL     OW 9706   4.572   6.543   1.988
 2936SOL    HW1 9707   4.487   6.525   2.037
 2936SOL    HW2 9708   4.557   6.531   1.890
 2937SOL     OW 9709   5.664   3.870   2.932
 2937SOL    HW1 9710   5.688   3.951   2.985
 2937SOL    HW2 9711   5.658   3.894   2.835
 2938SOL     OW 9712   0.599   6.075   6.279
 2938SOL    HW1 9713   0.610   6.042   6.373
 2938SOL    HW2 9714   0.686   6.065   6.230
 2939SOL     OW 9715   0.162   6.005   1.248
 2939SOL    HW1 9716   0.127   6.068   1.317
 2939SOL    HW2 9717   0.249   5.966   1.279
 2940SOL     OW 9718   4.981   6.474   3.580
 2940SOL    HW1 9719   5.073   6.511   3.594
 2940SOL    HW2 9720   4.914   6.547   3.592
 2941SOL     OW 9721   2.280   4.700   2.689
 2941SOL    HW1 9722   2.217   4.622   2.695
 2941SOL    HW2 9723   2.371   4.670   2.720
 2942SOL     OW 9724   3.164   1.664   1.587
 2942SOL    HW1 9725   3.086   1.726   1.599
 2942SOL    HW2 9726   3.177   1.611   1.671
 2943SOL     OW 9727   5.901   3.704   3.093
 2943SOL    HW1 9728   5.973   3.647   3.055
 2943SOL    HW2 9729   5.920   3.722   3.189
 2944SOL     OW 9730   1.976   6.044   2.361
 2944SOL    HW1 9731   1.901   6.011   2.418
 2944SOL    HW2 9732   1.955   6.024   2.265
 2945SOL     OW 9733   5.159   3.995   1.397
 2945SOL    HW1 9734   5.090   4.067   1.396
 2945SOL    HW2 9735   5.128   3.920   1.456
 2946SOL     OW 9736   3.558   2.843   4.316
 2946SOL    HW1 9737   3.618   2.901   4.261
 2946SOL    HW2 9738   3.471   2.831   4.269
 2947SOL     OW 9739   6.329   5.802   1.124
 2947SOL    HW1 9740   6.373   5.775   1.210
 2947SOL    HW2 9741   6.234   5.829   1.143
 2948SOL     OW 9742   0.045   3.850   1.939
 2948SOL    HW1 9743   0.069   3.773   1.997
 2948SOL    HW2 9744   0.098   3.931   1.966
 2949SOL     OW 9745   2.104   6.003   0.603
 2949SOL    HW1 9746   2.133   6.060   0.680
 2949SOL    HW2 9747   2.152   6.034   0.520
 2950SOL     OW 9748   6.161   5.961   2.603
 2950SOL    HW1 9749   6.134   6.053   2.630
 2950SOL    HW2 9750   6.244   5.935   2.652
 2951SOL     OW 9751   0.717   1.693   1.490
 2951SOL    HW1 9752   0.787   1.689   1.419
 2951SOL    HW2 9753   0.630   1.662   1.453
 2952SOL     OW 9754   6.927   1.681   5.444
 2952SOL    HW1 9755   6.922   1.764   5.388
 2952SOL    HW2 9756   6.906   1.704   5.539
 2953SOL     OW 9757   1.611   4.836   3.231
 2953SOL    HW1 9758   1.710   4.824   3.238
 2953SOL    HW2 9759   1.590   4.891   3.150
 2954SOL     OW 9760   0.757   4.058   6.167
 2954SOL    HW1 9761   0.693   4.056   6.244
 2954SOL    HW2 9762   0.709   4.087   6.084
 2955SOL     OW 9763   1.611   4.506   6.509
 2955SOL    HW1 9764   1.551   4.431   6.482
 2955SOL    HW2 9765   1.698   4.470   6.542
 2956SOL     OW 9766   5.316   4.716   4.681
 2956SOL    HW1 9767   5.238   4.776   4.663
 2956SOL    HW2 9768   5.300   4.627   4.638
 2957SOL     OW 9769   2.400   5.632   1.436
 2957SOL    HW1 9770   2.498   5.634   1.456
 2957SOL    HW2 9771   2.366   5.725   1.424
 2958SOL     OW 9772   1.791   3.792   2.531
 2958SOL    HW1 9773   1.851   3.835   2.464
 2958SOL    HW2 9774   1.803   3.836   2.620
 2959SOL     OW 9775   0.005   3.482   3.597
 2959SOL    HW1 9776   7.015   3.389   3.632
 2959SOL    HW2 9777   0.101   3.510   3.598
 2960SOL     OW 9778   4.822   0.123   1.413
 2960SOL    HW1 9779   4.783   0.187   1.480
 2960SOL    HW2 9780   4.818   0.164   1.322
 2961SOL     OW 9781   5.671   2.736   1.869
 2961SOL    HW1 9782   5.604   2.678   1.824
 2961SOL    HW2 9783   5.763   2.706   1.844
 2962SOL     OW 9784   6.649   6.896   3.694
 2962SOL    HW1 9785   6.572   6.885   3.757
 2962SOL    HW2 9786   6.720   6.952   3.737
 2963SOL     OW 9787   1.671   0.804   4.933
 2963SOL    HW1 9788   1.691   0.707   4.925
 2963SOL    HW2 9789   1.678   0.832   5.029
 2964SOL     OW 9790   1.531   0.928   6.256
 2964SOL    HW1 9791   1.630   0.937   6.240
 2964SOL    HW2 9792   1.491   1.018   6.267
 2965SOL     OW 9793   6.308   0.426   6.329
 2965SOL    HW1 9794   6.355   0.338   6.320
 2965SOL    HW2 9795   6.278   0.439   6.423
 2966SOL     OW 9796   3.105   5.567   2.095
 2966SOL    HW1 9797   3.174   5.511   2.050
 2966SOL    HW2 9798   3.042   5.509   2.147
 2967SOL     OW 9799   5.668   6.714   5.239
 2967SOL    HW1 9800   5.620   6.792   5.199
 2967SOL    HW2 9801   5.725   6.746   5.315
 2968SOL     OW 9802   0.792   3.961   0.874
 2968SOL    HW1 9803   0.838   3.878   0.905
 2968SOL    HW2 9804   0.727   3.992   0.943
 2969SOL     OW 9805   4.533   2.726   5.012
 2969SOL    HW1 9806   4.620   2.684   4.987
 2969SOL    HW2 9807   4.491   2.765   4.930
 2970SOL     OW 9808   2.507   2.403   5.271
 2970SOL    HW1 9809   2.429   2.466   5.275
 2970SOL    HW2 9810   2.589   2.453   5.245
 2971SOL     OW 9811   4.866   2.977   6.749
 2971SOL    HW1 9812   4.837   3.034   6.827
 2971SOL    HW2 9813   4.804   2.991   6.673
 2972SOL     OW 9814   6.576   5.610   5.993
 2972SOL    HW1 9815   6.604   5.518   5.967
 2972SOL    HW2 9816   6.641   5.677   5.956
 2973SOL     OW 9817   5.498   1.364   4.294
 2973SOL    HW1 9818   5.438   1.343   4.371
 2973SOL    HW2 9819   5.448   1.416   4.225
 2974SOL     OW 9820   4.717   6.739   2.102
 2974SOL    HW1 9821   4.686   6.730   2.196
 2974SOL    HW2 9822   4.671   6.671   2.044
 2975SOL     OW 9823   5.755   4.022   5.206
 2975SOL    HW1 9824   5.801   3.961   5.142
 2975SOL    HW2 9825   5.656   4.006   5.202
 2976SOL     OW 9826   3.275   1.051   1.638
 2976SOL    HW1 9827   3.341   1.045   1.564
 2976SOL    HW2 9828   3.182   1.038   1.602
 2977SOL     OW 9829   1.129   0.952   1.617
 2977SOL    HW1 9830   1.067   0.975   1.692
 2977SOL    HW2 9831   1.076   0.943   1.532
 2978SOL     OW 9832   3.997   5.367   6.587
 2978SOL    HW1 9833   4.035   5.311   6.661
 2978SOL    HW2 9834   4.043   5.345   6.501
 2979SOL     OW 9835   3.324   0.908   4.923
 2979SOL    HW1 9836   3.280   0.986   4.968
 2979SOL    HW2 9837   3.278   0.888   4.836
 2980SOL     OW 9838   3.082   3.130   4.436
 2980SOL    HW1 9839   3.088   3.049   4.495
 2980SOL    HW2 9840   3.154   3.126   4.367
 2981SOL     OW 9841   2.268   1.295   1.424
 2981SOL    HW1 9842   2.237   1.340   1.507
 2981SOL    HW2 9843   2.359   1.257   1.437
 2982SOL     OW 9844   1.595   0.787   1.212
 2982SOL    HW1 9845   1.554   0.877   1.230
 2982SOL    HW2 9846   1.642   0.789   1.124
 2983SOL     OW 9847   6.401   3.342   5.432
 2983SOL    HW1 9848   6.499   3.331   5.419
 2983SOL    HW2 9849   6.381   3.435   5.461
 2984SOL     OW 9850   0.484   6.114   1.405
 2984SOL    HW1 9851   0.495   6.191   1.343
 2984SOL    HW2 9852   0.512   6.030   1.359
 2985SOL     OW 9853   5.717   0.428   7.016
 2985SOL    HW1 9854   5.756   0.352   6.964
 2985SOL    HW2 9855   5.630   0.456   6.975
 2986SOL     OW 9856   3.629   3.314   2.096
 2986SOL    HW1 9857   3.683   3.232   2.078
 2986SOL    HW2 9858   3.686   3.395   2.082
 2987SOL     OW 9859   2.439   6.078   4.456
 2987SOL    HW1 9860   2.487   6.016   4.394
 2987SOL    HW2 9861   2.357   6.113   4.412
 2988SOL     OW 9862   6.504   1.744   5.924
 2988SOL    HW1 9863   6.429   1.766   5.987
 2988SOL    HW2 9864   6.488   1.790   5.836
 2989SOL     OW 9865   5.521   3.389   4.389
 2989SOL    HW1 9866   5.444   3.406   4.450
 2989SOL    HW2 9867   5.490   3.396   4.294
 2990SOL     OW 9868   5.353   2.252   4.802
 2990SOL    HW1 9869   5.299   2.281   4.723
 2990SOL    HW2 9870   5.437   2.207   4.771
 2991SOL     OW 9871   0.459   3.359   0.716
 2991SOL    HW1 9872   0.498   3.450   0.703
 2991SOL    HW2 9873   0.532   3.290   0.713
 2992SOL     OW 9874   0.761   3.806   4.791
 2992SOL    HW1 9875   0.841   3.783   4.736
 2992SOL    HW2 9876   0.689   3.739   4.774
 2993SOL     OW 9877   2.968   4.489   1.132
 2993SOL    HW1 9878   2.951   4.577   1.088
 2993SOL    HW2 9879   3.066   4.477   1.146
 2994SOL     OW 9880   3.280   5.347   4.822
 2994SOL    HW1 9881   3.301   5.442   4.847
 2994SOL    HW2 9882   3.273   5.340   4.722
 2995SOL     OW 9883   4.544   0.610   1.784
 2995SOL    HW1 9884   4.594   0.553   1.849
 2995SOL    HW2 9885   4.489   0.677   1.833
 2996SOL     OW 9886   6.453   0.960   3.969
 2996SOL    HW1 9887   6.457   0.884   3.904
 2996SOL    HW2 9888   6.469   1.046   3.920
 2997SOL     OW 9889   4.762   6.441   4.129
 2997SOL    HW1 9890   4.671   6.482   4.135
 2997SOL    HW2 9891   4.798   6.456   4.037
 2998SOL     OW 9892   2.398   0.873   2.027
 2998SOL    HW1 9893   2.372   0.964   2.058
 2998SOL    HW2 9894   2.482   0.878   1.973
 2999SOL     OW 9895   1.867   4.357   0.723
 2999SOL    HW1 9896   1.787   4.415   0.740
 2999SOL    HW2 9897   1.839   4.275   0.673
 3000SOL     OW 9898   2.323   4.226   5.256
 3000SOL    HW1 9899   2.280   4.278   5.182
 3000SOL    HW2 9900   2.364   4.142   5.219
 3001SOL     OW 9901   4.564   0.472   6.341
 3001SOL    HW1 9902   4.492   0.436   6.400
 3001SOL    HW2 9903   4.646   0.414   6.348
 3002SOL     OW 9904   1.805   1.790   1.829
 3002SOL    HW1 9905   1.747   1.763   1.905
 3002SOL    HW2 9906   1.890   1.738   1.832
 3003SOL     OW 9907   1.458   6.568   0.833
 3003SOL    HW1 9908   1.506   6.483   0.810
 3003SOL    HW2 9909   1.429   6.564   0.929
 3004SOL     OW 9910   2.949   6.743   3.452
 3004SOL    HW1 9911   2.931   6.841   3.453
 3004SOL    HW2 9912   2.901   6.701   3.374
 3005SOL     OW 9913   2.258   1.913   0.627
 3005SOL    HW1 9914   2.190   1.842   0.643
 3005SOL    HW2 9915   2.294   1.945   0.715
 3006SOL     OW 9916   5.095   1.429   5.790
 3006SOL    HW1 9917   5.120   1.476   5.874
 3006SOL    HW2 9918   5.157   1.456   5.716
 3007SOL     OW 9919   6.442   5.851   6.456
 3007SOL    HW1 9920   6.485   5.869   6.545
 3007SOL    HW2 9921   6.410   5.937   6.416
 3008SOL     OW 9922   4.772   3.789   5.639
 3008SOL    HW1 9923   4.848   3.854   5.638
 3008SOL    HW2 9924   4.744   3.769   5.545
 3009SOL     OW 9925   6.188   2.961   2.683
 3009SOL    HW1 9926   6.172   3.041   2.741
 3009SOL    HW2 9927   6.266   2.978   2.622
 3010SOL     OW 9928   4.427   5.453   1.888
 3010SOL    HW1 9929   4.428   5.547   1.854
 3010SOL    HW2 9930   4.340   5.436   1.934
 3011SOL     OW 9931   6.409   0.173   0.230
 3011SOL    HW1 9932   6.465   0.217   0.160
 3011SOL    HW2 9933   6.335   0.122   0.187
 3012SOL     OW 9934   2.056   1.636   5.090
 3012SOL    HW1 9935   2.132   1.697   5.065
 3012SOL    HW2 9936   2.038   1.573   5.015
 3013SOL     OW 9937   0.786   4.473   5.466
 3013SOL    HW1 9938   0.868   4.490   5.521
 3013SOL    HW2 9939   0.747   4.560   5.438
 3014SOL     OW 9940   4.729   0.212   6.466
 3014SOL    HW1 9941   4.650   0.153   6.482
 3014SOL    HW2 9942   4.736   0.281   6.538
 3015SOL     OW 9943   1.913   0.582   5.952
 3015SOL    HW1 9944   1.841   0.571   6.021
 3015SOL    HW2 9945   2.001   0.594   5.997
 3016SOL     OW 9946   2.189   6.973   4.387
 3016SOL    HW1 9947   2.179   6.990   4.485
 3016SOL    HW2 9948   2.282   6.943   4.368
 3017SOL     OW 9949   1.381   5.708   0.455
 3017SOL    HW1 9950   1.452   5.778   0.444
 3017SOL    HW2 9951   1.336   5.692   0.367
 3018SOL     OW 9952   3.318   1.392   1.611
 3018SOL    HW1 9953   3.244   1.458   1.602
 3018SOL    HW2 9954   3.389   1.413   1.543
 3019SOL     OW 9955   1.954   6.982   6.148
 3019SOL    HW1 9956   2.003   7.006   6.064
 3019SOL    HW2 9957   1.875   0.025   6.159
 3020SOL     OW 9958   5.994   4.860   0.134
 3020SOL    HW1 9959   6.008   4.957   0.159
 3020SOL    HW2 9960   5.952   4.854   0.044
 3021SOL     OW 9961   4.531   0.622   4.311
 3021SOL    HW1 9962   4.590   0.622   4.230
 3021SOL    HW2 9963   4.587   0.639   4.392
 3022SOL     OW 9964   4.328   5.879   3.662
 3022SOL    HW1 9965   4.249   5.851   3.717
 3022SOL    HW2 9966   4.329   5.978   3.652
 3023SOL     OW 9967   5.909   4.686   5.114
 3023SOL    HW1 9968   5.843   4.647   5.179
 3023SOL    HW2 9969   5.985   4.623   5.102
 3024SOL     OW 9970   0.143   0.797   0.308
 3024SOL    HW1 9971   0.072   0.729   0.320
 3024SOL    HW2 9972   0.112   0.885   0.345
 3025SOL     OW 9973   4.523   5.503   0.009
 3025SOL    HW1 9974   4.565   5.465   0.091
 3025SOL    HW2 9975   4.473   5.586   0.032
 3026SOL     OW 9976   0.299   0.634   2.026
 3026SOL    HW1 9977   0.260   0.543   2.016
 3026SOL    HW2 9978   0.312   0.655   2.123
 3027SOL     OW 9979   3.944   0.131   0.557
 3027SOL    HW1 9980   3.869   0.163   0.616
 3027SOL    HW2 9981   3.908   0.064   0.491
 3028SOL     OW 9982   3.151   3.574   4.932
 3028SOL    HW1 9983   3.234   3.561   4.986
 3028SOL    HW2 9984   3.077   3.518   4.971
 3029SOL     OW 9985   6.597   3.427   4.931
 3029SOL    HW1 9986   6.657   3.358   4.971
 3029SOL    HW2 9987   6.606   3.513   4.981
 3030SOL     OW 9988   1.930   2.558   6.654
 3030SOL    HW1 9989   1.900   2.590   6.744
 3030SOL    HW2 9990   1.994   2.624   6.614
 3031SOL     OW 9991   1.233   5.279   0.737
 3031SOL    HW1 9992   1.286   5.349   0.689
 3031SOL    HW2 9993   1.143   5.316   0.760
 3032SOL     OW 9994   2.317   6.754   3.628
 3032SOL    HW1 9995   2.380   6.812   3.577
 3032SOL    HW2 9996   2.224   6.766   3.594
 3033SOL     OW 9997   1.389   1.920   6.108
 3033SOL    HW1 9998   1.480   1.894   6.078
 3033SOL    HW2 9999   1.361   2.005   6.062
 3034SOL     OW10000   5.402   3.103   2.806
 3034SOL    HW110001   5.427   3.162   2.730
 3034SOL    HW210002   5.360   3.019   2.771
 3035SOL     OW10003   0.146   3.351   6.927
 3035SOL    HW110004   0.158   3.439   6.881
 3035SOL    HW210005   0.180   3.357   0.002
 3036SOL     OW10006   3.160   2.375   5.600
 3036SOL    HW110007   3.240   2.413   5.647
 3036SOL    HW210008   3.076   2.409   5.644
 3037SOL     OW10009   0.943   5.396   6.503
 3037SOL    HW110010   0.927   5.313   6.449
 3037SOL    HW210011   0.956   5.473   6.442
 3038SOL     OW10012   5.846   5.367   6.318
 3038SOL    HW110013   5.766   5.426   6.306
 3038SOL    HW210014   5.918   5.396   6.254
 3039SOL     OW10015   6.292   3.902   5.859
 3039SOL    HW110016   6.253   3.963   5.790
 3039SOL    HW210017   6.283   3.807   5.829
 3040SOL     OW10018   4.871   5.641   6.042
 3040SOL    HW110019   4.819   5.659   5.959
 3040SOL    HW210020   4.954   5.696   6.042
 3041SOL     OW10021   1.002   4.457   5.634
 3041SOL    HW110022   1.028   4.361   5.628
 3041SOL    HW210023   1.083   4.512   5.655
 3042SOL     OW10024   0.033   5.248   3.681
 3042SOL    HW110025   7.003   5.331   3.657
 3042SOL    HW210026   6.986   5.175   3.699
 3043SOL     OW10027   2.755   5.178   1.516
 3043SOL    HW110028   2.712   5.195   1.427
 3043SOL    HW210029   2.847   5.143   1.502
 3044SOL     OW10030   3.872   3.383   4.496
 3044SOL    HW110031   3.943   3.317   4.471
 3044SOL    HW210032   3.862   3.450   4.422
 3045SOL     OW10033   5.457   1.779   2.220
 3045SOL    HW110034   5.357   1.771   2.216
 3045SOL    HW210035   5.485   1.789   2.316
 3046SOL     OW10036   5.984   6.551   1.713
 3046SOL    HW110037   5.967   6.649   1.702
 3046SOL    HW210038   5.899   6.505   1.737
 3047SOL     OW10039   6.374   1.171   4.181
 3047SOL    HW110040   6.408   1.125   4.099
 3047SOL    HW210041   6.371   1.270   4.165
 3048SOL     OW10042   4.338   4.846   1.629
 3048SOL    HW110043   4.319   4.750   1.647
 3048SOL    HW210044   4.431   4.868   1.660
 3049SOL     OW10045   0.754   2.091   2.562
 3049SOL    HW110046   0.807   2.143   2.495
 3049SOL    HW210047   0.657   2.116   2.555
 3050SOL     OW10048   3.245   2.288   6.559
 3050SOL    HW110049   3.306   2.226   6.610
 3050SOL    HW210050   3.291   2.320   6.477
 3051SOL     OW10051   2.617   5.508   5.175
 3051SOL    HW110052   2.597   5.602   5.205
 3051SOL    HW210053   2.675   5.511   5.094
 3052SOL     OW10054   6.866   6.642   3.639
 3052SOL    HW110055   6.794   6.711   3.638
 3052SOL    HW210056   6.942   6.672   3.580
 3053SOL     OW10057   0.814   3.836   6.778
 3053SOL    HW110058   0.767   3.924   6.775
 3053SOL    HW210059   0.904   3.844   6.736
 3054SOL     OW10060   5.426   0.514   2.855
 3054SOL    HW110061   5.414   0.550   2.947
 3054SOL    HW210062   5.397   0.418   2.852
 3055SOL     OW10063   5.961   6.447   0.238
 3055SOL    HW110064   5.979   6.447   0.336
 3055SOL    HW210065   6.039   6.408   0.189
 3056SOL     OW10066   3.961   1.731   6.622
 3056SOL    HW110067   3.909   1.646   6.623
 3056SOL    HW210068   4.044   1.718   6.569
 3057SOL     OW10069   5.252   3.870   3.209
 3057SOL    HW110070   5.278   3.867   3.113
 3057SOL    HW210071   5.247   3.777   3.245
 3058SOL     OW10072   0.585   5.419   6.068
 3058SOL    HW110073   0.638   5.334   6.060
 3058SOL    HW210074   0.515   5.421   5.996
 3059SOL     OW10075   1.489   1.976   2.101
 3059SOL    HW110076   1.414   2.039   2.119
 3059SOL    HW210077   1.571   2.008   2.148
 3060SOL     OW10078   5.573   4.017   3.589
 3060SOL    HW110079   5.549   3.945   3.654
 3060SOL    HW210080   5.506   4.018   3.515
 3061SOL     OW10081   5.829   6.880   3.767
 3061SOL    HW110082   5.784   6.840   3.847
 3061SOL    HW210083   5.767   6.874   3.688
 3062SOL     OW10084   3.708   5.188   1.284
 3062SOL    HW110085   3.681   5.155   1.194
 3062SOL    HW210086   3.804   5.215   1.282
 3063SOL     OW10087   6.425   4.804   1.868
 3063SOL    HW110088   6.464   4.725   1.916
 3063SOL    HW210089   6.412   4.879   1.933
 3064SOL     OW10090   5.132   2.402   6.748
 3064SOL    HW110091   5.046   2.352   6.763
 3064SOL    HW210092   5.160   2.392   6.653
 3065SOL     OW10093   5.370   1.137   6.409
 3065SOL    HW110094   5.445   1.175   6.355
 3065SOL    HW210095   5.322   1.211   6.456
 3066SOL     OW10096   5.359   0.002   5.497
 3066SOL    HW110097   5.281   0.046   5.541
 3066SOL    HW210098   5.341   6.923   5.485
 3067SOL     OW10099   1.357   2.349   5.150
 3067SOL    HW110100   1.291   2.316   5.083
 3067SOL    HW210101   1.316   2.423   5.204
 3068SOL     OW10102   6.494   0.391   0.382
 3068SOL    HW110103   6.593   0.399   0.374
 3068SOL    HW210104   6.465   0.301   0.350
 3069SOL     OW10105   5.191   6.790   4.069
 3069SOL    HW110106   5.263   6.785   4.139
 3069SOL    HW210107   5.102   6.774   4.112
 3070SOL     OW10108   2.043   0.851   1.175
 3070SOL    HW110109   2.055   0.942   1.216
 3070SOL    HW210110   2.035   0.861   1.076
 3071SOL     OW10111   5.860   4.728   5.488
 3071SOL    HW110112   5.813   4.693   5.406
 3071SOL    HW210113   5.799   4.788   5.538
 3072SOL     OW10114   2.187   6.439   6.291
 3072SOL    HW110115   2.097   6.483   6.284
 3072SOL    HW210116   2.180   6.359   6.351
 3073SOL     OW10117   0.272   5.393   2.045
 3073SOL    HW110118   0.356   5.446   2.063
 3073SOL    HW210119   0.294   5.317   1.983
 3074SOL     OW10120   3.191   2.911   1.559
 3074SOL    HW110121   3.204   2.821   1.518
 3074SOL    HW210122   3.265   2.972   1.530
 3075SOL     OW10123   3.990   5.063   1.393
 3075SOL    HW110124   3.899   5.022   1.399
 3075SOL    HW210125   3.981   5.161   1.374
 3076SOL     OW10126   1.119   1.152   4.544
 3076SOL    HW110127   1.128   1.145   4.643
 3076SOL    HW210128   1.209   1.170   4.504
 3077SOL     OW10129   6.806   3.938   1.831
 3077SOL    HW110130   6.882   3.901   1.885
 3077SOL    HW210131   6.731   3.872   1.829
 3078SOL     OW10132   0.417   3.774   1.991
 3078SOL    HW110133   0.510   3.745   1.966
 3078SOL    HW210134   0.399   3.750   2.086
 3079SOL     OW10135   2.157   3.777   4.454
 3079SOL    HW110136   2.171   3.830   4.370
 3079SOL    HW210137   2.186   3.682   4.438
 3080SOL     OW10138   4.330   5.025   1.341
 3080SOL    HW110139   4.423   4.990   1.335
 3080SOL    HW210140   4.287   5.021   1.251
 3081SOL     OW10141   2.137   3.735   6.341
 3081SOL    HW110142   2.074   3.715   6.417
 3081SOL    HW210143   2.107   3.818   6.294
 3082SOL     OW10144   5.379   4.541   5.366
 3082SOL    HW110145   5.388   4.488   5.282
 3082SOL    HW210146   5.320   4.492   5.430
 3083SOL     OW10147   3.519   5.373   1.746
 3083SOL    HW110148   3.457   5.451   1.731
 3083SOL    HW210149   3.507   5.306   1.674
 3084SOL     OW10150   6.752   4.924   3.603
 3084SOL    HW110151   6.833   4.867   3.588
 3084SOL    HW210152   6.775   5.000   3.663
 3085SOL     OW10153   6.138   5.532   0.386
 3085SOL    HW110154   6.119   5.608   0.447
 3085SOL    HW210155   6.057   5.475   0.377
 3086SOL     OW10156   6.610   6.167   6.273
 3086SOL    HW110157   6.619   6.266   6.264
 3086SOL    HW210158   6.518   6.144   6.304
 3087SOL     OW10159   3.800   0.423   2.354
 3087SOL    HW110160   3.724   0.486   2.371
 3087SOL    HW210161   3.765   0.331   2.339
 3088SOL     OW10162   2.140   3.716   5.578
 3088SOL    HW110163   2.152   3.812   5.552
 3088SOL    HW210164   2.223   3.683   5.622
 3089SOL     OW10165   4.576   4.995   5.723
 3089SOL    HW110166   4.570   4.991   5.623
 3089SOL    HW210167   4.487   5.023   5.760
 3090SOL     OW10168   0.776   2.640   2.342
 3090SOL    HW110169   0.865   2.615   2.381
 3090SOL    HW210170   0.771   2.739   2.332
 3091SOL     OW10171   0.832   2.627   1.175
 3091SOL    HW110172   0.771   2.560   1.134
 3091SOL    HW210173   0.886   2.584   1.247
 3092SOL     OW10174   6.178   1.343   2.012
 3092SOL    HW110175   6.256   1.355   1.951
 3092SOL    HW210176   6.201   1.277   2.083
 3093SOL     OW10177   6.712   5.518   6.664
 3093SOL    HW110178   6.728   5.616   6.671
 3093SOL    HW210179   6.758   5.471   6.740
 3094SOL     OW10180   2.596   1.752   6.662
 3094SOL    HW110181   2.683   1.725   6.703
 3094SOL    HW210182   2.603   1.745   6.562
 3095SOL     OW10183   1.519   4.107   5.150
 3095SOL    HW110184   1.583   4.030   5.147
 3095SOL    HW210185   1.445   4.092   5.085
 3096SOL     OW10186   1.337   3.146   4.094
 3096SOL    HW110187   1.274   3.224   4.091
 3096SOL    HW210188   1.384   3.146   4.181
 3097SOL     OW10189   5.418   2.807   5.132
 3097SOL    HW110190   5.438   2.725   5.186
 3097SOL    HW210191   5.421   2.887   5.192
 3098SOL     OW10192   1.879   3.095   2.816
 3098SOL    HW110193   1.825   3.062   2.894
 3098SOL    HW210194   1.825   3.085   2.733
 3099SOL     OW10195   0.583   0.078   4.851
 3099SOL    HW110196   0.580   0.125   4.763
 3099SOL    HW210197   0.669   0.028   4.859
 3100SOL     OW10198   5.622   4.687   1.697
 3100SOL    HW110199   5.593   4.767   1.644
 3100SOL    HW210200   5.568   4.607   1.669
 3101SOL     OW10201   4.835   0.193   5.001
 3101SOL    HW110202   4.778   0.230   5.075
 3101SOL    HW210203   4.920   0.158   5.039
 3102SOL     OW10204   6.097   4.647   2.161
 3102SOL    HW110205   6.045   4.603   2.234
 3102SOL    HW210206   6.191   4.663   2.192
 3103SOL     OW10207   2.056   2.163   1.521
 3103SOL    HW110208   2.037   2.067   1.538
 3103SOL    HW210209   2.034   2.216   1.603
 3104SOL     OW10210   5.653   2.762   4.970
 3104SOL    HW110211   5.582   2.764   5.040
 3104SOL    HW210212   5.684   2.668   4.956
 3105SOL     OW10213   5.681   3.753   0.554
 3105SOL    HW110214   5.625   3.670   0.561
 3105SOL    HW210215   5.770   3.729   0.515
 3106SOL     OW10216   5.065   1.619   5.283
 3106SOL    HW110217   4.971   1.620   5.318
 3106SOL    HW210218   5.107   1.531   5.304
 3107SOL     OW10219   3.237   1.873   5.333
 3107SOL    HW110220   3.251   1.948   5.399
 3107SOL    HW210221   3.222   1.911   5.242
 3108SOL     OW10222   2.252   4.292   3.114
 3108SOL    HW110223   2.197   4.227   3.061
 3108SOL    HW210224   2.219   4.294   3.209
 3109SOL     OW10225   6.941   6.667   3.942
 3109SOL    HW110226   6.900   6.736   4.002
 3109SOL    HW210227   6.881   6.651   3.864
 3110SOL     OW10228   0.917   5.644   3.116
 3110SOL    HW110229   0.917   5.546   3.098
 3110SOL    HW210230   0.920   5.694   3.030
 3111SOL     OW10231   6.170   4.067   4.179
 3111SOL    HW110232   6.147   4.098   4.087
 3111SOL    HW210233   6.144   4.138   4.245
 3112SOL     OW10234   3.835   1.191   6.842
 3112SOL    HW110235   3.748   1.163   6.800
 3112SOL    HW210236   3.894   1.111   6.850
 3113SOL     OW10237   1.475   6.363   3.197
 3113SOL    HW110238   1.508   6.270   3.180
 3113SOL    HW210239   1.503   6.423   3.121
 3114SOL     OW10240   4.661   0.605   5.662
 3114SOL    HW110241   4.695   0.520   5.622
 3114SOL    HW210242   4.681   0.605   5.760
 3115SOL     OW10243   5.270   5.390   5.329
 3115SOL    HW110244   5.304   5.484   5.333
 3115SOL    HW210245   5.288   5.344   5.416
 3116SOL     OW10246   0.655   1.267   6.766
 3116SOL    HW110247   0.690   1.344   6.712
 3116SOL    HW210248   0.575   1.296   6.818
 3117SOL     OW10249   4.508   0.138   0.536
 3117SOL    HW110250   4.419   0.094   0.525
 3117SOL    HW210251   4.510   0.224   0.485
 3118SOL     OW10252   1.699   1.100   3.509
 3118SOL    HW110253   1.692   1.084   3.411
 3118SOL    HW210254   1.681   1.197   3.528
 3119SOL     OW10255   4.681   5.751   4.765
 3119SOL    HW110256   4.589   5.771   4.733
 3119SOL    HW210257   4.731   5.837   4.778
 3120SOL     OW10258   2.166   5.156   6.463
 3120SOL    HW110259   2.175   5.109   6.375
 3120SOL    HW210260   2.249   5.209   6.481
 3121SOL     OW10261   3.914   2.145   4.409
 3121SOL    HW110262   3.923   2.095   4.323
 3121SOL    HW210263   3.993   2.205   4.420
 3122SOL     OW10264   5.459   4.915   5.794
 3122SOL    HW110265   5.452   4.823   5.832
 3122SOL    HW210266   5.552   4.931   5.761
 3123SOL     OW10267   1.446   1.249   2.845
 3123SOL    HW110268   1.430   1.300   2.929
 3123SOL    HW210269   1.543   1.227   2.836
 3124SOL     OW10270   4.652   0.089   4.828
 3124SOL    HW110271   4.709   0.023   4.779
 3124SOL    HW210272   4.707   0.136   4.897
 3125SOL     OW10273   1.960   1.373   5.616
 3125SOL    HW110274   2.021   1.413   5.685
 3125SOL    HW210275   1.885   1.437   5.597
 3126SOL     OW10276   5.094   4.631   5.798
 3126SOL    HW110277   5.091   4.682   5.712
 3126SOL    HW210278   5.040   4.680   5.867
 3127SOL     OW10279   0.418   1.362   5.193
 3127SOL    HW110280   0.320   1.342   5.193
 3127SOL    HW210281   0.432   1.458   5.218
 3128SOL     OW10282   3.415   0.566   0.564
 3128SOL    HW110283   3.460   0.540   0.478
 3128SOL    HW210284   3.484   0.599   0.628
 3129SOL     OW10285   4.192   3.795   0.202
 3129SOL    HW110286   4.242   3.735   0.264
 3129SOL    HW210287   4.123   3.741   0.153
 3130SOL     OW10288   0.187   5.730   2.238
 3130SOL    HW110289   0.180   5.706   2.141
 3130SOL    HW210290   0.099   5.716   2.283
 3131SOL     OW10291   6.420   4.322   3.125
 3131SOL    HW110292   6.436   4.420   3.139
 3131SOL    HW210293   6.495   4.270   3.165
 3132SOL     OW10294   4.887   3.968   0.419
 3132SOL    HW110295   4.875   3.925   0.330
 3132SOL    HW210296   4.977   3.945   0.456
 3133SOL     OW10297   4.790   0.203   4.509
 3133SOL    HW110298   4.701   0.197   4.555
 3133SOL    HW210299   4.788   0.147   4.426
 3134SOL     OW10300   6.244   4.959   2.643
 3134SOL    HW110301   6.299   4.931   2.722
 3134SOL    HW210302   6.280   4.915   2.561
 3135SOL     OW10303   3.752   5.504   6.933
 3135SOL    HW110304   3.812   5.471   6.860
 3135SOL    HW210305   3.743   5.603   6.927
 3136SOL     OW10306   6.057   0.573   3.277
 3136SOL    HW110307   5.965   0.596   3.245
 3136SOL    HW210308   6.073   0.617   3.365
 3137SOL     OW10309   5.164   6.027   0.583
 3137SOL    HW110310   5.241   6.029   0.519
 3137SOL    HW210311   5.099   5.956   0.555
 3138SOL     OW10312   6.680   6.637   5.077
 3138SOL    HW110313   6.711   6.728   5.051
 3138SOL    HW210314   6.612   6.645   5.150
 3139SOL     OW10315   1.977   5.330   1.880
 3139SOL    HW110316   2.001   5.301   1.972
 3139SOL    HW210317   1.912   5.265   1.840
 3140SOL     OW10318   0.201   6.399   6.959
 3140SOL    HW110319   0.283   6.420   7.012
 3140SOL    HW210320   0.123   6.391   0.002
 3141SOL     OW10321   5.625   2.071   6.487
 3141SOL    HW110322   5.608   1.994   6.548
 3141SOL    HW210323   5.592   2.155   6.530
 3142SOL     OW10324   4.924   0.799   3.780
 3142SOL    HW110325   4.947   0.826   3.874
 3142SOL    HW210326   4.846   0.736   3.782
 3143SOL     OW10327   6.770   1.287   0.758
 3143SOL    HW110328   6.863   1.323   0.757
 3143SOL    HW210329   6.721   1.320   0.677
 3144SOL     OW10330   3.529   4.692   0.172
 3144SOL    HW110331   3.565   4.701   0.265
 3144SOL    HW210332   3.448   4.750   0.162
 3145SOL     OW10333   0.608   6.085   0.109
 3145SOL    HW110334   0.704   6.074   0.133
 3145SOL    HW210335   0.556   6.006   0.141
 3146SOL     OW10336   6.712   1.839   4.223
 3146SOL    HW110337   6.775   1.795   4.287
 3146SOL    HW210338   6.735   1.936   4.215
 3147SOL     OW10339   3.906   6.349   0.316
 3147SOL    HW110340   3.981   6.350   0.250
 3147SOL    HW210341   3.905   6.262   0.364
 3148SOL     OW10342   6.736   5.230   1.434
 3148SOL    HW110343   6.763   5.326   1.429
 3148SOL    HW210344   6.815   5.172   1.418
 3149SOL     OW10345   3.453   2.668   0.129
 3149SOL    HW110346   3.451   2.755   0.079
 3149SOL    HW210347   3.360   2.633   0.137
 3150SOL     OW10348   0.159   6.523   5.686
 3150SOL    HW110349   0.102   6.601   5.661
 3150SOL    HW210350   0.104   6.457   5.738
 3151SOL     OW10351   6.923   0.728   5.359
 3151SOL    HW110352   6.928   0.818   5.402
 3151SOL    HW210353   6.981   0.726   5.278
 3152SOL     OW10354   1.761   2.731   5.394
 3152SOL    HW110355   1.800   2.758   5.306
 3152SOL    HW210356   1.661   2.730   5.388
 3153SOL     OW10357   5.464   5.581   1.819
 3153SOL    HW110358   5.502   5.489   1.823
 3153SOL    HW210359   5.502   5.630   1.740
 3154SOL     OW10360   4.126   1.631   0.666
 3154SOL    HW110361   4.035   1.639   0.708
 3154SOL    HW210362   4.196   1.637   0.737
 3155SOL     OW10363   0.902   4.950   6.947
 3155SOL    HW110364   0.872   5.043   6.926
 3155SOL    HW210365   0.991   4.933   6.905
 3156SOL     OW10366   4.197   4.239   1.199
 3156SOL    HW110367   4.295   4.224   1.211
 3156SOL    HW210368   4.166   4.194   1.115
 3157SOL     OW10369   1.226   0.699   4.835
 3157SOL    HW110370   1.285   0.777   4.853
 3157SOL    HW210371   1.194   0.661   4.922
 3158SOL     OW10372   1.903   0.898   5.652
 3158SOL    HW110373   1.821   0.842   5.658
 3158SOL    HW210374   1.880   0.994   5.670
 3159SOL     OW10375   5.002   0.439   0.783
 3159SOL    HW110376   5.055   0.366   0.827
 3159SOL    HW210377   5.062   0.494   0.725
 3160SOL     OW10378   1.927   0.648   5.443
 3160SOL    HW110379   1.982   0.697   5.375
 3160SOL    HW210380   1.849   0.605   5.398
 3161SOL     OW10381   2.047   3.213   2.184
 3161SOL    HW110382   2.073   3.299   2.139
 3161SOL    HW210383   1.962   3.179   2.144
 3162SOL     OW10384   1.028   5.352   1.491
 3162SOL    HW110385   1.012   5.325   1.397
 3162SOL    HW210386   1.115   5.400   1.498
 3163SOL     OW10387   4.337   4.354   0.761
 3163SOL    HW110388   4.404   4.309   0.701
 3163SOL    HW210389   4.381   4.431   0.807
 3164SOL     OW10390   2.697   6.736   3.586
 3164SOL    HW110391   2.793   6.739   3.559
 3164SOL    HW210392   2.674   6.819   3.636
 3165SOL     OW10393   1.307   5.878   5.997
 3165SOL    HW110394   1.312   5.978   5.999
 3165SOL    HW210395   1.312   5.846   5.903
 3166SOL     OW10396   4.870   1.049   5.038
 3166SOL    HW110397   4.964   1.073   5.065
 3166SOL    HW210398   4.814   1.132   5.036
 3167SOL     OW10399   5.591   3.007   1.183
 3167SOL    HW110400   5.578   2.949   1.103
 3167SOL    HW210401   5.515   3.071   1.191
 3168SOL     OW10402   4.661   1.605   0.372
 3168SOL    HW110403   4.714   1.534   0.418
 3168SOL    HW210404   4.705   1.694   0.386
 3169SOL     OW10405   1.781   4.433   1.882
 3169SOL    HW110406   1.790   4.445   1.783
 3169SOL    HW210407   1.767   4.523   1.925
 3170SOL     OW10408   2.052   3.749   3.677
 3170SOL    HW110409   2.114   3.787   3.608
 3170SOL    HW210410   1.968   3.803   3.681
 3171SOL     OW10411   5.204   1.747   3.764
 3171SOL    HW110412   5.274   1.786   3.705
 3171SOL    HW210413   5.114   1.778   3.735
 3172SOL     OW10414   5.497   4.415   1.690
 3172SOL    HW110415   5.453   4.427   1.601
 3172SOL    HW210416   5.435   4.367   1.751
 3173SOL     OW10417   5.045   2.623   0.663
 3173SOL    HW110418   5.096   2.549   0.620
 3173SOL    HW210419   4.952   2.626   0.626
 3174SOL     OW10420   3.178   2.378   5.954
 3174SOL    HW110421   3.213   2.463   5.993
 3174SOL    HW210422   3.082   2.389   5.930
 3175SOL     OW10423   5.507   0.318   5.916
 3175SOL    HW110424   5.557   0.251   5.861
 3175SOL    HW210425   5.478   0.394   5.857
 3176SOL     OW10426   0.444   4.996   3.614
 3176SOL    HW110427   0.532   5.040   3.632
 3176SOL    HW210428   0.397   4.978   3.701
 3177SOL     OW10429   5.453   3.135   3.411
 3177SOL    HW110430   5.416   3.210   3.355
 3177SOL    HW210431   5.470   3.056   3.354
 3178SOL     OW10432   0.243   0.626   2.319
 3178SOL    HW110433   0.154   0.671   2.308
 3178SOL    HW210434   0.290   0.666   2.398
 3179SOL     OW10435   1.323   2.771   2.458
 3179SOL    HW110436   1.245   2.753   2.518
 3179SOL    HW210437   1.303   2.852   2.402
 3180SOL     OW10438   0.058   5.646   0.239
 3180SOL    HW110439   6.996   5.656   0.297
 3180SOL    HW210440   0.140   5.638   0.296
 3181SOL     OW10441   1.263   6.470   5.627
 3181SOL    HW110442   1.177   6.419   5.623
 3181SOL    HW210443   1.267   6.520   5.714
 3182SOL     OW10444   1.980   0.499   0.987
 3182SOL    HW110445   1.993   0.518   1.084
 3182SOL    HW210446   2.066   0.470   0.947
 3183SOL     OW10447   3.872   3.016   1.226
 3183SOL    HW110448   3.857   2.988   1.321
 3183SOL    HW210449   3.941   3.088   1.223
 3184SOL     OW10450   6.366   2.034   4.213
 3184SOL    HW110451   6.419   1.972   4.155
 3184SOL    HW210452   6.268   2.018   4.198
 3185SOL     OW10453   0.429   5.933   6.099
 3185SOL    HW110454   0.483   6.005   6.143
 3185SOL    HW210455   0.338   5.930   6.139
 3186SOL     OW10456   0.170   2.561   6.196
 3186SOL    HW110457   0.159   2.462   6.203
 3186SOL    HW210458   0.268   2.583   6.189
 3187SOL     OW10459   5.161   6.276   3.092
 3187SOL    HW110460   5.143   6.374   3.105
 3187SOL    HW210461   5.086   6.235   3.040
 3188SOL     OW10462   1.893   6.045   0.166
 3188SOL    HW110463   1.793   6.033   0.161
 3188SOL    HW210464   1.934   5.966   0.212
 3189SOL     OW10465   3.570   1.526   5.460
 3189SOL    HW110466   3.489   1.472   5.440
 3189SOL    HW210467   3.623   1.482   5.533
 3190SOL     OW10468   5.932   6.369   4.513
 3190SOL    HW110469   5.839   6.380   4.549
 3190SOL    HW210470   5.943   6.278   4.474
 3191SOL     OW10471   3.520   5.413   1.252
 3191SOL    HW110472   3.553   5.499   1.292
 3191SOL    HW210473   3.590   5.343   1.262
 3192SOL     OW10474   5.460   1.066   2.519
 3192SOL    HW110475   5.408   1.094   2.438
 3192SOL    HW210476   5.466   1.143   2.583
 3193SOL     OW10477   3.428   6.826   4.955
 3193SOL    HW110478   3.362   6.900   4.941
 3193SOL    HW210479   3.388   6.758   5.017
 3194SOL     OW10480   1.818   0.079   6.608
 3194SOL    HW110481   1.757   0.107   6.534
 3194SOL    HW210482   1.891   0.021   6.571
 3195SOL     OW10483   0.822   1.156   1.193
 3195SOL    HW110484   0.874   1.237   1.219
 3195SOL    HW210485   0.774   1.173   1.107
 3196SOL     OW10486   5.400   6.670   3.456
 3196SOL    HW110487   5.372   6.754   3.503
 3196SOL    HW210488   5.482   6.633   3.501
 3197SOL     OW10489   2.389   0.605   6.418
 3197SOL    HW110490   2.293   0.615   6.444
 3197SOL    HW210491   2.438   0.554   6.489
 3198SOL     OW10492   5.674   2.911   3.704
 3198SOL    HW110493   5.582   2.900   3.664
 3198SOL    HW210494   5.679   2.860   3.789
 3199SOL     OW10495   5.158   3.743   2.778
 3199SOL    HW110496   5.198   3.830   2.803
 3199SOL    HW210497   5.228   3.685   2.736
 3200SOL     OW10498   5.347   3.544   3.890
 3200SOL    HW110499   5.442   3.563   3.917
 3200SOL    HW210500   5.296   3.630   3.884
 3201SOL     OW10501   5.940   4.221   2.184
 3201SOL    HW110502   6.016   4.228   2.120
 3201SOL    HW210503   5.872   4.158   2.147
 3202SOL     OW10504   2.512   3.609   6.655
 3202SOL    HW110505   2.511   3.559   6.742
 3202SOL    HW210506   2.601   3.653   6.644
 3203SOL     OW10507   3.108   6.938   1.130
 3203SOL    HW110508   3.202   6.908   1.148
 3203SOL    HW210509   3.106   6.996   1.049
 3204SOL     OW10510   3.780   1.387   4.070
 3204SOL    HW110511   3.743   1.303   4.108
 3204SOL    HW210512   3.706   1.452   4.054
 3205SOL     OW10513   4.706   3.601   6.076
 3205SOL    HW110514   4.630   3.579   6.137
 3205SOL    HW210515   4.670   3.625   5.985
 3206SOL     OW10516   2.567   3.844   1.358
 3206SOL    HW110517   2.661   3.826   1.327
 3206SOL    HW210518   2.570   3.887   1.448
 3207SOL     OW10519   2.162   5.422   4.984
 3207SOL    HW110520   2.234   5.411   5.052
 3207SOL    HW210521   2.164   5.344   4.921
 3208SOL     OW10522   6.567   5.027   6.587
 3208SOL    HW110523   6.571   5.102   6.521
 3208SOL    HW210524   6.642   4.963   6.569
 3209SOL     OW10525   5.232   6.078   6.172
 3209SOL    HW110526   5.167   6.040   6.237
 3209SOL    HW210527   5.193   6.076   6.080
 3210SOL     OW10528   5.376   5.946   1.726
 3210SOL    HW110529   5.442   5.976   1.795
 3210SOL    HW210530   5.313   5.880   1.766
 3211SOL     OW10531   2.145   6.237   6.457
 3211SOL    HW110532   2.124   6.204   6.549
 3211SOL    HW210533   2.069   6.216   6.396
 3212SOL     OW10534   2.375   0.058   3.307
 3212SOL    HW110535   2.452   0.100   3.259
 3212SOL    HW210536   2.291   0.107   3.285
 3213SOL     OW10537   1.230   6.753   6.031
 3213SOL    HW110538   1.302   6.800   6.082
 3213SOL    HW210539   1.149   6.812   6.025
 3214SOL     OW10540   3.402   0.818   2.750
 3214SOL    HW110541   3.451   0.734   2.771
 3214SOL    HW210542   3.335   0.837   2.823
 3215SOL     OW10543   1.719   3.466   1.984
 3215SOL    HW110544   1.709   3.531   1.908
 3215SOL    HW210545   1.817   3.449   2.000
 3216SOL     OW10546   6.109   4.693   1.014
 3216SOL    HW110547   6.071   4.774   0.967
 3216SOL    HW210548   6.073   4.689   1.107
 3217SOL     OW10549   0.190   6.251   2.354
 3217SOL    HW110550   0.250   6.176   2.324
 3217SOL    HW210551   0.152   6.296   2.273
 3218SOL     OW10552   5.326   1.054   2.852
 3218SOL    HW110553   5.364   1.118   2.785
 3218SOL    HW210554   5.291   1.105   2.930
 3219SOL     OW10555   6.761   1.440   4.985
 3219SOL    HW110556   6.711   1.490   5.056
 3219SOL    HW210557   6.859   1.457   4.996
 3220SOL     OW10558   0.129   4.487   6.334
 3220SOL    HW110559   0.209   4.438   6.369
 3220SOL    HW210560   0.140   4.585   6.350
 3221SOL     OW10561   3.140   1.543   1.816
 3221SOL    HW110562   3.099   1.452   1.816
 3221SOL    HW210563   3.113   1.592   1.899
 3222SOL     OW10564   2.906   1.038   3.758
 3222SOL    HW110565   2.834   1.030   3.689
 3222SOL    HW210566   2.902   1.128   3.800
 3223SOL     OW10567   1.600   5.235   0.343
 3223SOL    HW110568   1.589   5.319   0.289
 3223SOL    HW210569   1.510   5.201   0.370
 3224SOL     OW10570   3.853   1.800   3.882
 3224SOL    HW110571   3.889   1.709   3.904
 3224SOL    HW210572   3.795   1.831   3.957
 3225SOL     OW10573   4.358   1.249   4.201
 3225SOL    HW110574   4.340   1.158   4.236
 3225SOL    HW210575   4.445   1.250   4.152
 3226SOL     OW10576   5.738   0.355   0.551
 3226SOL    HW110577   5.817   0.417   0.555
 3226SOL    HW210578   5.655   0.407   0.573
 3227SOL     OW10579   5.678   4.588   5.248
 3227SOL    HW110580   5.589   4.595   5.292
 3227SOL    HW210581   5.678   4.511   5.184
 3228SOL     OW10582   2.429   4.311   0.223
 3228SOL    HW110583   2.369   4.350   0.154
 3228SOL    HW210584   2.501   4.257   0.179
 3229SOL     OW10585   1.921   2.012   0.467
 3229SOL    HW110586   1.822   2.021   0.465
 3229SOL    HW210587   1.958   2.066   0.543
 3230SOL     OW10588   3.063   6.150   5.517
 3230SOL    HW110589   3.102   6.105   5.597
 3230SOL    HW210590   2.984   6.205   5.545
 3231SOL     OW10591   1.944   1.795   2.703
 3231SOL    HW110592   1.945   1.697   2.685
 3231SOL    HW210593   2.037   1.832   2.691
 3232SOL     OW10594   3.592   4.975   4.561
 3232SOL    HW110595   3.503   5.013   4.540
 3232SOL    HW210596   3.585   4.918   4.643
 3233SOL     OW10597   1.031   0.832   0.400
 3233SOL    HW110598   0.940   0.820   0.441
 3233SOL    HW210599   1.023   0.886   0.316
 3234SOL     OW10600   2.948   2.874   0.978
 3234SOL    HW110601   2.878   2.923   1.030
 3234SOL    HW210602   2.929   2.881   0.880
 3235SOL     OW10603   1.220   0.416   3.572
 3235SOL    HW110604   1.308   0.384   3.608
 3235SOL    HW210605   1.233   0.450   3.478
 3236SOL     OW10606   4.535   1.259   0.488
 3236SOL    HW110607   4.607   1.296   0.430
 3236SOL    HW210608   4.485   1.187   0.440
 3237SOL     OW10609   5.793   1.893   5.431
 3237SOL    HW110610   5.756   1.925   5.518
 3237SOL    HW210611   5.780   1.794   5.424
 3238SOL     OW10612   6.407   4.966   1.613
 3238SOL    HW110613   6.462   5.047   1.630
 3238SOL    HW210614   6.416   4.903   1.690
 3239SOL     OW10615   6.683   0.172   4.655
 3239SOL    HW110616   6.692   0.073   4.650
 3239SOL    HW210617   6.661   0.209   4.564
 3240SOL     OW10618   6.892   0.584   0.094
 3240SOL    HW110619   6.962   0.654   0.105
 3240SOL    HW210620   6.803   0.621   0.124
 3241SOL     OW10621   6.419   3.018   5.685
 3241SOL    HW110622   6.398   2.932   5.733
 3241SOL    HW210623   6.505   3.055   5.721
 3242SOL     OW10624   6.027   3.805   4.627
 3242SOL    HW110625   6.017   3.715   4.669
 3242SOL    HW210626   6.070   3.868   4.693
 3243SOL     OW10627   6.142   4.499   4.229
 3243SOL    HW110628   6.075   4.451   4.171
 3243SOL    HW210629   6.208   4.433   4.265
 3244SOL     OW10630   4.789   0.133   0.101
 3244SOL    HW110631   4.877   0.111   0.143
 3244SOL    HW210632   4.756   0.055   0.048
 3245SOL     OW10633   3.908   6.911   5.028
 3245SOL    HW110634   3.992   6.897   4.976
 3245SOL    HW210635   3.881   7.007   5.022
 3246SOL     OW10636   0.174   0.512   2.591
 3246SOL    HW110637   0.272   0.520   2.612
 3246SOL    HW210638   0.162   0.467   2.503
 3247SOL     OW10639   0.652   4.049   3.851
 3247SOL    HW110640   0.589   4.125   3.836
 3247SOL    HW210641   0.695   4.024   3.765
 3248SOL     OW10642   5.378   2.183   3.789
 3248SOL    HW110643   5.312   2.132   3.843
 3248SOL    HW210644   5.397   2.133   3.704
 3249SOL     OW10645   3.118   3.997   3.408
 3249SOL    HW110646   3.047   4.068   3.406
 3249SOL    HW210647   3.197   4.031   3.459
 3250SOL     OW10648   4.647   5.280   2.644
 3250SOL    HW110649   4.672   5.331   2.562
 3250SOL    HW210650   4.610   5.191   2.618
 3251SOL     OW10651   2.636   1.786   3.177
 3251SOL    HW110652   2.582   1.870   3.178
 3251SOL    HW210653   2.667   1.768   3.083
 3252SOL     OW10654   1.919   0.748   2.976
 3252SOL    HW110655   2.005   0.697   2.971
 3252SOL    HW210656   1.849   0.699   2.924
 3253SOL     OW10657   6.586   3.480   0.117
 3253SOL    HW110658   6.541   3.409   0.065
 3253SOL    HW210659   6.590   3.564   0.063
 3254SOL     OW10660   6.053   6.612   0.860
 3254SOL    HW110661   5.964   6.622   0.816
 3254SOL    HW210662   6.062   6.519   0.896
 3255SOL     OW10663   4.987   6.320   1.293
 3255SOL    HW110664   5.012   6.415   1.312
 3255SOL    HW210665   4.950   6.278   1.376
 3256SOL     OW10666   5.137   2.964   1.469
 3256SOL    HW110667   5.106   2.887   1.412
 3256SOL    HW210668   5.226   2.942   1.508
 3257SOL     OW10669   2.794   1.760   2.955
 3257SOL    HW110670   2.790   1.753   2.855
 3257SOL    HW210671   2.813   1.669   2.994
 3258SOL     OW10672   1.953   5.320   4.039
 3258SOL    HW110673   1.857   5.290   4.035
 3258SOL    HW210674   1.975   5.374   3.958
 3259SOL     OW10675   4.953   4.009   4.161
 3259SOL    HW110676   4.865   4.048   4.136
 3259SOL    HW210677   5.022   4.082   4.163
 3260SOL     OW10678   1.374   4.389   3.171
 3260SOL    HW110679   1.333   4.301   3.147
 3260SOL    HW210680   1.303   4.451   3.206
 3261SOL     OW10681   5.558   0.049   4.043
 3261SOL    HW110682   5.497   0.106   3.988
 3261SOL    HW210683   5.510   0.018   4.125
 3262SOL     OW10684   2.651   1.438   3.464
 3262SOL    HW110685   2.590   1.360   3.480
 3262SOL    HW210686   2.597   1.522   3.454
 3263SOL     OW10687   0.117   0.942   2.483
 3263SOL    HW110688   0.065   0.894   2.412
 3263SOL    HW210689   0.054   0.985   2.547
 3264SOL     OW10690   1.768   4.864   6.509
 3264SOL    HW110691   1.793   4.903   6.598
 3264SOL    HW210692   1.678   4.821   6.516
 3265SOL     OW10693   6.508   5.504   6.875
 3265SOL    HW110694   6.583   5.514   6.809
 3265SOL    HW210695   6.514   5.415   6.919
 3266SOL     OW10696   3.616   5.172   6.129
 3266SOL    HW110697   3.594   5.074   6.135
 3266SOL    HW210698   3.531   5.225   6.125
 3267SOL     OW10699   3.171   0.248   0.342
 3267SOL    HW110700   3.102   0.244   0.414
 3267SOL    HW210701   3.246   0.307   0.373
 3268SOL     OW10702   5.876   5.502   2.092
 3268SOL    HW110703   5.849   5.423   2.146
 3268SOL    HW210704   5.822   5.581   2.120
 3269SOL     OW10705   1.764   4.511   1.105
 3269SOL    HW110706   1.835   4.506   1.035
 3269SOL    HW210707   1.699   4.583   1.081
 3270SOL     OW10708   0.748   2.813   5.200
 3270SOL    HW110709   0.796   2.743   5.147
 3270SOL    HW210710   0.660   2.778   5.231
 3271SOL     OW10711   0.950   3.567   1.850
 3271SOL    HW110712   0.980   3.593   1.759
 3271SOL    HW210713   0.993   3.627   1.918
 3272SOL     OW10714   4.153   6.255   1.149
 3272SOL    HW110715   4.087   6.309   1.097
 3272SOL    HW210716   4.139   6.158   1.130
 3273SOL     OW10717   4.257   3.732   6.393
 3273SOL    HW110718   4.171   3.680   6.399
 3273SOL    HW210719   4.251   3.796   6.317
 3274SOL     OW10720   5.565   0.279   1.941
 3274SOL    HW110721   5.582   0.332   2.024
 3274SOL    HW210722   5.536   0.340   1.867
 3275SOL     OW10723   4.837   0.581   1.588
 3275SOL    HW110724   4.920   0.599   1.642
 3275SOL    HW210725   4.782   0.664   1.582
 3276SOL     OW10726   5.034   0.051   0.208
 3276SOL    HW110727   5.080   6.999   0.263
 3276SOL    HW210728   5.085   0.137   0.215
 3277SOL     OW10729   3.206   2.131   2.339
 3277SOL    HW110730   3.259   2.209   2.305
 3277SOL    HW210731   3.239   2.107   2.431
 3278SOL     OW10732   5.923   0.820   6.621
 3278SOL    HW110733   5.859   0.835   6.697
 3278SOL    HW210734   5.921   0.900   6.560
 3279SOL     OW10735   3.174   0.394   1.602
 3279SOL    HW110736   3.102   0.430   1.543
 3279SOL    HW210737   3.133   0.356   1.685
 3280SOL     OW10738   6.365   3.503   4.312
 3280SOL    HW110739   6.308   3.561   4.370
 3280SOL    HW210740   6.334   3.408   4.319
 3281SOL     OW10741   5.654   3.371   1.766
 3281SOL    HW110742   5.566   3.405   1.732
 3281SOL    HW210743   5.638   3.315   1.847
 3282SOL     OW10744   0.067   5.274   4.741
 3282SOL    HW110745   0.113   5.355   4.705
 3282SOL    HW210746   0.126   5.194   4.729
 3283SOL     OW10747   3.544   1.891   0.704
 3283SOL    HW110748   3.530   1.855   0.796
 3283SOL    HW210749   3.637   1.927   0.696
 3284SOL     OW10750   2.243   6.167   4.281
 3284SOL    HW110751   2.154   6.122   4.271
 3284SOL    HW210752   2.270   6.209   4.195
 3285SOL     OW10753   3.512   1.928   4.689
 3285SOL    HW110754   3.454   1.974   4.756
 3285SOL    HW210755   3.530   1.990   4.613
 3286SOL     OW10756   1.783   2.381   2.434
 3286SOL    HW110757   1.813   2.417   2.346
 3286SOL    HW210758   1.684   2.367   2.433
 3287SOL     OW10759   2.378   0.360   0.508
 3287SOL    HW110760   2.372   0.401   0.599
 3287SOL    HW210761   2.369   0.261   0.515
 3288SOL     OW10762   2.795   6.160   1.967
 3288SOL    HW110763   2.884   6.203   1.956
 3288SOL    HW210764   2.733   6.223   2.013
 3289SOL     OW10765   4.454   0.739   6.457
 3289SOL    HW110766   4.535   0.769   6.407
 3289SOL    HW210767   4.481   0.702   6.546
 3290SOL     OW10768   0.670   5.775   0.556
 3290SOL    HW110769   0.583   5.772   0.506
 3290SOL    HW210770   0.652   5.766   0.654
 3291SOL     OW10771   5.073   6.823   5.055
 3291SOL    HW110772   5.102   6.796   4.963
 3291SOL    HW210773   4.978   6.797   5.069
 3292SOL     OW10774   6.813   2.462   0.432
 3292SOL    HW110775   6.762   2.546   0.451
 3292SOL    HW210776   6.759   2.382   0.459
 3293SOL     OW10777   5.922   5.657   3.919
 3293SOL    HW110778   5.975   5.732   3.881
 3293SOL    HW210779   5.838   5.693   3.961
 3294SOL     OW10780   5.210   2.777   5.409
 3294SOL    HW110781   5.203   2.794   5.507
 3294SOL    HW210782   5.235   2.862   5.362
 3295SOL     OW10783   0.479   2.382   2.676
 3295SOL    HW110784   0.449   2.476   2.664
 3295SOL    HW210785   0.579   2.379   2.682
 3296SOL     OW10786   1.988   0.842   5.906
 3296SOL    HW110787   1.961   0.746   5.900
 3296SOL    HW210788   2.000   0.879   5.814
 3297SOL     OW10789   3.578   1.135   4.950
 3297SOL    HW110790   3.677   1.146   4.934
 3297SOL    HW210791   3.560   1.141   5.048
 3298SOL     OW10792   4.948   3.654   6.150
 3298SOL    HW110793   4.853   3.647   6.121
 3298SOL    HW210794   4.990   3.732   6.103
 3299SOL     OW10795   2.277   4.756   3.809
 3299SOL    HW110796   2.361   4.708   3.785
 3299SOL    HW210797   2.293   4.814   3.889
 3300SOL     OW10798   2.141   6.746   4.127
 3300SOL    HW110799   2.207   6.810   4.168
 3300SOL    HW210800   2.164   6.733   4.030
 3301SOL     OW10801   0.794   1.295   3.377
 3301SOL    HW110802   0.785   1.355   3.457
 3301SOL    HW210803   0.891   1.273   3.363
 3302SOL     OW10804   1.374   5.215   5.188
 3302SOL    HW110805   1.376   5.265   5.101
 3302SOL    HW210806   1.465   5.176   5.206
 3303SOL     OW10807   3.448   3.349   0.234
 3303SOL    HW110808   3.424   3.374   0.328
 3303SOL    HW210809   3.422   3.254   0.216
 3304SOL     OW10810   2.751   4.498   6.902
 3304SOL    HW110811   2.742   4.509   7.001
 3304SOL    HW210812   2.821   4.430   6.882
 3305SOL     OW10813   3.382   3.151   0.606
 3305SOL    HW110814   3.426   3.197   0.683
 3305SOL    HW210815   3.293   3.115   0.635
 3306SOL     OW10816   2.174   0.697   6.768
 3306SOL    HW110817   2.122   0.773   6.807
 3306SOL    HW210818   2.269   0.725   6.755
 3307SOL     OW10819   1.154   6.036   4.875
 3307SOL    HW110820   1.059   6.009   4.858
 3307SOL    HW210821   1.166   6.132   4.850
 3308SOL     OW10822   4.094   4.851   1.129
 3308SOL    HW110823   4.103   4.897   1.040
 3308SOL    HW210824   4.024   4.897   1.183
 3309SOL     OW10825   5.479   3.064   3.073
 3309SOL    HW110826   5.441   3.064   2.981
 3309SOL    HW210827   5.443   2.986   3.125
 3310SOL     OW10828   6.339   4.699   6.155
 3310SOL    HW110829   6.428   4.725   6.194
 3310SOL    HW210830   6.345   4.701   6.055
 3311SOL     OW10831   2.793   3.503   0.526
 3311SOL    HW110832   2.789   3.567   0.450
 3311SOL    HW210833   2.724   3.528   0.595
 3312SOL     OW10834   4.358   2.726   6.107
 3312SOL    HW110835   4.346   2.646   6.048
 3312SOL    HW210836   4.454   2.734   6.134
 3313SOL     OW10837   6.965   0.521   3.745
 3313SOL    HW110838   6.977   0.423   3.728
 3313SOL    HW210839   6.915   0.534   3.830
 3314SOL     OW10840   3.342   5.649   2.513
 3314SOL    HW110841   3.409   5.616   2.579
 3314SOL    HW210842   3.374   5.630   2.420
 3315SOL     OW10843   0.266   5.851   4.391
 3315SOL    HW110844   0.325   5.799   4.452
 3315SOL    HW210845   0.320   5.890   4.317
 3316SOL     OW10846   4.583   2.306   6.463
 3316SOL    HW110847   4.636   2.229   6.498
 3316SOL    HW210848   4.543   2.356   6.540
 3317SOL     OW10849   4.975   2.634   2.148
 3317SOL    HW110850   5.066   2.673   2.162
 3317SOL    HW210851   4.975   2.538   2.177
 3318SOL     OW10852   3.293   2.664   0.609
 3318SOL    HW110853   3.332   2.710   0.689
 3318SOL    HW210854   3.322   2.711   0.526
 3319SOL     OW10855   6.679   5.613   3.701
 3319SOL    HW110856   6.713   5.677   3.769
 3319SOL    HW210857   6.636   5.663   3.626
 3320SOL     OW10858   6.466   6.598   1.838
 3320SOL    HW110859   6.421   6.521   1.794
 3320SOL    HW210860   6.472   6.675   1.774
 3321SOL     OW10861   4.787   2.095   0.234
 3321SOL    HW110862   4.829   2.185   0.247
 3321SOL    HW210863   4.691   2.099   0.262
 3322SOL     OW10864   6.145   3.283   0.582
 3322SOL    HW110865   6.079   3.352   0.614
 3322SOL    HW210866   6.235   3.304   0.621
 3323SOL     OW10867   1.331   2.241   1.423
 3323SOL    HW110868   1.293   2.315   1.478
 3323SOL    HW210869   1.388   2.182   1.480
 3324SOL     OW10870   5.294   5.762   5.464
 3324SOL    HW110871   5.370   5.702   5.441
 3324SOL    HW210872   5.238   5.720   5.535
 3325SOL     OW10873   2.215   4.279   5.508
 3325SOL    HW110874   2.255   4.244   5.424
 3325SOL    HW210875   2.238   4.376   5.519
 3326SOL     OW10876   4.096   1.598   2.404
 3326SOL    HW110877   4.139   1.647   2.479
 3326SOL    HW210878   3.998   1.620   2.402
 3327SOL     OW10879   0.685   5.112   6.426
 3327SOL    HW110880   0.739   5.077   6.502
 3327SOL    HW210881   0.619   5.179   6.460
 3328SOL     OW10882   4.634   2.425   5.730
 3328SOL    HW110883   4.706   2.483   5.691
 3328SOL    HW210884   4.547   2.448   5.687
 3329SOL     OW10885   6.602   6.102   5.662
 3329SOL    HW110886   6.583   6.123   5.566
 3329SOL    HW210887   6.696   6.068   5.671
 3330SOL     OW10888   0.237   3.562   2.957
 3330SOL    HW110889   0.169   3.612   2.903
 3330SOL    HW210890   0.288   3.500   2.896
 3331SOL     OW10891   2.201   3.448   0.117
 3331SOL    HW110892   2.182   3.546   0.114
 3331SOL    HW210893   2.296   3.432   0.143
 3332SOL     OW10894   6.423   4.478   1.690
 3332SOL    HW110895   6.429   4.386   1.653
 3332SOL    HW210896   6.487   4.538   1.640
 3333SOL     OW10897   3.869   5.593   6.653
 3333SOL    HW110898   3.902   5.511   6.606
 3333SOL    HW210899   3.919   5.673   6.620
 3334SOL     OW10900   2.076   3.953   1.592
 3334SOL    HW110901   2.152   3.994   1.541
 3334SOL    HW210902   2.058   3.861   1.557
 3335SOL     OW10903   5.869   4.101   4.390
 3335SOL    HW110904   5.836   4.038   4.460
 3335SOL    HW210905   5.948   4.151   4.424
 3336SOL     OW10906   2.531   6.043   5.670
 3336SOL    HW110907   2.589   5.971   5.632
 3336SOL    HW210908   2.587   6.109   5.721
 3337SOL     OW10909   3.909   1.786   0.484
 3337SOL    HW110910   3.901   1.810   0.581
 3337SOL    HW210911   3.910   1.686   0.475
 3338SOL     OW10912   6.763   4.190   0.252
 3338SOL    HW110913   6.817   4.109   0.233
 3338SOL    HW210914   6.754   4.201   0.351
 3339SOL     OW10915   0.596   5.767   5.955
 3339SOL    HW110916   0.636   5.839   5.898
 3339SOL    HW210917   0.536   5.808   6.024
 3340SOL     OW10918   3.448   6.827   1.619
 3340SOL    HW110919   3.448   6.845   1.718
 3340SOL    HW210920   3.420   6.910   1.571
 3341SOL     OW10921   0.975   6.901   2.023
 3341SOL    HW110922   1.041   6.883   2.096
 3341SOL    HW210923   0.883   6.876   2.053
 3342SOL     OW10924   2.576   0.017   4.484
 3342SOL    HW110925   2.592   0.115   4.469
 3342SOL    HW210926   2.664   6.990   4.497
 3343SOL     OW10927   6.262   2.406   1.417
 3343SOL    HW110928   6.308   2.439   1.499
 3343SOL    HW210929   6.211   2.322   1.439
 3344SOL     OW10930   6.810   2.908   5.456
 3344SOL    HW110931   6.864   2.952   5.385
 3344SOL    HW210932   6.772   2.977   5.518
 3345SOL     OW10933   3.119   3.689   6.034
 3345SOL    HW110934   3.218   3.693   6.047
 3345SOL    HW210935   3.074   3.673   6.122
 3346SOL     OW10936   1.564   5.787   2.299
 3346SOL    HW110937   1.659   5.757   2.300
 3346SOL    HW210938   1.549   5.846   2.219
 3347SOL     OW10939   5.606   3.992   4.555
 3347SOL    HW110940   5.549   3.965   4.632
 3347SOL    HW210941   5.592   4.089   4.534
 3348SOL     OW10942   4.112   3.570   2.988
 3348SOL    HW110943   4.023   3.524   2.982
 3348SOL    HW210944   4.105   3.662   2.952
 3349SOL     OW10945   6.363   3.593   5.553
 3349SOL    HW110946   6.359   3.603   5.652
 3349SOL    HW210947   6.418   3.667   5.514
 3350SOL     OW10948   1.770   2.225   1.086
 3350SOL    HW110949   1.678   2.210   1.124
 3350SOL    HW210950   1.832   2.251   1.160
 3351SOL     OW10951   5.455   1.842   1.429
 3351SOL    HW110952   5.497   1.796   1.508
 3351SOL    HW210953   5.514   1.831   1.350
 3352SOL     OW10954   0.667   3.277   0.410
 3352SOL    HW110955   0.685   3.233   0.498
 3352SOL    HW210956   0.616   3.214   0.352
 3353SOL     OW10957   1.975   6.851   6.406
 3353SOL    HW110958   2.023   6.905   6.475
 3353SOL    HW210959   1.980   6.898   6.318
 3354SOL     OW10960   0.826   1.122   2.597
 3354SOL    HW110961   0.851   1.026   2.583
 3354SOL    HW210962   0.900   1.181   2.566
 3355SOL     OW10963   6.666   1.903   2.611
 3355SOL    HW110964   6.570   1.927   2.602
 3355SOL    HW210965   6.710   1.905   2.521
 3356SOL     OW10966   2.378   3.378   6.073
 3356SOL    HW110967   2.319   3.418   6.002
 3356SOL    HW210968   2.395   3.446   6.144
 3357SOL     OW10969   2.066   5.283   2.170
 3357SOL    HW110970   2.117   5.237   2.242
 3357SOL    HW210971   2.103   5.375   2.155
 3358SOL     OW10972   5.901   4.204   2.846
 3358SOL    HW110973   5.944   4.123   2.886
 3358SOL    HW210974   5.951   4.286   2.874
 3359SOL     OW10975   1.089   1.380   1.774
 3359SOL    HW110976   1.082   1.320   1.853
 3359SOL    HW210977   1.185   1.402   1.756
 3360SOL     OW10978   1.264   0.459   6.418
 3360SOL    HW110979   1.295   0.550   6.390
 3360SOL    HW210980   1.332   0.419   6.480
 3361SOL     OW10981   5.008   0.589   2.936
 3361SOL    HW110982   5.087   0.643   2.966
 3361SOL    HW210983   5.026   0.553   2.844
 3362SOL     OW10984   1.965   1.704   5.510
 3362SOL    HW110985   2.062   1.720   5.525
 3362SOL    HW210986   1.915   1.714   5.596
 3363SOL     OW10987   0.077   1.123   7.011
 3363SOL    HW110988   0.066   1.031   0.029
 3363SOL    HW210989   0.100   1.186   0.067
 3364SOL     OW10990   1.987   4.558   5.763
 3364SOL    HW110991   2.022   4.469   5.733
 3364SOL    HW210992   2.056   4.628   5.748
 3365SOL     OW10993   5.737   1.887   6.029
 3365SOL    HW110994   5.675   1.931   6.094
 3365SOL    HW210995   5.684   1.854   5.951
 3366SOL     OW10996   5.338   1.149   6.007
 3366SOL    HW110997   5.412   1.115   5.948
 3366SOL    HW210998   5.271   1.198   5.951
 3367SOL     OW10999   1.287   0.579   2.325
 3367SOL    HW111000   1.235   0.657   2.291
 3367SOL    HW211001   1.232   0.496   2.314
 3368SOL     OW11002   6.405   0.172   5.974
 3368SOL    HW111003   6.313   0.180   6.014
 3368SOL    HW211004   6.403   0.104   5.900
 3369SOL     OW11005   3.547   6.469   5.629
 3369SOL    HW111006   3.622   6.513   5.676
 3369SOL    HW211007   3.539   6.505   5.536
 3370SOL     OW11008   4.915   0.424   4.881
 3370SOL    HW111009   5.005   0.383   4.870
 3370SOL    HW211010   4.849   0.354   4.909
 3371SOL     OW11011   0.082   5.068   1.682
 3371SOL    HW111012   0.059   4.972   1.701
 3371SOL    HW211013   0.024   5.102   1.609
 3372SOL     OW11014   0.563   1.919   2.379
 3372SOL    HW111015   0.529   1.943   2.470
 3372SOL    HW211016   0.544   1.994   2.316
 3373SOL     OW11017   0.479   2.265   5.661
 3373SOL    HW111018   0.397   2.269   5.605
 3373SOL    HW211019   0.472   2.333   5.734
 3374SOL     OW11020   3.479   5.348   5.140
 3374SOL    HW111021   3.464   5.395   5.053
 3374SOL    HW211022   3.413   5.382   5.207
 3375SOL     OW11023   4.230   3.882   5.261
 3375SOL    HW111024   4.317   3.887   5.310
 3375SOL    HW211025   4.197   3.974   5.241
 3376SOL     OW11026   3.008   3.690   2.232
 3376SOL    HW111027   3.008   3.741   2.146
 3376SOL    HW211028   2.924   3.636   2.239
 3377SOL     OW11029   2.783   5.886   5.609
 3377SOL    HW111030   2.849   5.894   5.534
 3377SOL    HW211031   2.830   5.856   5.692
 3378SOL     OW11032   0.850   1.415   1.276
 3378SOL    HW111033   0.897   1.387   1.359
 3378SOL    HW211034   0.849   1.515   1.271
 3379SOL     OW11035   1.242   4.487   6.499
 3379SOL    HW111036   1.223   4.493   6.597
 3379SOL    HW211037   1.311   4.417   6.482
 3380SOL     OW11038   0.592   3.740   5.936
 3380SOL    HW111039   0.539   3.672   5.985
 3380SOL    HW211040   0.657   3.783   5.999
 3381SOL     OW11041   3.364   3.292   1.013
 3381SOL    HW111042   3.322   3.204   0.989
 3381SOL    HW211043   3.388   3.291   1.110
 3382SOL     OW11044   6.554   6.705   0.708
 3382SOL    HW111045   6.493   6.745   0.776
 3382SOL    HW211046   6.647   6.700   0.745
 3383SOL     OW11047   6.778   4.715   3.067
 3383SOL    HW111048   6.809   4.714   3.163
 3383SOL    HW211049   6.838   4.658   3.012
 3384SOL     OW11050   3.248   2.919   4.527
 3384SOL    HW111051   3.240   2.870   4.440
 3384SOL    HW211052   3.339   2.905   4.565
 3385SOL     OW11053   6.193   3.858   3.349
 3385SOL    HW111054   6.236   3.778   3.307
 3385SOL    HW211055   6.198   3.851   3.448
 3386SOL     OW11056   6.228   4.479   4.737
 3386SOL    HW111057   6.258   4.422   4.814
 3386SOL    HW211058   6.229   4.575   4.765
 3387SOL     OW11059   2.843   1.901   3.320
 3387SOL    HW111060   2.775   1.852   3.265
 3387SOL    HW211061   2.833   1.999   3.305
 3388SOL     OW11062   5.179   2.814   2.329
 3388SOL    HW111063   5.203   2.822   2.232
 3388SOL    HW211064   5.141   2.901   2.361
 3389SOL     OW11065   5.592   4.440   3.383
 3389SOL    HW111066   5.581   4.448   3.284
 3389SOL    HW211067   5.581   4.530   3.425
 3390SOL     OW11068   5.241   2.791   5.691
 3390SOL    HW111069   5.250   2.704   5.739
 3390SOL    HW211070   5.162   2.841   5.728
 3391SOL     OW11071   3.545   1.560   3.993
 3391SOL    HW111072   3.470   1.510   3.948
 3391SOL    HW211073   3.583   1.626   3.928
 3392SOL     OW11074   4.561   5.862   3.539
 3392SOL    HW111075   4.615   5.934   3.582
 3392SOL    HW211076   4.476   5.849   3.589
 3393SOL     OW11077   6.115   7.010   6.856
 3393SOL    HW111078   6.034   7.009   6.797
 3393SOL    HW211079   6.177   0.064   6.827
 3394SOL     OW11080   5.649   2.449   1.872
 3394SOL    HW111081   5.601   2.514   1.932
 3394SOL    HW211082   5.640   2.479   1.777
 3395SOL     OW11083   1.583   3.578   4.844
 3395SOL    HW111084   1.672   3.553   4.882
 3395SOL    HW211085   1.595   3.612   4.751
 3396SOL     OW11086   0.213   4.371   3.795
 3396SOL    HW111087   0.119   4.391   3.822
 3396SOL    HW211088   0.214   4.287   3.739
 3397SOL     OW11089   3.754   6.642   5.794
 3397SOL    HW111090   3.853   6.657   5.800
 3397SOL    HW211091   3.718   6.621   5.885
 3398SOL     OW11092   0.074   6.741   4.308
 3398SOL    HW111093   0.153   6.717   4.365
 3398SOL    HW211094   0.102   6.806   4.238
 3399SOL     OW11095   4.474   5.339   4.837
 3399SOL    HW111096   4.491   5.281   4.916
 3399SOL    HW211097   4.431   5.284   4.765
 3400SOL     OW11098   4.699   2.654   6.685
 3400SOL    HW111099   4.774   2.628   6.623
 3400SOL    HW211100   4.733   2.658   6.779
 3401SOL     OW11101   5.995   5.124   0.278
 3401SOL    HW111102   6.044   5.162   0.357
 3401SOL    HW211103   5.935   5.051   0.309
 3402SOL     OW11104   4.770   5.999   2.028
 3402SOL    HW111105   4.826   5.941   2.087
 3402SOL    HW211106   4.739   6.079   2.080
 3403SOL     OW11107   3.112   1.289   5.258
 3403SOL    HW111108   3.013   1.276   5.267
 3403SOL    HW211109   3.130   1.372   5.205
 3404SOL     OW11110   4.227   0.607   1.005
 3404SOL    HW111111   4.202   0.591   1.100
 3404SOL    HW211112   4.263   0.700   0.995
 3405SOL     OW11113   5.932   3.678   0.468
 3405SOL    HW111114   5.945   3.661   0.566
 3405SOL    HW211115   5.958   3.596   0.417
 3406SOL     OW11116   1.344   4.771   1.931
 3406SOL    HW111117   1.403   4.691   1.935
 3406SOL    HW211118   1.317   4.788   1.836
 3407SOL     OW11119   1.752   5.959   2.507
 3407SOL    HW111120   1.684   6.005   2.563
 3407SOL    HW211121   1.752   5.861   2.528
 3408SOL     OW11122   5.087   4.068   3.107
 3408SOL    HW111123   4.990   4.045   3.102
 3408SOL    HW211124   5.136   3.997   3.158
 3409SOL     OW11125   3.064   0.619   5.679
 3409SOL    HW111126   3.145   0.654   5.727
 3409SOL    HW211127   3.057   0.521   5.694
 3410SOL     OW11128   6.828   0.071   6.660
 3410SOL    HW111129   6.800   0.056   6.565
 3410SOL    HW211130   6.908   0.016   6.680
 3411SOL     OW11131   4.949   2.377   2.150
 3411SOL    HW111132   5.005   2.314   2.204
 3411SOL    HW211133   4.915   2.331   2.068
 3412SOL     OW11134   3.983   4.160   0.561
 3412SOL    HW111135   4.043   4.092   0.517
 3412SOL    HW211136   3.978   4.241   0.503
 3413SOL     OW11137   4.062   2.164   2.610
 3413SOL    HW111138   3.965   2.152   2.590
 3413SOL    HW211139   4.115   2.093   2.565
 3414SOL     OW11140   2.901   2.051   5.423
 3414SOL    HW111141   2.839   2.117   5.465
 3414SOL    HW211142   2.993   2.090   5.421
 3415SOL     OW11143   0.038   5.218   4.017
 3415SOL    HW111144   0.115   5.204   3.955
 3415SOL    HW211145   7.004   5.298   3.988
 3416SOL     OW11146   1.766   4.327   5.422
 3416SOL    HW111147   1.789   4.425   5.428
 3416SOL    HW211148   1.833   4.281   5.364
 3417SOL     OW11149   5.506   0.285   2.639
 3417SOL    HW111150   5.581   0.262   2.577
 3417SOL    HW211151   5.458   0.366   2.606
 3418SOL     OW11152   3.130   1.134   6.373
 3418SOL    HW111153   3.065   1.209   6.379
 3418SOL    HW211154   3.129   1.096   6.281
 3419SOL     OW11155   4.414   4.211   0.363
 3419SOL    HW111156   4.409   4.152   0.444
 3419SOL    HW211157   4.447   4.302   0.390
 3420SOL     OW11158   3.971   2.007   4.175
 3420SOL    HW111159   4.023   2.013   4.090
 3420SOL    HW211160   3.881   1.968   4.155
 3421SOL     OW11161   0.180   6.262   4.633
 3421SOL    HW111162   0.097   6.318   4.629
 3421SOL    HW211163   0.210   6.254   4.728
 3422SOL     OW11164   2.832   1.223   1.702
 3422SOL    HW111165   2.926   1.227   1.735
 3422SOL    HW211166   2.791   1.314   1.708
 3423SOL     OW11167   2.399   0.237   1.258
 3423SOL    HW111168   2.427   0.313   1.318
 3423SOL    HW211169   2.446   0.245   1.170
 3424SOL     OW11170   4.430   1.438   2.685
 3424SOL    HW111171   4.337   1.435   2.647
 3424SOL    HW211172   4.468   1.346   2.688
 3425SOL     OW11173   4.205   4.620   1.722
 3425SOL    HW111174   4.170   4.638   1.813
 3425SOL    HW211175   4.208   4.522   1.705
 3426SOL     OW11176   4.466   3.424   0.353
 3426SOL    HW111177   4.402   3.456   0.423
 3426SOL    HW211178   4.520   3.348   0.389
 3427SOL     OW11179   0.144   1.966   6.522
 3427SOL    HW111180   0.085   1.951   6.443
 3427SOL    HW211181   0.088   1.984   6.603
 3428SOL     OW11182   4.620   4.370   2.764
 3428SOL    HW111183   4.595   4.358   2.860
 3428SOL    HW211184   4.713   4.337   2.749
 3429SOL     OW11185   1.237   3.075   6.617
 3429SOL    HW111186   1.235   2.992   6.673
 3429SOL    HW211187   1.267   3.152   6.673
 3430SOL     OW11188   1.491   6.741   0.098
 3430SOL    HW111189   1.565   6.797   0.060
 3430SOL    HW211190   1.473   6.663   0.038
 3431SOL     OW11191   0.846   5.755   0.339
 3431SOL    HW111192   0.788   5.756   0.257
 3431SOL    HW211193   0.789   5.740   0.419
 3432SOL     OW11194   3.370   1.392   6.295
 3432SOL    HW111195   3.335   1.325   6.360
 3432SOL    HW211196   3.311   1.473   6.296
 3433SOL     OW11197   3.898   0.929   5.111
 3433SOL    HW111198   3.984   0.891   5.144
 3433SOL    HW211199   3.877   0.888   5.022
 3434SOL     OW11200   4.484   2.061   2.577
 3434SOL    HW111201   4.523   1.989   2.635
 3434SOL    HW211202   4.513   2.150   2.613
 3435SOL     OW11203   0.142   1.119   0.418
 3435SOL    HW111204   0.198   1.113   0.336
 3435SOL    HW211205   0.085   1.201   0.415
 3436SOL     OW11206   3.926   6.600   3.830
 3436SOL    HW111207   3.938   6.520   3.888
 3436SOL    HW211208   3.895   6.572   3.739
 3437SOL     OW11209   3.886   6.955   6.624
 3437SOL    HW111210   3.927   6.865   6.638
 3437SOL    HW211211   3.792   6.945   6.591
 3438SOL     OW11212   1.277   3.178   6.367
 3438SOL    HW111213   1.204   3.127   6.321
 3438SOL    HW211214   1.299   3.133   6.453
 3439SOL     OW11215   2.618   5.783   3.497
 3439SOL    HW111216   2.633   5.688   3.526
 3439SOL    HW211217   2.640   5.844   3.573
 3440SOL     OW11218   5.065   2.728   0.949
 3440SOL    HW111219   4.972   2.720   0.985
 3440SOL    HW211220   5.067   2.690   0.856
 3441SOL     OW11221   3.003   0.457   3.921
 3441SOL    HW111222   3.019   0.508   4.006
 3441SOL    HW211223   3.087   0.452   3.868
 3442SOL     OW11224   2.131   5.204   2.809
 3442SOL    HW111225   2.138   5.299   2.777
 3442SOL    HW211226   2.040   5.169   2.790
 3443SOL     OW11227   5.623   0.723   3.783
 3443SOL    HW111228   5.592   0.810   3.823
 3443SOL    HW211229   5.551   0.654   3.794
 3444SOL     OW11230   4.475   5.168   0.209
 3444SOL    HW111231   4.448   5.167   0.112
 3444SOL    HW211232   4.495   5.262   0.237
 3445SOL     OW11233   6.050   4.303   4.477
 3445SOL    HW111234   5.998   4.359   4.542
 3445SOL    HW211235   6.120   4.360   4.433
 3446SOL     OW11236   3.618   6.649   3.131
 3446SOL    HW111237   3.633   6.697   3.045
 3446SOL    HW211238   3.564   6.567   3.115
 3447SOL     OW11239   5.569   5.780   6.418
 3447SOL    HW111240   5.598   5.831   6.337
 3447SOL    HW211241   5.587   5.683   6.405
 3448SOL     OW11242   3.677   1.986   1.160
 3448SOL    HW111243   3.641   2.045   1.232
 3448SOL    HW211244   3.626   2.000   1.075
 3449SOL     OW11245   6.476   5.915   3.813
 3449SOL    HW111246   6.553   5.885   3.869
 3449SOL    HW211247   6.433   5.995   3.854
 3450SOL     OW11248   1.190   1.797   1.301
 3450SOL    HW111249   1.117   1.864   1.289
 3450SOL    HW211250   1.164   1.732   1.372
 3451SOL     OW11251   1.227   5.649   4.402
 3451SOL    HW111252   1.257   5.673   4.310
 3451SOL    HW211253   1.157   5.714   4.432
 3452SOL     OW11254   5.903   1.917   6.661
 3452SOL    HW111255   5.886   1.937   6.564
 3452SOL    HW211256   6.002   1.918   6.678
 3453SOL     OW11257   5.531   5.580   5.319
 3453SOL    HW111258   5.527   5.637   5.236
 3453SOL    HW211259   5.606   5.612   5.377
 3454SOL     OW11260   0.788   0.786   0.479
 3454SOL    HW111261   0.791   0.692   0.514
 3454SOL    HW211262   0.706   0.832   0.512
 3455SOL     OW11263   1.793   2.657   4.288
 3455SOL    HW111264   1.840   2.605   4.217
 3455SOL    HW211265   1.799   2.608   4.375
 3456SOL     OW11266   6.092   6.881   1.900
 3456SOL    HW111267   6.164   6.950   1.886
 3456SOL    HW211268   6.120   6.819   1.973
 3457SOL     OW11269   2.447   5.245   2.852
 3457SOL    HW111270   2.497   5.325   2.884
 3457SOL    HW211271   2.348   5.263   2.857
 3458SOL     OW11272   5.301   5.719   0.907
 3458SOL    HW111273   5.243   5.654   0.957
 3458SOL    HW211274   5.246   5.764   0.836
 3459SOL     OW11275   6.436   6.156   3.924
 3459SOL    HW111276   6.506   6.227   3.917
 3459SOL    HW211277   6.349   6.198   3.952
 3460SOL     OW11278   4.477   3.293   6.608
 3460SOL    HW111279   4.573   3.307   6.632
 3460SOL    HW211280   4.433   3.381   6.591
 3461SOL     OW11281   3.279   5.950   2.650
 3461SOL    HW111282   3.340   5.999   2.588
 3461SOL    HW211283   3.322   5.863   2.676
 3462SOL     OW11284   5.131   3.207   3.164
 3462SOL    HW111285   5.038   3.223   3.131
 3462SOL    HW211286   5.128   3.172   3.258
 3463SOL     OW11287   2.241   2.864   1.013
 3463SOL    HW111288   2.275   2.899   0.925
 3463SOL    HW211289   2.153   2.819   0.998
 3464SOL     OW11290   4.556   2.778   6.986
 3464SOL    HW111291   4.584   2.871   7.011
 3464SOL    HW211292   4.637   2.720   6.977
 3465SOL     OW11293   2.132   3.707   2.171
 3465SOL    HW111294   2.178   3.655   2.099
 3465SOL    HW211295   2.034   3.709   2.152
 3466SOL     OW11296   6.061   4.787   3.918
 3466SOL    HW111297   5.974   4.755   3.956
 3466SOL    HW211298   6.061   4.887   3.914
 3467SOL     OW11299   3.526   2.759   1.492
 3467SOL    HW111300   3.539   2.774   1.394
 3467SOL    HW211301   3.436   2.719   1.509
 3468SOL     OW11302   3.539   1.766   0.924
 3468SOL    HW111303   3.589   1.683   0.952
 3468SOL    HW211304   3.448   1.766   0.966
 3469SOL     OW11305   4.604   6.381   5.861
 3469SOL    HW111306   4.600   6.421   5.770
 3469SOL    HW211307   4.514   6.348   5.887
 3470SOL     OW11308   0.602   2.730   1.892
 3470SOL    HW111309   0.641   2.645   1.928
 3470SOL    HW211310   0.579   2.791   1.969
 3471SOL     OW11311   4.872   3.158   3.767
 3471SOL    HW111312   4.819   3.236   3.803
 3471SOL    HW211313   4.881   3.167   3.668
 3472SOL     OW11314   4.332   1.520   3.496
 3472SOL    HW111315   4.289   1.574   3.568
 3472SOL    HW211316   4.268   1.450   3.464
 3473SOL     OW11317   0.108   4.540   1.923
 3473SOL    HW111318   0.060   4.562   2.007
 3473SOL    HW211319   0.162   4.457   1.936
 3474SOL     OW11320   5.870   5.028   4.130
 3474SOL    HW111321   5.929   4.948   4.132
 3474SOL    HW211322   5.917   5.106   4.171
 3475SOL     OW11323   6.815   3.950   4.110
 3475SOL    HW111324   6.724   3.931   4.147
 3475SOL    HW211325   6.820   4.046   4.084
 3476SOL     OW11326   1.074   0.985   3.576
 3476SOL    HW111327   0.993   0.977   3.517
 3476SOL    HW211328   1.048   1.027   3.663
 3477SOL     OW11329   0.602   4.373   1.578
 3477SOL    HW111330   0.528   4.440   1.588
 3477SOL    HW211331   0.585   4.295   1.639
 3478SOL     OW11332   2.103   0.551   0.674
 3478SOL    HW111333   2.155   0.482   0.725
 3478SOL    HW211334   2.150   0.639   0.679
 3479SOL     OW11335   1.734   4.304   4.026
 3479SOL    HW111336   1.809   4.244   3.999
 3479SOL    HW211337   1.669   4.252   4.083
 3480SOL     OW11338   1.841   5.023   6.731
 3480SOL    HW111339   1.932   5.040   6.768
 3480SOL    HW211340   1.771   5.054   6.796
 3481SOL     OW11341   6.433   0.931   5.320
 3481SOL    HW111342   6.399   0.849   5.367
 3481SOL    HW211343   6.531   0.921   5.302
 3482SOL     OW11344   6.154   3.946   4.829
 3482SOL    HW111345   6.128   3.886   4.905
 3482SOL    HW211346   6.224   4.011   4.860
 3483SOL     OW11347   4.822   2.929   4.621
 3483SOL    HW111348   4.842   2.926   4.523
 3483SOL    HW211349   4.810   3.023   4.650
 3484SOL     OW11350   2.153   3.289   4.877
 3484SOL    HW111351   2.092   3.222   4.835
 3484SOL    HW211352   2.239   3.244   4.904
 3485SOL     OW11353   0.547   2.082   5.985
 3485SOL    HW111354   0.518   2.042   6.071
 3485SOL    HW211355   0.535   2.181   5.989
 3486SOL     OW11356   2.155   7.005   4.707
 3486SOL    HW111357   2.143   6.908   4.690
 3486SOL    HW211358   2.098   0.014   4.785
 3487SOL     OW11359   5.048   1.484   6.532
 3487SOL    HW111360   4.985   1.453   6.604
 3487SOL    HW211361   5.000   1.486   6.445
 3488SOL     OW11362   5.975   0.658   4.384
 3488SOL    HW111363   6.059   0.614   4.416
 3488SOL    HW211364   5.918   0.681   4.462
 3489SOL     OW11365   3.197   6.900   0.381
 3489SOL    HW111366   3.278   6.844   0.403
 3489SOL    HW211367   3.225   6.976   0.323
 3490SOL     OW11368   3.772   5.490   0.179
 3490SOL    HW111369   3.755   5.506   0.082
 3490SOL    HW211370   3.858   5.533   0.206
 3491SOL     OW11371   5.058   4.438   6.674
 3491SOL    HW111372   5.142   4.385   6.683
 3491SOL    HW211373   4.981   4.376   6.659
 3492SOL     OW11374   6.097   4.317   2.626
 3492SOL    HW111375   6.085   4.344   2.722
 3492SOL    HW211376   6.189   4.340   2.596
 3493SOL     OW11377   5.545   3.511   4.796
 3493SOL    HW111378   5.478   3.467   4.738
 3493SOL    HW211379   5.578   3.446   4.865
 3494SOL     OW11380   4.555   1.602   1.890
 3494SOL    HW111381   4.611   1.530   1.849
 3494SOL    HW211382   4.595   1.631   1.977
 3495SOL     OW11383   0.895   2.618   2.748
 3495SOL    HW111384   0.980   2.589   2.703
 3495SOL    HW211385   0.828   2.544   2.742
 3496SOL     OW11386   5.596   5.364   1.235
 3496SOL    HW111387   5.577   5.334   1.142
 3496SOL    HW211388   5.682   5.323   1.266
 3497SOL     OW11389   3.302   0.473   2.496
 3497SOL    HW111390   3.215   0.425   2.505
 3497SOL    HW211391   3.289   0.570   2.516
 3498SOL     OW11392   2.234   1.855   1.369
 3498SOL    HW111393   2.176   1.872   1.448
 3498SOL    HW211394   2.194   1.897   1.288
 3499SOL     OW11395   6.360   5.444   5.448
 3499SOL    HW111396   6.300   5.364   5.436
 3499SOL    HW211397   6.429   5.445   5.375
 3500SOL     OW11398   1.257   1.976   4.179
 3500SOL    HW111399   1.321   2.053   4.177
 3500SOL    HW211400   1.243   1.947   4.273
 3501SOL     OW11401   1.613   0.164   5.945
 3501SOL    HW111402   1.656   0.136   5.860
 3501SOL    HW211403   1.574   0.256   5.934
 3502SOL     OW11404   4.921   3.008   2.185
 3502SOL    HW111405   4.824   3.019   2.163
 3502SOL    HW211406   4.969   2.967   2.108
 3503SOL     OW11407   6.351   6.174   7.014
 3503SOL    HW111408   6.415   6.107   0.032
 3503SOL    HW211409   6.374   6.194   6.919
 3504SOL     OW11410   1.780   1.266   0.845
 3504SOL    HW111411   1.878   1.245   0.853
 3504SOL    HW211412   1.727   1.183   0.864
 3505SOL     OW11413   5.986   4.997   6.612
 3505SOL    HW111414   5.977   5.021   6.515
 3505SOL    HW211415   5.897   5.011   6.657
 3506SOL     OW11416   4.989   4.744   4.795
 3506SOL    HW111417   5.031   4.653   4.801
 3506SOL    HW211418   5.028   4.794   4.718
 3507SOL     OW11419   2.836   6.389   0.521
 3507SOL    HW111420   2.874   6.403   0.429
 3507SOL    HW211421   2.907   6.404   0.589
 3508SOL     OW11422   3.056   2.288   5.369
 3508SOL    HW111423   3.094   2.315   5.458
 3508SOL    HW211424   3.121   2.314   5.297
 3509SOL     OW11425   4.299   5.406   6.468
 3509SOL    HW111426   4.363   5.350   6.521
 3509SOL    HW211427   4.250   5.348   6.403
 3510SOL     OW11428   2.806   0.682   0.807
 3510SOL    HW111429   2.817   0.706   0.904
 3510SOL    HW211430   2.781   0.765   0.756
 3511SOL     OW11431   2.589   4.636   1.809
 3511SOL    HW111432   2.677   4.606   1.846
 3511SOL    HW211433   2.588   4.736   1.802
 3512SOL     OW11434   0.473   4.449   6.574
 3512SOL    HW111435   0.422   4.364   6.557
 3512SOL    HW211436   0.422   4.506   6.639
 3513SOL     OW11437   5.903   1.986   0.086
 3513SOL    HW111438   5.858   2.064   0.129
 3513SOL    HW211439   5.996   2.011   0.059
 3514SOL     OW11440   4.016   0.992   2.652
 3514SOL    HW111441   4.094   0.929   2.649
 3514SOL    HW211442   3.973   0.996   2.562
 3515SOL     OW11443   6.067   5.570   4.482
 3515SOL    HW111444   5.999   5.640   4.460
 3515SOL    HW211445   6.109   5.537   4.397
 3516SOL     OW11446   5.126   0.128   1.140
 3516SOL    HW111447   5.026   0.128   1.141
 3516SOL    HW211448   5.160   0.063   1.209
 3517SOL     OW11449   6.178   0.563   0.670
 3517SOL    HW111450   6.130   0.477   0.655
 3517SOL    HW211451   6.190   0.578   0.768
 3518SOL     OW11452   5.198   1.397   5.325
 3518SOL    HW111453   5.232   1.306   5.347
 3518SOL    HW211454   5.244   1.432   5.244
 3519SOL     OW11455   3.519   0.952   0.415
 3519SOL    HW111456   3.477   0.903   0.339
 3519SOL    HW211457   3.447   1.000   0.467
 3520SOL     OW11458   2.671   6.267   5.126
 3520SOL    HW111459   2.633   6.237   5.214
 3520SOL    HW211460   2.746   6.206   5.099
 3521SOL     OW11461   2.793   2.764   0.068
 3521SOL    HW111462   2.849   2.816   0.004
 3521SOL    HW211463   2.849   2.694   0.112
 3522SOL     OW11464   6.926   5.852   6.893
 3522SOL    HW111465   6.991   5.895   6.831
 3522SOL    HW211466   6.870   5.786   6.843
 3523SOL     OW11467   1.221   5.612   6.119
 3523SOL    HW111468   1.270   5.680   6.064
 3523SOL    HW211469   1.190   5.538   6.059
 3524SOL     OW11470   5.316   0.952   3.200
 3524SOL    HW111471   5.277   1.044   3.201
 3524SOL    HW211472   5.415   0.958   3.203
 3525SOL     OW11473   6.171   4.335   3.270
 3525SOL    HW111474   6.126   4.248   3.294
 3525SOL    HW211475   6.256   4.316   3.222
 3526SOL     OW11476   1.101   6.394   3.133
 3526SOL    HW111477   1.027   6.362   3.074
 3526SOL    HW211478   1.153   6.315   3.167
 3527SOL     OW11479   6.782   2.680   5.633
 3527SOL    HW111480   6.732   2.744   5.574
 3527SOL    HW211481   6.879   2.703   5.632
 3528SOL     OW11482   2.419   6.371   4.994
 3528SOL    HW111483   2.407   6.461   4.951
 3528SOL    HW211484   2.516   6.346   4.993
 3529SOL     OW11485   4.669   5.261   0.496
 3529SOL    HW111486   4.620   5.198   0.557
 3529SOL    HW211487   4.755   5.220   0.468
 3530SOL     OW11488   6.896   0.559   2.023
 3530SOL    HW111489   6.847   0.491   2.077
 3530SOL    HW211490   6.986   0.575   2.062
 3531SOL     OW11491   5.306   1.623   0.995
 3531SOL    HW111492   5.334   1.605   0.901
 3531SOL    HW211493   5.265   1.714   1.002
 3532SOL     OW11494   1.875   1.478   1.884
 3532SOL    HW111495   1.854   1.544   1.956
 3532SOL    HW211496   1.811   1.490   1.808
 3533SOL     OW11497   0.276   1.027   2.778
 3533SOL    HW111498   0.265   1.103   2.843
 3533SOL    HW211499   0.281   1.064   2.685
 3534SOL     OW11500   0.016   0.664   0.885
 3534SOL    HW111501   6.983   0.610   0.951
 3534SOL    HW211502   0.093   0.709   0.932
 3535SOL     OW11503   2.686   5.634   4.513
 3535SOL    HW111504   2.700   5.587   4.600
 3535SOL    HW211505   2.674   5.732   4.530
 3536SOL     OW11506   3.450   2.048   2.835
 3536SOL    HW111507   3.458   1.954   2.870
 3536SOL    HW211508   3.398   2.103   2.899
 3537SOL     OW11509   1.734   5.687   2.547
 3537SOL    HW111510   1.742   5.645   2.457
 3537SOL    HW211511   1.776   5.627   2.615
 3538SOL     OW11512   3.169   5.471   4.219
 3538SOL    HW111513   3.173   5.478   4.119
 3538SOL    HW211514   3.259   5.492   4.257
 3539SOL     OW11515   3.648   3.855   4.406
 3539SOL    HW111516   3.689   3.803   4.481
 3539SOL    HW211517   3.551   3.833   4.399
 3540SOL     OW11518   1.964   1.907   3.917
 3540SOL    HW111519   1.928   1.945   4.002
 3540SOL    HW211520   1.915   1.946   3.839
 3541SOL     OW11521   3.182   3.975   5.001
 3541SOL    HW111522   3.261   3.922   5.033
 3541SOL    HW211523   3.150   4.034   5.075
 3542SOL     OW11524   0.568   5.233   1.768
 3542SOL    HW111525   0.612   5.153   1.728
 3542SOL    HW211526   0.629   5.312   1.759
 3543SOL     OW11527   5.672   3.064   4.685
 3543SOL    HW111528   5.702   3.136   4.747
 3543SOL    HW211529   5.728   2.982   4.699
 3544SOL     OW11530   1.830   4.983   5.929
 3544SOL    HW111531   1.839   4.933   6.015
 3544SOL    HW211532   1.736   5.016   5.920
 3545SOL     OW11533   4.086   5.285   6.324
 3545SOL    HW111534   4.006   5.235   6.291
 3545SOL    HW211535   4.151   5.296   6.249
 3546SOL     OW11536   6.204   5.088   2.961
 3546SOL    HW111537   6.131   5.135   3.011
 3546SOL    HW211538   6.280   5.152   2.947
 3547SOL     OW11539   5.416   5.085   4.505
 3547SOL    HW111540   5.335   5.033   4.535
 3547SOL    HW211541   5.408   5.105   4.407
 3548SOL     OW11542   4.743   2.893   5.488
 3548SOL    HW111543   4.801   2.971   5.465
 3548SOL    HW211544   4.722   2.842   5.405
 3549SOL     OW11545   5.680   4.472   2.795
 3549SOL    HW111546   5.616   4.439   2.865
 3549SOL    HW211547   5.773   4.471   2.832
 3550SOL     OW11548   5.903   1.735   2.444
 3550SOL    HW111549   5.954   1.810   2.486
 3550SOL    HW211550   5.960   1.652   2.444
 3551SOL     OW11551   2.702   6.857   3.292
 3551SOL    HW111552   2.660   6.859   3.382
 3551SOL    HW211553   2.748   6.944   3.274
 3552SOL     OW11554   6.349   4.879   2.890
 3552SOL    HW111555   6.431   4.918   2.848
 3552SOL    HW211556   6.291   4.953   2.924
 3553SOL     OW11557   5.582   1.337   2.986
 3553SOL    HW111558   5.617   1.386   3.066
 3553SOL    HW211559   5.575   1.400   2.909
 3554SOL     OW11560   4.225   4.972   6.284
 3554SOL    HW111561   4.240   5.067   6.310
 3554SOL    HW211562   4.313   4.924   6.282
 3555SOL     OW11563   1.323   2.817   3.448
 3555SOL    HW111564   1.417   2.783   3.446
 3555SOL    HW211565   1.299   2.855   3.359
 3556SOL     OW11566   3.455   0.591   6.463
 3556SOL    HW111567   3.431   0.679   6.422
 3556SOL    HW211568   3.389   0.522   6.436
 3557SOL     OW11569   1.454   0.362   5.261
 3557SOL    HW111570   1.508   0.303   5.321
 3557SOL    HW211571   1.370   0.315   5.235
 3558SOL     OW11572   6.886   5.958   1.569
 3558SOL    HW111573   6.943   5.951   1.650
 3558SOL    HW211574   6.858   6.053   1.555
 3559SOL     OW11575   0.744   0.381   5.397
 3559SOL    HW111576   0.777   0.465   5.354
 3559SOL    HW211577   0.719   0.400   5.492
 3560SOL     OW11578   6.853   6.703   1.356
 3560SOL    HW111579   6.779   6.691   1.290
 3560SOL    HW211580   6.927   6.755   1.314
 3561SOL     OW11581   5.206   4.680   5.206
 3561SOL    HW111582   5.118   4.638   5.230
 3561SOL    HW211583   5.280   4.623   5.241
 3562SOL     OW11584   4.586   0.765   2.955
 3562SOL    HW111585   4.667   0.809   2.917
 3562SOL    HW211586   4.614   0.688   3.013
 3563SOL     OW11587   4.676   0.801   1.629
 3563SOL    HW111588   4.613   0.732   1.663
 3563SOL    HW211589   4.672   0.882   1.687
 3564SOL     OW11590   6.962   4.770   3.536
 3564SOL    HW111591   0.030   4.820   3.541
 3564SOL    HW211592   6.980   4.677   3.505
 3565SOL     OW11593   2.084   0.324   5.064
 3565SOL    HW111594   2.055   0.419   5.075
 3565SOL    HW211595   2.143   0.317   4.983
 3566SOL     OW11596   0.475   3.437   5.276
 3566SOL    HW111597   0.560   3.386   5.260
 3566SOL    HW211598   0.488   3.499   5.353
 3567SOL     OW11599   0.420   3.303   1.211
 3567SOL    HW111600   0.483   3.245   1.263
 3567SOL    HW211601   0.352   3.246   1.164
 3568SOL     OW11602   4.830   4.036   3.274
 3568SOL    HW111603   4.834   3.973   3.351
 3568SOL    HW211604   4.877   4.121   3.297
 3569SOL     OW11605   3.819   3.473   3.603
 3569SOL    HW111606   3.852   3.416   3.677
 3569SOL    HW211607   3.778   3.416   3.532
 3570SOL     OW11608   0.139   2.184   5.847
 3570SOL    HW111609   0.141   2.213   5.751
 3570SOL    HW211610   0.178   2.256   5.904
 3571SOL     OW11611   2.364   6.625   4.932
 3571SOL    HW111612   2.287   6.603   4.872
 3571SOL    HW211613   2.408   6.709   4.901
 3572SOL     OW11614   4.882   4.744   2.116
 3572SOL    HW111615   4.976   4.775   2.126
 3572SOL    HW211616   4.880   4.663   2.057
 3573SOL     OW11617   0.202   3.907   3.238
 3573SOL    HW111618   0.230   3.993   3.196
 3573SOL    HW211619   0.131   3.925   3.306
 3574SOL     OW11620   1.987   2.857   5.682
 3574SOL    HW111621   1.998   2.868   5.781
 3574SOL    HW211622   1.899   2.893   5.653
 3575SOL     OW11623   5.337   0.387   0.543
 3575SOL    HW111624   5.374   0.307   0.591
 3575SOL    HW211625   5.412   0.435   0.498
 3576SOL     OW11626   1.472   2.928   0.935
 3576SOL    HW111627   1.472   3.004   0.870
 3576SOL    HW211628   1.377   2.902   0.956
 3577SOL     OW11629   2.690   3.097   5.720
 3577SOL    HW111630   2.687   3.175   5.657
 3577SOL    HW211631   2.769   3.107   5.781
 3578SOL     OW11632   3.259   2.807   5.864
 3578SOL    HW111633   3.295   2.778   5.776
 3578SOL    HW211634   3.204   2.890   5.852
 3579SOL     OW11635   0.839   2.973   2.015
 3579SOL    HW111636   0.781   2.968   2.096
 3579SOL    HW211637   0.784   2.999   1.936
 3580SOL     OW11638   0.458   4.575   1.782
 3580SOL    HW111639   0.535   4.571   1.846
 3580SOL    HW211640   0.373   4.584   1.833
 3581SOL     OW11641   1.956   0.188   2.945
 3581SOL    HW111642   2.004   0.200   2.858
 3581SOL    HW211643   2.021   0.160   3.016
 3582SOL     OW11644   3.769   4.579   6.233
 3582SOL    HW111645   3.763   4.659   6.174
 3582SOL    HW211646   3.743   4.605   6.326
 3583SOL     OW11647   0.680   5.039   0.571
 3583SOL    HW111648   0.706   5.045   0.667
 3583SOL    HW211649   0.750   4.989   0.520
 3584SOL     OW11650   6.189   4.658   5.083
 3584SOL    HW111651   6.175   4.665   4.984
 3584SOL    HW211652   6.184   4.750   5.123
 3585SOL     OW11653   2.854   1.515   3.048
 3585SOL    HW111654   2.909   1.542   3.127
 3585SOL    HW211655   2.764   1.486   3.079
 3586SOL     OW11656   6.505   1.919   4.813
 3586SOL    HW111657   6.435   1.880   4.753
 3586SOL    HW211658   6.472   1.918   4.908
 3587SOL     OW11659   2.911   6.984   6.601
 3587SOL    HW111660   2.956   0.008   6.680
 3587SOL    HW211661   2.873   0.038   6.543
 3588SOL     OW11662   6.444   4.367   4.569
 3588SOL    HW111663   6.361   4.402   4.615
 3588SOL    HW211664   6.525   4.398   4.619
 3589SOL     OW11665   0.209   0.383   5.902
 3589SOL    HW111666   0.177   0.350   5.991
 3589SOL    HW211667   0.132   0.425   5.853
 3590SOL     OW11668   6.833   5.008   0.495
 3590SOL    HW111669   6.773   5.087   0.481
 3590SOL    HW211670   6.864   4.973   0.407
 3591SOL     OW11671   5.736   1.609   6.860
 3591SOL    HW111672   5.772   1.593   6.769
 3591SOL    HW211673   5.777   1.543   6.924
 3592SOL     OW11674   1.883   6.429   1.424
 3592SOL    HW111675   1.844   6.397   1.510
 3592SOL    HW211676   1.843   6.517   1.399
 3593SOL     OW11677   4.532   3.147   5.403
 3593SOL    HW111678   4.561   3.234   5.364
 3593SOL    HW211679   4.607   3.081   5.398
 3594SOL     OW11680   4.465   4.668   5.213
 3594SOL    HW111681   4.412   4.610   5.151
 3594SOL    HW211682   4.531   4.722   5.160
 3595SOL     OW11683   5.579   6.599   4.884
 3595SOL    HW111684   5.533   6.687   4.895
 3595SOL    HW211685   5.536   6.531   4.943
 3596SOL     OW11686   3.902   2.040   3.809
 3596SOL    HW111687   3.983   2.080   3.852
 3596SOL    HW211688   3.898   1.942   3.827
 3597SOL     OW11689   2.625   3.122   5.383
 3597SOL    HW111690   2.552   3.108   5.316
 3597SOL    HW211691   2.677   3.037   5.393
 3598SOL     OW11692   1.372   5.539   5.068
 3598SOL    HW111693   1.276   5.526   5.045
 3598SOL    HW211694   1.426   5.466   5.024
 3599SOL     OW11695   3.470   1.311   4.738
 3599SOL    HW111696   3.487   1.229   4.793
 3599SOL    HW211697   3.554   1.365   4.732
 3600SOL     OW11698   3.044   3.460   0.299
 3600SOL    HW111699   2.981   3.403   0.247
 3600SOL    HW211700   3.002   3.549   0.316
 3601SOL     OW11701   4.980   0.710   4.878
 3601SOL    HW111702   4.926   0.764   4.814
 3601SOL    HW211703   4.949   0.615   4.876
 3602SOL     OW11704   2.082   1.905   1.591
 3602SOL    HW111705   2.006   1.843   1.572
 3602SOL    HW211706   2.111   1.895   1.686
 3603SOL     OW11707   2.549   0.554   5.543
 3603SOL    HW111708   2.463   0.534   5.495
 3603SOL    HW211709   2.624   0.554   5.477
 3604SOL     OW11710   6.913   0.124   3.132
 3604SOL    HW111711   6.946   0.205   3.085
 3604SOL    HW211712   6.821   0.101   3.100
 3605SOL     OW11713   1.386   6.236   3.736
 3605SOL    HW111714   1.319   6.161   3.729
 3605SOL    HW211715   1.437   6.227   3.821
 3606SOL     OW11716   2.781   6.558   2.653
 3606SOL    HW111717   2.811   6.645   2.612
 3606SOL    HW211718   2.859   6.497   2.662
 3607SOL     OW11719   5.418   1.712   2.525
 3607SOL    HW111720   5.510   1.722   2.560
 3607SOL    HW211721   5.360   1.786   2.559
 3608SOL     OW11722   2.560   1.977   6.126
 3608SOL    HW111723   2.466   1.957   6.155
 3608SOL    HW211724   2.613   2.008   6.205
 3609SOL     OW11725   2.566   0.591   4.823
 3609SOL    HW111726   2.578   0.583   4.724
 3609SOL    HW211727   2.587   0.503   4.866
 3610SOL     OW11728   1.616   6.967   5.102
 3610SOL    HW111729   1.652   6.957   5.009
 3610SOL    HW211730   1.618   0.045   5.129
 3611SOL     OW11731   5.509   4.976   3.030
 3611SOL    HW111732   5.527   4.970   3.128
 3611SOL    HW211733   5.559   5.053   2.991
 3612SOL     OW11734   6.170   1.382   0.134
 3612SOL    HW111735   6.258   1.335   0.128
 3612SOL    HW211736   6.123   1.377   0.046
 3613SOL     OW11737   4.427   5.919   2.099
 3613SOL    HW111738   4.341   5.946   2.143
 3613SOL    HW211739   4.493   5.993   2.108
 3614SOL     OW11740   3.739   5.252   6.612
 3614SOL    HW111741   3.825   5.297   6.635
 3614SOL    HW211742   3.737   5.162   6.655
 3615SOL     OW11743   5.442   2.375   6.039
 3615SOL    HW111744   5.407   2.448   5.981
 3615SOL    HW211745   5.518   2.408   6.093
 3616SOL     OW11746   0.838   1.924   6.973
 3616SOL    HW111747   0.934   1.938   6.999
 3616SOL    HW211748   0.812   1.991   6.903
 3617SOL     OW11749   3.906   5.980   5.429
 3617SOL    HW111750   3.987   6.039   5.433
 3617SOL    HW211751   3.872   5.965   5.522
 3618SOL     OW11752   1.496   5.431   4.270
 3618SOL    HW111753   1.417   5.419   4.210
 3618SOL    HW211754   1.490   5.520   4.316
 3619SOL     OW11755   5.658   3.758   1.466
 3619SOL    HW111756   5.647   3.854   1.438
 3619SOL    HW211757   5.725   3.752   1.540
 3620SOL     OW11758   6.038   5.943   5.250
 3620SOL    HW111759   5.977   5.887   5.194
 3620SOL    HW211760   6.029   5.916   5.346
 3621SOL     OW11761   3.018   3.177   3.129
 3621SOL    HW111762   3.106   3.209   3.095
 3621SOL    HW211763   2.997   3.221   3.216
 3622SOL     OW11764   1.328   6.069   6.554
 3622SOL    HW111765   1.407   6.097   6.500
 3622SOL    HW211766   1.345   6.090   6.651
 3623SOL     OW11767   0.977   5.585   6.301
 3623SOL    HW111768   0.888   5.580   6.255
 3623SOL    HW211769   1.049   5.569   6.234
 3624SOL     OW11770   2.607   2.325   1.039
 3624SOL    HW111771   2.664   2.249   1.010
 3624SOL    HW211772   2.621   2.342   1.137
 3625SOL     OW11773   6.868   2.057   0.498
 3625SOL    HW111774   6.943   2.058   0.565
 3625SOL    HW211775   6.787   2.098   0.539
 3626SOL     OW11776   1.389   2.847   4.852
 3626SOL    HW111777   1.475   2.800   4.831
 3626SOL    HW211778   1.350   2.808   4.935
 3627SOL     OW11779   3.504   2.034   2.118
 3627SOL    HW111780   3.550   2.092   2.051
 3627SOL    HW211781   3.548   2.042   2.207
 3628SOL     OW11782   6.772   2.512   1.243
 3628SOL    HW111783   6.766   2.494   1.145
 3628SOL    HW211784   6.855   2.564   1.262
 3629SOL     OW11785   1.013   1.218   4.004
 3629SOL    HW111786   0.931   1.163   4.019
 3629SOL    HW211787   0.994   1.314   4.023
 3630SOL     OW11788   0.187   2.335   2.253
 3630SOL    HW111789   0.145   2.357   2.166
 3630SOL    HW211790   0.285   2.357   2.250
 3631SOL     OW11791   1.955   0.105   2.351
 3631SOL    HW111792   1.881   0.110   2.285
 3631SOL    HW211793   2.024   0.040   2.319
 3632SOL     OW11794   4.684   3.919   1.534
 3632SOL    HW111795   4.700   3.824   1.561
 3632SOL    HW211796   4.734   3.980   1.596
 3633SOL     OW11797   3.925   4.113   6.811
 3633SOL    HW111798   4.024   4.122   6.807
 3633SOL    HW211799   3.887   4.109   6.719
 3634SOL     OW11800   3.377   5.588   6.751
 3634SOL    HW111801   3.377   5.646   6.832
 3634SOL    HW211802   3.468   5.589   6.710
 3635SOL     OW11803   1.421   6.136   1.807
 3635SOL    HW111804   1.500   6.196   1.821
 3635SOL    HW211805   1.452   6.041   1.812
 3636SOL     OW11806   0.535   4.877   6.350
 3636SOL    HW111807   0.568   4.789   6.386
 3636SOL    HW211808   0.589   4.951   6.389
 3637SOL     OW11809   6.099   3.526   6.955
 3637SOL    HW111810   6.105   3.600   0.004
 3637SOL    HW211811   6.043   3.556   6.878
 3638SOL     OW11812   6.503   3.683   3.244
 3638SOL    HW111813   6.527   3.766   3.194
 3638SOL    HW211814   6.404   3.667   3.237
 3639SOL     OW11815   3.527   2.899   3.937
 3639SOL    HW111816   3.515   2.999   3.938
 3639SOL    HW211817   3.601   2.875   3.874
 3640SOL     OW11818   4.346   2.040   1.245
 3640SOL    HW111819   4.414   1.969   1.262
 3640SOL    HW211820   4.334   2.095   1.328
 3641SOL     OW11821   6.017   4.053   2.637
 3641SOL    HW111822   5.946   4.058   2.707
 3641SOL    HW211823   6.056   4.143   2.622
 3642SOL     OW11824   5.524   3.202   6.463
 3642SOL    HW111825   5.452   3.186   6.529
 3642SOL    HW211826   5.504   3.155   6.378
 3643SOL     OW11827   4.097   5.803   5.141
 3643SOL    HW111828   4.128   5.715   5.105
 3643SOL    HW211829   4.176   5.856   5.172
 3644SOL     OW11830   2.554   0.910   1.362
 3644SOL    HW111831   2.615   0.838   1.396
 3644SOL    HW211832   2.489   0.870   1.297
 3645SOL     OW11833   1.297   4.137   3.077
 3645SOL    HW111834   1.328   4.107   3.167
 3645SOL    HW211835   1.206   4.100   3.059
 3646SOL     OW11836   1.440   4.403   5.555
 3646SOL    HW111837   1.530   4.406   5.598
 3646SOL    HW211838   1.451   4.396   5.456
 3647SOL     OW11839   2.887   0.373   6.443
 3647SOL    HW111840   2.937   0.290   6.415
 3647SOL    HW211841   2.893   0.441   6.370
 3648SOL     OW11842   4.416   5.331   3.272
 3648SOL    HW111843   4.440   5.355   3.178
 3648SOL    HW211844   4.499   5.332   3.329
 3649SOL     OW11845   6.208   2.860   0.007
 3649SOL    HW111846   6.193   2.844   0.104
 3649SOL    HW211847   6.121   2.883   6.981
 3650SOL     OW11848   5.430   5.991   6.987
 3650SOL    HW111849   5.474   6.080   6.983
 3650SOL    HW211850   5.403   5.963   6.894
 3651SOL     OW11851   0.756   1.796   5.616
 3651SOL    HW111852   0.757   1.857   5.695
 3651SOL    HW211853   0.752   1.850   5.532
 3652SOL     OW11854   4.199   1.418   1.632
 3652SOL    HW111855   4.194   1.515   1.608
 3652SOL    HW211856   4.271   1.374   1.580
 3653SOL     OW11857   1.106   1.333   1.113
 3653SOL    HW111858   1.123   1.258   1.177
 3653SOL    HW211859   1.060   1.297   1.031
 3654SOL     OW11860   4.974   6.581   1.504
 3654SOL    HW111861   4.921   6.561   1.586
 3654SOL    HW211862   4.915   6.575   1.424
 3655SOL     OW11863   1.637   1.710   4.026
 3655SOL    HW111864   1.593   1.621   4.029
 3655SOL    HW211865   1.701   1.714   3.949
 3656SOL     OW11866   0.166   0.106   1.491
 3656SOL    HW111867   0.099   0.180   1.497
 3656SOL    HW211868   0.258   0.144   1.495
 3657SOL     OW11869   6.008   5.481   5.792
 3657SOL    HW111870   6.085   5.488   5.728
 3657SOL    HW211871   5.947   5.408   5.762
 3658SOL     OW11872   1.879   5.065   5.667
 3658SOL    HW111873   1.970   5.090   5.634
 3658SOL    HW211874   1.877   5.072   5.767
 3659SOL     OW11875   6.945   2.286   5.990
 3659SOL    HW111876   6.972   2.229   6.067
 3659SOL    HW211877   6.993   2.255   5.908
 3660SOL     OW11878   5.332   5.710   6.514
 3660SOL    HW111879   5.404   5.742   6.453
 3660SOL    HW211880   5.342   5.611   6.528
 3661SOL     OW11881   0.325   1.577   4.787
 3661SOL    HW111882   0.386   1.655   4.792
 3661SOL    HW211883   0.376   1.493   4.805
 3662SOL     OW11884   2.909   1.753   5.500
 3662SOL    HW111885   2.834   1.746   5.567
 3662SOL    HW211886   2.906   1.843   5.456
 3663SOL     OW11887   2.594   2.399   6.605
 3663SOL    HW111888   2.632   2.368   6.692
 3663SOL    HW211889   2.658   2.380   6.531
 3664SOL     OW11890   3.625   1.545   1.665
 3664SOL    HW111891   3.624   1.602   1.582
 3664SOL    HW211892   3.640   1.603   1.745
 3665SOL     OW11893   1.014   5.767   5.920
 3665SOL    HW111894   0.943   5.832   5.894
 3665SOL    HW211895   1.069   5.805   5.994
 3666SOL     OW11896   2.274   2.773   4.591
 3666SOL    HW111897   2.299   2.779   4.688
 3666SOL    HW211898   2.320   2.694   4.550
 3667SOL     OW11899   1.646   6.781   1.128
 3667SOL    HW111900   1.690   6.869   1.149
 3667SOL    HW211901   1.651   6.764   1.030
 3668SOL     OW11902   6.490   0.786   0.905
 3668SOL    HW111903   6.521   0.872   0.865
 3668SOL    HW211904   6.552   0.712   0.877
 3669SOL     OW11905   0.911   1.188   3.756
 3669SOL    HW111906   0.961   1.245   3.692
 3669SOL    HW211907   0.937   1.212   3.850
 3670SOL     OW11908   2.661   0.162   1.875
 3670SOL    HW111909   2.731   0.113   1.823
 3670SOL    HW211910   2.651   0.255   1.839
 3671SOL     OW11911   6.815   0.620   4.153
 3671SOL    HW111912   6.791   0.593   4.247
 3671SOL    HW211913   6.883   0.556   4.117
 3672SOL     OW11914   3.564   6.610   3.875
 3672SOL    HW111915   3.485   6.566   3.833
 3672SOL    HW211916   3.544   6.629   3.971
 3673SOL     OW11917   3.305   6.714   0.978
 3673SOL    HW111918   3.334   6.768   1.057
 3673SOL    HW211919   3.379   6.711   0.911
 3674SOL     OW11920   0.939   4.500   6.529
 3674SOL    HW111921   1.037   4.513   6.512
 3674SOL    HW211922   0.917   4.532   6.622
 3675SOL     OW11923   1.259   0.436   3.892
 3675SOL    HW111924   1.215   0.347   3.896
 3675SOL    HW211925   1.331   0.434   3.823
 3676SOL     OW11926   3.466   1.496   4.397
 3676SOL    HW111927   3.478   1.397   4.405
 3676SOL    HW211928   3.509   1.542   4.475
 3677SOL     OW11929   1.689   1.018   4.540
 3677SOL    HW111930   1.596   1.015   4.502
 3677SOL    HW211931   1.747   0.953   4.491
 3678SOL     OW11932   1.220   0.838   3.892
 3678SOL    HW111933   1.151   0.783   3.938
 3678SOL    HW211934   1.235   0.801   3.800
 3679SOL     OW11935   4.335   0.222   2.228
 3679SOL    HW111936   4.315   0.189   2.321
 3679SOL    HW211937   4.309   0.152   2.162
 3680SOL     OW11938   3.221   1.637   4.478
 3680SOL    HW111939   3.200   1.732   4.504
 3680SOL    HW211940   3.315   1.616   4.503
 3681SOL     OW11941   1.093   6.460   3.872
 3681SOL    HW111942   1.110   6.366   3.842
 3681SOL    HW211943   1.100   6.521   3.793
 3682SOL     OW11944   5.221   1.988   1.383
 3682SOL    HW111945   5.295   1.923   1.399
 3682SOL    HW211946   5.259   2.075   1.351
 3683SOL     OW11947   6.088   1.509   6.906
 3683SOL    HW111948   6.172   1.525   6.855
 3683SOL    HW211949   6.049   1.597   6.933
 3684SOL     OW11950   2.271   6.314   5.251
 3684SOL    HW111951   2.194   6.334   5.312
 3684SOL    HW211952   2.236   6.274   5.166
 3685SOL     OW11953   1.960   5.991   4.508
 3685SOL    HW111954   2.053   6.022   4.526
 3685SOL    HW211955   1.923   6.041   4.429
 3686SOL     OW11956   0.200   3.703   1.235
 3686SOL    HW111957   0.270   3.772   1.215
 3686SOL    HW211958   0.243   3.624   1.278
 3687SOL     OW11959   5.890   4.372   5.100
 3687SOL    HW111960   5.936   4.326   5.024
 3687SOL    HW211961   5.793   4.352   5.098
 3688SOL     OW11962   6.356   2.612   0.769
 3688SOL    HW111963   6.440   2.573   0.806
 3688SOL    HW211964   6.332   2.695   0.819
 3689SOL     OW11965   1.029   6.960   5.963
 3689SOL    HW111966   0.967   6.949   5.886
 3689SOL    HW211967   0.977   6.960   6.048
 3690SOL     OW11968   5.176   5.553   1.933
 3690SOL    HW111969   5.269   5.535   1.967
 3690SOL    HW211970   5.162   5.652   1.928
 3691SOL     OW11971   2.102   2.864   0.533
 3691SOL    HW111972   2.010   2.832   0.556
 3691SOL    HW211973   2.139   2.916   0.610
 3692SOL     OW11974   1.053   2.923   5.352
 3692SOL    HW111975   1.066   2.881   5.442
 3692SOL    HW211976   1.000   3.007   5.362
 3693SOL     OW11977   6.967   1.617   2.216
 3693SOL    HW111978   7.011   1.705   2.198
 3693SOL    HW211979   0.018   1.545   2.218
 3694SOL     OW11980   6.823   0.213   2.750
 3694SOL    HW111981   6.776   0.160   2.680
 3694SOL    HW211982   6.912   0.173   2.769
 3695SOL     OW11983   5.707   3.452   2.976
 3695SOL    HW111984   5.692   3.382   3.046
 3695SOL    HW211985   5.740   3.409   2.892
 3696SOL     OW11986   4.282   0.727   4.332
 3696SOL    HW111987   4.216   0.685   4.394
 3696SOL    HW211988   4.367   0.673   4.333
 3697SOL     OW11989   6.807   6.069   3.175
 3697SOL    HW111990   6.800   6.056   3.076
 3697SOL    HW211991   6.863   6.150   3.194
 3698SOL     OW11992   1.488   0.185   2.941
 3698SOL    HW111993   1.417   0.213   2.877
 3698SOL    HW211994   1.475   0.089   2.967
 3699SOL     OW11995   2.558   2.514   3.519
 3699SOL    HW111996   2.502   2.567   3.583
 3699SOL    HW211997   2.634   2.472   3.569
 3700SOL     OW11998   0.857   5.301   4.842
 3700SOL    HW111999   0.887   5.283   4.749
 3700SOL    HW212000   0.807   5.222   4.878
 3701SOL     OW12001   0.724   0.828   2.025
 3701SOL    HW112002   0.823   0.828   2.014
 3701SOL    HW212003   0.700   0.778   2.108
 3702SOL     OW12004   6.044   4.074   3.277
 3702SOL    HW112005   6.112   4.006   3.302
 3702SOL    HW212006   5.952   4.037   3.292
 3703SOL     OW12007   1.315   1.766   3.539
 3703SOL    HW112008   1.292   1.855   3.499
 3703SOL    HW212009   1.398   1.775   3.594
 3704SOL     OW12010   6.559   1.059   0.500
 3704SOL    HW112011   6.588   1.135   0.441
 3704SOL    HW212012   6.591   0.973   0.462
 3705SOL     OW12013   5.673   4.230   3.840
 3705SOL    HW112014   5.765   4.261   3.817
 3705SOL    HW212015   5.671   4.130   3.838
 3706SOL     OW12016   1.477   4.045   6.237
 3706SOL    HW112017   1.413   3.976   6.203
 3706SOL    HW212018   1.567   4.031   6.196
 3707SOL     OW12019   1.121   4.959   3.224
 3707SOL    HW112020   1.167   4.910   3.149
 3707SOL    HW212021   1.142   4.913   3.311
 3708SOL     OW12022   2.260   6.211   1.219
 3708SOL    HW112023   2.284   6.118   1.245
 3708SOL    HW212024   2.161   6.216   1.202
 3709SOL     OW12025   1.407   1.368   1.362
 3709SOL    HW112026   1.499   1.406   1.377
 3709SOL    HW212027   1.411   1.268   1.366
 3710SOL     OW12028   1.018   4.175   5.262
 3710SOL    HW112029   1.099   4.124   5.234
 3710SOL    HW212030   1.038   4.273   5.264
 3711SOL     OW12031   1.056   6.092   4.548
 3711SOL    HW112032   1.065   6.001   4.587
 3711SOL    HW212033   1.142   6.143   4.562
 3712SOL     OW12034   2.038   5.652   4.074
 3712SOL    HW112035   1.989   5.727   4.119
 3712SOL    HW212036   2.136   5.674   4.069
 3713SOL     OW12037   6.157   0.504   4.488
 3713SOL    HW112038   6.234   0.531   4.430
 3713SOL    HW212039   6.190   0.489   4.581
 3714SOL     OW12040   0.966   4.148   0.191
 3714SOL    HW112041   1.029   4.094   0.247
 3714SOL    HW212042   0.937   4.094   0.112
 3715SOL     OW12043   5.731   4.900   3.706
 3715SOL    HW112044   5.781   4.855   3.632
 3715SOL    HW212045   5.711   4.995   3.679
 3716SOL     OW12046   5.098   5.571   5.037
 3716SOL    HW112047   5.168   5.502   5.055
 3716SOL    HW212048   5.063   5.560   4.944
 3717SOL     OW12049   4.788   1.083   0.836
 3717SOL    HW112050   4.739   1.055   0.919
 3717SOL    HW212051   4.810   1.181   0.842
 3718SOL     OW12052   5.961   6.640   6.422
 3718SOL    HW112053   6.030   6.600   6.363
 3718SOL    HW212054   5.974   6.608   6.516
 3719SOL     OW12055   3.537   3.780   0.129
 3719SOL    HW112056   3.437   3.777   0.132
 3719SOL    HW212057   3.567   3.874   0.113
 3720SOL     OW12058   0.208   3.212   1.054
 3720SOL    HW112059   0.148   3.165   0.990
 3720SOL    HW212060   0.226   3.305   1.022
 3721SOL     OW12061   6.650   0.260   5.616
 3721SOL    HW112062   6.733   0.204   5.617
 3721SOL    HW212063   6.574   0.206   5.580
 3722SOL     OW12064   5.438   0.010   2.608
 3722SOL    HW112065   5.452   0.106   2.633
 3722SOL    HW212066   5.471   7.014   2.514
 3723SOL     OW12067   4.411   3.813   6.980
 3723SOL    HW112068   4.412   3.716   6.956
 3723SOL    HW212069   4.318   3.849   6.968
 3724SOL     OW12070   0.153   5.046   4.365
 3724SOL    HW112071   0.195   5.124   4.319
 3724SOL    HW212072   0.213   4.966   4.354
 3725SOL     OW12073   1.380   6.322   0.372
 3725SOL    HW112074   1.468   6.363   0.396
 3725SOL    HW212075   1.341   6.369   0.293
 3726SOL     OW12076   6.132   3.695   5.413
 3726SOL    HW112077   6.161   3.779   5.367
 3726SOL    HW212078   6.206   3.661   5.471
 3727SOL     OW12079   6.816   2.913   3.828
 3727SOL    HW112080   6.724   2.876   3.821
 3727SOL    HW212081   6.813   3.006   3.863
 3728SOL     OW12082   2.530   3.484   0.671
 3728SOL    HW112083   2.577   3.417   0.613
 3728SOL    HW212084   2.497   3.439   0.754
 3729SOL     OW12085   0.165   0.845   5.824
 3729SOL    HW112086   0.206   0.789   5.896
 3729SOL    HW212087   0.238   0.896   5.777
 3730SOL     OW12088   5.018   5.534   4.788
 3730SOL    HW112089   4.949   5.562   4.722
 3730SOL    HW212090   5.080   5.468   4.745
 3731SOL     OW12091   6.756   2.173   6.992
 3731SOL    HW112092   6.704   2.088   6.990
 3731SOL    HW212093   6.765   2.204   0.068
 3732SOL     OW12094   3.505   2.924   0.009
 3732SOL    HW112095   3.603   2.905   0.012
 3732SOL    HW212096   3.467   2.890   6.942
 3733SOL     OW12097   1.520   0.106   3.645
 3733SOL    HW112098   1.615   0.089   3.669
 3733SOL    HW212099   1.461   0.042   3.694
 3734SOL     OW12100   3.919   0.381   0.916
 3734SOL    HW112101   3.886   0.475   0.921
 3734SOL    HW212102   4.019   0.382   0.908
 3735SOL     OW12103   4.639   6.772   2.931
 3735SOL    HW112104   4.572   6.827   2.883
 3735SOL    HW212105   4.624   6.675   2.911
 3736SOL     OW12106   6.870   0.849   6.733
 3736SOL    HW112107   6.779   0.834   6.771
 3736SOL    HW212108   6.864   0.920   6.662
 3737SOL     OW12109   6.115   1.905   2.969
 3737SOL    HW112110   6.050   1.973   2.937
 3737SOL    HW212111   6.094   1.816   2.928
 3738SOL     OW12112   6.910   0.082   1.438
 3738SOL    HW112113   6.947   0.127   1.357
 3738SOL    HW212114   6.812   0.064   1.425
 3739SOL     OW12115   3.338   3.484   0.013
 3739SOL    HW112116   3.256   3.433   7.005
 3739SOL    HW212117   3.387   3.435   0.085
 3740SOL     OW12118   4.671   5.577   6.708
 3740SOL    HW112119   4.575   5.585   6.738
 3740SOL    HW212120   4.714   5.500   6.755
 3741SOL     OW12121   5.311   3.149   0.171
 3741SOL    HW112122   5.218   3.146   0.209
 3741SOL    HW212123   5.374   3.185   0.240
 3742SOL     OW12124   4.124   5.941   1.156
 3742SOL    HW112125   4.073   5.965   1.073
 3742SOL    HW212126   4.141   5.843   1.158
 3743SOL     OW12127   3.515   3.652   1.267
 3743SOL    HW112128   3.504   3.585   1.340
 3743SOL    HW212129   3.450   3.727   1.281
 3744SOL     OW12130   0.106   6.652   2.377
 3744SOL    HW112131   0.036   6.721   2.398
 3744SOL    HW212132   0.140   6.613   2.462
 3745SOL     OW12133   4.796   2.886   2.519
 3745SOL    HW112134   4.871   2.912   2.580
 3745SOL    HW212135   4.775   2.962   2.458
 3746SOL     OW12136   6.352   0.619   4.347
 3746SOL    HW112137   6.397   0.634   4.435
 3746SOL    HW212138   6.333   0.707   4.304
 3747SOL     OW12139   3.578   6.223   5.495
 3747SOL    HW112140   3.627   6.250   5.412
 3747SOL    HW212141   3.576   6.300   5.559
 3748SOL     OW12142   5.025   2.284   3.324
 3748SOL    HW112143   5.031   2.376   3.363
 3748SOL    HW212144   4.929   2.263   3.303
 3749SOL     OW12145   6.855   6.458   2.671
 3749SOL    HW112146   6.847   6.359   2.657
 3749SOL    HW212147   6.764   6.498   2.681
 3750SOL     OW12148   5.432   4.314   0.937
 3750SOL    HW112149   5.506   4.294   1.001
 3750SOL    HW212150   5.456   4.279   0.847
 3751SOL     OW12151   1.423   4.005   1.848
 3751SOL    HW112152   1.336   4.035   1.887
 3751SOL    HW212153   1.468   3.942   1.911
 3752SOL     OW12154   0.783   6.691   6.012
 3752SOL    HW112155   0.798   6.745   6.095
 3752SOL    HW212156   0.854   6.621   6.004
 3753SOL     OW12157   6.929   0.813   4.684
 3753SOL    HW112158   6.913   0.881   4.612
 3753SOL    HW212159   7.002   0.846   4.745
 3754SOL     OW12160   6.648   6.410   2.027
 3754SOL    HW112161   6.548   6.401   2.020
 3754SOL    HW212162   6.681   6.470   1.953
 3755SOL     OW12163   4.928   2.448   2.859
 3755SOL    HW112164   4.928   2.519   2.789
 3755SOL    HW212165   4.839   2.402   2.859
 3756SOL     OW12166   2.935   0.444   6.944
 3756SOL    HW112167   3.026   0.445   6.986
 3756SOL    HW212168   2.900   0.538   6.938
 3757SOL     OW12169   3.160   4.741   7.000
 3757SOL    HW112170   3.064   4.770   6.996
 3757SOL    HW212171   3.219   4.815   6.968
 3758SOL     OW12172   0.445   0.699   3.621
 3758SOL    HW112173   0.444   0.728   3.716
 3758SOL    HW212174   0.375   0.749   3.570
 3759SOL     OW12175   5.009   4.979   0.284
 3759SOL    HW112176   5.096   4.939   0.256
 3759SOL    HW212177   4.936   4.912   0.275
 3760SOL     OW12178   2.209   2.483   5.303
 3760SOL    HW112179   2.191   2.542   5.382
 3760SOL    HW212180   2.197   2.387   5.329
 3761SOL     OW12181   0.200   6.611   3.915
 3761SOL    HW112182   0.200   6.603   3.815
 3761SOL    HW212183   0.112   6.648   3.945
 3762SOL     OW12184   0.778   3.939   6.426
 3762SOL    HW112185   0.699   3.988   6.390
 3762SOL    HW212186   0.768   3.842   6.408
 3763SOL     OW12187   6.644   3.549   5.939
 3763SOL    HW112188   6.565   3.503   5.899
 3763SOL    HW212189   6.728   3.516   5.896
 3764SOL     OW12190   2.014   6.669   3.797
 3764SOL    HW112191   2.068   6.737   3.846
 3764SOL    HW212192   2.017   6.582   3.847
 3765SOL     OW12193   6.003   1.187   3.806
 3765SOL    HW112194   6.038   1.181   3.899
 3765SOL    HW212195   6.066   1.141   3.743
 3766SOL     OW12196   1.351   0.241   4.867
 3766SOL    HW112197   1.428   0.211   4.810
 3766SOL    HW212198   1.330   0.337   4.846
 3767SOL     OW12199   1.565   4.305   1.040
 3767SOL    HW112200   1.603   4.394   1.065
 3767SOL    HW212201   1.520   4.265   1.120
 3768SOL     OW12202   4.715   6.501   0.728
 3768SOL    HW112203   4.797   6.451   0.701
 3768SOL    HW212204   4.703   6.581   0.668
 3769SOL     OW12205   4.546   6.476   5.002
 3769SOL    HW112206   4.542   6.379   4.978
 3769SOL    HW212207   4.526   6.531   4.922
 3770SOL     OW12208   2.254   1.491   0.292
 3770SOL    HW112209   2.275   1.515   0.197
 3770SOL    HW212210   2.334   1.450   0.334
 3771SOL     OW12211   4.959   1.121   5.384
 3771SOL    HW112212   4.919   1.140   5.474
 3771SOL    HW212213   4.939   1.198   5.323
 3772SOL     OW12214   4.893   1.150   2.655
 3772SOL    HW112215   4.916   1.207   2.576
 3772SOL    HW212216   4.816   1.090   2.631
 3773SOL     OW12217   6.563   2.730   6.591
 3773SOL    HW112218   6.649   2.762   6.632
 3773SOL    HW212219   6.560   2.757   6.495
 3774SOL     OW12220   0.988   1.670   2.122
 3774SOL    HW112221   0.947   1.743   2.068
 3774SOL    HW212222   1.079   1.698   2.153
 3775SOL     OW12223   5.774   3.162   3.673
 3775SOL    HW112224   5.705   3.221   3.715
 3775SOL    HW212225   5.744   3.067   3.677
 3776SOL     OW12226   2.994   3.024   6.501
 3776SOL    HW112227   2.922   2.955   6.493
 3776SOL    HW212228   2.969   3.091   6.571
 3777SOL     OW12229   1.593   4.134   3.366
 3777SOL    HW112230   1.655   4.204   3.332
 3777SOL    HW212231   1.645   4.061   3.411
 3778SOL     OW12232   2.474   6.838   2.072
 3778SOL    HW112233   2.464   6.925   2.022
 3778SOL    HW212234   2.439   6.764   2.015
 3779SOL     OW12235   3.248   5.089   6.493
 3779SOL    HW112236   3.176   5.020   6.500
 3779SOL    HW212237   3.259   5.136   6.580
 3780SOL     OW12238   2.811   6.936   4.597
 3780SOL    HW112239   2.774   6.940   4.690
 3780SOL    HW212240   2.823   6.840   4.571
 3781SOL     OW12241   3.039   5.183   4.846
 3781SOL    HW112242   3.129   5.140   4.838
 3781SOL    HW212243   3.045   5.278   4.814
 3782SOL     OW12244   1.974   1.884   3.145
 3782SOL    HW112245   1.884   1.927   3.147
 3782SOL    HW212246   1.966   1.792   3.107
 3783SOL     OW12247   4.722   5.284   5.817
 3783SOL    HW112248   4.632   5.329   5.817
 3783SOL    HW212249   4.756   5.281   5.723
 3784SOL     OW12250   4.758   1.341   3.642
 3784SOL    HW112251   4.806   1.291   3.714
 3784SOL    HW212252   4.816   1.417   3.610
 3785SOL     OW12253   1.664   1.520   1.661
 3785SOL    HW112254   1.610   1.596   1.696
 3785SOL    HW212255   1.608   1.437   1.659
 3786SOL     OW12256   3.180   5.273   2.660
 3786SOL    HW112257   3.135   5.362   2.666
 3786SOL    HW212258   3.201   5.254   2.564
 3787SOL     OW12259   4.189   1.446   4.277
 3787SOL    HW112260   4.093   1.421   4.268
 3787SOL    HW212261   4.245   1.377   4.230
 3788SOL     OW12262   5.966   3.800   1.955
 3788SOL    HW112263   5.915   3.877   1.992
 3788SOL    HW212264   5.935   3.715   1.999
 3789SOL     OW12265   1.048   4.953   2.673
 3789SOL    HW112266   0.953   4.922   2.677
 3789SOL    HW212267   1.051   5.050   2.647
 3790SOL     OW12268   2.072   3.251   3.924
 3790SOL    HW112269   2.068   3.335   3.869
 3790SOL    HW212270   2.105   3.274   4.016
 3791SOL     OW12271   5.063   0.399   2.189
 3791SOL    HW112272   4.981   0.440   2.147
 3791SOL    HW212273   5.036   0.343   2.268
 3792SOL     OW12274   0.061   6.972   5.807
 3792SOL    HW112275   0.026   6.878   5.802
 3792SOL    HW212276   0.059   7.002   5.902
 3793SOL     OW12277   2.129   6.623   2.743
 3793SOL    HW112278   2.200   6.691   2.761
 3793SOL    HW212279   2.168   6.531   2.748
 3794SOL     OW12280   3.999   6.137   2.286
 3794SOL    HW112281   4.048   6.154   2.371
 3794SOL    HW212282   3.910   6.183   2.289
 3795SOL     OW12283   4.700   0.382   0.249
 3795SOL    HW112284   4.707   0.303   0.189
 3795SOL    HW212285   4.783   0.390   0.304
 3796SOL     OW12286   1.769   2.467   1.537
 3796SOL    HW112287   1.728   2.515   1.615
 3796SOL    HW212288   1.832   2.529   1.490
 3797SOL     OW12289   0.227   5.442   2.721
 3797SOL    HW112290   0.219   5.538   2.747
 3797SOL    HW212291   0.177   5.425   2.637
 3798SOL     OW12292   1.284   4.342   1.834
 3798SOL    HW112293   1.373   4.302   1.858
 3798SOL    HW212294   1.289   4.385   1.744
 3799SOL     OW12295   1.706   0.550   5.327
 3799SOL    HW112296   1.611   0.576   5.344
 3799SOL    HW212297   1.715   0.451   5.338
 3800SOL     OW12298   4.710   2.334   4.932
 3800SOL    HW112299   4.611   2.341   4.951
 3800SOL    HW212300   4.725   2.332   4.833
 3801SOL     OW12301   0.087   0.399   6.676
 3801SOL    HW112302   0.179   0.418   6.641
 3801SOL    HW212303   0.039   0.485   6.692
 3802SOL     OW12304   1.901   2.297   5.237
 3802SOL    HW112305   1.832   2.245   5.287
 3802SOL    HW212306   1.926   2.378   5.288
 3803SOL     OW12307   3.738   1.439   0.960
 3803SOL    HW112308   3.662   1.476   1.014
 3803SOL    HW212309   3.802   1.392   1.021
 3804SOL     OW12310   4.801   2.642   5.644
 3804SOL    HW112311   4.887   2.641   5.594
 3804SOL    HW212312   4.745   2.720   5.615
 3805SOL     OW12313   1.917   3.739   1.022
 3805SOL    HW112314   1.933   3.787   1.108
 3805SOL    HW212315   1.962   3.789   0.948
 3806SOL     OW12316   3.081   1.631   0.308
 3806SOL    HW112317   3.008   1.684   0.352
 3806SOL    HW212318   3.042   1.574   0.236
 3807SOL     OW12319   1.374   6.762   3.060
 3807SOL    HW112320   1.433   6.838   3.086
 3807SOL    HW212321   1.346   6.773   2.965
 3808SOL     OW12322   3.222   0.787   0.908
 3808SOL    HW112323   3.198   0.690   0.906
 3808SOL    HW212324   3.289   0.803   0.980
 3809SOL     OW12325   4.480   0.630   6.734
 3809SOL    HW112326   4.412   0.635   6.807
 3809SOL    HW212327   4.570   0.649   6.771
 3810SOL     OW12328   2.904   3.130   5.211
 3810SOL    HW112329   2.820   3.124   5.158
 3810SOL    HW212330   2.884   3.173   5.299
 3811SOL     OW12331   0.373   0.172   6.160
 3811SOL    HW112332   0.276   0.194   6.166
 3811SOL    HW212333   0.386   0.100   6.092
 3812SOL     OW12334   5.407   1.408   5.772
 3812SOL    HW112335   5.367   1.415   5.864
 3812SOL    HW212336   5.382   1.320   5.731
 3813SOL     OW12337   3.666   4.993   1.853
 3813SOL    HW112338   3.757   4.980   1.815
 3813SOL    HW212339   3.639   4.912   1.905
 3814SOL     OW12340   1.547   6.713   2.562
 3814SOL    HW112341   1.593   6.793   2.601
 3814SOL    HW212342   1.513   6.655   2.636
 3815SOL     OW12343   5.534   2.174   1.825
 3815SOL    HW112344   5.453   2.137   1.871
 3815SOL    HW212345   5.615   2.156   1.880
 3816SOL     OW12346   0.300   6.475   1.748
 3816SOL    HW112347   0.378   6.487   1.687
 3816SOL    HW212348   0.221   6.524   1.711
 3817SOL     OW12349   5.226   1.827   5.217
 3817SOL    HW112350   5.156   1.756   5.224
 3817SOL    HW212351   5.316   1.785   5.213
 3818SOL     OW12352   5.200   5.017   2.919
 3818SOL    HW112353   5.234   4.971   2.837
 3818SOL    HW212354   5.275   5.033   2.982
 3819SOL     OW12355   5.564   4.221   6.136
 3819SOL    HW112356   5.474   4.216   6.092
 3819SOL    HW212357   5.622   4.285   6.087
 3820SOL     OW12358   5.427   6.435   4.193
 3820SOL    HW112359   5.414   6.408   4.289
 3820SOL    HW212360   5.418   6.535   4.185
 3821SOL     OW12361   0.935   4.018   1.668
 3821SOL    HW112362   0.885   3.967   1.739
 3821SOL    HW212363   0.898   3.995   1.578
 3822SOL     OW12364   2.028   4.966   2.067
 3822SOL    HW112365   1.966   4.910   2.121
 3822SOL    HW212366   2.028   5.060   2.101
 3823SOL     OW12367   3.087   2.785   5.354
 3823SOL    HW112368   3.135   2.700   5.328
 3823SOL    HW212369   3.132   2.863   5.309
 3824SOL     OW12370   6.914   2.422   6.411
 3824SOL    HW112371   6.824   2.381   6.420
 3824SOL    HW212372   6.939   2.466   6.497
 3825SOL     OW12373   6.920   0.252   6.335
 3825SOL    HW112374   6.862   0.170   6.337
 3825SOL    HW212375   6.865   0.333   6.356
 3826SOL     OW12376   6.754   2.186   1.163
 3826SOL    HW112377   6.749   2.111   1.096
 3826SOL    HW212378   6.680   2.176   1.230
 3827SOL     OW12379   4.746   3.492   1.000
 3827SOL    HW112380   4.798   3.448   0.927
 3827SOL    HW212381   4.802   3.563   1.042
 3828SOL     OW12382   3.999   0.907   1.740
 3828SOL    HW112383   4.094   0.935   1.739
 3828SOL    HW212384   3.941   0.985   1.763
 3829SOL     OW12385   1.129   5.231   3.349
 3829SOL    HW112386   1.174   5.299   3.408
 3829SOL    HW212387   1.031   5.230   3.369
 3830SOL     OW12388   3.060   0.219   4.761
 3830SOL    HW112389   2.986   0.272   4.723
 3830SOL    HW212390   3.101   0.269   4.838
 3831SOL     OW12391   4.214   1.667   2.160
 3831SOL    HW112392   4.161   1.675   2.244
 3831SOL    HW212393   4.308   1.643   2.182
 3832SOL     OW12394   5.237   6.756   2.553
 3832SOL    HW112395   5.213   6.829   2.489
 3832SOL    HW212396   5.335   6.755   2.568
 3833SOL     OW12397   1.522   5.386   6.960
 3833SOL    HW112398   1.436   5.405   6.912
 3833SOL    HW212399   1.596   5.440   6.920
 3834SOL     OW12400   2.410   2.177   0.802
 3834SOL    HW112401   2.415   2.251   0.870
 3834SOL    HW212402   2.428   2.215   0.711
 3835SOL     OW12403   3.532   6.038   4.404
 3835SOL    HW112404   3.595   6.077   4.337
 3835SOL    HW212405   3.496   5.952   4.369
 3836SOL     OW12406   1.768   3.221   5.057
 3836SOL    HW112407   1.717   3.167   4.990
 3836SOL    HW212408   1.866   3.211   5.040
 3837SOL     OW12409   3.649   3.527   0.153
 3837SOL    HW112410   3.585   3.464   0.196
 3837SOL    HW212411   3.602   3.613   0.131
 3838SOL     OW12412   5.715   3.592   5.285
 3838SOL    HW112413   5.810   3.563   5.276
 3838SOL    HW212414   5.672   3.545   5.362
 3839SOL     OW12415   6.343   6.400   6.244
 3839SOL    HW112416   6.371   6.368   6.153
 3839SOL    HW212417   6.262   6.459   6.235
 3840SOL     OW12418   2.649   0.168   3.863
 3840SOL    HW112419   2.681   0.155   3.769
 3840SOL    HW212420   2.689   0.250   3.901
 3841SOL     OW12421   0.305   3.953   4.658
 3841SOL    HW112422   0.297   3.902   4.572
 3841SOL    HW212423   0.361   3.901   4.723
 3842SOL     OW12424   1.512   5.054   6.509
 3842SOL    HW112425   1.493   5.111   6.589
 3842SOL    HW212426   1.536   4.962   6.538
 3843SOL     OW12427   6.028   4.224   0.799
 3843SOL    HW112428   6.063   4.312   0.768
 3843SOL    HW212429   6.000   4.170   0.719
 3844SOL     OW12430   2.551   4.348   6.416
 3844SOL    HW112431   2.463   4.356   6.369
 3844SOL    HW212432   2.583   4.253   6.411
 3845SOL     OW12433   3.155   3.603   3.888
 3845SOL    HW112434   3.195   3.693   3.871
 3845SOL    HW212435   3.070   3.613   3.941
 3846SOL     OW12436   6.974   4.314   3.594
 3846SOL    HW112437   6.967   4.412   3.574
 3846SOL    HW212438   0.051   4.286   3.592
 3847SOL     OW12439   0.682   0.187   0.646
 3847SOL    HW112440   0.603   0.247   0.655
 3847SOL    HW212441   0.709   0.181   0.550
 3848SOL     OW12442   3.296   5.280   0.477
 3848SOL    HW112443   3.357   5.204   0.455
 3848SOL    HW212444   3.214   5.275   0.420
 3849SOL     OW12445   2.260   2.117   6.131
 3849SOL    HW112446   2.266   2.056   6.210
 3849SOL    HW212447   2.333   2.185   6.136
 3850SOL     OW12448   2.376   3.650   1.514
 3850SOL    HW112449   2.307   3.630   1.445
 3850SOL    HW212450   2.443   3.714   1.477
 3851SOL     OW12451   2.000   2.997   1.397
 3851SOL    HW112452   2.021   3.076   1.455
 3851SOL    HW212453   2.075   2.984   1.331
 3852SOL     OW12454   4.666   0.862   6.159
 3852SOL    HW112455   4.566   0.853   6.166
 3852SOL    HW212456   4.689   0.951   6.121
 3853SOL     OW12457   1.463   2.707   2.042
 3853SOL    HW112458   1.378   2.753   2.066
 3853SOL    HW212459   1.541   2.761   2.073
 3854SOL     OW12460   1.339   3.093   4.736
 3854SOL    HW112461   1.420   3.152   4.737
 3854SOL    HW212462   1.361   3.005   4.777
 3855SOL     OW12463   0.113   1.776   5.060
 3855SOL    HW112464   0.206   1.794   5.026
 3855SOL    HW212465   0.047   1.805   4.991
 3856SOL     OW12466   0.779   6.817   5.511
 3856SOL    HW112467   0.789   6.717   5.513
 3856SOL    HW212468   0.847   6.856   5.450
 3857SOL     OW12469   1.175   6.741   6.826
 3857SOL    HW112470   1.111   6.763   6.753
 3857SOL    HW212471   1.212   6.825   6.865
 3858SOL     OW12472   2.384   5.195   6.795
 3858SOL    HW112473   2.385   5.106   6.841
 3858SOL    HW212474   2.404   5.182   6.697
 3859SOL     OW12475   6.807   2.674   1.670
 3859SOL    HW112476   6.874   2.600   1.681
 3859SOL    HW212477   6.746   2.676   1.748
 3860SOL     OW12478   1.937   6.453   5.119
 3860SOL    HW112479   1.850   6.404   5.127
 3860SOL    HW212480   1.994   6.407   5.050
 3861SOL     OW12481   4.173   4.382   0.279
 3861SOL    HW112482   4.173   4.476   0.244
 3861SOL    HW212483   4.267   4.349   0.287
 3862SOL     OW12484   0.811   5.229   6.020
 3862SOL    HW112485   0.866   5.305   5.984
 3862SOL    HW212486   0.799   5.160   5.949
 3863SOL     OW12487   3.334   3.404   0.485
 3863SOL    HW112488   3.246   3.434   0.524
 3863SOL    HW212489   3.371   3.330   0.542
 3864SOL     OW12490   3.021   1.771   0.032
 3864SOL    HW112491   3.027   1.780   6.951
 3864SOL    HW212492   3.001   1.676   0.056
 3865SOL     OW12493   4.441   0.444   2.468
 3865SOL    HW112494   4.398   0.510   2.406
 3865SOL    HW212495   4.393   0.357   2.461
 3866SOL     OW12496   3.770   6.385   6.118
 3866SOL    HW112497   3.779   6.484   6.120
 3866SOL    HW212498   3.687   6.360   6.069
 3867SOL     OW12499   2.036   4.311   3.570
 3867SOL    HW112500   2.015   4.248   3.645
 3867SOL    HW212501   2.017   4.405   3.599
 3868SOL     OW12502   1.599   5.406   2.476
 3868SOL    HW112503   1.627   5.426   2.382
 3868SOL    HW212504   1.599   5.307   2.490
 3869SOL     OW12505   1.688   1.593   3.692
 3869SOL    HW112506   1.762   1.630   3.749
 3869SOL    HW212507   1.603   1.639   3.714
 3870SOL     OW12508   4.195   4.016   0.449
 3870SOL    HW112509   4.187   3.917   0.453
 3870SOL    HW212510   4.140   4.051   0.373
 3871SOL     OW12511   2.802   1.678   4.425
 3871SOL    HW112512   2.723   1.677   4.486
 3871SOL    HW212513   2.823   1.773   4.399
 3872SOL     OW12514   4.143   3.744   0.484
 3872SOL    HW112515   4.057   3.703   0.452
 3872SOL    HW212516   4.211   3.672   0.495
 3873SOL     OW12517   5.235   4.665   1.775
 3873SOL    HW112518   5.281   4.684   1.688
 3873SOL    HW212519   5.185   4.745   1.805
 3874SOL     OW12520   4.967   5.970   6.247
 3874SOL    HW112521   4.999   5.882   6.282
 3874SOL    HW212522   4.915   5.955   6.163
 3875SOL     OW12523   2.249   4.112   0.323
 3875SOL    HW112524   2.298   4.058   0.391
 3875SOL    HW212525   2.314   4.170   0.273
 3876SOL     OW12526   5.460   4.006   2.337
 3876SOL    HW112527   5.551   4.018   2.378
 3876SOL    HW212528   5.403   4.085   2.360
 3877SOL     OW12529   5.611   1.413   1.732
 3877SOL    HW112530   5.641   1.330   1.780
 3877SOL    HW212531   5.515   1.430   1.752
 3878SOL     OW12532   4.387   6.039   4.428
 3878SOL    HW112533   4.296   6.070   4.454
 3878SOL    HW212534   4.410   5.956   4.479
 3879SOL     OW12535   2.950   5.618   1.514
 3879SOL    HW112536   2.906   5.635   1.603
 3879SOL    HW212537   3.020   5.548   1.525
 3880SOL     OW12538   5.764   2.337   3.937
 3880SOL    HW112539   5.806   2.426   3.952
 3880SOL    HW212540   5.675   2.334   3.983
 3881SOL     OW12541   1.277   5.132   1.031
 3881SOL    HW112542   1.263   5.184   0.947
 3881SOL    HW212543   1.192   5.132   1.085
 3882SOL     OW12544   1.085   5.991   6.467
 3882SOL    HW112545   1.170   6.027   6.506
 3882SOL    HW212546   1.008   6.047   6.497
 3883SOL     OW12547   3.034   2.026   6.337
 3883SOL    HW112548   3.113   1.970   6.311
 3883SOL    HW212549   3.031   2.035   6.437
 3884SOL     OW12550   1.921   4.987   5.390
 3884SOL    HW112551   1.972   4.914   5.436
 3884SOL    HW212552   1.946   5.075   5.429
 3885SOL     OW12553   0.460   1.739   5.423
 3885SOL    HW112554   0.362   1.758   5.429
 3885SOL    HW212555   0.487   1.679   5.498
 3886SOL     OW12556   0.348   6.475   5.514
 3886SOL    HW112557   0.269   6.466   5.574
 3886SOL    HW212558   0.359   6.571   5.488
 3887SOL     OW12559   5.389   3.140   4.681
 3887SOL    HW112560   5.345   3.085   4.609
 3887SOL    HW212561   5.474   3.096   4.709
 3888SOL     OW12562   6.005   2.054   2.075
 3888SOL    HW112563   5.927   2.009   2.119
 3888SOL    HW212564   5.972   2.136   2.028
 3889SOL     OW12565   6.781   5.910   0.127
 3889SOL    HW112566   6.819   6.001   0.141
 3889SOL    HW212567   6.828   5.865   0.051
 3890SOL     OW12568   6.713   3.127   2.461
 3890SOL    HW112569   6.645   3.192   2.427
 3890SOL    HW212570   6.687   3.034   2.436
 3891SOL     OW12571   5.596   5.512   6.292
 3891SOL    HW112572   5.526   5.530   6.222
 3891SOL    HW212573   5.564   5.439   6.353
 3892SOL     OW12574   5.559   5.645   4.404
 3892SOL    HW112575   5.576   5.599   4.317
 3892SOL    HW212576   5.479   5.704   4.395
 3893SOL     OW12577   3.184   5.815   4.180
 3893SOL    HW112578   3.144   5.730   4.213
 3893SOL    HW212579   3.132   5.893   4.216
 3894SOL     OW12580   5.143   5.725   6.874
 3894SOL    HW112581   5.056   5.725   6.826
 3894SOL    HW212582   5.215   5.761   6.814
 3895SOL     OW12583   2.032   1.925   5.789
 3895SOL    HW112584   2.009   1.893   5.881
 3895SOL    HW212585   1.957   1.981   5.753
 3896SOL     OW12586   6.527   2.659   6.291
 3896SOL    HW112587   6.525   2.581   6.228
 3896SOL    HW212588   6.618   2.700   6.291
 3897SOL     OW12589   3.252   6.732   3.205
 3897SOL    HW112590   3.175   6.702   3.149
 3897SOL    HW212591   3.278   6.659   3.267
 3898SOL     OW12592   2.872   3.584   4.500
 3898SOL    HW112593   2.932   3.622   4.570
 3898SOL    HW212594   2.872   3.484   4.507
 3899SOL     OW12595   4.533   1.692   5.183
 3899SOL    HW112596   4.462   1.638   5.138
 3899SOL    HW212597   4.623   1.652   5.162
 3900SOL     OW12598   6.907   2.705   4.093
 3900SOL    HW112599   6.996   2.665   4.115
 3900SOL    HW212600   6.889   2.782   4.155
 3901SOL     OW12601   2.786   5.562   4.961
 3901SOL    HW112602   2.878   5.601   4.968
 3901SOL    HW212603   2.779   5.509   4.876
 3902SOL     OW12604   4.466   4.566   2.622
 3902SOL    HW112605   4.374   4.547   2.589
 3902SOL    HW212606   4.499   4.488   2.676
 3903SOL     OW12607   4.587   3.276   5.648
 3903SOL    HW112608   4.543   3.243   5.565
 3903SOL    HW212609   4.533   3.247   5.728
 3904SOL     OW12610   2.289   6.586   0.304
 3904SOL    HW112611   2.370   6.640   0.281
 3904SOL    HW212612   2.314   6.516   0.371
 3905SOL     OW12613   5.950   0.472   6.217
 3905SOL    HW112614   6.003   0.484   6.133
 3905SOL    HW212615   5.862   0.430   6.195
 3906SOL     OW12616   0.255   6.348   4.897
 3906SOL    HW112617   0.203   6.363   4.981
 3906SOL    HW212618   0.352   6.363   4.914
 3907SOL     OW12619   0.795   1.654   5.153
 3907SOL    HW112620   0.706   1.699   5.156
 3907SOL    HW212621   0.856   1.704   5.091
 3908SOL     OW12622   2.449   1.198   4.402
 3908SOL    HW112623   2.480   1.139   4.476
 3908SOL    HW212624   2.350   1.205   4.404
 3909SOL     OW12625   5.070   3.369   1.508
 3909SOL    HW112626   5.154   3.360   1.455
 3909SOL    HW212627   5.043   3.280   1.543
 3910SOL     OW12628   2.650   2.509   0.812
 3910SOL    HW112629   2.621   2.601   0.835
 3910SOL    HW212630   2.630   2.447   0.888
 3911SOL     OW12631   0.047   0.830   1.571
 3911SOL    HW112632   0.126   0.809   1.628
 3911SOL    HW212633   0.077   0.869   1.484
 3912SOL     OW12634   4.364   4.138   0.118
 3912SOL    HW112635   4.396   4.044   0.132
 3912SOL    HW212636   4.367   4.187   0.205
 3913SOL     OW12637   4.199   5.761   1.477
 3913SOL    HW112638   4.267   5.790   1.410
 3913SOL    HW212639   4.212   5.812   1.563
 3914SOL     OW12640   6.597   2.488   6.888
 3914SOL    HW112641   6.518   2.519   6.835
 3914SOL    HW212642   6.567   2.423   6.958
 3915SOL     OW12643   5.121   0.398   5.436
 3915SOL    HW112644   5.105   0.431   5.343
 3915SOL    HW212645   5.120   0.475   5.500
 3916SOL     OW12646   1.938   2.863   1.997
 3916SOL    HW112647   2.032   2.894   2.006
 3916SOL    HW212648   1.930   2.769   2.031
 3917SOL     OW12649   4.008   4.795   2.224
 3917SOL    HW112650   3.908   4.791   2.224
 3917SOL    HW212651   4.044   4.731   2.292
 3918SOL     OW12652   5.245   6.983   0.578
 3918SOL    HW112653   5.327   7.002   0.633
 3918SOL    HW212654   5.173   0.030   0.602
 3919SOL     OW12655   4.886   5.618   3.723
 3919SOL    HW112656   4.801   5.595   3.771
 3919SOL    HW212657   4.866   5.633   3.626
 3920SOL     OW12658   3.123   1.628   5.396
 3920SOL    HW112659   3.036   1.639   5.442
 3920SOL    HW212660   3.166   1.717   5.384
 3921SOL     OW12661   1.482   3.584   6.110
 3921SOL    HW112662   1.579   3.596   6.131
 3921SOL    HW212663   1.434   3.551   6.191
 3922SOL     OW12664   4.871   3.210   3.482
 3922SOL    HW112665   4.885   3.308   3.492
 3922SOL    HW212666   4.818   3.193   3.399
 3923SOL     OW12667   6.210   1.711   1.845
 3923SOL    HW112668   6.294   1.658   1.862
 3923SOL    HW212669   6.158   1.667   1.771
 3924SOL     OW12670   4.775   4.578   4.539
 3924SOL    HW112671   4.685   4.585   4.496
 3924SOL    HW212672   4.779   4.639   4.618
 3925SOL     OW12673   4.352   5.955   1.634
 3925SOL    HW112674   4.442   5.969   1.594
 3925SOL    HW212675   4.314   6.043   1.663
 3926SOL     OW12676   0.732   5.714   5.136
 3926SOL    HW112677   0.681   5.628   5.127
 3926SOL    HW212678   0.694   5.782   5.074
 3927SOL     OW12679   5.852   1.425   5.148
 3927SOL    HW112680   5.795   1.488   5.201
 3927SOL    HW212681   5.948   1.439   5.171
 3928SOL     OW12682   3.685   5.501   2.233
 3928SOL    HW112683   3.748   5.548   2.296
 3928SOL    HW212684   3.726   5.416   2.202
 3929SOL     OW12685   0.952   1.615   5.733
 3929SOL    HW112686   1.009   1.568   5.665
 3929SOL    HW212687   0.880   1.666   5.687
 3930SOL     OW12688   1.317   5.443   3.493
 3930SOL    HW112689   1.304   5.492   3.580
 3930SOL    HW212690   1.237   5.458   3.434
 3931SOL     OW12691   1.179   2.497   6.956
 3931SOL    HW112692   1.277   2.519   6.953
 3931SOL    HW212693   1.166   2.408   6.998
 3932SOL     OW12694   2.437   4.440   2.745
 3932SOL    HW112695   2.514   4.407   2.690
 3932SOL    HW212696   2.357   4.384   2.726
 3933SOL     OW12697   2.317   5.934   1.321
 3933SOL    HW112698   2.222   5.941   1.292
 3933SOL    HW212699   2.321   5.931   1.421
 3934SOL     OW12700   2.110   6.410   1.560
 3934SOL    HW112701   2.055   6.394   1.478
 3934SOL    HW212702   2.067   6.481   1.616
 3935SOL     OW12703   6.897   2.846   4.867
 3935SOL    HW112704   6.950   2.910   4.811
 3935SOL    HW212705   6.803   2.880   4.876
 3936SOL     OW12706   0.352   4.416   4.857
 3936SOL    HW112707   0.315   4.476   4.785
 3936SOL    HW212708   0.435   4.372   4.823
 3937SOL     OW12709   1.049   6.241   0.338
 3937SOL    HW112710   1.051   6.326   0.390
 3937SOL    HW212711   1.084   6.258   0.246
 3938SOL     OW12712   0.497   3.068   0.522
 3938SOL    HW112713   0.476   3.128   0.445
 3938SOL    HW212714   0.562   3.114   0.583
 3939SOL     OW12715   1.578   6.222   3.549
 3939SOL    HW112716   1.560   6.125   3.529
 3939SOL    HW212717   1.508   6.255   3.613
 3940SOL     OW12718   2.575   5.554   6.579
 3940SOL    HW112719   2.632   5.588   6.504
 3940SOL    HW212720   2.511   5.625   6.607
 3941SOL     OW12721   5.028   5.762   2.502
 3941SOL    HW112722   5.053   5.728   2.592
 3941SOL    HW212723   5.043   5.690   2.434
 3942SOL     OW12724   6.771   6.321   6.527
 3942SOL    HW112725   6.677   6.343   6.501
 3942SOL    HW212726   6.817   6.404   6.559
 3943SOL     OW12727   2.034   3.395   6.441
 3943SOL    HW112728   2.102   3.407   6.368
 3943SOL    HW212729   1.971   3.472   6.440
 3944SOL     OW12730   4.268   3.103   6.604
 3944SOL    HW112731   4.226   3.080   6.516
 3944SOL    HW212732   4.354   3.151   6.588
 3945SOL     OW12733   5.663   0.370   3.258
 3945SOL    HW112734   5.715   0.291   3.291
 3945SOL    HW212735   5.653   0.436   3.332
 3946SOL     OW12736   0.480   3.189   0.253
 3946SOL    HW112737   0.399   3.248   0.262
 3946SOL    HW212738   0.536   3.221   0.176
 3947SOL     OW12739   5.265   6.659   2.066
 3947SOL    HW112740   5.327   6.671   2.143
 3947SOL    HW212741   5.179   6.704   2.085
 3948SOL     OW12742   1.995   1.922   5.077
 3948SOL    HW112743   2.024   1.952   5.168
 3948SOL    HW212744   2.023   1.827   5.063
 3949SOL     OW12745   6.745   6.702   2.494
 3949SOL    HW112746   6.697   6.650   2.565
 3949SOL    HW212747   6.680   6.734   2.426
 3950SOL     OW12748   3.060   4.486   1.608
 3950SOL    HW112749   3.151   4.452   1.631
 3950SOL    HW212750   2.997   4.463   1.682
 3951SOL     OW12751   0.641   2.418   4.081
 3951SOL    HW112752   0.587   2.345   4.038
 3951SOL    HW212753   0.643   2.497   4.020
 3952SOL     OW12754   5.794   3.979   0.024
 3952SOL    HW112755   5.838   4.069   0.030
 3952SOL    HW212756   5.801   3.932   0.112
 3953SOL     OW12757   3.043   3.843   5.819
 3953SOL    HW112758   3.019   3.779   5.746
 3953SOL    HW212759   3.091   3.795   5.892
 3954SOL     OW12760   0.400   3.366   4.886
 3954SOL    HW112761   0.326   3.408   4.833
 3954SOL    HW212762   0.456   3.437   4.928
 3955SOL     OW12763   6.057   3.748   0.120
 3955SOL    HW112764   6.139   3.784   0.166
 3955SOL    HW212765   5.979   3.808   0.141
 3956SOL     OW12766   6.545   2.353   5.372
 3956SOL    HW112767   6.466   2.408   5.345
 3956SOL    HW212768   6.621   2.371   5.309
 3957SOL     OW12769   0.532   1.890   1.928
 3957SOL    HW112770   0.503   1.944   2.007
 3957SOL    HW212771   0.545   1.794   1.956
 3958SOL     OW12772   5.282   6.042   0.828
 3958SOL    HW112773   5.248   6.003   0.743
 3958SOL    HW212774   5.373   6.081   0.813
 3959SOL     OW12775   1.984   5.620   1.890
 3959SOL    HW112776   2.064   5.661   1.846
 3959SOL    HW212777   1.991   5.521   1.887
 3960SOL     OW12778   4.965   3.396   0.798
 3960SOL    HW112779   5.006   3.481   0.830
 3960SOL    HW212780   5.009   3.368   0.712
 3961SOL     OW12781   6.648   0.483   1.848
 3961SOL    HW112782   6.666   0.564   1.904
 3961SOL    HW212783   6.684   0.497   1.756
 3962SOL     OW12784   0.103   0.247   6.098
 3962SOL    HW112785   0.017   0.297   6.086
 3962SOL    HW212786   0.085   0.149   6.104
 3963SOL     OW12787   5.029   4.305   4.039
 3963SOL    HW112788   4.948   4.347   4.080
 3963SOL    HW212789   5.005   4.264   3.951
 3964SOL     OW12790   5.767   5.703   0.389
 3964SOL    HW112791   5.796   5.762   0.465
 3964SOL    HW212792   5.784   5.750   0.302
 3965SOL     OW12793   3.616   3.519   1.058
 3965SOL    HW112794   3.575   3.559   1.140
 3965SOL    HW212795   3.591   3.574   0.978
 3966SOL     OW12796   6.853   4.354   6.291
 3966SOL    HW112797   6.953   4.345   6.289
 3966SOL    HW212798   6.825   4.426   6.228
 3967SOL     OW12799   1.911   6.393   0.320
 3967SOL    HW112800   1.926   6.297   0.296
 3967SOL    HW212801   1.943   6.410   0.413
 3968SOL     OW12802   4.793   1.934   0.895
 3968SOL    HW112803   4.705   1.968   0.928
 3968SOL    HW212804   4.834   1.874   0.964
 3969SOL     OW12805   0.139   6.333   1.078
 3969SOL    HW112806   0.159   6.351   0.981
 3969SOL    HW212807   0.057   6.276   1.084
 3970SOL     OW12808   5.156   4.418   4.258
 3970SOL    HW112809   5.090   4.402   4.332
 3970SOL    HW212810   5.119   4.382   4.172
 3971SOL     OW12811   6.833   6.421   4.070
 3971SOL    HW112812   6.837   6.501   4.010
 3971SOL    HW212813   6.738   6.406   4.098
 3972SOL     OW12814   1.105   6.983   6.318
 3972SOL    HW112815   1.023   6.948   6.273
 3972SOL    HW212816   1.106   0.064   6.314
 3973SOL     OW12817   3.187   2.972   3.035
 3973SOL    HW112818   3.110   3.019   3.079
 3973SOL    HW212819   3.162   2.946   2.942
 3974SOL     OW12820   5.413   1.195   6.805
 3974SOL    HW112821   5.411   1.252   6.723
 3974SOL    HW212822   5.388   1.101   6.780
 3975SOL     OW12823   0.349   6.788   5.460
 3975SOL    HW112824   0.317   6.783   5.366
 3975SOL    HW212825   0.310   6.869   5.504
 3976SOL     OW12826   0.519   2.877   6.295
 3976SOL    HW112827   0.453   2.863   6.369
 3976SOL    HW212828   0.583   2.950   6.320
 3977SOL     OW12829   3.023   5.541   4.833
 3977SOL    HW112830   3.081   5.514   4.909
 3977SOL    HW212831   3.045   5.635   4.806
 3978SOL     OW12832   6.388   3.755   6.812
 3978SOL    HW112833   6.428   3.845   6.795
 3978SOL    HW212834   6.288   3.762   6.812
 3979SOL     OW12835   1.330   6.585   3.251
 3979SOL    HW112836   1.360   6.635   3.170
 3979SOL    HW212837   1.376   6.496   3.254
 3980SOL     OW12838   4.714   4.135   4.056
 3980SOL    HW112839   4.667   4.056   4.015
 3980SOL    HW212840   4.740   4.199   3.984
 3981SOL     OW12841   6.763   1.410   6.061
 3981SOL    HW112842   6.665   1.395   6.050
 3981SOL    HW212843   6.803   1.334   6.112
 3982SOL     OW12844   1.936   2.802   4.000
 3982SOL    HW112845   1.949   2.703   3.995
 3982SOL    HW212846   2.008   2.842   4.056
 3983SOL     OW12847   2.956   6.574   4.065
 3983SOL    HW112848   2.988   6.503   4.002
 3983SOL    HW212849   2.956   6.662   4.017
 3984SOL     OW12850   1.926   6.029   2.105
 3984SOL    HW112851   2.002   6.029   2.041
 3984SOL    HW212852   1.887   6.121   2.111
 3985SOL     OW12853   1.504   2.968   1.681
 3985SOL    HW112854   1.571   2.978   1.755
 3985SOL    HW212855   1.550   2.933   1.599
 3986SOL     OW12856   0.863   2.298   2.410
 3986SOL    HW112857   0.880   2.393   2.437
 3986SOL    HW212858   0.911   2.280   2.323
 3987SOL     OW12859   1.685   3.912   5.174
 3987SOL    HW112860   1.770   3.924   5.224
 3987SOL    HW212861   1.645   3.823   5.197
 3988SOL     OW12862   5.163   6.957   1.331
 3988SOL    HW112863   5.189   6.872   1.285
 3988SOL    HW212864   5.085   6.939   1.391
 3989SOL     OW12865   4.149   0.567   5.565
 3989SOL    HW112866   4.065   0.614   5.539
 3989SOL    HW212867   4.136   0.468   5.558
 3990SOL     OW12868   0.357   2.145   3.646
 3990SOL    HW112869   0.302   2.062   3.644
 3990SOL    HW212870   0.454   2.122   3.653
 3991SOL     OW12871   1.018   2.020   3.477
 3991SOL    HW112872   0.933   2.010   3.426
 3991SOL    HW212873   1.095   2.027   3.413
 3992SOL     OW12874   5.904   3.555   6.442
 3992SOL    HW112875   5.863   3.464   6.438
 3992SOL    HW212876   5.952   3.574   6.357
 3993SOL     OW12877   2.097   0.393   4.339
 3993SOL    HW112878   2.111   0.335   4.419
 3993SOL    HW212879   2.003   0.429   4.340
 3994SOL     OW12880   3.069   1.812   3.446
 3994SOL    HW112881   3.023   1.780   3.529
 3994SOL    HW212882   3.003   1.857   3.386
 3995SOL     OW12883   1.587   2.914   2.221
 3995SOL    HW112884   1.591   2.981   2.147
 3995SOL    HW212885   1.645   2.945   2.296
 3996SOL     OW12886   5.876   6.183   5.256
 3996SOL    HW112887   5.883   6.089   5.289
 3996SOL    HW212888   5.809   6.188   5.182
 3997SOL     OW12889   5.183   3.513   3.025
 3997SOL    HW112890   5.156   3.586   2.963
 3997SOL    HW212891   5.184   3.426   2.976
 3998SOL     OW12892   4.565   1.899   3.370
 3998SOL    HW112893   4.500   1.959   3.418
 3998SOL    HW212894   4.531   1.880   3.278
 3999SOL     OW12895   3.991   3.242   1.093
 3999SOL    HW112896   4.073   3.229   1.149
 3999SOL    HW212897   4.004   3.197   1.004
 4000SOL     OW12898   2.228   5.263   2.479
 4000SOL    HW112899   2.194   5.171   2.458
 4000SOL    HW212900   2.328   5.261   2.481
 4001SOL     OW12901   6.712   5.993   4.967
 4001SOL    HW112902   6.799   6.029   5.001
 4001SOL    HW212903   6.683   6.046   4.887
 4002SOL     OW12904   3.902   3.525   4.267
 4002SOL    HW112905   3.933   3.464   4.194
 4002SOL    HW212906   3.836   3.590   4.229
 4003SOL     OW12907   2.141   0.948   4.645
 4003SOL    HW112908   2.118   1.042   4.673
 4003SOL    HW212909   2.124   0.937   4.547
 4004SOL     OW12910   1.581   4.179   4.210
 4004SOL    HW112911   1.518   4.253   4.234
 4004SOL    HW212912   1.615   4.136   4.294
 4005SOL     OW12913   4.716   3.337   6.722
 4005SOL    HW112914   4.691   3.356   6.817
 4005SOL    HW212915   4.813   3.314   6.716
 4006SOL     OW12916   6.689   5.845   2.345
 4006SOL    HW112917   6.783   5.877   2.342
 4006SOL    HW212918   6.687   5.745   2.342
 4007SOL     OW12919   0.156   0.402   2.015
 4007SOL    HW112920   0.143   0.356   1.927
 4007SOL    HW212921   0.185   0.335   2.083
 4008SOL     OW12922   2.977   1.149   1.262
 4008SOL    HW112923   2.888   1.106   1.245
 4008SOL    HW212924   3.041   1.124   1.190
 4009SOL     OW12925   4.551   2.429   0.649
 4009SOL    HW112926   4.458   2.434   0.687
 4009SOL    HW212927   4.593   2.342   0.675
 4010SOL     OW12928   1.711   4.396   1.348
 4010SOL    HW112929   1.765   4.317   1.378
 4010SOL    HW212930   1.753   4.436   1.266
 4011SOL     OW12931   6.463   6.067   5.895
 4011SOL    HW112932   6.483   6.064   5.797
 4011SOL    HW212933   6.546   6.047   5.947
 4012SOL     OW12934   5.538   6.252   2.670
 4012SOL    HW112935   5.608   6.290   2.730
 4012SOL    HW212936   5.482   6.187   2.721
 4013SOL     OW12937   6.939   1.658   6.480
 4013SOL    HW112938   0.014   1.662   6.445
 4013SOL    HW212939   6.878   1.705   6.416
 4014SOL     OW12940   3.041   5.173   2.050
 4014SOL    HW112941   3.079   5.087   2.085
 4014SOL    HW212942   3.069   5.185   1.955
 4015SOL     OW12943   4.365   5.202   6.241
 4015SOL    HW112944   4.456   5.242   6.254
 4015SOL    HW212945   4.336   5.215   6.146
 4016SOL     OW12946   5.219   4.852   5.001
 4016SOL    HW112947   5.154   4.847   4.925
 4016SOL    HW212948   5.220   4.764   5.049
 4017SOL     OW12949   1.122   4.919   5.676
 4017SOL    HW112950   1.062   4.881   5.746
 4017SOL    HW212951   1.213   4.936   5.716
 4018SOL     OW12952   3.742   6.028   0.558
 4018SOL    HW112953   3.705   5.936   0.544
 4018SOL    HW212954   3.841   6.023   0.568
 4019SOL     OW12955   6.105   3.816   2.185
 4019SOL    HW112956   6.071   3.811   2.092
 4019SOL    HW212957   6.198   3.779   2.190
 4020SOL     OW12958   6.489   5.218   5.092
 4020SOL    HW112959   6.511   5.160   5.014
 4020SOL    HW212960   6.506   5.314   5.069
 4021SOL     OW12961   4.679   4.646   6.256
 4021SOL    HW112962   4.662   4.568   6.195
 4021SOL    HW212963   4.634   4.629   6.344
 4022SOL     OW12964   2.771   6.362   1.365
 4022SOL    HW112965   2.737   6.304   1.292
 4022SOL    HW212966   2.696   6.418   1.401
 4023SOL     OW12967   0.672   1.570   4.291
 4023SOL    HW112968   0.703   1.496   4.231
 4023SOL    HW212969   0.658   1.653   4.238
 4024SOL     OW12970   0.662   6.710   4.977
 4024SOL    HW112971   0.624   6.635   4.923
 4024SOL    HW212972   0.751   6.737   4.938
 4025SOL     OW12973   6.471   5.662   4.068
 4025SOL    HW112974   6.471   5.571   4.027
 4025SOL    HW212975   6.380   5.683   4.104
 4026SOL     OW12976   0.566   6.788   4.706
 4026SOL    HW112977   0.530   6.694   4.711
 4026SOL    HW212978   0.490   6.851   4.688
 4027SOL     OW12979   3.559   5.034   5.047
 4027SOL    HW112980   3.599   5.101   5.110
 4027SOL    HW212981   3.491   4.980   5.096
 4028SOL     OW12982   4.715   0.707   3.481
 4028SOL    HW112983   4.811   0.732   3.488
 4028SOL    HW212984   4.700   0.616   3.521
 4029SOL     OW12985   1.838   6.101   0.628
 4029SOL    HW112986   1.784   6.049   0.694
 4029SOL    HW212987   1.930   6.062   0.623
 4030SOL     OW12988   0.747   1.730   2.335
 4030SOL    HW112989   0.795   1.741   2.247
 4030SOL    HW212990   0.698   1.814   2.357
 4031SOL     OW12991   5.912   6.313   0.664
 4031SOL    HW112992   6.000   6.276   0.635
 4031SOL    HW212993   5.912   6.412   0.653
 4032SOL     OW12994   5.111   0.342   2.488
 4032SOL    HW112995   5.073   0.426   2.448
 4032SOL    HW212996   5.066   0.262   2.447
 4033SOL     OW12997   2.014   2.310   2.172
 4033SOL    HW112998   2.092   2.371   2.181
 4033SOL    HW212999   2.042   2.227   2.124
 4034SOL     OW13000   1.231   2.852   5.140
 4034SOL    HW113001   1.198   2.886   5.052
 4034SOL    HW213002   1.168   2.880   5.212
 4035SOL     OW13003   4.383   2.123   1.652
 4035SOL    HW113004   4.479   2.103   1.676
 4035SOL    HW213005   4.339   2.169   1.728
 4036SOL     OW13006   2.718   5.473   3.275
 4036SOL    HW113007   2.661   5.428   3.344
 4036SOL    HW213008   2.683   5.565   3.257
 4037SOL     OW13009   2.648   1.545   5.973
 4037SOL    HW113010   2.713   1.621   5.977
 4037SOL    HW213011   2.584   1.553   6.049
 4038SOL     OW13012   3.305   4.768   5.702
 4038SOL    HW113013   3.250   4.717   5.635
 4038SOL    HW213014   3.311   4.715   5.787
 4039SOL     OW13015   5.177   5.189   1.280
 4039SOL    HW113016   5.167   5.278   1.326
 4039SOL    HW213017   5.271   5.158   1.288
 4040SOL     OW13018   3.107   6.735   4.964
 4040SOL    HW113019   3.085   6.651   4.914
 4040SOL    HW213020   3.171   6.715   5.037
 4041SOL     OW13021   1.685   6.326   1.655
 4041SOL    HW113022   1.699   6.263   1.731
 4041SOL    HW213023   1.594   6.310   1.615
 4042SOL     OW13024   0.156   1.323   2.624
 4042SOL    HW113025   0.162   1.397   2.556
 4042SOL    HW213026   0.236   1.263   2.614
 4043SOL     OW13027   5.141   3.009   6.261
 4043SOL    HW113028   5.058   2.988   6.313
 4043SOL    HW213029   5.150   2.945   6.185
 4044SOL     OW13030   4.790   4.021   2.759
 4044SOL    HW113031   4.799   3.922   2.769
 4044SOL    HW213032   4.762   4.062   2.846
 4045SOL     OW13033   4.856   0.838   5.329
 4045SOL    HW113034   4.863   0.826   5.428
 4045SOL    HW213035   4.888   0.929   5.304
 4046SOL     OW13036   5.219   1.763   3.371
 4046SOL    HW113037   5.168   1.848   3.371
 4046SOL    HW213038   5.205   1.716   3.283
 4047SOL     OW13039   3.001   2.858   6.175
 4047SOL    HW113040   3.078   2.857   6.112
 4047SOL    HW213041   3.032   2.832   6.266
 4048SOL     OW13042   5.111   1.828   2.896
 4048SOL    HW113043   5.027   1.803   2.848
 4048SOL    HW213044   5.106   1.924   2.924
 4049SOL     OW13045   4.363   4.039   0.675
 4049SOL    HW113046   4.323   4.001   0.758
 4049SOL    HW213047   4.294   4.038   0.602
 4050SOL     OW13048   1.111   5.735   2.155
 4050SOL    HW113049   1.016   5.726   2.186
 4050SOL    HW213050   1.166   5.662   2.195
 4051SOL     OW13051   5.912   1.158   5.068
 4051SOL    HW113052   5.903   1.118   5.160
 4051SOL    HW213053   5.930   1.256   5.076
 4052SOL     OW13054   5.593   1.925   3.533
 4052SOL    HW113055   5.593   1.863   3.454
 4052SOL    HW213056   5.687   1.939   3.564
 4053SOL     OW13057   0.936   5.344   4.244
 4053SOL    HW113058   1.002   5.341   4.319
 4053SOL    HW213059   0.954   5.424   4.187
 4054SOL     OW13060   3.894   3.496   1.046
 4054SOL    HW113061   3.799   3.496   1.080
 4054SOL    HW213062   3.938   3.410   1.073
 4055SOL     OW13063   0.425   3.839   6.920
 4055SOL    HW113064   0.344   3.896   6.926
 4055SOL    HW213065   0.499   3.879   6.975
 4056SOL     OW13066   4.735   3.846   7.009
 4056SOL    HW113067   4.649   3.897   7.015
 4056SOL    HW213068   4.719   3.762   6.957
 4057SOL     OW13069   0.155   3.555   0.450
 4057SOL    HW113070   0.135   3.549   0.352
 4057SOL    HW213071   0.234   3.614   0.464
 4058SOL     OW13072   2.631   0.344   5.293
 4058SOL    HW113073   2.640   0.442   5.275
 4058SOL    HW213074   2.713   0.311   5.341
 4059SOL     OW13075   0.740   1.402   3.662
 4059SOL    HW113076   0.751   1.487   3.713
 4059SOL    HW213077   0.803   1.333   3.698
 4060SOL     OW13078   6.886   6.516   5.213
 4060SOL    HW113079   6.820   6.530   5.139
 4060SOL    HW213080   6.843   6.461   5.285
 4061SOL     OW13081   0.784   5.238   1.032
 4061SOL    HW113082   0.720   5.211   1.103
 4061SOL    HW213083   0.762   5.330   1.000
 4062SOL     OW13084   2.027   3.373   1.261
 4062SOL    HW113085   2.120   3.392   1.293
 4062SOL    HW213086   1.983   3.308   1.322
 4063SOL     OW13087   4.470   0.475   0.089
 4063SOL    HW113088   4.536   0.460   0.163
 4063SOL    HW213089   4.422   0.561   0.105
 4064SOL     OW13090   1.706   1.226   5.867
 4064SOL    HW113091   1.732   1.172   5.787
 4064SOL    HW213092   1.720   1.172   5.950
 4065SOL     OW13093   2.602   6.544   0.544
 4065SOL    HW113094   2.678   6.479   0.535
 4065SOL    HW213095   2.521   6.495   0.577
 4066SOL     OW13096   1.050   3.754   3.650
 4066SOL    HW113097   1.082   3.686   3.585
 4066SOL    HW213098   1.047   3.714   3.742
 4067SOL     OW13099   5.361   4.925   0.366
 4067SOL    HW113100   5.345   4.839   0.318
 4067SOL    HW213101   5.346   5.001   0.303
 4068SOL     OW13102   2.118   2.856   5.035
 4068SOL    HW113103   2.120   2.760   5.009
 4068SOL    HW213104   2.208   2.897   5.020
 4069SOL     OW13105   4.285   6.973   6.457
 4069SOL    HW113106   4.237   0.039   6.432
 4069SOL    HW213107   4.287   6.912   6.378
 4070SOL     OW13108   1.372   3.436   3.342
 4070SOL    HW113109   1.410   3.348   3.312
 4070SOL    HW213110   1.428   3.510   3.305
 4071SOL     OW13111   1.645   0.499   4.148
 4071SOL    HW113112   1.546   0.488   4.149
 4071SOL    HW213113   1.688   0.415   4.182
 4072SOL     OW13114   2.570   5.475   2.948
 4072SOL    HW113115   2.668   5.479   2.969
 4072SOL    HW213116   2.541   5.562   2.908
 4073SOL     OW13117   4.011   4.705   6.876
 4073SOL    HW113118   3.993   4.747   6.965
 4073SOL    HW213119   4.109   4.706   6.858
 4074SOL     OW13120   1.400   5.794   2.862
 4074SOL    HW113121   1.383   5.833   2.953
 4074SOL    HW213122   1.314   5.788   2.812
 4075SOL     OW13123   6.808   1.071   1.147
 4075SOL    HW113124   6.756   1.155   1.128
 4075SOL    HW213125   6.832   1.027   1.060
 4076SOL     OW13126   2.231   4.286   5.003
 4076SOL    HW113127   2.132   4.295   5.009
 4076SOL    HW213128   2.256   4.189   5.008
 4077SOL     OW13129   3.372   0.520   1.237
 4077SOL    HW113130   3.392   0.514   1.139
 4077SOL    HW213131   3.425   0.451   1.286
 4078SOL     OW13132   2.991   4.952   2.312
 4078SOL    HW113133   2.970   4.877   2.250
 4078SOL    HW213134   2.987   4.920   2.407
 4079SOL     OW13135   0.711   1.785   4.129
 4079SOL    HW113136   0.772   1.802   4.052
 4079SOL    HW213137   0.619   1.818   4.106
 4080SOL     OW13138   6.464   1.778   5.079
 4080SOL    HW113139   6.460   1.723   4.996
 4080SOL    HW213140   6.521   1.732   5.147
 4081SOL     OW13141   1.808   3.373   3.711
 4081SOL    HW113142   1.849   3.356   3.622
 4081SOL    HW213143   1.803   3.287   3.762
 4082SOL     OW13144   0.943   3.300   1.145
 4082SOL    HW113145   0.997   3.307   1.061
 4082SOL    HW213146   0.860   3.247   1.126
 4083SOL     OW13147   5.590   2.937   4.420
 4083SOL    HW113148   5.671   2.907   4.369
 4083SOL    HW213149   5.617   2.965   4.513
 4084SOL     OW13150   0.440   1.704   3.923
 4084SOL    HW113151   0.418   1.789   3.970
 4084SOL    HW213152   0.438   1.628   3.988
 4085SOL     OW13153   2.594   6.256   0.415
 4085SOL    HW113154   2.685   6.291   0.436
 4085SOL    HW213155   2.597   6.156   0.410
 4086SOL     OW13156   1.145   5.037   0.619
 4086SOL    HW113157   1.172   5.114   0.677
 4086SOL    HW213158   1.074   5.066   0.555
 4087SOL     OW13159   1.599   1.754   2.559
 4087SOL    HW113160   1.505   1.774   2.585
 4087SOL    HW213161   1.654   1.837   2.567
 4088SOL     OW13162   6.786   2.039   0.923
 4088SOL    HW113163   6.841   1.998   0.851
 4088SOL    HW213164   6.695   2.061   0.888
 4089SOL     OW13165   1.093   1.508   5.533
 4089SOL    HW113166   1.154   1.436   5.500
 4089SOL    HW213167   1.007   1.505   5.483
 4090SOL     OW13168   1.807   4.770   5.650
 4090SOL    HW113169   1.832   4.864   5.673
 4090SOL    HW213170   1.845   4.707   5.719
 4091SOL     OW13171   4.591   5.826   0.280
 4091SOL    HW113172   4.669   5.822   0.218
 4091SOL    HW213173   4.622   5.856   0.370
 4092SOL     OW13174   0.441   2.446   4.486
 4092SOL    HW113175   0.449   2.432   4.585
 4092SOL    HW213176   0.389   2.370   4.446
 4093SOL     OW13177   5.719   0.804   5.015
 4093SOL    HW113178   5.764   0.757   5.091
 4093SOL    HW213179   5.789   0.842   4.954
 4094SOL     OW13180   2.862   4.579   5.420
 4094SOL    HW113181   2.872   4.541   5.328
 4094SOL    HW213182   2.895   4.513   5.487
 4095SOL     OW13183   1.735   3.940   6.143
 4095SOL    HW113184   1.690   3.873   6.203
 4095SOL    HW213185   1.715   3.917   6.048
 4096SOL     OW13186   4.158   4.804   2.000
 4096SOL    HW113187   4.115   4.804   2.090
 4096SOL    HW213188   4.237   4.741   2.000
 4097SOL     OW13189   3.545   3.520   4.792
 4097SOL    HW113190   3.495   3.599   4.757
 4097SOL    HW213191   3.639   3.522   4.758
 4098SOL     OW13192   0.210   2.032   2.518
 4098SOL    HW113193   0.210   2.129   2.543
 4098SOL    HW213194   0.134   1.986   2.564
 4099SOL     OW13195   3.916   6.368   1.778
 4099SOL    HW113196   3.933   6.383   1.875
 4099SOL    HW213197   4.000   6.387   1.727
 4100SOL     OW13198   3.900   6.063   3.218
 4100SOL    HW113199   3.874   6.060   3.122
 4100SOL    HW213200   3.989   6.106   3.228
 4101SOL     OW13201   4.957   0.870   6.255
 4101SOL    HW113202   5.052   0.865   6.288
 4101SOL    HW213203   4.911   0.783   6.271
 4102SOL     OW13204   5.780   1.433   0.639
 4102SOL    HW113205   5.876   1.437   0.614
 4102SOL    HW213206   5.758   1.508   0.702
 4103SOL     OW13207   0.590   0.337   2.397
 4103SOL    HW113208   0.644   0.270   2.347
 4103SOL    HW213209   0.536   0.391   2.333
 4104SOL     OW13210   1.794   4.489   2.800
 4104SOL    HW113211   1.886   4.505   2.765
 4104SOL    HW213212   1.773   4.391   2.797
 4105SOL     OW13213   5.102   4.945   7.010
 4105SOL    HW113214   5.042   5.024   7.014
 4105SOL    HW213215   5.059   4.873   6.955
 4106SOL     OW13216   6.934   3.980   5.016
 4106SOL    HW113217   6.936   3.960   5.114
 4106SOL    HW213218   0.005   3.964   4.976
 4107SOL     OW13219   6.880   0.670   1.182
 4107SOL    HW113220   6.842   0.639   1.095
 4107SOL    HW213221   6.939   0.598   1.220
 4108SOL     OW13222   6.681   3.405   5.661
 4108SOL    HW113223   6.713   3.499   5.646
 4108SOL    HW213224   6.759   3.343   5.666
 4109SOL     OW13225   3.453   6.487   3.431
 4109SOL    HW113226   3.485   6.544   3.506
 4109SOL    HW213227   3.361   6.453   3.452
 4110SOL     OW13228   5.022   3.138   5.607
 4110SOL    HW113229   4.972   3.124   5.521
 4110SOL    HW213230   4.973   3.204   5.663
 4111SOL     OW13231   4.404   3.147   6.998
 4111SOL    HW113232   4.324   3.091   0.002
 4111SOL    HW213233   4.377   3.244   6.998
 4112SOL     OW13234   3.880   0.867   4.458
 4112SOL    HW113235   3.896   0.896   4.552
 4112SOL    HW213236   3.941   0.916   4.396
 4113SOL     OW13237   3.563   5.249   4.395
 4113SOL    HW113238   3.654   5.221   4.425
 4113SOL    HW213239   3.545   5.210   4.304
 4114SOL     OW13240   2.680   2.028   2.635
 4114SOL    HW113241   2.687   2.068   2.727
 4114SOL    HW213242   2.745   2.074   2.574
 4115SOL     OW13243   5.111   4.905   1.909
 4115SOL    HW113244   5.147   4.966   1.980
 4115SOL    HW213245   5.015   4.927   1.893
 4116SOL     OW13246   3.076   0.852   1.774
 4116SOL    HW113247   3.001   0.879   1.713
 4116SOL    HW213248   3.133   0.783   1.728
 4117SOL     OW13249   1.220   6.088   2.029
 4117SOL    HW113250   1.126   6.056   2.022
 4117SOL    HW213251   1.248   6.130   1.943
 4118SOL     OW13252   2.437   6.719   6.942
 4118SOL    HW113253   2.456   6.737   6.846
 4118SOL    HW213254   2.460   6.624   6.963
 4119SOL     OW13255   4.236   1.141   3.266
 4119SOL    HW113256   4.322   1.113   3.224
 4119SOL    HW213257   4.161   1.131   3.200
 4120SOL     OW13258   3.933   0.859   1.446
 4120SOL    HW113259   3.866   0.789   1.425
 4120SOL    HW213260   3.971   0.843   1.537
 4121SOL     OW13261   6.402   2.761   4.936
 4121SOL    HW113262   6.310   2.800   4.930
 4121SOL    HW213263   6.442   2.757   4.845
 4122SOL     OW13264   1.545   5.820   6.219
 4122SOL    HW113265   1.474   5.805   6.150
 4122SOL    HW213266   1.545   5.745   6.285
 4123SOL     OW13267   5.520   3.680   6.447
 4123SOL    HW113268   5.460   3.753   6.414
 4123SOL    HW213269   5.464   3.606   6.486
 4124SOL     OW13270   5.236   6.579   3.669
 4124SOL    HW113271   5.321   6.631   3.658
 4124SOL    HW213272   5.258   6.482   3.678
 4125SOL     OW13273   5.418   1.292   1.388
 4125SOL    HW113274   5.329   1.248   1.403
 4125SOL    HW213275   5.421   1.328   1.295
 4126SOL     OW13276   2.211   4.693   4.179
 4126SOL    HW113277   2.215   4.774   4.120
 4126SOL    HW213278   2.182   4.614   4.126
 4127SOL     OW13279   6.836   3.614   5.635
 4127SOL    HW113280   6.853   3.712   5.620
 4127SOL    HW213281   6.888   3.583   5.715
 4128SOL     OW13282   0.898   2.037   2.798
 4128SOL    HW113283   0.827   2.055   2.731
 4128SOL    HW213284   0.856   2.010   2.885
 4129SOL     OW13285   5.897   2.149   6.138
 4129SOL    HW113286   5.828   2.181   6.072
 4129SOL    HW213287   5.949   2.228   6.172
 4130SOL     OW13288   5.810   3.748   0.920
 4130SOL    HW113289   5.805   3.753   1.020
 4130SOL    HW213290   5.785   3.836   0.881
 4131SOL     OW13291   6.268   4.430   3.583
 4131SOL    HW113292   6.242   4.348   3.533
 4131SOL    HW213293   6.186   4.484   3.604
 4132SOL     OW13294   4.795   2.025   3.852
 4132SOL    HW113295   4.764   2.041   3.946
 4132SOL    HW213296   4.727   2.061   3.788
 4133SOL     OW13297   2.678   1.677   1.101
 4133SOL    HW113298   2.758   1.628   1.134
 4133SOL    HW213299   2.614   1.691   1.176
 4134SOL     OW13300   0.752   1.681   0.005
 4134SOL    HW113301   0.661   1.667   6.983
 4134SOL    HW213302   0.781   1.775   7.007
 4135SOL     OW13303   1.285   0.581   1.170
 4135SOL    HW113304   1.224   0.645   1.124
 4135SOL    HW213305   1.380   0.603   1.148
 4136SOL     OW13306   1.237   2.096   3.286
 4136SOL    HW113307   1.303   2.168   3.264
 4136SOL    HW213308   1.258   2.015   3.231
 4137SOL     OW13309   3.198   4.297   6.118
 4137SOL    HW113310   3.248   4.211   6.102
 4137SOL    HW213311   3.116   4.299   6.062
 4138SOL     OW13312   4.246   4.761   3.109
 4138SOL    HW113313   4.180   4.735   3.039
 4138SOL    HW213314   4.258   4.860   3.109
 4139SOL     OW13315   2.019   1.313   6.842
 4139SOL    HW113316   2.091   1.315   6.773
 4139SOL    HW213317   2.025   1.228   6.895
 4140SOL     OW13318   4.503   1.528   4.903
 4140SOL    HW113319   4.429   1.477   4.947
 4140SOL    HW213320   4.523   1.488   4.814
 4141SOL     OW13321   5.307   5.518   0.458
 4141SOL    HW113322   5.386   5.568   0.421
 4141SOL    HW213323   5.332   5.477   0.545
 4142SOL     OW13324   6.157   3.790   1.366
 4142SOL    HW113325   6.083   3.724   1.377
 4142SOL    HW213326   6.123   3.882   1.388
 4143SOL     OW13327   0.411   2.722   1.285
 4143SOL    HW113328   0.486   2.658   1.300
 4143SOL    HW213329   0.335   2.675   1.240
 4144SOL     OW13330   4.327   0.195   2.497
 4144SOL    HW113331   4.229   0.172   2.501
 4144SOL    HW213332   4.374   0.156   2.576
 4145SOL     OW13333   2.766   0.270   2.909
 4145SOL    HW113334   2.798   0.336   2.842
 4145SOL    HW213335   2.796   0.298   3.000
 4146SOL     OW13336   5.049   5.665   0.365
 4146SOL    HW113337   5.100   5.730   0.309
 4146SOL    HW213338   5.112   5.595   0.400
 4147SOL     OW13339   3.435   2.402   5.590
 4147SOL    HW113340   3.508   2.402   5.659
 4147SOL    HW213341   3.445   2.322   5.531
 4148SOL     OW13342   6.162   0.309   3.247
 4148SOL    HW113343   6.122   0.400   3.252
 4148SOL    HW213344   6.262   0.316   3.246
 4149SOL     OW13345   5.467   3.824   1.869
 4149SOL    HW113346   5.487   3.893   1.938
 4149SOL    HW213347   5.551   3.777   1.842
 4150SOL     OW13348   5.006   0.369   6.125
 4150SOL    HW113349   4.932   0.303   6.136
 4150SOL    HW213350   5.017   0.390   6.028
 4151SOL     OW13351   0.439   5.652   1.009
 4151SOL    HW113352   0.401   5.617   0.924
 4151SOL    HW213353   0.366   5.696   1.062
 4152SOL     OW13354   3.691   4.232   1.342
 4152SOL    HW113355   3.692   4.256   1.439
 4152SOL    HW213356   3.616   4.282   1.297
 4153SOL     OW13357   6.470   5.118   5.999
 4153SOL    HW113358   6.427   5.206   5.982
 4153SOL    HW213359   6.452   5.089   6.093
 4154SOL     OW13360   5.075   2.975   5.813
 4154SOL    HW113361   5.059   3.032   5.732
 4154SOL    HW213362   5.142   3.020   5.872
 4155SOL     OW13363   0.934   3.243   2.021
 4155SOL    HW113364   0.921   3.155   1.976
 4155SOL    HW213365   0.905   3.317   1.960
 4156SOL     OW13366   6.114   0.137   5.700
 4156SOL    HW113367   6.045   0.094   5.642
 4156SOL    HW213368   6.113   0.094   5.791
 4157SOL     OW13369   3.463   0.724   5.079
 4157SOL    HW113370   3.532   0.778   5.127
 4157SOL    HW213371   3.404   0.784   5.025
 4158SOL     OW13372   1.220   6.691   3.973
 4158SOL    HW113373   1.172   6.608   3.947
 4158SOL    HW213374   1.208   6.761   3.902
 4159SOL     OW13375   0.823   2.974   4.979
 4159SOL    HW113376   0.902   3.020   5.019
 4159SOL    HW213377   0.789   2.904   5.043
 4160SOL     OW13378   1.253   1.476   0.532
 4160SOL    HW113379   1.232   1.494   0.629
 4160SOL    HW213380   1.181   1.419   0.492
 4161SOL     OW13381   6.508   2.153   0.367
 4161SOL    HW113382   6.542   2.061   0.350
 4161SOL    HW213383   6.449   2.182   0.291
 4162SOL     OW13384   6.427   0.579   5.283
 4162SOL    HW113385   6.363   0.511   5.247
 4162SOL    HW213386   6.460   0.636   5.208
 4163SOL     OW13387   5.749   1.349   4.083
 4163SOL    HW113388   5.735   1.271   4.023
 4163SOL    HW213389   5.825   1.330   4.145
 4164SOL     OW13390   2.334   0.056   5.963
 4164SOL    HW113391   2.309   0.025   6.055
 4164SOL    HW213392   2.422   0.018   5.938
 4165SOL     OW13393   3.577   6.291   2.307
 4165SOL    HW113394   3.505   6.280   2.375
 4165SOL    HW213395   3.538   6.325   2.222
 4166SOL     OW13396   5.710   2.994   0.719
 4166SOL    HW113397   5.741   2.918   0.777
 4166SOL    HW213398   5.722   2.970   0.623
 4167SOL     OW13399   1.840   2.821   1.254
 4167SOL    HW113400   1.889   2.892   1.305
 4167SOL    HW213401   1.746   2.852   1.236
 4168SOL     OW13402   1.628   4.702   0.938
 4168SOL    HW113403   1.542   4.698   0.887
 4168SOL    HW213404   1.705   4.692   0.875
 4169SOL     OW13405   6.026   3.536   4.731
 4169SOL    HW113406   6.052   3.440   4.720
 4169SOL    HW213407   5.927   3.544   4.721
 4170SOL     OW13408   4.445   2.564   5.528
 4170SOL    HW113409   4.482   2.657   5.533
 4170SOL    HW213410   4.481   2.518   5.447
 4171SOL     OW13411   5.696   3.689   1.818
 4171SOL    HW113412   5.702   3.594   1.847
 4171SOL    HW213413   5.777   3.712   1.763
 4172SOL     OW13414   1.653   1.647   0.393
 4172SOL    HW113415   1.656   1.731   0.339
 4172SOL    HW213416   1.745   1.610   0.404
 4173SOL     OW13417   5.356   3.593   5.703
 4173SOL    HW113418   5.435   3.649   5.678
 4173SOL    HW213419   5.300   3.576   5.622
 4174SOL     OW13420   5.164   0.870   4.530
 4174SOL    HW113421   5.213   0.789   4.562
 4174SOL    HW213422   5.069   0.845   4.509
 4175SOL     OW13423   3.559   1.300   3.335
 4175SOL    HW113424   3.653   1.332   3.320
 4175SOL    HW213425   3.526   1.255   3.252
 4176SOL     OW13426   5.867   6.068   3.060
 4176SOL    HW113427   5.925   6.081   2.980
 4176SOL    HW213428   5.872   6.149   3.119
 4177SOL     OW13429   6.992   5.661   2.652
 4177SOL    HW113430   6.997   5.715   2.736
 4177SOL    HW213431   6.991   5.564   2.675
 4178SOL     OW13432   4.215   2.414   5.599
 4178SOL    HW113433   4.198   2.371   5.688
 4178SOL    HW213434   4.299   2.468   5.604
 4179SOL     OW13435   5.737   3.128   5.994
 4179SOL    HW113436   5.773   3.104   5.904
 4179SOL    HW213437   5.731   3.227   6.002
 4180SOL     OW13438   4.372   3.844   1.565
 4180SOL    HW113439   4.311   3.889   1.630
 4180SOL    HW213440   4.466   3.851   1.598
 4181SOL     OW13441   0.542   1.374   0.084
 4181SOL    HW113442   0.510   1.425   0.163
 4181SOL    HW213443   0.578   1.285   0.114
 4182SOL     OW13444   5.629   1.099   3.509
 4182SOL    HW113445   5.700   1.091   3.439
 4182SOL    HW213446   5.653   1.042   3.588
 4183SOL     OW13447   1.449   1.876   1.168
 4183SOL    HW113448   1.358   1.846   1.198
 4183SOL    HW213449   1.439   1.960   1.114
 4184SOL     OW13450   4.545   5.396   0.301
 4184SOL    HW113451   4.598   5.353   0.374
 4184SOL    HW213452   4.499   5.477   0.337
 4185SOL     OW13453   0.210   6.955   4.193
 4185SOL    HW113454   0.224   6.967   4.095
 4185SOL    HW213455   0.245   0.017   4.242
 4186SOL     OW13456   3.297   4.181   1.413
 4186SOL    HW113457   3.328   4.135   1.496
 4186SOL    HW213458   3.202   4.154   1.394
 4187SOL     OW13459   4.441   4.330   6.670
 4187SOL    HW113460   4.471   4.347   6.576
 4187SOL    HW213461   4.368   4.394   6.694
 4188SOL     OW13462   5.148   6.635   4.847
 4188SOL    HW113463   5.194   6.558   4.891
 4188SOL    HW213464   5.081   6.600   4.781
 4189SOL     OW13465   2.315   2.841   3.582
 4189SOL    HW113466   2.392   2.778   3.592
 4189SOL    HW213467   2.287   2.874   3.672
 4190SOL     OW13468   2.836   0.249   1.527
 4190SOL    HW113469   2.745   0.222   1.558
 4190SOL    HW213470   2.873   0.180   1.465
 4191SOL     OW13471   6.621   2.250   2.391
 4191SOL    HW113472   6.681   2.276   2.316
 4191SOL    HW213473   6.628   2.151   2.405
 4192SOL     OW13474   6.062   1.111   3.162
 4192SOL    HW113475   5.977   1.127   3.112
 4192SOL    HW213476   6.120   1.192   3.155
 4193SOL     OW13477   2.204   6.945   2.244
 4193SOL    HW113478   2.270   6.875   2.217
 4193SOL    HW213479   2.247   0.017   2.236
 4194SOL     OW13480   0.347   0.996   4.134
 4194SOL    HW113481   0.343   1.002   4.234
 4194SOL    HW213482   0.352   0.900   4.106
 4195SOL     OW13483   5.168   1.057   2.358
 4195SOL    HW113484   5.220   1.142   2.352
 4195SOL    HW213485   5.142   1.041   2.454
 4196SOL     OW13486   4.495   2.501   3.447
 4196SOL    HW113487   4.529   2.464   3.361
 4196SOL    HW213488   4.413   2.451   3.475
 4197SOL     OW13489   4.461   4.642   4.157
 4197SOL    HW113490   4.401   4.672   4.230
 4197SOL    HW213491   4.407   4.622   4.075
 4198SOL     OW13492   5.955   3.985   5.753
 4198SOL    HW113493   5.915   3.899   5.721
 4198SOL    HW213494   5.905   4.016   5.835
 4199SOL     OW13495   3.073   4.033   5.239
 4199SOL    HW113496   2.977   4.010   5.252
 4199SOL    HW213497   3.128   3.993   5.312
 4200SOL     OW13498   2.365   0.320   6.193
 4200SOL    HW113499   2.268   0.330   6.217
 4200SOL    HW213500   2.416   0.287   6.272
 4201SOL     OW13501   6.391   6.687   4.463
 4201SOL    HW113502   6.381   6.700   4.365
 4201SOL    HW213503   6.321   6.740   4.511
 4202SOL     OW13504   5.430   4.012   4.787
 4202SOL    HW113505   5.367   3.999   4.863
 4202SOL    HW213506   5.421   4.104   4.751
 4203SOL     OW13507   5.218   5.062   3.950
 4203SOL    HW113508   5.284   5.040   4.022
 4203SOL    HW213509   5.265   5.061   3.861
 4204SOL     OW13510   2.966   4.124   0.994
 4204SOL    HW113511   2.899   4.101   1.065
 4204SOL    HW213512   2.919   4.170   0.919
 4205SOL     OW13513   2.777   5.001   2.836
 4205SOL    HW113514   2.781   4.906   2.805
 4205SOL    HW213515   2.818   5.061   2.767
 4206SOL     OW13516   5.707   0.138   4.641
 4206SOL    HW113517   5.758   0.161   4.559
 4206SOL    HW213518   5.768   0.136   4.720
 4207SOL     OW13519   0.977   0.900   1.250
 4207SOL    HW113520   0.911   0.966   1.214
 4207SOL    HW213521   1.070   0.934   1.237
 4208SOL     OW13522   0.814   2.876   1.309
 4208SOL    HW113523   0.863   2.929   1.239
 4208SOL    HW213524   0.791   2.786   1.272
 4209SOL     OW13525   3.091   6.991   4.667
 4209SOL    HW113526   2.991   6.996   4.679
 4209SOL    HW213527   3.129   0.064   4.667
 4210SOL     OW13528   5.221   2.345   0.506
 4210SOL    HW113529   5.150   2.314   0.569
 4210SOL    HW213530   5.285   2.405   0.554
 4211SOL     OW13531   4.853   3.694   3.657
 4211SOL    HW113532   4.941   3.726   3.623
 4211SOL    HW213533   4.779   3.740   3.608
 4212SOL     OW13534   6.132   6.885   2.839
 4212SOL    HW113535   6.152   6.953   2.769
 4212SOL    HW213536   6.044   6.906   2.883
 4213SOL     OW13537   0.694   0.697   2.430
 4213SOL    HW113538   0.606   0.667   2.392
 4213SOL    HW213539   0.700   0.670   2.526
 4214SOL     OW13540   2.337   4.267   4.510
 4214SOL    HW113541   2.376   4.343   4.562
 4214SOL    HW213542   2.308   4.195   4.573
 4215SOL     OW13543   0.600   5.137   4.966
 4215SOL    HW113544   0.657   5.073   4.915
 4215SOL    HW213545   0.572   5.094   5.052
 4216SOL     OW13546   2.454   3.368   5.352
 4216SOL    HW113547   2.501   3.283   5.376
 4216SOL    HW213548   2.511   3.446   5.376
 4217SOL     OW13549   7.012   0.897   3.369
 4217SOL    HW113550   6.928   0.950   3.376
 4217SOL    HW213551   6.991   0.800   3.384
 4218SOL     OW13552   2.792   6.925   2.906
 4218SOL    HW113553   2.846   7.004   2.878
 4218SOL    HW213554   2.851   6.844   2.911
 4219SOL     OW13555   4.974   6.382   3.301
 4219SOL    HW113556   4.973   6.410   3.397
 4219SOL    HW213557   4.921   6.298   3.291
 4220SOL     OW13558   0.544   3.788   3.548
 4220SOL    HW113559   0.537   3.764   3.645
 4220SOL    HW213560   0.537   3.705   3.492
 4221SOL     OW13561   5.562   5.768   6.119
 4221SOL    HW113562   5.589   5.861   6.146
 4221SOL    HW213563   5.588   5.753   6.023
 4222SOL     OW13564   4.376   2.492   0.234
 4222SOL    HW113565   4.308   2.497   0.161
 4222SOL    HW213566   4.329   2.486   0.323
 4223SOL     OW13567   3.245   4.152   2.782
 4223SOL    HW113568   3.276   4.057   2.772
 4223SOL    HW213569   3.180   4.158   2.858
 4224SOL     OW13570   4.215   2.072   5.434
 4224SOL    HW113571   4.285   2.003   5.414
 4224SOL    HW213572   4.252   2.163   5.417
 4225SOL     OW13573   5.534   0.984   5.062
 4225SOL    HW113574   5.455   0.935   5.098
 4225SOL    HW213575   5.603   0.919   5.030
 4226SOL     OW13576   1.580   0.618   3.339
 4226SOL    HW113577   1.567   0.645   3.244
 4226SOL    HW213578   1.576   0.518   3.346
 4227SOL     OW13579   6.236   4.132   0.421
 4227SOL    HW113580   6.279   4.044   0.406
 4227SOL    HW213581   6.299   4.205   0.395
 4228SOL     OW13582   6.361   5.238   2.625
 4228SOL    HW113583   6.299   5.314   2.606
 4228SOL    HW213584   6.331   5.157   2.575
 4229SOL     OW13585   4.949   4.823   5.967
 4229SOL    HW113586   4.929   4.812   6.065
 4229SOL    HW213587   4.958   4.921   5.946
 4230SOL     OW13588   3.396   0.542   4.530
 4230SOL    HW113589   3.454   0.617   4.563
 4230SOL    HW213590   3.453   0.466   4.502
 4231SOL     OW13591   4.080   6.175   5.137
 4231SOL    HW113592   4.008   6.106   5.134
 4231SOL    HW213593   4.163   6.135   5.176
 4232SOL     OW13594   2.276   3.980   1.940
 4232SOL    HW113595   2.302   3.904   1.880
 4232SOL    HW213596   2.325   4.062   1.912
 4233SOL     OW13597   5.483   6.894   1.220
 4233SOL    HW113598   5.561   6.856   1.170
 4233SOL    HW213599   5.399   6.851   1.188
 4234SOL     OW13600   3.488   4.130   5.463
 4234SOL    HW113601   3.547   4.099   5.389
 4234SOL    HW213602   3.392   4.123   5.436
 4235SOL     OW13603   0.171   3.465   5.340
 4235SOL    HW113604   0.254   3.460   5.396
 4235SOL    HW213605   0.158   3.558   5.307
 4236SOL     OW13606   1.117   4.230   4.971
 4236SOL    HW113607   1.168   4.312   4.996
 4236SOL    HW213608   1.093   4.234   4.874
 4237SOL     OW13609   5.363   4.242   4.616
 4237SOL    HW113610   5.391   4.277   4.527
 4237SOL    HW213611   5.264   4.245   4.624
 4238SOL     OW13612   4.182   4.944   3.884
 4238SOL    HW113613   4.280   4.924   3.887
 4238SOL    HW213614   4.168   5.035   3.845
 4239SOL     OW13615   5.331   5.335   5.923
 4239SOL    HW113616   5.247   5.289   5.953
 4239SOL    HW213617   5.391   5.348   6.001
 4240SOL     OW13618   2.837   4.729   6.108
 4240SOL    HW113619   2.769   4.696   6.173
 4240SOL    HW213620   2.921   4.753   6.157
 4241SOL     OW13621   3.809   1.264   0.328
 4241SOL    HW113622   3.894   1.310   0.352
 4241SOL    HW213623   3.758   1.320   0.262
 4242SOL     OW13624   1.635   0.197   2.531
 4242SOL    HW113625   1.676   0.197   2.622
 4242SOL    HW213626   1.670   0.274   2.479
 4243SOL     OW13627   1.748   3.005   3.038
 4243SOL    HW113628   1.775   2.981   3.131
 4243SOL    HW213629   1.698   2.929   2.997
 4244SOL     OW13630   3.117   6.466   1.262
 4244SOL    HW113631   3.186   6.394   1.254
 4244SOL    HW213632   3.100   6.484   1.359
 4245SOL     OW13633   6.282   3.061   1.716
 4245SOL    HW113634   6.340   3.092   1.640
 4245SOL    HW213635   6.215   3.132   1.737
 4246SOL     OW13636   4.290   1.911   3.987
 4246SOL    HW113637   4.367   1.883   3.929
 4246SOL    HW213638   4.325   1.942   4.075
 4247SOL     OW13639   2.150   4.130   6.360
 4247SOL    HW113640   2.247   4.131   6.336
 4247SOL    HW213641   2.140   4.139   6.459
 4248SOL     OW13642   1.713   0.361   3.026
 4248SOL    HW113643   1.661   0.277   3.010
 4248SOL    HW213644   1.804   0.353   2.984
 4249SOL     OW13645   6.601   0.378   5.871
 4249SOL    HW113646   6.537   0.309   5.906
 4249SOL    HW213647   6.635   0.349   5.781
 4250SOL     OW13648   6.503   5.613   4.474
 4250SOL    HW113649   6.505   5.584   4.569
 4250SOL    HW213650   6.526   5.536   4.415
 4251SOL     OW13651   5.634   2.379   5.338
 4251SOL    HW113652   5.562   2.309   5.342
 4251SOL    HW213653   5.701   2.354   5.268
 4252SOL     OW13654   6.937   6.659   0.222
 4252SOL    HW113655   6.913   6.713   0.303
 4252SOL    HW213656   6.856   6.613   0.187
 4253SOL     OW13657   4.834   5.394   2.865
 4253SOL    HW113658   4.771   5.352   2.799
 4253SOL    HW213659   4.786   5.408   2.952
 4254SOL     OW13660   2.071   2.402   5.776
 4254SOL    HW113661   1.971   2.405   5.789
 4254SOL    HW213662   2.116   2.434   5.860
 4255SOL     OW13663   1.316   2.974   3.208
 4255SOL    HW113664   1.299   2.924   3.123
 4255SOL    HW213665   1.368   3.057   3.188
 4256SOL     OW13666   0.420   5.973   1.053
 4256SOL    HW113667   0.342   5.947   0.996
 4256SOL    HW213668   0.407   6.066   1.086
 4257SOL     OW13669   6.802   0.787   3.849
 4257SOL    HW113670   6.896   0.805   3.819
 4257SOL    HW213671   6.768   0.866   3.899
 4258SOL     OW13672   2.987   5.176   0.839
 4258SOL    HW113673   3.041   5.150   0.919
 4258SOL    HW213674   3.019   5.264   0.804
 4259SOL     OW13675   0.990   0.239   0.602
 4259SOL    HW113676   0.932   0.173   0.553
 4259SOL    HW213677   1.084   0.205   0.603
 4260SOL     OW13678   5.792   1.101   4.805
 4260SOL    HW113679   5.822   1.129   4.896
 4260SOL    HW213680   5.794   1.001   4.798
 4261SOL     OW13681   2.607   6.155   4.231
 4261SOL    HW113682   2.589   6.245   4.270
 4261SOL    HW213683   2.648   6.165   4.141
 4262SOL     OW13684   2.940   4.809   5.832
 4262SOL    HW113685   2.916   4.762   5.917
 4262SOL    HW213686   3.008   4.880   5.851
 4263SOL     OW13687   2.118   1.912   3.433
 4263SOL    HW113688   2.027   1.872   3.419
 4263SOL    HW213689   2.109   1.999   3.481
 4264SOL     OW13690   4.783   2.161   5.726
 4264SOL    HW113691   4.773   2.099   5.804
 4264SOL    HW213692   4.762   2.254   5.753
 4265SOL     OW13693   2.319   6.762   5.885
 4265SOL    HW113694   2.370   6.768   5.971
 4265SOL    HW213695   2.292   6.667   5.869
 4266SOL     OW13696   1.228   5.095   1.689
 4266SOL    HW113697   1.228   5.135   1.597
 4266SOL    HW213698   1.134   5.088   1.723
 4267SOL     OW13699   1.105   4.564   4.468
 4267SOL    HW113700   1.092   4.663   4.468
 4267SOL    HW213701   1.160   4.537   4.547
 4268SOL     OW13702   0.952   4.312   6.222
 4268SOL    HW113703   0.965   4.257   6.139
 4268SOL    HW213704   0.937   4.251   6.300
 4269SOL     OW13705   2.577   1.538   4.630
 4269SOL    HW113706   2.530   1.477   4.694
 4269SOL    HW213707   2.594   1.490   4.544
 4270SOL     OW13708   3.690   3.204   0.105
 4270SOL    HW113709   3.608   3.243   0.146
 4270SOL    HW213710   3.698   3.234   0.010
 4271SOL     OW13711   6.794   0.439   1.022
 4271SOL    HW113712   6.721   0.417   1.087
 4271SOL    HW213713   6.753   0.475   0.938
 4272SOL     OW13714   6.549   0.795   5.875
 4272SOL    HW113715   6.524   0.721   5.937
 4272SOL    HW213716   6.629   0.843   5.912
 4273SOL     OW13717   2.957   5.728   4.300
 4273SOL    HW113718   2.892   5.707   4.228
 4273SOL    HW213719   2.919   5.702   4.389
 4274SOL     OW13720   0.054   1.598   2.498
 4274SOL    HW113721   0.119   1.673   2.488
 4274SOL    HW213722   0.064   1.535   2.421
 4275SOL     OW13723   0.570   2.537   3.570
 4275SOL    HW113724   0.511   2.535   3.650
 4275SOL    HW213725   0.615   2.627   3.565
 4276SOL     OW13726   2.177   5.905   3.001
 4276SOL    HW113727   2.098   5.917   3.062
 4276SOL    HW213728   2.145   5.881   2.910
 4277SOL     OW13729   0.020   5.431   2.958
 4277SOL    HW113730   0.100   5.483   2.987
 4277SOL    HW213731   0.011   5.436   2.858
 4278SOL     OW13732   1.227   6.702   1.446
 4278SOL    HW113733   1.145   6.729   1.396
 4278SOL    HW213734   1.307   6.713   1.388
 4279SOL     OW13735   1.139   2.439   3.495
 4279SOL    HW113736   1.134   2.464   3.398
 4279SOL    HW213737   1.163   2.519   3.549
 4280SOL     OW13738   2.200   6.334   6.025
 4280SOL    HW113739   2.186   6.242   6.062
 4280SOL    HW213740   2.229   6.396   6.098
 4281SOL     OW13741   5.583   6.005   3.112
 4281SOL    HW113742   5.671   6.028   3.071
 4281SOL    HW213743   5.518   6.079   3.096
 4282SOL     OW13744   4.857   5.305   2.255
 4282SOL    HW113745   4.833   5.208   2.256
 4282SOL    HW213746   4.915   5.324   2.176
 4283SOL     OW13747   5.326   1.330   4.611
 4283SOL    HW113748   5.376   1.297   4.691
 4283SOL    HW213749   5.297   1.425   4.627
 4284SOL     OW13750   4.660   5.333   6.416
 4284SOL    HW113751   4.685   5.237   6.425
 4284SOL    HW213752   4.581   5.353   6.474
 4285SOL     OW13753   3.368   1.115   6.517
 4285SOL    HW113754   3.287   1.123   6.460
 4285SOL    HW213755   3.443   1.075   6.464
 4286SOL     OW13756   5.694   0.508   6.459
 4286SOL    HW113757   5.704   0.419   6.415
 4286SOL    HW213758   5.675   0.496   6.556
 4287SOL     OW13759   3.494   1.180   1.009
 4287SOL    HW113760   3.453   1.270   0.998
 4287SOL    HW213761   3.568   1.168   0.943
 4288SOL     OW13762   6.793   6.109   1.912
 4288SOL    HW113763   6.835   6.195   1.883
 4288SOL    HW213764   6.757   6.118   2.005
 4289SOL     OW13765   0.449   4.790   4.801
 4289SOL    HW113766   0.388   4.732   4.749
 4289SOL    HW213767   0.397   4.842   4.868
 4290SOL     OW13768   0.265   1.541   3.000
 4290SOL    HW113769   0.348   1.559   3.051
 4290SOL    HW213770   0.272   1.452   2.955
 4291SOL     OW13771   3.713   4.399   6.716
 4291SOL    HW113772   3.628   4.362   6.752
 4291SOL    HW213773   3.775   4.419   6.792
 4292SOL     OW13774   6.703   1.568   1.776
 4292SOL    HW113775   6.747   1.646   1.821
 4292SOL    HW213776   6.766   1.528   1.709
 4293SOL     OW13777   4.077   2.693   0.032
 4293SOL    HW113778   4.021   2.618   0.068
 4293SOL    HW213779   4.096   2.676   6.954
 4294SOL     OW13780   2.647   2.029   6.622
 4294SOL    HW113781   2.718   2.063   6.683
 4294SOL    HW213782   2.647   1.929   6.623
 4295SOL     OW13783   4.498   5.897   3.033
 4295SOL    HW113784   4.499   5.919   2.936
 4295SOL    HW213785   4.482   5.980   3.086
 4296SOL     OW13786   2.711   6.739   2.187
 4296SOL    HW113787   2.623   6.779   2.162
 4296SOL    HW213788   2.696   6.647   2.224
 4297SOL     OW13789   5.322   5.148   0.196
 4297SOL    HW113790   5.418   5.169   0.176
 4297SOL    HW213791   5.275   5.230   0.229
 4298SOL     OW13792   1.744   0.475   0.613
 4298SOL    HW113793   1.675   0.485   0.541
 4298SOL    HW213794   1.830   0.516   0.582
 4299SOL     OW13795   0.812   3.011   6.797
 4299SOL    HW113796   0.817   2.986   6.700
 4299SOL    HW213797   0.827   3.109   6.807
 4300SOL     OW13798   3.242   0.712   1.622
 4300SOL    HW113799   3.276   0.619   1.630
 4300SOL    HW213800   3.180   0.719   1.543
 4301SOL     OW13801   2.466   5.797   6.608
 4301SOL    HW113802   2.389   5.861   6.609
 4301SOL    HW213803   2.527   5.820   6.532
 4302SOL     OW13804   3.717   4.813   5.727
 4302SOL    HW113805   3.676   4.733   5.682
 4302SOL    HW213806   3.668   4.895   5.700
 4303SOL     OW13807   4.914   5.142   3.445
 4303SOL    HW113808   4.936   5.147   3.348
 4303SOL    HW213809   4.898   5.047   3.471
 4304SOL     OW13810   3.389   4.025   1.606
 4304SOL    HW113811   3.380   4.016   1.705
 4304SOL    HW213812   3.476   4.069   1.583
 4305SOL     OW13813   0.869   6.089   6.166
 4305SOL    HW113814   0.938   6.017   6.174
 4305SOL    HW213815   0.914   6.179   6.168
 4306SOL     OW13816   5.993   4.089   5.341
 4306SOL    HW113817   6.065   4.029   5.307
 4306SOL    HW213818   5.907   4.068   5.294
 4307SOL     OW13819   0.559   0.650   6.041
 4307SOL    HW113820   0.560   0.744   6.006
 4307SOL    HW213821   0.641   0.603   6.010
 4308SOL     OW13822   4.692   5.867   6.174
 4308SOL    HW113823   4.755   5.792   6.157
 4308SOL    HW213824   4.670   5.871   6.271
 4309SOL     OW13825   1.318   1.337   6.828
 4309SOL    HW113826   1.247   1.364   6.763
 4309SOL    HW213827   1.332   1.411   6.895
 4310SOL     OW13828   6.352   1.787   2.909
 4310SOL    HW113829   6.280   1.857   2.910
 4310SOL    HW213830   6.438   1.827   2.941
 4311SOL     OW13831   0.842   0.735   1.712
 4311SOL    HW113832   0.898   0.695   1.639
 4311SOL    HW213833   0.897   0.743   1.795
 4312SOL     OW13834   6.649   4.089   2.489
 4312SOL    HW113835   6.716   4.104   2.417
 4312SOL    HW213836   6.576   4.030   2.455
 4313SOL     OW13837   0.624   3.137   6.337
 4313SOL    HW113838   0.613   3.215   6.398
 4313SOL    HW213839   0.592   3.161   6.245
 4314SOL     OW13840   0.885   1.215   6.209
 4314SOL    HW113841   0.840   1.130   6.238
 4314SOL    HW213842   0.896   1.214   6.109
 4315SOL     OW13843   2.840   1.256   5.221
 4315SOL    HW113844   2.827   1.342   5.271
 4315SOL    HW213845   2.761   1.240   5.162
 4316SOL     OW13846   4.370   5.760   1.865
 4316SOL    HW113847   4.371   5.816   1.782
 4316SOL    HW213848   4.405   5.814   1.942
 4317SOL     OW13849   5.026   0.726   5.141
 4317SOL    HW113850   4.993   0.757   5.051
 4317SOL    HW213851   4.960   0.753   5.211
 4318SOL     OW13852   1.319   6.303   4.479
 4318SOL    HW113853   1.358   6.393   4.500
 4318SOL    HW213854   1.288   6.302   4.384
 4319SOL     OW13855   1.002   4.033   2.581
 4319SOL    HW113856   1.019   4.116   2.634
 4319SOL    HW213857   1.015   3.953   2.640
 4320SOL     OW13858   3.155   0.115   0.892
 4320SOL    HW113859   3.163   0.097   0.794
 4320SOL    HW213860   3.241   0.152   0.927
 4321SOL     OW13861   6.875   6.324   3.256
 4321SOL    HW113862   6.864   6.419   3.227
 4321SOL    HW213863   6.805   6.302   3.324
 4322SOL     OW13864   2.028   2.010   4.632
 4322SOL    HW113865   2.039   2.002   4.533
 4322SOL    HW213866   2.093   1.951   4.678
 4323SOL     OW13867   4.725   5.094   0.081
 4323SOL    HW113868   4.818   5.125   0.061
 4323SOL    HW213869   4.679   5.161   0.139
 4324SOL     OW13870   1.177   5.046   5.444
 4324SOL    HW113871   1.157   4.997   5.529
 4324SOL    HW213872   1.106   5.026   5.376
 4325SOL     OW13873   2.128   6.581   1.941
 4325SOL    HW113874   2.080   6.633   2.012
 4325SOL    HW213875   2.227   6.594   1.952
 4326SOL     OW13876   5.218   2.292   2.189
 4326SOL    HW113877   5.211   2.357   2.265
 4326SOL    HW213878   5.293   2.228   2.207
 4327SOL     OW13879   2.549   5.448   3.538
 4327SOL    HW113880   2.534   5.358   3.496
 4327SOL    HW213881   2.524   5.444   3.635
 4328SOL     OW13882   6.770   0.799   3.518
 4328SOL    HW113883   6.760   0.897   3.499
 4328SOL    HW213884   6.784   0.786   3.616
 4329SOL     OW13885   6.976   2.626   6.619
 4329SOL    HW113886   6.919   2.557   6.664
 4329SOL    HW213887   0.022   2.665   6.685
 4330SOL     OW13888   2.406   5.274   4.448
 4330SOL    HW113889   2.419   5.262   4.547
 4330SOL    HW213890   2.389   5.371   4.429
 4331SOL     OW13891   6.050   2.028   2.569
 4331SOL    HW113892   6.040   2.127   2.569
 4331SOL    HW213893   6.131   2.002   2.516
 4332SOL     OW13894   0.783   5.688   1.691
 4332SOL    HW113895   0.772   5.748   1.612
 4332SOL    HW213896   0.708   5.703   1.755
 4333SOL     OW13897   3.930   2.359   6.167
 4333SOL    HW113898   3.858   2.291   6.150
 4333SOL    HW213899   3.979   2.335   6.250
 4334SOL     OW13900   0.617   2.650   3.957
 4334SOL    HW113901   0.661   2.725   3.909
 4334SOL    HW213902   0.550   2.685   4.022
 4335SOL     OW13903   2.293   4.099   1.445
 4335SOL    HW113904   2.320   4.062   1.357
 4335SOL    HW213905   2.363   4.163   1.477
 4336SOL     OW13906   2.561   5.754   5.296
 4336SOL    HW113907   2.551   5.779   5.392
 4336SOL    HW213908   2.567   5.836   5.240
 4337SOL     OW13909   0.536   4.732   3.872
 4337SOL    HW113910   0.532   4.772   3.964
 4337SOL    HW213911   0.625   4.754   3.831
 4338SOL     OW13912   2.910   2.416   5.864
 4338SOL    HW113913   2.825   2.409   5.917
 4338SOL    HW213914   2.891   2.461   5.777
 4339SOL     OW13915   4.097   5.067   5.205
 4339SOL    HW113916   4.147   5.151   5.184
 4339SOL    HW213917   4.136   4.991   5.154
 4340SOL     OW13918   6.631   4.314   1.463
 4340SOL    HW113919   6.694   4.391   1.478
 4340SOL    HW213920   6.676   4.246   1.406
 4341SOL     OW13921   5.501   6.139   1.296
 4341SOL    HW113922   5.444   6.130   1.377
 4341SOL    HW213923   5.449   6.110   1.216
 4342SOL     OW13924   5.517   2.868   2.492
 4342SOL    HW113925   5.575   2.890   2.571
 4342SOL    HW213926   5.436   2.818   2.523
 4343SOL     OW13927   3.495   0.184   6.397
 4343SOL    HW113928   3.481   0.174   6.298
 4343SOL    HW213929   3.589   0.213   6.415
 4344SOL     OW13930   0.398   3.741   3.148
 4344SOL    HW113931   0.349   3.683   3.083
 4344SOL    HW213932   0.337   3.810   3.185
 4345SOL     OW13933   3.734   3.194   2.463
 4345SOL    HW113934   3.666   3.265   2.484
 4345SOL    HW213935   3.800   3.230   2.397
 4346SOL     OW13936   0.530   3.015   2.680
 4346SOL    HW113937   0.525   3.083   2.753
 4346SOL    HW213938   0.612   2.958   2.694
 4347SOL     OW13939   6.452   5.721   0.666
 4347SOL    HW113940   6.523   5.791   0.665
 4347SOL    HW213941   6.489   5.635   0.701
 4348SOL     OW13942   5.699   4.957   5.710
 4348SOL    HW113943   5.760   5.032   5.736
 4348SOL    HW213944   5.672   4.968   5.614
 4349SOL     OW13945   0.217   3.130   3.951
 4349SOL    HW113946   0.246   3.059   3.887
 4349SOL    HW213947   0.223   3.095   4.044
 4350SOL     OW13948   3.800   0.923   3.938
 4350SOL    HW113949   3.738   0.926   4.016
 4350SOL    HW213950   3.842   1.013   3.925
 4351SOL     OW13951   0.835   5.453   0.628
 4351SOL    HW113952   0.848   5.524   0.697
 4351SOL    HW213953   0.881   5.369   0.656
 4352SOL     OW13954   3.604   5.098   1.596
 4352SOL    HW113955   3.637   5.092   1.691
 4352SOL    HW213956   3.682   5.091   1.533
 4353SOL     OW13957   2.915   2.784   1.272
 4353SOL    HW113958   3.012   2.802   1.254
 4353SOL    HW213959   2.885   2.708   1.215
 4354SOL     OW13960   5.898   6.553   2.944
 4354SOL    HW113961   5.881   6.626   3.010
 4354SOL    HW213962   5.973   6.579   2.884
 4355SOL     OW13963   1.771   5.029   2.403
 4355SOL    HW113964   1.677   5.000   2.388
 4355SOL    HW213965   1.776   5.085   2.486
 4356SOL     OW13966   5.968   2.758   5.302
 4356SOL    HW113967   6.055   2.762   5.351
 4356SOL    HW213968   5.955   2.844   5.251
 4357SOL     OW13969   5.975   0.181   2.107
 4357SOL    HW113970   5.972   0.280   2.122
 4357SOL    HW213971   5.974   0.162   2.009
 4358SOL     OW13972   2.749   6.897   0.422
 4358SOL    HW113973   2.776   6.992   0.436
 4358SOL    HW213974   2.827   6.845   0.388
 4359SOL     OW13975   2.670   1.945   1.196
 4359SOL    HW113976   2.651   1.855   1.158
 4359SOL    HW213977   2.673   2.013   1.122
 4360SOL     OW13978   2.041   5.055   4.086
 4360SOL    HW113979   1.985   5.043   4.167
 4360SOL    HW213980   2.024   5.145   4.046
 4361SOL     OW13981   0.097   2.073   6.797
 4361SOL    HW113982   0.081   2.171   6.796
 4361SOL    HW213983   0.048   2.032   6.874
 4362SOL     OW13984   1.070   5.233   3.075
 4362SOL    HW113985   1.122   5.153   3.047
 4362SOL    HW213986   1.081   5.248   3.174
 4363SOL     OW13987   3.840   1.156   2.113
 4363SOL    HW113988   3.911   1.191   2.052
 4363SOL    HW213989   3.751   1.165   2.069
 4364SOL     OW13990   4.096   3.331   2.769
 4364SOL    HW113991   4.121   3.419   2.811
 4364SOL    HW213992   4.037   3.280   2.832
 4365SOL     OW13993   2.099   1.076   1.305
 4365SOL    HW113994   2.191   1.100   1.337
 4365SOL    HW213995   2.032   1.102   1.374
 4366SOL     OW13996   5.018   7.001   4.764
 4366SOL    HW113997   5.052   6.967   4.677
 4366SOL    HW213998   5.095   7.017   4.826
 4367SOL     OW13999   2.542   6.405   2.637
 4367SOL    HW114000   2.530   6.363   2.547
 4367SOL    HW214001   2.625   6.460   2.638
 4368SOL     OW14002   4.786   3.918   3.912
 4368SOL    HW114003   4.804   3.911   4.010
 4368SOL    HW214004   4.825   3.838   3.865
 4369SOL     OW14005   5.248   4.094   3.856
 4369SOL    HW114006   5.154   4.127   3.849
 4369SOL    HW214007   5.310   4.164   3.819
 4370SOL     OW14008   3.761   4.543   1.460
 4370SOL    HW114009   3.852   4.524   1.423
 4370SOL    HW214010   3.748   4.491   1.544
 4371SOL     OW14011   2.398   1.154   2.097
 4371SOL    HW114012   2.310   1.201   2.099
 4371SOL    HW214013   2.468   1.215   2.059
 4372SOL     OW14014   1.766   3.665   3.972
 4372SOL    HW114015   1.771   3.739   4.039
 4372SOL    HW214016   1.858   3.628   3.955
 4373SOL     OW14017   3.687   0.917   6.606
 4373SOL    HW114018   3.642   0.975   6.674
 4373SOL    HW214019   3.667   0.821   6.626
 4374SOL     OW14020   2.547   6.705   0.295
 4374SOL    HW114021   2.572   6.801   0.281
 4374SOL    HW214022   2.593   6.670   0.377
 4375SOL     OW14023   4.830   1.551   5.418
 4375SOL    HW114024   4.840   1.494   5.499
 4375SOL    HW214025   4.746   1.604   5.424
 4376SOL     OW14026   2.251   5.949   6.570
 4376SOL    HW114027   2.206   6.025   6.617
 4376SOL    HW214028   2.199   5.926   6.487
 4377SOL     OW14029   5.053   6.684   6.843
 4377SOL    HW114030   5.086   6.608   6.787
 4377SOL    HW214031   4.978   6.652   6.901
 4378SOL     OW14032   2.493   5.194   2.423
 4378SOL    HW114033   2.485   5.193   2.323
 4378SOL    HW214034   2.509   5.101   2.456
 4379SOL     OW14035   0.981   0.224   1.767
 4379SOL    HW114036   0.888   0.210   1.732
 4379SOL    HW214037   1.044   0.161   1.720
 4380SOL     OW14038   1.665   5.288   4.044
 4380SOL    HW114039   1.581   5.260   3.998
 4380SOL    HW214040   1.674   5.236   4.129
 4381SOL     OW14041   4.931   5.790   5.257
 4381SOL    HW114042   4.986   5.849   5.198
 4381SOL    HW214043   4.947   5.814   5.353
 4382SOL     OW14044   4.799   3.141   3.218
 4382SOL    HW114045   4.837   3.181   3.134
 4382SOL    HW214046   4.735   3.069   3.194
 4383SOL     OW14047   1.023   2.258   6.978
 4383SOL    HW114048   0.939   2.295   7.017
 4383SOL    HW214049   1.020   2.268   6.878
 4384SOL     OW14050   3.972   6.494   0.699
 4384SOL    HW114051   3.881   6.465   0.669
 4384SOL    HW214052   3.972   6.592   0.715
 4385SOL     OW14053   6.470   2.010   2.362
 4385SOL    HW114054   6.428   1.974   2.446
 4385SOL    HW214055   6.408   2.075   2.319
 4386SOL     OW14056   1.169   3.571   6.599
 4386SOL    HW114057   1.097   3.505   6.579
 4386SOL    HW214058   1.194   3.620   6.515
 4387SOL     OW14059   6.635   2.859   1.817
 4387SOL    HW114060   6.616   2.945   1.769
 4387SOL    HW214061   6.548   2.816   1.843
 4388SOL     OW14062   2.904   1.313   5.706
 4388SOL    HW114063   2.826   1.330   5.646
 4388SOL    HW214064   2.980   1.373   5.680
 4389SOL     OW14065   6.214   2.144   2.276
 4389SOL    HW114066   6.138   2.115   2.217
 4389SOL    HW214067   6.179   2.207   2.346
 4390SOL     OW14068   4.416   2.353   1.836
 4390SOL    HW114069   4.494   2.383   1.782
 4390SOL    HW214070   4.339   2.414   1.821
 4391SOL     OW14071   0.735   6.363   0.940
 4391SOL    HW114072   0.721   6.313   0.854
 4391SOL    HW214073   0.736   6.299   1.016
 4392SOL     OW14074   5.394   3.656   4.439
 4392SOL    HW114075   5.404   3.603   4.523
 4392SOL    HW214076   5.317   3.719   4.448
 4393SOL     OW14077   5.377   6.000   3.937
 4393SOL    HW114078   5.384   5.916   3.991
 4393SOL    HW214079   5.371   6.078   3.999
 4394SOL     OW14080   4.328   0.629   2.751
 4394SOL    HW114081   4.366   0.539   2.728
 4394SOL    HW214082   4.354   0.654   2.844
 4395SOL     OW14083   4.836   2.149   1.559
 4395SOL    HW114084   4.847   2.195   1.647
 4395SOL    HW214085   4.809   2.216   1.490
 4396SOL     OW14086   1.698   0.794   4.118
 4396SOL    HW114087   1.629   0.824   4.052
 4396SOL    HW214088   1.694   0.695   4.128
 4397SOL     OW14089   5.971   0.411   6.514
 4397SOL    HW114090   5.920   0.444   6.435
 4397SOL    HW214091   5.919   0.429   6.597
 4398SOL     OW14092   6.818   5.138   3.753
 4398SOL    HW114093   6.757   5.184   3.688
 4398SOL    HW214094   6.797   5.169   3.846
 4399SOL     OW14095   2.723   1.494   1.760
 4399SOL    HW114096   2.683   1.564   1.702
 4399SOL    HW214097   2.750   1.534   1.847
 4400SOL     OW14098   3.598   5.729   3.525
 4400SOL    HW114099   3.556   5.800   3.468
 4400SOL    HW214100   3.526   5.673   3.565
 4401SOL     OW14101   6.214   6.425   4.640
 4401SOL    HW114102   6.139   6.363   4.617
 4401SOL    HW214103   6.181   6.520   4.640
 4402SOL     OW14104   6.444   0.318   3.324
 4402SOL    HW114105   6.520   0.349   3.266
 4402SOL    HW214106   6.466   0.230   3.366
 4403SOL     OW14107   0.745   0.235   3.095
 4403SOL    HW114108   0.771   0.228   2.999
 4403SOL    HW214109   0.827   0.246   3.151
 4404SOL     OW14110   1.800   4.349   3.387
 4404SOL    HW114111   1.872   4.350   3.457
 4404SOL    HW214112   1.758   4.439   3.381
 4405SOL     OW14113   3.094   3.940   6.398
 4405SOL    HW114114   3.109   3.912   6.493
 4405SOL    HW214115   3.169   3.999   6.368
 4406SOL     OW14116   5.174   3.473   2.328
 4406SOL    HW114117   5.076   3.452   2.319
 4406SOL    HW214118   5.186   3.571   2.341
 4407SOL     OW14119   0.155   0.077   0.320
 4407SOL    HW114120   0.206   0.073   0.234
 4407SOL    HW214121   0.153   0.171   0.353
 4408SOL     OW14122   4.563   6.271   0.542
 4408SOL    HW114123   4.478   6.222   0.562
 4408SOL    HW214124   4.573   6.348   0.605
 4409SOL     OW14125   1.715   1.209   2.860
 4409SOL    HW114126   1.729   1.303   2.891
 4409SOL    HW214127   1.758   1.197   2.770
 4410SOL     OW14128   2.331   6.025   1.605
 4410SOL    HW114129   2.380   6.102   1.565
 4410SOL    HW214130   2.393   5.974   1.665
 4411SOL     OW14131   3.457   3.280   2.785
 4411SOL    HW114132   3.542   3.234   2.811
 4411SOL    HW214133   3.402   3.218   2.729
 4412SOL     OW14134   3.618   1.804   5.880
 4412SOL    HW114135   3.629   1.745   5.800
 4412SOL    HW214136   3.521   1.822   5.895
 4413SOL     OW14137   4.523   5.199   4.417
 4413SOL    HW114138   4.481   5.117   4.379
 4413SOL    HW214139   4.621   5.185   4.426
 4414SOL     OW14140   3.389   5.343   1.477
 4414SOL    HW114141   3.335   5.259   1.476
 4414SOL    HW214142   3.405   5.374   1.384
 4415SOL     OW14143   4.205   1.587   0.937
 4415SOL    HW114144   4.143   1.599   1.015
 4415SOL    HW214145   4.270   1.514   0.957
 4416SOL     OW14146   2.999   1.721   4.153
 4416SOL    HW114147   3.073   1.786   4.174
 4416SOL    HW214148   3.016   1.634   4.199
 4417SOL     OW14149   6.771   0.597   0.506
 4417SOL    HW114150   6.758   0.515   0.450
 4417SOL    HW214151   6.863   0.596   0.546
 4418SOL     OW14152   5.023   0.850   4.044
 4418SOL    HW114153   5.022   0.919   4.117
 4418SOL    HW214154   5.116   0.815   4.033
 4419SOL     OW14155   6.509   5.660   0.398
 4419SOL    HW114156   6.464   5.690   0.482
 4419SOL    HW214157   6.468   5.706   0.320
 4420SOL     OW14158   4.541   1.012   6.970
 4420SOL    HW114159   4.580   1.035   6.881
 4420SOL    HW214160   4.608   0.962   0.006
 4421SOL     OW14161   1.728   1.689   3.363
 4421SOL    HW114162   1.692   1.626   3.432
 4421SOL    HW214163   1.815   1.728   3.396
 4422SOL     OW14164   2.195   4.022   5.619
 4422SOL    HW114165   2.189   4.106   5.567
 4422SOL    HW214166   2.203   4.043   5.717
 4423SOL     OW14167   6.587   1.697   6.458
 4423SOL    HW114168   6.654   1.750   6.405
 4423SOL    HW214169   6.627   1.609   6.484
 4424SOL     OW14170   0.424   6.647   4.108
 4424SOL    HW114171   0.449   6.559   4.147
 4424SOL    HW214172   0.360   6.633   4.032
 4425SOL     OW14173   5.100   4.229   0.316
 4425SOL    HW114174   5.134   4.215   0.224
 4425SOL    HW214175   5.115   4.147   0.371
 4426SOL     OW14176   0.696   0.142   5.800
 4426SOL    HW114177   0.770   0.089   5.758
 4426SOL    HW214178   0.681   0.226   5.748
 4427SOL     OW14179   0.868   6.220   3.500
 4427SOL    HW114180   0.899   6.307   3.463
 4427SOL    HW214181   0.847   6.230   3.597
 4428SOL     OW14182   2.233   6.554   3.062
 4428SOL    HW114183   2.296   6.543   2.985
 4428SOL    HW214184   2.277   6.607   3.134
 4429SOL     OW14185   3.496   0.535   3.167
 4429SOL    HW114186   3.533   0.464   3.228
 4429SOL    HW214187   3.406   0.507   3.135
 4430SOL     OW14188   1.220   0.593   1.436
 4430SOL    HW114189   1.233   0.590   1.337
 4430SOL    HW214190   1.305   0.565   1.482
 4431SOL     OW14191   1.946   1.713   3.541
 4431SOL    HW114192   1.991   1.632   3.579
 4431SOL    HW214193   1.925   1.778   3.614
 4432SOL     OW14194   2.858   3.453   3.663
 4432SOL    HW114195   2.852   3.435   3.761
 4432SOL    HW214196   2.954   3.465   3.637
 4433SOL     OW14197   6.515   0.777   3.357
 4433SOL    HW114198   6.532   0.701   3.419
 4433SOL    HW214199   6.601   0.827   3.341
 4434SOL     OW14200   4.750   2.378   4.586
 4434SOL    HW114201   4.840   2.339   4.606
 4434SOL    HW214202   4.685   2.305   4.566
 4435SOL     OW14203   4.059   3.223   2.301
 4435SOL    HW114204   4.063   3.199   2.398
 4435SOL    HW214205   4.013   3.150   2.251
 4436SOL     OW14206   5.239   0.232   0.904
 4436SOL    HW114207   5.212   0.204   0.996
 4436SOL    HW214208   5.316   0.296   0.910
 4437SOL     OW14209   3.735   0.141   4.816
 4437SOL    HW114210   3.711   0.073   4.746
 4437SOL    HW214211   3.831   0.130   4.841
 4438SOL     OW14212   3.987   3.935   6.579
 4438SOL    HW114213   3.942   3.951   6.667
 4438SOL    HW214214   4.086   3.941   6.591
 4439SOL     OW14215   2.304   4.915   2.081
 4439SOL    HW114216   2.322   4.874   2.170
 4439SOL    HW214217   2.206   4.934   2.072
 4440SOL     OW14218   6.635   0.768   6.832
 4440SOL    HW114219   6.617   0.720   6.917
 4440SOL    HW214220   6.611   0.710   6.754
 4441SOL     OW14221   5.927   2.167   3.683
 4441SOL    HW114222   5.924   2.210   3.593
 4441SOL    HW214223   5.894   2.073   3.676
 4442SOL     OW14224   1.984   6.785   2.038
 4442SOL    HW114225   1.984   6.854   1.966
 4442SOL    HW214226   1.977   6.830   2.127
 4443SOL     OW14227   2.686   1.291   5.884
 4443SOL    HW114228   2.666   1.378   5.930
 4443SOL    HW214229   2.760   1.304   5.818
 4444SOL     OW14230   5.130   0.445   2.753
 4444SOL    HW114231   5.181   0.527   2.725
 4444SOL    HW214232   5.111   0.388   2.673
 4445SOL     OW14233   1.139   1.091   6.440
 4445SOL    HW114234   1.099   1.182   6.428
 4445SOL    HW214235   1.239   1.098   6.432
 4446SOL     OW14236   5.420   5.053   3.746
 4446SOL    HW114237   5.413   4.958   3.778
 4446SOL    HW214238   5.517   5.077   3.737
 4447SOL     OW14239   4.923   3.410   4.874
 4447SOL    HW114240   4.879   3.480   4.932
 4447SOL    HW214241   4.991   3.454   4.816
 4448SOL     OW14242   2.110   2.720   6.536
 4448SOL    HW114243   2.106   2.815   6.505
 4448SOL    HW214244   2.164   2.715   6.620
 4449SOL     OW14245   0.882   1.514   5.373
 4449SOL    HW114246   0.855   1.562   5.289
 4449SOL    HW214247   0.808   1.518   5.440
 4450SOL     OW14248   3.949   3.935   3.196
 4450SOL    HW114249   3.926   4.012   3.136
 4450SOL    HW214250   3.869   3.911   3.251
 4451SOL     OW14251   0.007   4.450   1.671
 4451SOL    HW114252   0.088   4.483   1.623
 4451SOL    HW214253   0.015   4.473   1.768
 4452SOL     OW14254   6.551   3.916   6.470
 4452SOL    HW114255   6.485   3.977   6.512
 4452SOL    HW214256   6.622   3.970   6.425
 4453SOL     OW14257   5.243   1.873   1.684
 4453SOL    HW114258   5.289   1.919   1.760
 4453SOL    HW214259   5.257   1.775   1.691
 4454SOL     OW14260   5.388   2.899   1.589
 4454SOL    HW114261   5.425   2.978   1.540
 4454SOL    HW214262   5.418   2.815   1.544
 4455SOL     OW14263   4.717   1.881   1.964
 4455SOL    HW114264   4.675   1.883   1.874
 4455SOL    HW214265   4.689   1.962   2.016
 4456SOL     OW14266   1.156   5.833   2.726
 4456SOL    HW114267   1.139   5.916   2.671
 4456SOL    HW214268   1.117   5.754   2.679
 4457SOL     OW14269   5.191   2.046   6.111
 4457SOL    HW114270   5.263   1.979   6.130
 4457SOL    HW214271   5.121   2.004   6.054
 4458SOL     OW14272   3.794   1.911   0.084
 4458SOL    HW114273   3.831   1.942   7.014
 4458SOL    HW214274   3.715   1.967   0.109
 4459SOL     OW14275   5.056   6.178   5.441
 4459SOL    HW114276   5.052   6.274   5.468
 4459SOL    HW214277   5.146   6.156   5.405
 4460SOL     OW14278   1.072   1.697   6.267
 4460SOL    HW114279   1.103   1.625   6.205
 4460SOL    HW214280   1.150   1.752   6.296
 4461SOL     OW14281   1.876   0.131   2.017
 4461SOL    HW114282   1.957   0.093   1.971
 4461SOL    HW214283   1.797   0.124   1.957
 4462SOL     OW14284   6.968   5.538   0.974
 4462SOL    HW114285   6.878   5.574   1.000
 4462SOL    HW214286   0.012   5.614   0.958
 4463SOL     OW14287   1.687   3.650   5.473
 4463SOL    HW114288   1.659   3.554   5.483
 4463SOL    HW214289   1.787   3.656   5.477
 4464SOL     OW14290   6.042   3.317   6.741
 4464SOL    HW114291   5.974   3.332   6.813
 4464SOL    HW214292   6.100   3.239   6.765
 4465SOL     OW14293   0.725   5.972   1.927
 4465SOL    HW114294   0.646   6.034   1.927
 4465SOL    HW214295   0.745   5.945   1.833
 4466SOL     OW14296   0.757   2.717   3.461
 4466SOL    HW114297   0.780   2.691   3.367
 4466SOL    HW214298   0.804   2.802   3.484
 4467SOL     OW14299   1.652   0.110   3.391
 4467SOL    HW114300   1.622   0.181   3.327
 4467SOL    HW214301   1.623   0.133   3.483
 4468SOL     OW14302   1.660   2.464   0.617
 4468SOL    HW114303   1.696   2.423   0.701
 4468SOL    HW214304   1.579   2.414   0.588
 4469SOL     OW14305   4.727   0.027   0.627
 4469SOL    HW114306   4.654   0.087   0.594
 4469SOL    HW214307   4.811   0.047   0.576
 4470SOL     OW14308   4.939   5.592   1.262
 4470SOL    HW114309   4.927   5.665   1.329
 4470SOL    HW214310   4.865   5.525   1.271
 4471SOL     OW14311   6.541   3.069   0.692
 4471SOL    HW114312   6.552   3.042   0.788
 4471SOL    HW214313   6.630   3.093   0.654
 4472SOL     OW14314   1.973   4.654   1.475
 4472SOL    HW114315   2.052   4.684   1.423
 4472SOL    HW214316   1.890   4.698   1.439
 4473SOL     OW14317   0.895   0.421   6.291
 4473SOL    HW114318   0.826   0.494   6.292
 4473SOL    HW214319   0.968   0.446   6.227
 4474SOL     OW14320   6.511   0.363   4.169
 4474SOL    HW114321   6.472   0.455   4.175
 4474SOL    HW214322   6.577   0.361   4.094
 4475SOL     OW14323   1.504   3.476   0.278
 4475SOL    HW114324   1.603   3.477   0.267
 4475SOL    HW214325   1.461   3.428   0.201
 4476SOL     OW14326   5.045   6.501   1.950
 4476SOL    HW114327   5.127   6.455   1.916
 4476SOL    HW214328   5.071   6.568   2.020
 4477SOL     OW14329   1.281   1.163   0.209
 4477SOL    HW114330   1.346   1.092   0.182
 4477SOL    HW214331   1.325   1.253   0.204
 4478SOL     OW14332   1.720   5.501   1.949
 4478SOL    HW114333   1.626   5.536   1.947
 4478SOL    HW214334   1.782   5.571   1.914
 4479SOL     OW14335   0.753   0.412   5.739
 4479SOL    HW114336   0.679   0.479   5.733
 4479SOL    HW214337   0.750   0.367   5.828
 4480SOL     OW14338   0.779   4.798   3.751
 4480SOL    HW114339   0.847   4.725   3.756
 4480SOL    HW214340   0.754   4.813   3.655
 4481SOL     OW14341   1.074   6.995   3.728
 4481SOL    HW114342   1.000   0.000   3.666
 4481SOL    HW214343   1.105   0.060   3.775
 4482SOL     OW14344   0.551   4.440   3.685
 4482SOL    HW114345   0.560   4.427   3.587
 4482SOL    HW214346   0.466   4.490   3.705
 4483SOL     OW14347   5.003   3.136   1.648
 4483SOL    HW114348   4.978   3.084   1.730
 4483SOL    HW214349   5.045   3.075   1.581
 4484SOL     OW14350   4.181   3.516   6.123
 4484SOL    HW114351   4.148   3.427   6.094
 4484SOL    HW214352   4.158   3.530   6.220
 4485SOL     OW14353   4.720   0.839   0.056
 4485SOL    HW114354   4.732   0.769   7.005
 4485SOL    HW214355   4.714   0.797   0.147
 4486SOL     OW14356   6.395   2.595   3.779
 4486SOL    HW114357   6.419   2.509   3.823
 4486SOL    HW214358   6.449   2.669   3.819
 4487SOL     OW14359   2.828   3.354   5.794
 4487SOL    HW114360   2.833   3.337   5.696
 4487SOL    HW214361   2.733   3.373   5.820
 4488SOL     OW14362   0.049   1.588   6.148
 4488SOL    HW114363   0.071   1.496   6.116
 4488SOL    HW214364   0.100   1.608   6.232
 4489SOL     OW14365   6.651   0.889   3.090
 4489SOL    HW114366   6.645   0.906   2.992
 4489SOL    HW214367   6.695   0.801   3.106
 4490SOL     OW14368   6.722   2.593   3.313
 4490SOL    HW114369   6.724   2.565   3.409
 4490SOL    HW214370   6.684   2.685   3.306
 4491SOL     OW14371   1.738   3.281   3.024
 4491SOL    HW114372   1.809   3.324   3.080
 4491SOL    HW214373   1.741   3.182   3.038
 4492SOL     OW14374   4.442   3.987   6.456
 4492SOL    HW114375   4.388   3.927   6.396
 4492SOL    HW214376   4.539   3.965   6.447
 4493SOL     OW14377   5.823   5.157   3.307
 4493SOL    HW114378   5.903   5.175   3.251
 4493SOL    HW214379   5.757   5.232   3.297
 4494SOL     OW14380   6.322   2.927   3.457
 4494SOL    HW114381   6.304   2.937   3.359
 4494SOL    HW214382   6.354   2.834   3.475
 4495SOL     OW14383   4.130   6.681   2.156
 4495SOL    HW114384   4.078   6.616   2.212
 4495SOL    HW214385   4.078   6.706   2.075
 4496SOL     OW14386   5.302   4.153   6.053
 4496SOL    HW114387   5.289   4.080   6.120
 4496SOL    HW214388   5.226   4.152   5.987
 4497SOL     OW14389   5.953   5.751   1.196
 4497SOL    HW114390   6.016   5.771   1.272
 4497SOL    HW214391   5.888   5.681   1.225
 4498SOL     OW14392   0.553   3.754   6.653
 4498SOL    HW114393   0.645   3.792   6.664
 4498SOL    HW214394   0.500   3.770   6.736
 4499SOL     OW14395   5.725   3.044   6.931
 4499SOL    HW114396   5.739   3.038   6.832
 4499SOL    HW214397   5.760   3.132   6.964
 4500SOL     OW14398   3.377   3.828   4.357
 4500SOL    HW114399   3.290   3.781   4.341
 4500SOL    HW214400   3.362   3.906   4.417
 4501SOL     OW14401   1.582   4.653   4.447
 4501SOL    HW114402   1.539   4.713   4.380
 4501SOL    HW214403   1.658   4.604   4.404
 4502SOL     OW14404   6.124   3.263   0.041
 4502SOL    HW114405   6.137   3.215   6.973
 4502SOL    HW214406   6.140   3.360   0.029
 4503SOL     OW14407   1.799   2.196   3.034
 4503SOL    HW114408   1.738   2.183   2.956
 4503SOL    HW214409   1.878   2.251   3.007
 4504SOL     OW14410   4.362   2.327   4.499
 4504SOL    HW114411   4.429   2.255   4.485
 4504SOL    HW214412   4.338   2.332   4.596
 4505SOL     OW14413   1.339   5.174   6.123
 4505SOL    HW114414   1.264   5.190   6.188
 4505SOL    HW214415   1.363   5.077   6.124
 4506SOL     OW14416   4.393   6.982   4.875
 4506SOL    HW114417   4.488   7.010   4.860
 4506SOL    HW214418   4.392   6.888   4.910
 4507SOL     OW14419   6.482   4.185   1.640
 4507SOL    HW114420   6.541   4.206   1.562
 4507SOL    HW214421   6.538   4.172   1.722
 4508SOL     OW14422   1.368   4.108   0.392
 4508SOL    HW114423   1.306   4.073   0.462
 4508SOL    HW214424   1.353   4.059   0.306
 4509SOL     OW14425   0.870   1.901   3.931
 4509SOL    HW114426   0.937   1.914   3.858
 4509SOL    HW214427   0.854   1.987   3.978
 4510SOL     OW14428   3.579   6.489   5.143
 4510SOL    HW114429   3.633   6.422   5.194
 4510SOL    HW214430   3.621   6.579   5.151
 4511SOL     OW14431   6.243   3.166   6.101
 4511SOL    HW114432   6.267   3.151   6.197
 4511SOL    HW214433   6.327   3.177   6.047
 4512SOL     OW14434   2.849   5.037   0.658
 4512SOL    HW114435   2.889   5.085   0.736
 4512SOL    HW214436   2.755   5.069   0.644
 4513SOL     OW14437   5.510   1.098   2.190
 4513SOL    HW114438   5.583   1.164   2.174
 4513SOL    HW214439   5.547   1.005   2.183
 4514SOL     OW14440   3.518   1.117   5.211
 4514SOL    HW114441   3.422   1.120   5.238
 4514SOL    HW214442   3.549   1.023   5.207
 4515SOL     OW14443   6.642   5.490   1.225
 4515SOL    HW114444   6.590   5.405   1.225
 4515SOL    HW214445   6.718   5.483   1.290
 4516SOL     OW14446   1.145   6.942   4.677
 4516SOL    HW114447   1.109   6.874   4.613
 4516SOL    HW214448   1.069   6.981   4.730
 4517SOL     OW14449   3.752   6.664   6.123
 4517SOL    HW114450   3.818   6.713   6.180
 4517SOL    HW214451   3.686   6.730   6.085
 4518SOL     OW14452   1.585   1.445   3.960
 4518SOL    HW114453   1.516   1.388   4.004
 4518SOL    HW214454   1.591   1.421   3.863
 4519SOL     OW14455   6.048   2.446   4.544
 4519SOL    HW114456   6.141   2.412   4.528
 4519SOL    HW214457   6.016   2.416   4.634
 4520SOL     OW14458   0.684   4.389   2.885
 4520SOL    HW114459   0.656   4.336   2.805
 4520SOL    HW214460   0.660   4.339   2.968
 4521SOL     OW14461   5.532   1.857   5.793
 4521SOL    HW114462   5.587   1.883   5.714
 4521SOL    HW214463   5.468   1.930   5.815
 4522SOL     OW14464   5.800   0.511   2.970
 4522SOL    HW114465   5.734   0.454   3.019
 4522SOL    HW214466   5.809   0.599   3.017
 4523SOL     OW14467   4.085   3.119   6.798
 4523SOL    HW114468   4.016   3.052   6.771
 4523SOL    HW214469   4.160   3.119   6.731
 4524SOL     OW14470   6.339   0.493   4.981
 4524SOL    HW114471   6.407   0.467   4.913
 4524SOL    HW214472   6.266   0.424   4.983
 4525SOL     OW14473   6.624   1.743   5.619
 4525SOL    HW114474   6.584   1.832   5.641
 4525SOL    HW214475   6.720   1.743   5.645
 4526SOL     OW14476   3.734   1.318   0.719
 4526SOL    HW114477   3.729   1.367   0.806
 4526SOL    HW214478   3.821   1.268   0.714
 4527SOL     OW14479   3.953   1.017   4.211
 4527SOL    HW114480   3.873   1.057   4.256
 4527SOL    HW214481   3.972   1.068   4.127
 4528SOL     OW14482   5.465   6.874   6.585
 4528SOL    HW114483   5.516   6.936   6.645
 4528SOL    HW214484   5.369   6.904   6.580
 4529SOL     OW14485   3.912   0.260   3.463
 4529SOL    HW114486   3.890   0.186   3.527
 4529SOL    HW214487   3.869   0.345   3.494
 4530SOL     OW14488   0.596   2.630   4.772
 4530SOL    HW114489   0.688   2.635   4.733
 4530SOL    HW214490   0.584   2.704   4.838
 4531SOL     OW14491   0.267   3.573   3.580
 4531SOL    HW114492   0.331   3.636   3.624
 4531SOL    HW214493   0.314   3.521   3.509
 4532SOL     OW14494   6.542   1.848   0.397
 4532SOL    HW114495   6.460   1.813   0.443
 4532SOL    HW214496   6.622   1.832   0.454
 4533SOL     OW14497   3.111   5.763   2.412
 4533SOL    HW114498   3.187   5.710   2.448
 4533SOL    HW214499   3.069   5.816   2.486
 4534SOL     OW14500   0.163   4.342   5.582
 4534SOL    HW114501   0.205   4.428   5.553
 4534SOL    HW214502   0.174   4.273   5.510
 4535SOL     OW14503   4.925   2.066   2.672
 4535SOL    HW114504   5.005   2.121   2.650
 4535SOL    HW214505   4.909   2.000   2.598
 4536SOL     OW14506   6.535   0.663   4.119
 4536SOL    HW114507   6.627   0.683   4.150
 4536SOL    HW214508   6.469   0.715   4.173
 4537SOL     OW14509   3.910   2.834   6.244
 4537SOL    HW114510   4.006   2.819   6.267
 4537SOL    HW214511   3.871   2.750   6.207
 4538SOL     OW14512   3.544   1.416   2.157
 4538SOL    HW114513   3.498   1.492   2.112
 4538SOL    HW214514   3.580   1.353   2.088
 4539SOL     OW14515   1.352   1.492   2.366
 4539SOL    HW114516   1.433   1.541   2.399
 4539SOL    HW214517   1.356   1.486   2.266
 4540SOL     OW14518   3.175   2.988   4.795
 4540SOL    HW114519   3.190   2.959   4.701
 4540SOL    HW214520   3.232   2.933   4.856
 4541SOL     OW14521   6.330   1.376   1.063
 4541SOL    HW114522   6.246   1.424   1.087
 4541SOL    HW214523   6.322   1.280   1.089
 4542SOL     OW14524   4.641   0.233   3.515
 4542SOL    HW114525   4.584   0.165   3.562
 4542SOL    HW214526   4.735   0.224   3.548
 4543SOL     OW14527   5.346   2.040   1.971
 4543SOL    HW114528   5.359   2.041   2.070
 4543SOL    HW214529   5.266   2.095   1.947
 4544SOL     OW14530   3.766   5.011   6.362
 4544SOL    HW114531   3.669   5.002   6.339
 4544SOL    HW214532   3.812   5.065   6.291
 4545SOL     OW14533   4.241   3.000   6.012
 4545SOL    HW114534   4.274   2.911   6.043
 4545SOL    HW214535   4.252   3.008   5.913
 4546SOL     OW14536   0.351   6.967   6.875
 4546SOL    HW114537   0.401   0.035   6.889
 4546SOL    HW214538   0.284   6.956   6.949
 4547SOL     OW14539   4.249   1.730   1.325
 4547SOL    HW114540   4.214   1.805   1.270
 4547SOL    HW214541   4.233   1.749   1.422
 4548SOL     OW14542   1.344   3.310   3.621
 4548SOL    HW114543   1.347   3.345   3.527
 4548SOL    HW214544   1.379   3.217   3.623
 4549SOL     OW14545   4.899   1.746   3.082
 4549SOL    HW114546   4.897   1.742   2.982
 4549SOL    HW214547   4.993   1.737   3.113
 4550SOL     OW14548   1.811   6.132   4.899
 4550SOL    HW114549   1.763   6.199   4.954
 4550SOL    HW214550   1.850   6.061   4.958
 4551SOL     OW14551   0.283   2.379   5.966
 4551SOL    HW114552   0.330   2.325   6.036
 4551SOL    HW214553   0.350   2.412   5.899
 4552SOL     OW14554   0.012   2.728   3.785
 4552SOL    HW114555   0.026   2.685   3.875
 4552SOL    HW214556   6.952   2.791   3.791
 4553SOL     OW14557   4.850   4.644   0.713
 4553SOL    HW114558   4.827   4.727   0.662
 4553SOL    HW214559   4.784   4.632   0.788
 4554SOL     OW14560   5.495   6.866   3.250
 4554SOL    HW114561   5.473   6.785   3.304
 4554SOL    HW214562   5.412   6.901   3.207
 4555SOL     OW14563   5.169   1.876   6.939
 4555SOL    HW114564   5.086   1.822   6.932
 4555SOL    HW214565   5.220   1.849   0.003
 4556SOL     OW14566   5.205   1.258   4.891
 4556SOL    HW114567   5.293   1.300   4.867
 4556SOL    HW214568   5.189   1.179   4.831
 4557SOL     OW14569   5.095   0.144   5.563
 4557SOL    HW114570   5.107   0.216   5.494
 4557SOL    HW214571   5.069   0.186   5.650
 4558SOL     OW14572   6.553   3.802   5.843
 4558SOL    HW114573   6.471   3.832   5.893
 4558SOL    HW214574   6.567   3.704   5.858
 4559SOL     OW14575   0.563   6.214   1.766
 4559SOL    HW114576   0.575   6.220   1.865
 4559SOL    HW214577   0.478   6.260   1.740
 4560SOL     OW14578   5.099   2.836   3.298
 4560SOL    HW114579   5.026   2.886   3.344
 4560SOL    HW214580   5.091   2.739   3.321
 4561SOL     OW14581   3.173   0.614   6.762
 4561SOL    HW114582   3.086   0.571   6.736
 4561SOL    HW214583   3.249   0.558   6.729
 4562SOL     OW14584   3.340   5.400   5.447
 4562SOL    HW114585   3.272   5.471   5.432
 4562SOL    HW214586   3.301   5.310   5.426
 4563SOL     OW14587   5.263   2.794   6.080
 4563SOL    HW114588   5.325   2.731   6.034
 4563SOL    HW214589   5.183   2.810   6.022
 4564SOL     OW14590   1.612   5.675   6.791
 4564SOL    HW114591   1.582   5.750   6.851
 4564SOL    HW214592   1.585   5.694   6.697
 4565SOL     OW14593   3.046   0.563   4.143
 4565SOL    HW114594   2.985   0.618   4.200
 4565SOL    HW214595   3.141   0.582   4.169
 4566SOL     OW14596   0.827   2.015   0.582
 4566SOL    HW114597   0.778   2.101   0.570
 4566SOL    HW214598   0.779   1.958   0.648
 4567SOL     OW14599   0.051   0.880   0.677
 4567SOL    HW114600   6.989   0.914   0.628
 4567SOL    HW214601   0.062   0.782   0.658
 4568SOL     OW14602   3.290   4.952   4.622
 4568SOL    HW114603   3.223   4.883   4.649
 4568SOL    HW214604   3.331   4.992   4.704
 4569SOL     OW14605   0.019   2.307   3.372
 4569SOL    HW114606   0.012   2.373   3.446
 4569SOL    HW214607   0.038   2.216   3.410
 4570SOL     OW14608   6.663   5.181   4.423
 4570SOL    HW114609   6.647   5.136   4.335
 4570SOL    HW214610   6.762   5.190   4.439
 4571SOL     OW14611   3.417   3.199   3.984
 4571SOL    HW114612   3.400   3.228   3.890
 4571SOL    HW214613   3.408   3.278   4.045
 4572SOL     OW14614   2.278   6.011   2.088
 4572SOL    HW114615   2.339   5.932   2.092
 4572SOL    HW214616   2.263   6.046   2.180
 4573SOL     OW14617   5.579   6.607   0.429
 4573SOL    HW114618   5.666   6.639   0.391
 4573SOL    HW214619   5.548   6.527   0.378
 4574SOL     OW14620   0.539   4.744   1.575
 4574SOL    HW114621   0.530   4.717   1.671
 4574SOL    HW214622   0.500   4.835   1.562
 4575SOL     OW14623   6.452   6.508   2.283
 4575SOL    HW114624   6.524   6.573   2.258
 4575SOL    HW214625   6.395   6.489   2.204
 4576SOL     OW14626   3.367   5.793   4.377
 4576SOL    HW114627   3.290   5.770   4.437
 4576SOL    HW214628   3.332   5.819   4.287
 4577SOL     OW14629   1.092   2.295   4.119
 4577SOL    HW114630   1.103   2.395   4.114
 4577SOL    HW214631   1.159   2.258   4.183
 4578SOL     OW14632   0.292   4.256   4.405
 4578SOL    HW114633   0.368   4.288   4.461
 4578SOL    HW214634   0.328   4.205   4.326
 4579SOL     OW14635   5.183   2.259   4.203
 4579SOL    HW114636   5.262   2.272   4.263
 4579SOL    HW214637   5.165   2.343   4.152
 4580SOL     OW14638   6.776   5.686   0.302
 4580SOL    HW114639   6.679   5.664   0.315
 4580SOL    HW214640   6.784   5.775   0.257
 4581SOL     OW14641   3.422   5.976   3.442
 4581SOL    HW114642   3.459   6.041   3.375
 4581SOL    HW214643   3.327   5.954   3.418
 4582SOL     OW14644   4.532   6.808   3.480
 4582SOL    HW114645   4.433   6.820   3.477
 4582SOL    HW214646   4.563   6.762   3.397
 4583SOL     OW14647   4.502   1.569   5.552
 4583SOL    HW114648   4.443   1.568   5.633
 4583SOL    HW214649   4.505   1.478   5.512
 4584SOL     OW14650   0.673   4.757   5.479
 4584SOL    HW114651   0.630   4.705   5.405
 4584SOL    HW214652   0.635   4.850   5.481
 4585SOL     OW14653   3.629   6.737   2.860
 4585SOL    HW114654   3.556   6.669   2.854
 4585SOL    HW214655   3.704   6.712   2.799
 4586SOL     OW14656   3.037   6.261   1.943
 4586SOL    HW114657   3.097   6.208   1.883
 4586SOL    HW214658   3.031   6.355   1.909
 4587SOL     OW14659   2.078   4.679   0.887
 4587SOL    HW114660   2.062   4.580   0.888
 4587SOL    HW214661   2.044   4.718   0.972
 4588SOL     OW14662   4.085   3.785   5.501
 4588SOL    HW114663   4.111   3.690   5.514
 4588SOL    HW214664   4.160   3.835   5.459
 4589SOL     OW14665   1.210   1.518   3.802
 4589SOL    HW114666   1.166   1.588   3.859
 4589SOL    HW214667   1.149   1.493   3.728
 4590SOL     OW14668   4.415   5.651   2.561
 4590SOL    HW114669   4.395   5.632   2.657
 4590SOL    HW214670   4.514   5.646   2.546
 4591SOL     OW14671   6.407   6.625   5.541
 4591SOL    HW114672   6.385   6.548   5.602
 4591SOL    HW214673   6.505   6.625   5.522
 4592SOL     OW14674   3.123   1.757   5.884
 4592SOL    HW114675   3.050   1.734   5.947
 4592SOL    HW214676   3.097   1.836   5.829
 4593SOL     OW14677   4.198   6.817   1.230
 4593SOL    HW114678   4.177   6.846   1.137
 4593SOL    HW214679   4.124   6.757   1.263
 4594SOL     OW14680   3.206   1.657   3.001
 4594SOL    HW114681   3.169   1.749   3.013
 4594SOL    HW214682   3.130   1.592   2.995
 4595SOL     OW14683   4.066   2.756   5.842
 4595SOL    HW114684   4.001   2.829   5.863
 4595SOL    HW214685   4.040   2.673   5.891
 4596SOL     OW14686   6.228   0.149   2.279
 4596SOL    HW114687   6.185   0.149   2.369
 4596SOL    HW214688   6.158   0.157   2.208
 4597SOL     OW14689   0.309   4.892   6.622
 4597SOL    HW114690   0.305   4.806   6.673
 4597SOL    HW214691   0.386   4.889   6.559
 4598SOL     OW14692   2.974   4.549   0.325
 4598SOL    HW114693   2.960   4.629   0.384
 4598SOL    HW214694   3.070   4.521   0.331
 4599SOL     OW14695   1.848   5.238   0.224
 4599SOL    HW114696   1.890   5.326   0.246
 4599SOL    HW214697   1.759   5.231   0.269
 4600SOL     OW14698   3.832   5.290   1.631
 4600SOL    HW114699   3.747   5.306   1.581
 4600SOL    HW214700   3.831   5.343   1.716
 4601SOL     OW14701   1.748   5.982   4.666
 4601SOL    HW114702   1.738   6.044   4.743
 4601SOL    HW214703   1.831   6.003   4.615
 4602SOL     OW14704   1.654   1.444   0.642
 4602SOL    HW114705   1.733   1.428   0.701
 4602SOL    HW214706   1.626   1.358   0.600
 4603SOL     OW14707   3.018   1.207   2.100
 4603SOL    HW114708   2.977   1.197   2.190
 4603SOL    HW214709   3.069   1.124   2.077
 4604SOL     OW14710   2.446   0.666   2.633
 4604SOL    HW114711   2.359   0.617   2.642
 4604SOL    HW214712   2.466   0.682   2.536
 4605SOL     OW14713   5.019   6.879   5.527
 4605SOL    HW114714   5.039   6.976   5.537
 4605SOL    HW214715   4.994   6.841   5.615
 4606SOL     OW14716   6.879   6.468   5.754
 4606SOL    HW114717   6.900   6.381   5.798
 4606SOL    HW214718   6.785   6.466   5.719
 4607SOL     OW14719   2.467   2.021   1.367
 4607SOL    HW114720   2.533   1.987   1.301
 4607SOL    HW214721   2.387   1.961   1.369
 4608SOL     OW14722   2.109   3.472   5.110
 4608SOL    HW114723   2.149   3.395   5.060
 4608SOL    HW214724   2.009   3.465   5.108
 4609SOL     OW14725   3.470   6.757   6.767
 4609SOL    HW114726   3.384   6.756   6.715
 4609SOL    HW214727   3.529   6.683   6.735
 4610SOL     OW14728   0.615   3.310   6.821
 4610SOL    HW114729   0.554   3.291   6.898
 4610SOL    HW214730   0.710   3.298   6.849
 4611SOL     OW14731   0.885   3.275   6.899
 4611SOL    HW114732   0.896   3.357   6.843
 4611SOL    HW214733   0.970   3.256   6.948
 4612SOL     OW14734   2.564   0.624   6.193
 4612SOL    HW114735   2.489   0.619   6.260
 4612SOL    HW214736   2.651   0.620   6.241
 4613SOL     OW14737   2.824   5.549   1.956
 4613SOL    HW114738   2.892   5.484   1.923
 4613SOL    HW214739   2.768   5.506   2.027
 4614SOL     OW14740   2.199   5.274   0.498
 4614SOL    HW114741   2.210   5.354   0.439
 4614SOL    HW214742   2.104   5.267   0.527
 4615SOL     OW14743   6.998   3.188   0.478
 4615SOL    HW114744   0.006   3.150   0.389
 4615SOL    HW214745   0.058   3.232   0.520
 4616SOL     OW14746   6.171   0.601   0.192
 4616SOL    HW114747   6.167   0.694   0.229
 4616SOL    HW214748   6.106   0.593   0.116
 4617SOL     OW14749   0.042   3.573   2.091
 4617SOL    HW114750   0.066   3.477   2.106
 4617SOL    HW214751   6.983   3.579   2.028
 4618SOL     OW14752   1.357   2.202   6.026
 4618SOL    HW114753   1.444   2.242   5.999
 4618SOL    HW214754   1.304   2.269   6.077
 4619SOL     OW14755   3.226   0.330   3.825
 4619SOL    HW114756   3.256   0.246   3.871
 4619SOL    HW214757   3.244   0.322   3.727
 4620SOL     OW14758   2.463   4.746   6.230
 4620SOL    HW114759   2.378   4.706   6.195
 4620SOL    HW214760   2.510   4.679   6.287
 4621SOL     OW14761   0.468   6.630   6.759
 4621SOL    HW114762   0.490   6.726   6.739
 4621SOL    HW214763   0.552   6.577   6.768
 4622SOL     OW14764   1.818   3.484   1.124
 4622SOL    HW114765   1.821   3.572   1.077
 4622SOL    HW214766   1.896   3.476   1.185
 4623SOL     OW14767   5.968   4.561   2.763
 4623SOL    HW114768   6.045   4.560   2.699
 4623SOL    HW214769   6.003   4.559   2.856
 4624SOL     OW14770   4.574   6.663   5.925
 4624SOL    HW114771   4.545   6.694   5.834
 4624SOL    HW214772   4.592   6.564   5.922
 4625SOL     OW14773   1.247   3.424   6.013
 4625SOL    HW114774   1.198   3.413   6.100
 4625SOL    HW214775   1.339   3.459   6.030
 4626SOL     OW14776   5.451   5.693   2.098
 4626SOL    HW114777   5.456   5.722   2.002
 4626SOL    HW214778   5.368   5.732   2.140
 4627SOL     OW14779   2.262   0.514   5.833
 4627SOL    HW114780   2.255   0.581   5.760
 4627SOL    HW214781   2.358   0.499   5.856
 4628SOL     OW14782   7.002   3.862   1.298
 4628SOL    HW114783   6.947   3.832   1.375
 4628SOL    HW214784   0.059   3.798   1.283
 4629SOL     OW14785   3.854   4.920   5.007
 4629SOL    HW114786   3.878   5.016   5.021
 4629SOL    HW214787   3.754   4.910   5.011
 4630SOL     OW14788   2.511   0.344   2.521
 4630SOL    HW114789   2.465   0.349   2.433
 4630SOL    HW214790   2.538   0.249   2.539
 4631SOL     OW14791   2.467   0.999   2.680
 4631SOL    HW114792   2.464   1.009   2.580
 4631SOL    HW214793   2.374   1.003   2.716
 4632SOL     OW14794   5.674   5.473   4.196
 4632SOL    HW114795   5.633   5.384   4.217
 4632SOL    HW214796   5.615   5.522   4.132
 4633SOL     OW14797   5.625   2.499   5.641
 4633SOL    HW114798   5.684   2.579   5.635
 4633SOL    HW214799   5.612   2.461   5.550
 4634SOL     OW14800   3.627   4.685   1.104
 4634SOL    HW114801   3.693   4.726   1.167
 4634SOL    HW214802   3.539   4.676   1.150
 4635SOL     OW14803   4.973   4.301   1.138
 4635SOL    HW114804   5.048   4.355   1.175
 4635SOL    HW214805   5.000   4.205   1.135
 4636SOL     OW14806   1.477   4.987   0.934
 4636SOL    HW114807   1.387   5.015   0.967
 4636SOL    HW214808   1.544   4.998   1.008
 4637SOL     OW14809   1.926   0.551   5.093
 4637SOL    HW114810   1.987   0.619   5.134
 4637SOL    HW214811   1.835   0.558   5.133
 4638SOL     OW14812   4.884   3.518   6.453
 4638SOL    HW114813   4.788   3.493   6.436
 4638SOL    HW214814   4.911   3.592   6.392
 4639SOL     OW14815   6.641   2.933   4.902
 4639SOL    HW114816   6.579   2.863   4.935
 4639SOL    HW214817   6.590   3.001   4.849
 4640SOL     OW14818   6.323   4.111   2.531
 4640SOL    HW114819   6.339   4.051   2.610
 4640SOL    HW214820   6.277   4.059   2.459
 4641SOL     OW14821   2.793   4.763   5.615
 4641SOL    HW114822   2.823   4.684   5.561
 4641SOL    HW214823   2.849   4.770   5.697
 4642SOL     OW14824   5.832   5.744   4.484
 4642SOL    HW114825   5.738   5.717   4.464
 4642SOL    HW214826   5.836   5.791   4.572
 4643SOL     OW14827   4.080   2.631   1.130
 4643SOL    HW114828   4.011   2.686   1.083
 4643SOL    HW214829   4.043   2.598   1.217
 4644SOL     OW14830   2.372   5.038   4.759
 4644SOL    HW114831   2.380   4.981   4.841
 4644SOL    HW214832   2.420   4.994   4.683
 4645SOL     OW14833   1.940   5.964   5.069
 4645SOL    HW114834   1.933   5.883   5.011
 4645SOL    HW214835   2.032   5.969   5.108
 4646SOL     OW14836   3.922   0.347   1.655
 4646SOL    HW114837   3.948   0.251   1.658
 4646SOL    HW214838   3.962   0.395   1.733
 4647SOL     OW14839   0.069   0.926   4.287
 4647SOL    HW114840   0.164   0.905   4.311
 4647SOL    HW214841   0.020   0.959   4.368
 4648SOL     OW14842   1.650   4.749   2.656
 4648SOL    HW114843   1.617   4.730   2.564
 4648SOL    HW214844   1.693   4.667   2.694
 4649SOL     OW14845   5.678   6.136   6.558
 4649SOL    HW114846   5.605   6.112   6.621
 4649SOL    HW214847   5.641   6.191   6.484
 4650SOL     OW14848   6.871   5.093   1.837
 4650SOL    HW114849   6.963   5.096   1.798
 4650SOL    HW214850   6.840   4.998   1.844
 4651SOL     OW14851   0.055   1.830   1.580
 4651SOL    HW114852   0.004   1.750   1.551
 4651SOL    HW214853   0.103   1.810   1.666
 4652SOL     OW14854   0.639   6.101   5.727
 4652SOL    HW114855   0.561   6.038   5.727
 4652SOL    HW214856   0.606   6.195   5.739
 4653SOL     OW14857   1.246   5.667   6.713
 4653SOL    HW114858   1.171   5.674   6.647
 4653SOL    HW214859   1.333   5.673   6.664
 4654SOL     OW14860   0.818   1.516   6.142
 4654SOL    HW114861   0.858   1.601   6.177
 4654SOL    HW214862   0.822   1.445   6.212
 4655SOL     OW14863   0.241   5.305   3.513
 4655SOL    HW114864   0.232   5.397   3.477
 4655SOL    HW214865   0.169   5.288   3.581
 4656SOL     OW14866   2.524   0.394   3.328
 4656SOL    HW114867   2.522   0.420   3.424
 4656SOL    HW214868   2.611   0.349   3.307
 4657SOL     OW14869   5.901   6.966   6.625
 4657SOL    HW114870   5.804   6.972   6.651
 4657SOL    HW214871   5.917   0.000   6.542
 4658SOL     OW14872   5.068   0.598   3.367
 4658SOL    HW114873   5.117   0.685   3.360
 4658SOL    HW214874   5.047   0.579   3.463
 4659SOL     OW14875   2.395   2.501   4.440
 4659SOL    HW114876   2.301   2.514   4.410
 4659SOL    HW214877   2.450   2.465   4.364
 4660SOL     OW14878   6.839   1.340   5.825
 4660SOL    HW114879   6.835   1.372   5.919
 4660SOL    HW214880   6.764   1.380   5.772
 4661SOL     OW14881   4.097   3.397   3.388
 4661SOL    HW114882   4.136   3.360   3.304
 4661SOL    HW214883   4.047   3.481   3.367
 4662SOL     OW14884   5.521   0.387   4.276
 4662SOL    HW114885   5.617   0.415   4.269
 4662SOL    HW214886   5.507   0.304   4.222
 4663SOL     OW14887   0.403   1.387   2.364
 4663SOL    HW114888   0.498   1.416   2.353
 4663SOL    HW214889   0.394   1.337   2.450
 4664SOL     OW14890   3.061   3.437   0.576
 4664SOL    HW114891   3.006   3.508   0.621
 4664SOL    HW214892   3.038   3.434   0.478
 4665SOL     OW14893   5.657   0.903   6.661
 4665SOL    HW114894   5.652   0.906   6.561
 4665SOL    HW214895   5.607   0.823   6.694
 4666SOL     OW14896   3.017   1.227   0.509
 4666SOL    HW114897   2.972   1.220   0.599
 4666SOL    HW214898   2.951   1.203   0.438
 4667SOL     OW14899   0.420   5.807   5.392
 4667SOL    HW114900   0.388   5.721   5.355
 4667SOL    HW214901   0.520   5.809   5.392
 4668SOL     OW14902   5.445   1.678   5.177
 4668SOL    HW114903   5.420   1.632   5.092
 4668SOL    HW214904   5.495   1.614   5.235
 4669SOL     OW14905   2.322   0.568   1.432
 4669SOL    HW114906   2.422   0.565   1.428
 4669SOL    HW214907   2.290   0.520   1.513
 4670SOL     OW14908   1.783   1.287   4.280
 4670SOL    HW114909   1.710   1.219   4.272
 4670SOL    HW214910   1.744   1.378   4.270
 4671SOL     OW14911   5.519   3.165   0.677
 4671SOL    HW114912   5.434   3.145   0.726
 4671SOL    HW214913   5.591   3.102   0.706
 4672SOL     OW14914   2.669   3.362   5.581
 4672SOL    HW114915   2.581   3.330   5.618
 4672SOL    HW214916   2.657   3.450   5.536
 4673SOL     OW14917   3.654   0.215   2.657
 4673SOL    HW114918   3.660   0.170   2.746
 4673SOL    HW214919   3.707   0.300   2.659
 4674SOL     OW14920   4.025   6.326   6.039
 4674SOL    HW114921   4.030   6.384   5.957
 4674SOL    HW214922   3.933   6.330   6.077
 4675SOL     OW14923   1.338   4.093   5.950
 4675SOL    HW114924   1.248   4.082   5.909
 4675SOL    HW214925   1.329   4.127   6.043
 4676SOL     OW14926   0.343   5.462   3.890
 4676SOL    HW114927   0.432   5.419   3.875
 4676SOL    HW214928   0.270   5.397   3.869
 4677SOL     OW14929   0.976   3.501   0.500
 4677SOL    HW114930   1.075   3.506   0.510
 4677SOL    HW214931   0.937   3.593   0.500
 4678SOL     OW14932   2.089   4.019   2.152
 4678SOL    HW114933   2.077   3.921   2.166
 4678SOL    HW214934   2.122   4.035   2.059
 4679SOL     OW14935   4.303   0.369   1.314
 4679SOL    HW114936   4.376   0.318   1.268
 4679SOL    HW214937   4.339   0.410   1.398
 4680SOL     OW14938   1.700   0.685   0.335
 4680SOL    HW114939   1.641   0.605   0.351
 4680SOL    HW214940   1.790   0.669   0.377
 4681SOL     OW14941   4.718   5.565   2.104
 4681SOL    HW114942   4.715   5.468   2.082
 4681SOL    HW214943   4.626   5.597   2.126
 4682SOL     OW14944   3.119   4.030   0.026
 4682SOL    HW114945   3.153   4.102   0.086
 4682SOL    HW214946   3.152   3.941   0.058
 4683SOL     OW14947   6.129   4.140   3.908
 4683SOL    HW114948   6.217   4.187   3.916
 4683SOL    HW214949   6.055   4.206   3.922
 4684SOL     OW14950   5.745   6.202   0.234
 4684SOL    HW114951   5.799   6.202   0.150
 4684SOL    HW214952   5.738   6.296   0.268
 4685SOL     OW14953   3.501   3.902   4.736
 4685SOL    HW114954   3.555   3.955   4.671
 4685SOL    HW214955   3.462   3.964   4.805
 4686SOL     OW14956   2.660   5.954   0.058
 4686SOL    HW114957   2.714   6.020   0.111
 4686SOL    HW214958   2.710   5.927   6.994
 4687SOL     OW14959   2.889   0.465   2.768
 4687SOL    HW114960   2.828   0.511   2.704
 4687SOL    HW214961   2.968   0.523   2.787
 4688SOL     OW14962   5.995   2.959   5.527
 4688SOL    HW114963   5.948   2.915   5.451
 4688SOL    HW214964   6.016   3.054   5.503
 4689SOL     OW14965   6.248   0.536   2.389
 4689SOL    HW114966   6.239   0.621   2.441
 4689SOL    HW214967   6.277   0.463   2.451
 4690SOL     OW14968   2.564   1.815   0.647
 4690SOL    HW114969   2.541   1.728   0.602
 4690SOL    HW214970   2.529   1.891   0.592
 4691SOL     OW14971   6.869   4.373   2.175
 4691SOL    HW114972   6.950   4.391   2.230
 4691SOL    HW214973   6.797   4.333   2.233
 4692SOL     OW14974   5.058   3.064   2.407
 4692SOL    HW114975   5.123   3.127   2.365
 4692SOL    HW214976   4.990   3.035   2.340
 4693SOL     OW14977   1.420   0.201   3.244
 4693SOL    HW114978   1.391   0.118   3.291
 4693SOL    HW214979   1.449   0.179   3.151
 4694SOL     OW14980   1.466   0.665   6.649
 4694SOL    HW114981   1.485   0.567   6.649
 4694SOL    HW214982   1.429   0.692   6.560
 4695SOL     OW14983   1.547   5.839   1.892
 4695SOL    HW114984   1.647   5.843   1.896
 4695SOL    HW214985   1.509   5.894   1.967
 4696SOL     OW14986   1.970   5.400   5.766
 4696SOL    HW114987   1.888   5.371   5.816
 4696SOL    HW214988   1.955   5.490   5.727
 4697SOL     OW14989   4.345   5.540   1.563
 4697SOL    HW114990   4.284   5.503   1.633
 4697SOL    HW214991   4.307   5.626   1.528
 4698SOL     OW14992   5.253   1.061   4.721
 4698SOL    HW114993   5.346   1.078   4.689
 4698SOL    HW214994   5.207   0.999   4.658
 4699SOL     OW14995   1.450   0.268   2.227
 4699SOL    HW114996   1.356   0.270   2.261
 4699SOL    HW214997   1.498   0.350   2.257
 4700SOL     OW14998   6.620   2.305   2.018
 4700SOL    HW114999   6.526   2.280   2.039
 4700SOL    HW215000   6.649   2.262   1.933
 4701SOL     OW15001   3.093   2.362   1.730
 4701SOL    HW115002   3.062   2.275   1.692
 4701SOL    HW215003   3.033   2.389   1.805
 4702SOL     OW15004   5.517   5.013   6.572
 4702SOL    HW115005   5.575   4.938   6.604
 4702SOL    HW215006   5.550   5.100   6.609
 4703SOL     OW15007   0.847   5.407   3.297
 4703SOL    HW115008   0.835   5.340   3.370
 4703SOL    HW215009   0.762   5.416   3.245
 4704SOL     OW15010   1.371   5.221   4.469
 4704SOL    HW115011   1.320   5.145   4.508
 4704SOL    HW215012   1.453   5.186   4.422
 4705SOL     OW15013   3.616   1.872   1.633
 4705SOL    HW115014   3.560   1.868   1.550
 4705SOL    HW215015   3.597   1.957   1.682
 4706SOL     OW15016   2.176   0.082   0.914
 4706SOL    HW115017   2.270   0.048   0.912
 4706SOL    HW215018   2.153   0.111   1.007
 4707SOL     OW15019   1.820   5.833   1.930
 4707SOL    HW115020   1.867   5.862   2.014
 4707SOL    HW215021   1.867   5.753   1.892
 4708SOL     OW15022   1.667   2.886   4.590
 4708SOL    HW115023   1.737   2.903   4.521
 4708SOL    HW215024   1.678   2.793   4.626
 4709SOL     OW15025   4.951   4.014   5.690
 4709SOL    HW115026   5.020   4.069   5.736
 4709SOL    HW215027   4.875   4.072   5.661
 4710SOL     OW15028   5.994   5.754   5.718
 4710SOL    HW115029   6.027   5.680   5.777
 4710SOL    HW215030   6.064   5.775   5.650
 4711SOL     OW15031   5.540   3.757   2.450
 4711SOL    HW115032   5.508   3.811   2.372
 4711SOL    HW215033   5.578   3.817   2.520
 4712SOL     OW15034   4.800   4.270   5.653
 4712SOL    HW115035   4.713   4.224   5.668
 4712SOL    HW215036   4.818   4.333   5.729
 4713SOL     OW15037   6.317   4.172   0.881
 4713SOL    HW115038   6.359   4.262   0.890
 4713SOL    HW215039   6.220   4.183   0.858
 4714SOL     OW15040   4.398   1.293   6.722
 4714SOL    HW115041   4.477   1.352   6.709
 4714SOL    HW215042   4.341   1.329   6.796
 4715SOL     OW15043   6.445   1.550   2.137
 4715SOL    HW115044   6.526   1.509   2.178
 4715SOL    HW215045   6.461   1.564   2.039
 4716SOL     OW15046   3.962   4.704   5.749
 4716SOL    HW115047   3.871   4.743   5.735
 4716SOL    HW215048   3.954   4.611   5.785
 4717SOL     OW15049   2.611   4.893   5.213
 4717SOL    HW115050   2.693   4.873   5.267
 4717SOL    HW215051   2.587   4.813   5.159
 4718SOL     OW15052   4.753   4.808   0.342
 4718SOL    HW115053   4.704   4.722   0.356
 4718SOL    HW215054   4.778   4.848   0.430
 4719SOL     OW15055   6.979   4.461   4.074
 4719SOL    HW115056   0.031   4.479   4.143
 4719SOL    HW215057   6.968   4.362   4.063
 4720SOL     OW15058   2.074   3.124   0.198
 4720SOL    HW115059   2.100   3.203   0.141
 4720SOL    HW215060   2.142   3.111   0.270
 4721SOL     OW15061   6.964   3.099   2.570
 4721SOL    HW115062   6.871   3.100   2.535
 4721SOL    HW215063   6.982   3.013   2.617
 4722SOL     OW15064   1.364   6.173   6.829
 4722SOL    HW115065   1.361   6.272   6.815
 4722SOL    HW215066   1.400   6.153   6.920
 4723SOL     OW15067   3.693   4.468   0.095
 4723SOL    HW115068   3.646   4.556   0.102
 4723SOL    HW215069   3.669   4.411   0.173
 4724SOL     OW15070   0.356   6.911   4.960
 4724SOL    HW115071   0.280   6.974   4.942
 4724SOL    HW215072   0.432   6.933   4.899
 4725SOL     OW15073   4.800   5.998   1.190
 4725SOL    HW115074   4.763   5.929   1.127
 4725SOL    HW215075   4.850   6.067   1.138
 4726SOL     OW15076   1.575   3.389   5.410
 4726SOL    HW115077   1.633   3.314   5.379
 4726SOL    HW215078   1.490   3.389   5.358
 4727SOL     OW15079   6.960   4.772   1.379
 4727SOL    HW115080   0.004   4.711   1.329
 4727SOL    HW215081   6.869   4.767   1.338
 4728SOL     OW15082   6.126   1.399   4.340
 4728SOL    HW115083   6.218   1.422   4.311
 4728SOL    HW215084   6.126   1.375   4.438
 4729SOL     OW15085   6.455   1.901   2.041
 4729SOL    HW115086   6.524   1.838   2.077
 4729SOL    HW215087   6.363   1.862   2.055
 4730SOL     OW15088   2.870   6.497   4.317
 4730SOL    HW115089   2.930   6.424   4.352
 4730SOL    HW215090   2.905   6.529   4.229
 4731SOL     OW15091   3.075   6.509   0.395
 4731SOL    HW115092   3.022   6.586   0.359
 4731SOL    HW215093   3.134   6.473   0.323
 4732SOL     OW15094   6.969   5.241   4.476
 4732SOL    HW115095   0.025   5.197   4.427
 4732SOL    HW215096   7.005   5.290   4.556
 4733SOL     OW15097   2.229   4.292   2.608
 4733SOL    HW115098   2.215   4.195   2.590
 4733SOL    HW215099   2.227   4.343   2.522
 4734SOL     OW15100   5.355   3.758   6.675
 4734SOL    HW115101   5.325   3.676   6.626
 4734SOL    HW215102   5.453   3.751   6.695
 4735SOL     OW15103   0.345   0.769   4.841
 4735SOL    HW115104   0.397   0.850   4.867
 4735SOL    HW215105   0.338   0.707   4.919
 4736SOL     OW15106   6.139   2.196   3.301
 4736SOL    HW115107   6.089   2.248   3.370
 4736SOL    HW215108   6.143   2.100   3.329
 4737SOL     OW15109   2.354   4.884   6.818
 4737SOL    HW115110   2.439   4.865   6.769
 4737SOL    HW215111   2.276   4.867   6.756
 4738SOL     OW15112   1.035   6.443   3.457
 4738SOL    HW115113   1.038   6.528   3.404
 4738SOL    HW215114   1.118   6.435   3.512
 4739SOL     OW15115   6.447   3.087   2.989
 4739SOL    HW115116   6.493   3.072   2.901
 4739SOL    HW215117   6.371   3.023   2.999
 4740SOL     OW15118   1.241   0.951   1.240
 4740SOL    HW115119   1.249   1.050   1.256
 4740SOL    HW215120   1.321   0.905   1.279
 4741SOL     OW15121   4.958   4.449   1.486
 4741SOL    HW115122   4.863   4.479   1.482
 4741SOL    HW215123   4.985   4.436   1.582
 4742SOL     OW15124   2.706   5.853   2.057
 4742SOL    HW115125   2.758   5.812   2.132
 4742SOL    HW215126   2.758   5.930   2.019
 4743SOL     OW15127   2.605   2.859   0.235
 4743SOL    HW115128   2.517   2.817   0.256
 4743SOL    HW215129   2.647   2.813   0.157
 4744SOL     OW15130   1.839   2.450   4.734
 4744SOL    HW115131   1.789   2.365   4.748
 4744SOL    HW215132   1.936   2.437   4.756
 4745SOL     OW15133   3.447   5.555   4.954
 4745SOL    HW115134   3.494   5.636   4.988
 4745SOL    HW215135   3.353   5.554   4.986
 4746SOL     OW15136   6.034   0.835   1.044
 4746SOL    HW115137   6.011   0.907   0.978
 4746SOL    HW215138   6.074   0.757   0.996
 4747SOL     OW15139   6.447   2.822   1.510
 4747SOL    HW115140   6.364   2.826   1.565
 4747SOL    HW215141   6.500   2.741   1.533
 4748SOL     OW15142   1.599   0.503   1.262
 4748SOL    HW115143   1.585   0.600   1.242
 4748SOL    HW215144   1.561   0.448   1.187
 4749SOL     OW15145   2.481   0.451   5.972
 4749SOL    HW115146   2.490   0.532   6.030
 4749SOL    HW215147   2.477   0.369   6.029
 4750SOL     OW15148   0.477   1.823   4.725
 4750SOL    HW115149   0.573   1.811   4.747
 4750SOL    HW215150   0.465   1.824   4.625
 4751SOL     OW15151   0.933   3.389   5.584
 4751SOL    HW115152   1.003   3.339   5.533
 4751SOL    HW215153   0.891   3.328   5.651
 4752SOL     OW15154   2.244   6.190   1.885
 4752SOL    HW115155   2.260   6.108   1.940
 4752SOL    HW215156   2.194   6.164   1.802
 4753SOL     OW15157   0.157   0.047   5.207
 4753SOL    HW115158   0.218   0.119   5.175
 4753SOL    HW215159   0.208   6.980   5.220
 4754SOL     OW15160   0.655   0.255   6.249
 4754SOL    HW115161   0.585   0.207   6.196
 4754SOL    HW215162   0.612   0.302   6.326
 4755SOL     OW15163   2.239   0.844   0.580
 4755SOL    HW115164   2.309   0.780   0.549
 4755SOL    HW215165   2.245   0.928   0.525
 4756SOL     OW15166   4.753   3.117   1.355
 4756SOL    HW115167   4.755   3.018   1.339
 4756SOL    HW215168   4.732   3.134   1.451
 4757SOL     OW15169   2.069   1.733   1.865
 4757SOL    HW115170   2.055   1.781   1.952
 4757SOL    HW215171   2.151   1.675   1.872
 4758SOL     OW15172   5.118   4.164   5.403
 4758SOL    HW115173   5.151   4.070   5.412
 4758SOL    HW215174   5.178   4.226   5.454
 4759SOL     OW15175   5.870   4.473   6.096
 4759SOL    HW115176   5.805   4.531   6.146
 4759SOL    HW215177   5.901   4.400   6.156
 4760SOL     OW15178   1.958   2.151   0.726
 4760SOL    HW115179   2.026   2.199   0.671
 4760SOL    HW215180   1.899   2.217   0.771
 4761SOL     OW15181   1.321   5.510   5.717
 4761SOL    HW115182   1.357   5.468   5.634
 4761SOL    HW215183   1.320   5.443   5.791
 4762SOL     OW15184   3.710   6.971   2.632
 4762SOL    HW115185   3.666   0.027   2.582
 4762SOL    HW215186   3.730   6.896   2.569
 4763SOL     OW15187   6.078   5.695   4.899
 4763SOL    HW115188   6.149   5.664   4.836
 4763SOL    HW215189   6.109   5.679   4.993
 4764SOL     OW15190   4.050   3.814   4.870
 4764SOL    HW115191   4.042   3.858   4.780
 4764SOL    HW215192   4.035   3.716   4.860
 4765SOL     OW15193   6.820   4.880   5.240
 4765SOL    HW115194   6.827   4.954   5.307
 4765SOL    HW215195   6.816   4.792   5.289
 4766SOL     OW15196   3.256   0.282   3.565
 4766SOL    HW115197   3.254   0.361   3.504
 4766SOL    HW215198   3.315   0.212   3.527
 4767SOL     OW15199   4.294   6.096   6.488
 4767SOL    HW115200   4.294   5.996   6.496
 4767SOL    HW215201   4.384   6.127   6.459
 4768SOL     OW15202   0.261   1.062   5.002
 4768SOL    HW115203   0.237   1.067   5.099
 4768SOL    HW215204   0.361   1.059   4.992
 4769SOL     OW15205   3.444   0.489   1.568
 4769SOL    HW115206   3.358   0.440   1.581
 4769SOL    HW215207   3.501   0.478   1.650
 4770SOL     OW15208   2.782   0.330   4.037
 4770SOL    HW115209   2.861   0.388   4.016
 4770SOL    HW215210   2.776   0.315   4.135
 4771SOL     OW15211   3.913   4.151   5.348
 4771SOL    HW115212   3.836   4.136   5.285
 4771SOL    HW215213   3.984   4.082   5.330
 4772SOL     OW15214   2.343   2.497   0.986
 4772SOL    HW115215   2.271   2.440   1.026
 4772SOL    HW215216   2.394   2.542   1.060
 4773SOL     OW15217   6.524   5.451   3.913
 4773SOL    HW115218   6.567   5.482   3.828
 4773SOL    HW215219   6.582   5.383   3.957
 4774SOL     OW15220   1.126   4.168   0.600
 4774SOL    HW115221   1.141   4.129   0.691
 4774SOL    HW215222   1.085   4.099   0.541
 4775SOL     OW15223   2.542   1.504   2.443
 4775SOL    HW115224   2.558   1.601   2.460
 4775SOL    HW215225   2.543   1.488   2.344
 4776SOL     OW15226   4.094   5.146   1.683
 4776SOL    HW115227   4.022   5.196   1.636
 4776SOL    HW215228   4.056   5.101   1.764
 4777SOL     OW15229   2.631   4.379   1.749
 4777SOL    HW115230   2.729   4.395   1.748
 4777SOL    HW215231   2.583   4.466   1.762
 4778SOL     OW15232   4.938   3.475   2.031
 4778SOL    HW115233   4.962   3.571   2.028
 4778SOL    HW215234   4.951   3.434   1.940
 4779SOL     OW15235   4.889   0.532   3.200
 4779SOL    HW115236   4.920   0.547   3.106
 4779SOL    HW215237   4.968   0.522   3.260
 4780SOL     OW15238   1.816   6.995   5.559
 4780SOL    HW115239   1.794   6.953   5.471
 4780SOL    HW215240   1.731   7.018   5.607
 4781SOL     OW15241   2.107   5.756   2.308
 4781SOL    HW115242   2.125   5.717   2.398
 4781SOL    HW215243   2.126   5.854   2.309
 4782SOL     OW15244   5.487   5.725   0.068
 4782SOL    HW115245   5.444   5.809   0.035
 4782SOL    HW215246   5.578   5.716   0.028
 4783SOL     OW15247   6.401   3.750   2.215
 4783SOL    HW115248   6.443   3.825   2.165
 4783SOL    HW215249   6.414   3.764   2.313
 4784SOL     OW15250   6.104   4.611   5.802
 4784SOL    HW115251   6.112   4.607   5.703
 4784SOL    HW215252   6.082   4.520   5.838
 4785SOL     OW15253   6.247   6.854   0.831
 4785SOL    HW115254   6.191   6.934   0.852
 4785SOL    HW215255   6.210   6.775   0.880
 4786SOL     OW15256   1.456   3.218   2.350
 4786SOL    HW115257   1.535   3.257   2.304
 4786SOL    HW215258   1.467   3.228   2.449
 4787SOL     OW15259   3.864   2.145   2.197
 4787SOL    HW115260   3.810   2.108   2.272
 4787SOL    HW215261   3.806   2.159   2.117
 4788SOL     OW15262   1.181   6.157   5.331
 4788SOL    HW115263   1.090   6.198   5.317
 4788SOL    HW215264   1.180   6.063   5.299
 4789SOL     OW15265   6.354   0.294   0.598
 4789SOL    HW115266   6.389   0.344   0.519
 4789SOL    HW215267   6.254   0.304   0.602
 4790SOL     OW15268   5.262   1.491   0.166
 4790SOL    HW115269   5.235   1.568   0.108
 4790SOL    HW215270   5.334   1.439   0.121
 4791SOL     OW15271   4.790   0.379   2.830
 4791SOL    HW115272   4.769   0.390   2.927
 4791SOL    HW215273   4.834   0.462   2.796
 4792SOL     OW15274   2.797   2.171   1.558
 4792SOL    HW115275   2.891   2.145   1.534
 4792SOL    HW215276   2.797   2.263   1.596
 4793SOL     OW15277   0.345   6.889   6.088
 4793SOL    HW115278   0.318   6.947   6.011
 4793SOL    HW215279   0.285   6.809   6.092
 4794SOL     OW15280   3.716   0.809   1.643
 4794SOL    HW115281   3.686   0.806   1.738
 4794SOL    HW215282   3.793   0.873   1.634
 4795SOL     OW15283   5.932   2.774   4.739
 4795SOL    HW115284   5.836   2.801   4.742
 4795SOL    HW215285   5.951   2.713   4.816
 4796SOL     OW15286   6.256   3.783   0.898
 4796SOL    HW115287   6.334   3.845   0.893
 4796SOL    HW215288   6.287   3.692   0.926
 4797SOL     OW15289   0.283   4.947   4.958
 4797SOL    HW115290   0.211   4.896   5.005
 4797SOL    HW215291   0.301   5.032   5.008
 4798SOL     OW15292   6.837   4.522   5.655
 4798SOL    HW115293   6.786   4.447   5.695
 4798SOL    HW215294   6.913   4.547   5.716
 4799SOL     OW15295   4.119   1.309   5.108
 4799SOL    HW115296   4.053   1.331   5.180
 4799SOL    HW215297   4.112   1.377   5.035
 4800SOL     OW15298   1.883   2.002   4.151
 4800SOL    HW115299   1.796   2.018   4.197
 4800SOL    HW215300   1.951   1.974   4.219
 4801SOL     OW15301   1.339   2.519   0.762
 4801SOL    HW115302   1.268   2.451   0.783
 4801SOL    HW215303   1.403   2.525   0.839
 4802SOL     OW15304   1.863   0.724   2.294
 4802SOL    HW115305   1.891   0.727   2.390
 4802SOL    HW215306   1.764   0.724   2.288
 4803SOL     OW15307   1.052   6.906   1.586
 4803SOL    HW115308   1.114   6.834   1.552
 4803SOL    HW215309   1.092   6.995   1.566
 4804SOL     OW15310   4.009   5.640   0.144
 4804SOL    HW115311   3.989   5.723   0.195
 4804SOL    HW215312   4.087   5.593   0.185
 4805SOL     OW15313   0.903   1.644   0.643
 4805SOL    HW115314   0.906   1.553   0.602
 4805SOL    HW215315   0.974   1.702   0.603
 4806SOL     OW15316   0.781   3.087   3.096
 4806SOL    HW115317   0.814   3.105   3.003
 4806SOL    HW215318   0.714   3.013   3.094
 4807SOL     OW15319   0.547   6.862   1.500
 4807SOL    HW115320   0.554   6.826   1.593
 4807SOL    HW215321   0.636   6.897   1.470
 4808SOL     OW15322   5.314   3.365   1.357
 4808SOL    HW115323   5.289   3.359   1.261
 4808SOL    HW215324   5.387   3.433   1.368
 4809SOL     OW15325   4.626   5.900   6.439
 4809SOL    HW115326   4.584   5.988   6.419
 4809SOL    HW215327   4.679   5.906   6.524
 4810SOL     OW15328   0.733   0.211   1.373
 4810SOL    HW115329   0.789   0.287   1.339
 4810SOL    HW215330   0.651   0.203   1.316
 4811SOL     OW15331   5.249   5.888   2.820
 4811SOL    HW115332   5.157   5.892   2.782
 4811SOL    HW215333   5.290   5.800   2.798
 4812SOL     OW15334   6.485   4.837   4.649
 4812SOL    HW115335   6.480   4.782   4.566
 4812SOL    HW215336   6.565   4.897   4.646
 4813SOL     OW15337   5.818   2.312   2.750
 4813SOL    HW115338   5.825   2.402   2.706
 4813SOL    HW215339   5.734   2.308   2.804
 4814SOL     OW15340   6.799   3.751   1.463
 4814SOL    HW115341   6.852   3.671   1.490
 4814SOL    HW215342   6.702   3.734   1.480
 4815SOL     OW15343   3.930   6.266   2.709
 4815SOL    HW115344   3.856   6.298   2.651
 4815SOL    HW215345   3.998   6.219   2.653
 4816SOL     OW15346   5.380   5.328   2.993
 4816SOL    HW115347   5.333   5.288   2.915
 4816SOL    HW215348   5.351   5.283   3.077
 4817SOL     OW15349   6.814   2.090   6.411
 4817SOL    HW115350   6.744   2.126   6.350
 4817SOL    HW215351   6.800   2.125   6.503
 4818SOL     OW15352   0.209   6.129   3.932
 4818SOL    HW115353   0.123   6.179   3.947
 4818SOL    HW215354   0.286   6.191   3.943
 4819SOL     OW15355   1.733   2.790   0.844
 4819SOL    HW115356   1.648   2.744   0.817
 4819SOL    HW215357   1.712   2.879   0.883
 4820SOL     OW15358   0.638   3.107   2.436
 4820SOL    HW115359   0.606   3.053   2.514
 4820SOL    HW215360   0.580   3.189   2.426
 4821SOL     OW15361   6.676   5.828   3.967
 4821SOL    HW115362   6.587   5.808   4.008
 4821SOL    HW215363   6.747   5.780   4.017
 4822SOL     OW15364   2.203   4.216   4.289
 4822SOL    HW115365   2.115   4.255   4.317
 4822SOL    HW215366   2.268   4.220   4.365
 4823SOL     OW15367   1.813   3.033   1.835
 4823SOL    HW115368   1.846   3.038   1.741
 4823SOL    HW215369   1.855   2.955   1.881
 4824SOL     OW15370   6.171   1.946   6.671
 4824SOL    HW115371   6.256   1.906   6.638
 4824SOL    HW215372   6.190   2.033   6.717
 4825SOL     OW15373   1.123   6.645   3.668
 4825SOL    HW115374   1.151   6.683   3.580
 4825SOL    HW215375   1.023   6.636   3.670
 4826SOL     OW15376   3.773   0.629   0.917
 4826SOL    HW115377   3.815   0.699   0.974
 4826SOL    HW215378   3.692   0.667   0.872
 4827SOL     OW15379   0.110   1.978   0.287
 4827SOL    HW115380   0.194   2.023   0.318
 4827SOL    HW215381   0.034   2.005   0.346
 4828SOL     OW15382   5.524   1.041   4.710
 4828SOL    HW115383   5.552   1.105   4.638
 4828SOL    HW215384   5.572   1.063   4.795
 4829SOL     OW15385   4.076   6.431   5.192
 4829SOL    HW115386   4.003   6.449   5.126
 4829SOL    HW215387   4.105   6.336   5.184
 4830SOL     OW15388   1.973   6.481   3.090
 4830SOL    HW115389   1.956   6.396   3.040
 4830SOL    HW215390   2.066   6.513   3.072
 4831SOL     OW15391   3.216   4.622   5.377
 4831SOL    HW115392   3.156   4.571   5.316
 4831SOL    HW215393   3.303   4.641   5.330
 4832SOL     OW15394   3.705   3.670   4.184
 4832SOL    HW115395   3.667   3.604   4.249
 4832SOL    HW215396   3.645   3.750   4.179
 4833SOL     OW15397   6.161   3.776   5.074
 4833SOL    HW115398   6.116   3.688   5.094
 4833SOL    HW215399   6.244   3.759   5.021
 4834SOL     OW15400   1.100   4.645   0.964
 4834SOL    HW115401   1.133   4.581   1.033
 4834SOL    HW215402   1.167   4.719   0.952
 4835SOL     OW15403   6.757   2.795   5.922
 4835SOL    HW115404   6.762   2.733   6.000
 4835SOL    HW215405   6.779   2.745   5.838
 4836SOL     OW15406   4.510   1.792   5.993
 4836SOL    HW115407   4.572   1.808   5.916
 4836SOL    HW215408   4.421   1.831   5.972
 4837SOL     OW15409   0.054   3.526   3.909
 4837SOL    HW115410   0.042   3.625   3.902
 4837SOL    HW215411   0.028   3.484   3.822
 4838SOL     OW15412   1.901   3.405   6.051
 4838SOL    HW115413   1.818   3.350   6.061
 4838SOL    HW215414   1.969   3.354   6.000
 4839SOL     OW15415   2.467   0.989   0.768
 4839SOL    HW115416   2.407   0.967   0.845
 4839SOL    HW215417   2.467   0.913   0.703
 4840SOL     OW15418   6.103   3.514   5.028
 4840SOL    HW115419   6.029   3.509   4.960
 4840SOL    HW215420   6.175   3.450   5.003
 4841SOL     OW15421   2.785   6.599   3.166
 4841SOL    HW115422   2.738   6.687   3.174
 4841SOL    HW215423   2.728   6.535   3.114
 4842SOL     OW15424   3.942   5.761   3.044
 4842SOL    HW115425   3.911   5.785   3.136
 4842SOL    HW215426   4.034   5.797   3.029
 4843SOL     OW15427   6.903   1.389   6.991
 4843SOL    HW115428   6.998   1.409   7.015
 4843SOL    HW215429   6.900   1.320   6.919
 4844SOL     OW15430   1.532   5.587   5.997
 4844SOL    HW115431   1.614   5.608   5.944
 4844SOL    HW215432   1.489   5.505   5.961
 4845SOL     OW15433   5.029   3.609   5.191
 4845SOL    HW115434   5.032   3.589   5.289
 4845SOL    HW215435   4.935   3.601   5.159
 4846SOL     OW15436   6.141   3.271   4.754
 4846SOL    HW115437   6.224   3.293   4.806
 4846SOL    HW215438   6.105   3.183   4.783
 4847SOL     OW15439   2.454   6.359   6.245
 4847SOL    HW115440   2.493   6.439   6.200
 4847SOL    HW215441   2.357   6.376   6.263
 4848SOL     OW15442   4.769   1.282   4.195
 4848SOL    HW115443   4.841   1.350   4.181
 4848SOL    HW215444   4.810   1.190   4.198
 4849SOL     OW15445   2.560   6.239   1.191
 4849SOL    HW115446   2.492   6.277   1.254
 4849SOL    HW215447   2.595   6.311   1.132
 4850SOL     OW15448   3.651   0.027   0.905
 4850SOL    HW115449   3.575   0.087   0.928
 4850SOL    HW215450   3.622   6.950   0.910
 4851SOL     OW15451   3.682   4.665   6.511
 4851SOL    HW115452   3.693   4.641   6.607
 4851SOL    HW215453   3.703   4.762   6.498
 4852SOL     OW15454   5.674   4.746   5.892
 4852SOL    HW115455   5.722   4.776   5.974
 4852SOL    HW215456   5.698   4.805   5.815
 4853SOL     OW15457   4.371   6.899   2.847
 4853SOL    HW115458   4.379   6.943   2.937
 4853SOL    HW215459   4.402   6.962   2.776
 4854SOL     OW15460   4.462   6.455   2.478
 4854SOL    HW115461   4.469   6.365   2.520
 4854SOL    HW215462   4.444   6.524   2.548
 4855SOL     OW15463   5.312   5.008   6.014
 4855SOL    HW115464   5.400   5.046   6.040
 4855SOL    HW215465   5.317   4.973   5.921
 4856SOL     OW15466   0.551   4.192   2.677
 4856SOL    HW115467   0.502   4.150   2.753
 4856SOL    HW215468   0.561   4.126   2.603
 4857SOL     OW15469   2.287   2.436   5.049
 4857SOL    HW115470   2.251   2.461   5.138
 4857SOL    HW215471   2.270   2.339   5.031
 4858SOL     OW15472   1.701   6.517   4.602
 4858SOL    HW115473   1.787   6.533   4.554
 4858SOL    HW215474   1.716   6.523   4.700
 4859SOL     OW15475   6.570   5.866   3.025
 4859SOL    HW115476   6.571   5.786   3.084
 4859SOL    HW215477   6.535   5.945   3.075
 4860SOL     OW15478   4.051   5.285   2.200
 4860SOL    HW115479   4.069   5.195   2.240
 4860SOL    HW215480   3.955   5.290   2.173
 4861SOL     OW15481   0.057   4.283   5.823
 4861SOL    HW115482   7.012   4.351   5.860
 4861SOL    HW215483   0.097   4.318   5.738
 4862SOL     OW15484   1.916   6.040   3.903
 4862SOL    HW115485   1.868   6.080   3.825
 4862SOL    HW215486   1.898   6.094   3.985
 4863SOL     OW15487   5.296   2.134   2.582
 4863SOL    HW115488   5.288   2.165   2.487
 4863SOL    HW215489   5.233   2.187   2.639
 4864SOL     OW15490   2.357   1.463   1.230
 4864SOL    HW115491   2.262   1.445   1.205
 4864SOL    HW215492   2.369   1.453   1.328
 4865SOL     OW15493   4.219   5.760   4.749
 4865SOL    HW115494   4.276   5.714   4.818
 4865SOL    HW215495   4.126   5.770   4.785
 4866SOL     OW15496   0.497   5.084   2.029
 4866SOL    HW115497   0.518   5.137   1.946
 4866SOL    HW215498   0.403   5.104   2.057
 4867SOL     OW15499   4.812   4.483   4.090
 4867SOL    HW115500   4.855   4.572   4.107
 4867SOL    HW215501   4.729   4.496   4.035
 4868SOL     OW15502   1.618   6.147   1.376
 4868SOL    HW115503   1.525   6.119   1.354
 4868SOL    HW215504   1.620   6.183   1.469
 4869SOL     OW15505   6.113   1.765   1.035
 4869SOL    HW115506   6.212   1.781   1.031
 4869SOL    HW215507   6.070   1.835   1.091
 4870SOL     OW15508   6.581   0.330   1.173
 4870SOL    HW115509   6.559   0.291   1.083
 4870SOL    HW215510   6.498   0.334   1.229
 4871SOL     OW15511   1.924   3.937   4.338
 4871SOL    HW115512   1.934   3.869   4.411
 4871SOL    HW215513   2.005   3.937   4.280
 4872SOL     OW15514   1.035   0.580   3.965
 4872SOL    HW115515   0.955   0.522   3.949
 4872SOL    HW215516   1.114   0.542   3.917
 4873SOL     OW15517   1.163   6.671   5.328
 4873SOL    HW115518   1.065   6.653   5.320
 4873SOL    HW215519   1.188   6.750   5.272
 4874SOL     OW15520   5.823   3.237   3.386
 4874SOL    HW115521   5.901   3.176   3.400
 4874SOL    HW215522   5.758   3.227   3.461
 4875SOL     OW15523   6.645   2.451   6.143
 4875SOL    HW115524   6.641   2.436   6.045
 4875SOL    HW215525   6.722   2.512   6.164
 4876SOL     OW15526   0.111   1.741   0.032
 4876SOL    HW115527   0.136   1.677   6.977
 4876SOL    HW215528   0.195   1.779   0.072
 4877SOL     OW15529   6.328   1.250   1.773
 4877SOL    HW115530   6.251   1.265   1.712
 4877SOL    HW215531   6.307   1.176   1.837
 4878SOL     OW15532   0.251   2.950   1.887
 4878SOL    HW115533   0.155   2.973   1.866
 4878SOL    HW215534   0.310   2.987   1.815
 4879SOL     OW15535   4.394   5.608   3.396
 4879SOL    HW115536   4.473   5.584   3.452
 4879SOL    HW215537   4.318   5.546   3.418
 4880SOL     OW15538   5.870   1.632   5.830
 4880SOL    HW115539   5.945   1.698   5.839
 4880SOL    HW215540   5.842   1.626   5.734
 4881SOL     OW15541   2.710   5.330   6.687
 4881SOL    HW115542   2.665   5.411   6.648
 4881SOL    HW215543   2.676   5.248   6.642
 4882SOL     OW15544   4.782   6.708   6.926
 4882SOL    HW115545   4.721   6.680   6.851
 4882SOL    HW215546   4.764   6.803   6.949
 4883SOL     OW15547   6.292   5.506   0.165
 4883SOL    HW115548   6.247   5.511   0.254
 4883SOL    HW215549   6.368   5.441   0.169
 4884SOL     OW15550   4.015   6.625   1.342
 4884SOL    HW115551   4.070   6.545   1.365
 4884SOL    HW215552   3.931   6.597   1.297
 4885SOL     OW15553   2.292   0.038   2.920
 4885SOL    HW115554   2.388   0.033   2.892
 4885SOL    HW215555   2.283   0.103   2.996
 4886SOL     OW15556   5.899   0.876   6.108
 4886SOL    HW115557   5.949   0.827   6.179
 4886SOL    HW215558   5.930   0.846   6.018
 4887SOL     OW15559   0.004   1.916   5.867
 4887SOL    HW115560   6.999   2.010   5.845
 4887SOL    HW215561   0.075   1.915   5.938
 4888SOL     OW15562   3.545   5.930   1.682
 4888SOL    HW115563   3.546   5.843   1.633
 4888SOL    HW215564   3.535   6.005   1.617
 4889SOL     OW15565   1.490   2.991   6.218
 4889SOL    HW115566   1.489   3.033   6.127
 4889SOL    HW215567   1.396   2.972   6.246
 4890SOL     OW15568   0.933   0.255   4.250
 4890SOL    HW115569   0.846   0.284   4.211
 4890SOL    HW215570   0.986   0.336   4.278
 4891SOL     OW15571   1.596   3.865   0.434
 4891SOL    HW115572   1.585   3.836   0.339
 4891SOL    HW215573   1.597   3.786   0.494
 4892SOL     OW15574   1.435   5.583   1.931
 4892SOL    HW115575   1.338   5.601   1.920
 4892SOL    HW215576   1.488   5.666   1.916
 4893SOL     OW15577   0.813   3.632   6.350
 4893SOL    HW115578   0.720   3.604   6.328
 4893SOL    HW215579   0.849   3.574   6.423
 4894SOL     OW15580   1.820   0.851   3.200
 4894SOL    HW115581   1.825   0.803   3.288
 4894SOL    HW215582   1.867   0.799   3.130
 4895SOL     OW15583   6.050   4.094   0.207
 4895SOL    HW115584   6.105   4.129   0.284
 4895SOL    HW215585   6.109   4.080   0.128
 4896SOL     OW15586   4.285   5.818   3.311
 4896SOL    HW115587   4.327   5.908   3.314
 4896SOL    HW215588   4.346   5.751   3.352
 4897SOL     OW15589   2.769   6.071   6.552
 4897SOL    HW115590   2.735   6.155   6.510
 4897SOL    HW215591   2.736   5.992   6.500
 4898SOL     OW15592   6.258   2.155   4.741
 4898SOL    HW115593   6.304   2.120   4.659
 4898SOL    HW215594   6.311   2.232   4.778
 4899SOL     OW15595   5.418   4.449   5.099
 4899SOL    HW115596   5.486   4.377   5.088
 4899SOL    HW215597   5.425   4.514   5.024
 4900SOL     OW15598   0.556   6.725   5.649
 4900SOL    HW115599   0.473   6.762   5.606
 4900SOL    HW215600   0.636   6.748   5.593
 4901SOL     OW15601   0.343   6.792   3.352
 4901SOL    HW115602   0.332   6.808   3.254
 4901SOL    HW215603   0.381   6.700   3.366
 4902SOL     OW15604   3.305   4.788   1.794
 4902SOL    HW115605   3.279   4.745   1.707
 4902SOL    HW215606   3.389   4.746   1.828
 4903SOL     OW15607   5.394   5.861   5.767
 4903SOL    HW115608   5.414   5.906   5.855
 4903SOL    HW215609   5.349   5.774   5.784
 4904SOL     OW15610   2.920   6.408   3.307
 4904SOL    HW115611   2.870   6.475   3.252
 4904SOL    HW215612   2.936   6.326   3.252
 4905SOL     OW15613   6.225   3.591   3.287
 4905SOL    HW115614   6.294   3.531   3.326
 4905SOL    HW215615   6.134   3.561   3.316
 4906SOL     OW15616   5.313   0.856   1.254
 4906SOL    HW115617   5.274   0.770   1.287
 4906SOL    HW215618   5.400   0.873   1.299
 4907SOL     OW15619   2.267   1.902   2.329
 4907SOL    HW115620   2.193   1.966   2.351
 4907SOL    HW215621   2.301   1.922   2.237
 4908SOL     OW15622   3.808   5.175   0.429
 4908SOL    HW115623   3.773   5.128   0.510
 4908SOL    HW215624   3.732   5.222   0.383
 4909SOL     OW15625   5.681   0.353   5.419
 4909SOL    HW115626   5.713   0.402   5.500
 4909SOL    HW215627   5.745   0.367   5.344
 4910SOL     OW15628   5.690   6.709   6.427
 4910SOL    HW115629   5.787   6.719   6.452
 4910SOL    HW215630   5.634   6.771   6.482
 4911SOL     OW15631   1.082   2.985   5.936
 4911SOL    HW115632   1.118   3.060   5.882
 4911SOL    HW215633   1.016   3.020   6.003
 4912SOL     OW15634   2.663   2.358   2.057
 4912SOL    HW115635   2.600   2.402   1.992
 4912SOL    HW215636   2.754   2.353   2.016
 4913SOL     OW15637   2.885   3.531   1.958
 4913SOL    HW115638   2.983   3.550   1.954
 4913SOL    HW215639   2.838   3.583   1.886
 4914SOL     OW15640   1.611   6.515   2.401
 4914SOL    HW115641   1.596   6.594   2.460
 4914SOL    HW215642   1.602   6.431   2.455
 4915SOL     OW15643   2.636   6.105   3.231
 4915SOL    HW115644   2.541   6.074   3.226
 4915SOL    HW215645   2.647   6.165   3.310
 4916SOL     OW15646   2.044   2.056   2.341
 4916SOL    HW115647   2.034   2.150   2.309
 4916SOL    HW215648   2.060   2.056   2.439
 4917SOL     OW15649   2.164   4.993   6.150
 4917SOL    HW115650   2.192   4.942   6.068
 4917SOL    HW215651   2.244   5.011   6.207
 4918SOL     OW15652   2.164   0.393   3.987
 4918SOL    HW115653   2.219   0.337   3.925
 4918SOL    HW215654   2.156   0.347   4.075
 4919SOL     OW15655   2.382   3.139   1.607
 4919SOL    HW115656   2.369   3.235   1.633
 4919SOL    HW215657   2.319   3.081   1.659
 4920SOL     OW15658   4.172   0.644   0.417
 4920SOL    HW115659   4.233   0.717   0.448
 4920SOL    HW215660   4.149   0.659   0.321
 4921SOL     OW15661   0.988   4.650   1.808
 4921SOL    HW115662   1.057   4.695   1.751
 4921SOL    HW215663   0.997   4.682   1.902
 4922SOL     OW15664   0.841   2.667   5.526
 4922SOL    HW115665   0.852   2.624   5.437
 4922SOL    HW215666   0.931   2.684   5.566
 4923SOL     OW15667   2.923   2.476   0.174
 4923SOL    HW115668   2.938   2.380   0.198
 4923SOL    HW215669   2.858   2.517   0.238
 4924SOL     OW15670   6.942   3.611   4.196
 4924SOL    HW115671   6.846   3.626   4.173
 4924SOL    HW215672   6.957   3.632   4.293
 4925SOL     OW15673   4.753   5.603   6.409
 4925SOL    HW115674   4.718   5.509   6.400
 4925SOL    HW215675   4.713   5.646   6.489
 4926SOL     OW15676   4.294   2.903   0.587
 4926SOL    HW115677   4.226   2.976   0.582
 4926SOL    HW215678   4.386   2.943   0.591
 4927SOL     OW15679   3.605   4.061   2.732
 4927SOL    HW115680   3.532   3.997   2.707
 4927SOL    HW215681   3.605   4.138   2.669
 4928SOL     OW15682   1.069   6.588   0.772
 4928SOL    HW115683   1.153   6.539   0.793
 4928SOL    HW215684   1.089   6.665   0.711
 4929SOL     OW15685   0.814   5.092   4.551
 4929SOL    HW115686   0.861   5.054   4.472
 4929SOL    HW215687   0.797   5.019   4.618
 4930SOL     OW15688   0.302   2.776   0.538
 4930SOL    HW115689   0.384   2.789   0.594
 4930SOL    HW215690   0.228   2.834   0.572
 4931SOL     OW15691   6.859   6.675   1.039
 4931SOL    HW115692   6.792   6.613   1.079
 4931SOL    HW215693   6.926   6.702   1.108
 4932SOL     OW15694   3.826   1.772   1.262
 4932SOL    HW115695   3.753   1.816   1.209
 4932SOL    HW215696   3.903   1.835   1.271
 4933SOL     OW15697   2.884   0.425   5.111
 4933SOL    HW115698   2.952   0.416   5.183
 4933SOL    HW215699   2.854   0.520   5.105
 4934SOL     OW15700   1.710   5.650   5.499
 4934SOL    HW115701   1.659   5.730   5.470
 4934SOL    HW215702   1.674   5.569   5.454
 4935SOL     OW15703   1.604   1.199   0.545
 4935SOL    HW115704   1.658   1.118   0.520
 4935SOL    HW215705   1.508   1.174   0.551
 4936SOL     OW15706   4.648   6.268   1.136
 4936SOL    HW115707   4.705   6.201   1.185
 4936SOL    HW215708   4.634   6.237   1.042
 4937SOL     OW15709   0.911   2.679   5.049
 4937SOL    HW115710   0.935   2.596   4.998
 4937SOL    HW215711   0.963   2.757   5.014
 4938SOL     OW15712   3.366   5.058   1.686
 4938SOL    HW115713   3.455   5.067   1.641
 4938SOL    HW215714   3.370   4.983   1.752
 4939SOL     OW15715   1.166   1.661   1.513
 4939SOL    HW115716   1.114   1.657   1.599
 4939SOL    HW215717   1.207   1.572   1.495
 4940SOL     OW15718   0.483   1.969   5.741
 4940SOL    HW115719   0.450   2.051   5.695
 4940SOL    HW215720   0.535   1.995   5.822
 4941SOL     OW15721   4.245   2.757   5.343
 4941SOL    HW115722   4.263   2.725   5.435
 4941SOL    HW215723   4.212   2.681   5.286
 4942SOL     OW15724   0.554   1.654   3.056
 4942SOL    HW115725   0.512   1.719   3.120
 4942SOL    HW215726   0.601   1.583   3.108
 4943SOL     OW15727   5.397   2.704   6.724
 4943SOL    HW115728   5.496   2.701   6.710
 4943SOL    HW215729   5.350   2.680   6.639
 4944SOL     OW15730   0.809   5.207   6.896
 4944SOL    HW115731   0.755   5.277   6.942
 4944SOL    HW215732   0.870   5.250   6.829
 4945SOL     OW15733   2.441   0.238   5.463
 4945SOL    HW115734   2.370   0.309   5.471
 4945SOL    HW215735   2.504   0.262   5.390
 4946SOL     OW15736   2.850   5.174   6.864
 4946SOL    HW115737   2.808   5.234   6.797
 4946SOL    HW215738   2.920   5.224   6.915
 4947SOL     OW15739   0.952   0.293   0.910
 4947SOL    HW115740   0.976   0.197   0.926
 4947SOL    HW215741   0.973   0.318   0.816
 4948SOL     OW15742   1.871   2.013   2.042
 4948SOL    HW115743   1.967   2.042   2.037
 4948SOL    HW215744   1.829   2.020   1.952
 4949SOL     OW15745   6.943   4.144   6.515
 4949SOL    HW115746   7.015   4.135   6.446
 4949SOL    HW215747   6.945   4.065   6.576
 4950SOL     OW15748   3.625   4.606   5.611
 4950SOL    HW115749   3.582   4.576   5.525
 4950SOL    HW215750   3.622   4.531   5.677
 4951SOL     OW15751   4.911   5.702   3.445
 4951SOL    HW115752   4.884   5.700   3.348
 4951SOL    HW215753   5.011   5.707   3.451
 4952SOL     OW15754   0.547   0.470   6.525
 4952SOL    HW115755   0.486   0.405   6.481
 4952SOL    HW215756   0.497   0.520   6.596
 4953SOL     OW15757   1.476   2.441   4.923
 4953SOL    HW115758   1.441   2.393   5.003
 4953SOL    HW215759   1.474   2.540   4.939
 4954SOL     OW15760   3.071   3.722   4.698
 4954SOL    HW115761   3.063   3.821   4.685
 4954SOL    HW215762   3.086   3.703   4.795
 4955SOL     OW15763   4.120   5.981   5.702
 4955SOL    HW115764   4.139   5.901   5.759
 4955SOL    HW215765   4.059   6.043   5.751
 4956SOL     OW15766   3.285   0.068   4.899
 4956SOL    HW115767   3.210   0.037   4.840
 4956SOL    HW215768   3.344   0.130   4.847
 4957SOL     OW15769   5.977   4.406   0.191
 4957SOL    HW115770   5.970   4.448   0.281
 4957SOL    HW215771   5.909   4.333   0.182
 4958SOL     OW15772   3.842   5.544   0.562
 4958SOL    HW115773   3.815   5.497   0.645
 4958SOL    HW215774   3.933   5.512   0.534
 4959SOL     OW15775   0.182   2.122   2.919
 4959SOL    HW115776   0.227   2.162   2.840
 4959SOL    HW215777   0.085   2.108   2.899
 4960SOL     OW15778   5.175   4.499   3.819
 4960SOL    HW115779   5.165   4.408   3.860
 4960SOL    HW215780   5.089   4.549   3.829
 4961SOL     OW15781   3.047   2.086   1.421
 4961SOL    HW115782   3.041   1.994   1.384
 4961SOL    HW215783   3.060   2.081   1.520
 4962SOL     OW15784   1.060   3.124   0.400
 4962SOL    HW115785   1.022   3.111   0.492
 4962SOL    HW215786   1.012   3.063   0.336
 4963SOL     OW15787   0.957   3.376   5.953
 4963SOL    HW115788   0.909   3.452   5.909
 4963SOL    HW215789   1.051   3.371   5.918
 4964SOL     OW15790   2.561   6.226   4.654
 4964SOL    HW115791   2.527   6.171   4.577
 4964SOL    HW215792   2.583   6.166   4.731
 4965SOL     OW15793   1.527   6.230   2.885
 4965SOL    HW115794   1.600   6.190   2.942
 4965SOL    HW215795   1.557   6.319   2.851
 4966SOL     OW15796   3.109   6.079   4.231
 4966SOL    HW115797   3.056   6.107   4.151
 4966SOL    HW215798   3.088   6.138   4.308
 4967SOL     OW15799   4.335   4.759   4.806
 4967SOL    HW115800   4.342   4.679   4.865
 4967SOL    HW215801   4.342   4.842   4.861
 4968SOL     OW15802   0.113   2.654   3.008
 4968SOL    HW115803   0.186   2.697   2.955
 4968SOL    HW215804   0.148   2.574   3.056
 4969SOL     OW15805   6.860   5.682   4.093
 4969SOL    HW115806   6.799   5.699   4.171
 4969SOL    HW215807   6.952   5.714   4.116
 4970SOL     OW15808   1.871   1.944   1.181
 4970SOL    HW115809   1.818   1.860   1.170
 4970SOL    HW215810   1.829   2.017   1.128
 4971SOL     OW15811   0.410   5.777   2.629
 4971SOL    HW115812   0.416   5.765   2.529
 4971SOL    HW215813   0.342   5.847   2.650
 4972SOL     OW15814   0.659   4.445   0.988
 4972SOL    HW115815   0.717   4.483   0.916
 4972SOL    HW215816   0.696   4.467   1.078
 4973SOL     OW15817   6.172   1.356   0.483
 4973SOL    HW115818   6.232   1.415   0.430
 4973SOL    HW215819   6.114   1.412   0.542
 4974SOL     OW15820   3.118   6.506   4.707
 4974SOL    HW115821   3.024   6.497   4.738
 4974SOL    HW215822   3.130   6.593   4.660
 4975SOL     OW15823   4.989   4.921   0.938
 4975SOL    HW115824   4.991   4.841   0.998
 4975SOL    HW215825   5.051   4.991   0.974
 4976SOL     OW15826   1.551   6.795   3.623
 4976SOL    HW115827   1.491   6.870   3.650
 4976SOL    HW215828   1.574   6.804   3.527
 4977SOL     OW15829   1.380   3.853   5.829
 4977SOL    HW115830   1.428   3.869   5.742
 4977SOL    HW215831   1.368   3.940   5.876
 4978SOL     OW15832   5.975   4.511   4.662
 4978SOL    HW115833   6.067   4.489   4.695
 4978SOL    HW215834   5.907   4.482   4.730
 4979SOL     OW15835   2.484   6.823   6.114
 4979SOL    HW115836   2.564   6.806   6.171
 4979SOL    HW215837   2.418   6.878   6.165
 4980SOL     OW15838   5.228   3.216   4.092
 4980SOL    HW115839   5.151   3.197   4.031
 4980SOL    HW215840   5.205   3.189   4.185
 4981SOL     OW15841   3.039   4.821   2.578
 4981SOL    HW115842   2.975   4.777   2.641
 4981SOL    HW215843   3.105   4.875   2.630
 4982SOL     OW15844   3.832   2.586   5.736
 4982SOL    HW115845   3.880   2.544   5.812
 4982SOL    HW215846   3.831   2.524   5.658
 4983SOL     OW15847   5.947   4.815   2.992
 4983SOL    HW115848   6.037   4.772   2.994
 4983SOL    HW215849   5.949   4.895   2.931
 4984SOL     OW15850   4.871   3.406   3.876
 4984SOL    HW115851   4.848   3.501   3.898
 4984SOL    HW215852   4.877   3.353   3.960
 4985SOL     OW15853   5.624   0.530   2.089
 4985SOL    HW115854   5.550   0.562   2.029
 4985SOL    HW215855   5.652   0.605   2.149
 4986SOL     OW15856   0.724   4.875   1.360
 4986SOL    HW115857   0.637   4.911   1.394
 4986SOL    HW215858   0.708   4.826   1.274
 4987SOL     OW15859   0.817   1.171   2.315
 4987SOL    HW115860   0.766   1.202   2.234
 4987SOL    HW215861   0.753   1.149   2.389
 4988SOL     OW15862   6.201   5.774   4.125
 4988SOL    HW115863   6.115   5.777   4.176
 4988SOL    HW215864   6.189   5.818   4.036
 4989SOL     OW15865   5.372   0.215   3.934
 4989SOL    HW115866   5.307   0.188   3.862
 4989SOL    HW215867   5.323   0.267   4.005
 4990SOL     OW15868   4.758   2.006   5.478
 4990SOL    HW115869   4.733   1.909   5.478
 4990SOL    HW215870   4.693   2.057   5.534
 4991SOL     OW15871   1.144   4.926   6.053
 4991SOL    HW115872   1.133   5.025   6.060
 4991SOL    HW215873   1.067   4.887   6.002
 4992SOL     OW15874   0.986   3.567   4.164
 4992SOL    HW115875   0.889   3.545   4.176
 4992SOL    HW215876   1.018   3.616   4.245
 4993SOL     OW15877   2.603   6.185   3.958
 4993SOL    HW115878   2.559   6.139   3.881
 4993SOL    HW215879   2.682   6.236   3.926
 4994SOL     OW15880   3.800   5.146   5.536
 4994SOL    HW115881   3.842   5.229   5.500
 4994SOL    HW215882   3.838   5.066   5.488
 4995SOL     OW15883   6.962   0.783   5.689
 4995SOL    HW115884   0.023   0.801   5.748
 4995SOL    HW215885   6.987   0.718   5.617
 4996SOL     OW15886   0.403   1.473   4.053
 4996SOL    HW115887   0.349   1.418   3.989
 4996SOL    HW215888   0.389   1.440   4.146
 4997SOL     OW15889   3.830   1.654   0.813
 4997SOL    HW115890   3.812   1.563   0.851
 4997SOL    HW215891   3.893   1.703   0.873
 4998SOL     OW15892   0.857   3.530   3.405
 4998SOL    HW115893   0.798   3.521   3.486
 4998SOL    HW215894   0.944   3.569   3.433
 4999SOL     OW15895   0.835   2.477   4.269
 4999SOL    HW115896   0.757   2.440   4.217
 4999SOL    HW215897   0.911   2.494   4.206
 5000SOL     OW15898   2.938   5.959   2.576
 5000SOL    HW115899   2.872   5.926   2.644
 5000SOL    HW215900   3.024   5.980   2.622
 5001SOL     OW15901   0.668   6.568   3.484
 5001SOL    HW115902   0.699   6.506   3.412
 5001SOL    HW215903   0.740   6.635   3.504
 5002SOL     OW15904   1.695   4.581   4.065
 5002SOL    HW115905   1.669   4.486   4.046
 5002SOL    HW215906   1.628   4.643   4.023
 5003SOL     OW15907   4.124   0.636   3.459
 5003SOL    HW115908   4.128   0.560   3.393
 5003SOL    HW215909   4.118   0.722   3.409
 5004SOL     OW15910   3.338   5.171   0.082
 5004SOL    HW115911   3.374   5.261   0.057
 5004SOL    HW215912   3.361   5.104   0.012
 5005SOL     OW15913   2.765   2.892   6.800
 5005SOL    HW115914   2.709   2.890   6.717
 5005SOL    HW215915   2.718   2.842   6.873
 5006SOL     OW15916   5.029   1.863   1.984
 5006SOL    HW115917   4.933   1.887   1.998
 5006SOL    HW215918   5.077   1.938   1.939
 5007SOL     OW15919   5.766   6.240   1.850
 5007SOL    HW115920   5.751   6.217   1.754
 5007SOL    HW215921   5.774   6.155   1.903
 5008SOL     OW15922   5.584   0.654   2.598
 5008SOL    HW115923   5.507   0.671   2.537
 5008SOL    HW215924   5.550   0.625   2.688
 5009SOL     OW15925   6.519   2.330   0.113
 5009SOL    HW115926   6.515   2.423   0.150
 5009SOL    HW215927   6.605   2.288   0.141
 5010SOL     OW15928   3.587   3.959   1.048
 5010SOL    HW115929   3.571   3.913   1.136
 5010SOL    HW215930   3.685   3.955   1.026
 5011SOL     OW15931   1.957   3.188   6.594
 5011SOL    HW115932   1.863   3.220   6.605
 5011SOL    HW215933   2.013   3.261   6.554
 5012SOL     OW15934   6.110   1.647   6.149
 5012SOL    HW115935   6.042   1.588   6.192
 5012SOL    HW215936   6.078   1.742   6.151
 5013SOL     OW15937   6.096   7.011   5.923
 5013SOL    HW115938   6.145   0.075   5.953
 5013SOL    HW215939   6.102   6.941   5.994
 5014SOL     OW15940   6.083   3.241   1.767
 5014SOL    HW115941   6.023   3.321   1.775
 5014SOL    HW215942   6.037   3.161   1.807
 5015SOL     OW15943   5.765   6.718   4.030
 5015SOL    HW115944   5.792   6.800   4.083
 5015SOL    HW215945   5.795   6.636   4.080
 5016SOL     OW15946   1.951   3.541   5.448
 5016SOL    HW115947   2.005   3.456   5.444
 5016SOL    HW215948   2.013   3.619   5.460
 5017SOL     OW15949   0.651   3.582   2.204
 5017SOL    HW115950   0.647   3.487   2.236
 5017SOL    HW215951   0.562   3.626   2.219
 5018SOL     OW15952   1.143   0.230   0.206
 5018SOL    HW115953   1.191   0.317   0.200
 5018SOL    HW215954   1.098   0.210   0.119
 5019SOL     OW15955   1.184   5.076   4.664
 5019SOL    HW115956   1.182   4.986   4.708
 5019SOL    HW215957   1.093   5.098   4.628
 5020SOL     OW15958   2.650   0.400   4.981
 5020SOL    HW115959   2.725   0.405   5.047
 5020SOL    HW215960   2.601   0.314   4.993
 5021SOL     OW15961   1.721   0.961   0.562
 5021SOL    HW115962   1.700   0.980   0.658
 5021SOL    HW215963   1.820   0.957   0.549
 5022SOL     OW15964   6.918   2.917   1.584
 5022SOL    HW115965   6.859   2.837   1.586
 5022SOL    HW215966   6.942   2.944   1.677
 5023SOL     OW15967   6.880   4.092   2.310
 5023SOL    HW115968   6.964   4.098   2.364
 5023SOL    HW215969   6.903   4.083   2.213
 5024SOL     OW15970   4.320   3.886   1.063
 5024SOL    HW115971   4.241   3.865   1.005
 5024SOL    HW215972   4.291   3.888   1.159
 5025SOL     OW15973   4.645   1.448   4.416
 5025SOL    HW115974   4.726   1.418   4.364
 5025SOL    HW215975   4.597   1.518   4.364
 5026SOL     OW15976   4.730   6.705   4.335
 5026SOL    HW115977   4.707   6.759   4.416
 5026SOL    HW215978   4.775   6.621   4.363
 5027SOL     OW15979   4.949   6.309   0.733
 5027SOL    HW115980   5.018   6.271   0.794
 5027SOL    HW215981   4.983   6.393   0.691
 5028SOL     OW15982   6.209   1.623   2.576
 5028SOL    HW115983   6.282   1.574   2.623
 5028SOL    HW215984   6.232   1.632   2.479
 5029SOL     OW15985   5.848   1.841   2.822
 5029SOL    HW115986   5.885   1.932   2.838
 5029SOL    HW215987   5.923   1.774   2.820
 5030SOL     OW15988   0.012   4.253   6.827
 5030SOL    HW115989   0.101   4.212   6.845
 5030SOL    HW215990   0.019   4.315   6.749
 5031SOL     OW15991   6.450   0.166   6.346
 5031SOL    HW115992   6.531   0.180   6.290
 5031SOL    HW215993   6.384   0.110   6.296
 5032SOL     OW15994   2.884   3.272   5.446
 5032SOL    HW115995   2.913   3.357   5.401
 5032SOL    HW215996   2.792   3.284   5.483
 5033SOL     OW15997   2.026   0.332   6.555
 5033SOL    HW115998   1.995   0.238   6.570
 5033SOL    HW215999   1.981   0.393   6.621
 5034SOL     OW16000   4.934   6.583   4.657
 5034SOL    HW116001   4.869   6.657   4.673
 5034SOL    HW216002   4.889   6.510   4.605
 5035SOL     OW16003   1.979   3.543   3.821
 5035SOL    HW116004   1.913   3.488   3.769
 5035SOL    HW216005   2.013   3.617   3.764
 5036SOL     OW16006   0.393   2.082   5.123
 5036SOL    HW116007   0.415   2.124   5.211
 5036SOL    HW216008   0.421   2.143   5.049
 5037SOL     OW16009   4.235   3.908   1.313
 5037SOL    HW116010   4.218   4.003   1.338
 5037SOL    HW216011   4.272   3.859   1.392
 5038SOL     OW16012   4.043   3.733   3.718
 5038SOL    HW116013   3.989   3.751   3.636
 5038SOL    HW216014   4.076   3.639   3.716
 5039SOL     OW16015   1.025   3.507   6.202
 5039SOL    HW116016   0.946   3.543   6.251
 5039SOL    HW216017   0.995   3.471   6.114
 5040SOL     OW16018   0.270   0.914   5.543
 5040SOL    HW116019   0.170   0.906   5.552
 5040SOL    HW216020   0.308   0.824   5.519
 5041SOL     OW16021   6.978   2.985   1.857
 5041SOL    HW116022   6.902   2.931   1.893
 5041SOL    HW216023   6.958   3.082   1.868
 5042SOL     OW16024   0.679   2.488   6.186
 5042SOL    HW116025   0.661   2.428   6.264
 5042SOL    HW216026   0.610   2.560   6.184
 5043SOL     OW16027   4.268   6.537   1.446
 5043SOL    HW116028   4.292   6.633   1.456
 5043SOL    HW216029   4.321   6.496   1.372
 5044SOL     OW16030   6.669   4.585   0.684
 5044SOL    HW116031   6.662   4.545   0.776
 5044SOL    HW216032   6.578   4.615   0.654
 5045SOL     OW16033   6.393   3.042   6.638
 5045SOL    HW116034   6.467   3.053   6.571
 5045SOL    HW216035   6.402   2.953   6.683
 5046SOL     OW16036   3.540   3.478   2.976
 5046SOL    HW116037   3.505   3.464   3.069
 5046SOL    HW216038   3.525   3.396   2.921
 5047SOL     OW16039   1.183   3.986   3.729
 5047SOL    HW116040   1.124   3.912   3.697
 5047SOL    HW216041   1.194   3.978   3.828
 5048SOL     OW16042   1.817   1.027   6.035
 5048SOL    HW116043   1.870   1.101   6.075
 5048SOL    HW216044   1.877   0.970   5.978
 5049SOL     OW16045   4.941   1.732   6.911
 5049SOL    HW116046   4.908   1.638   6.914
 5049SOL    HW216047   4.865   1.795   6.929
 5050SOL     OW16048   1.510   0.129   0.851
 5050SOL    HW116049   1.592   0.113   0.906
 5050SOL    HW216050   1.535   0.181   0.769
 5051SOL     OW16051   4.734   5.419   1.279
 5051SOL    HW116052   4.652   5.405   1.333
 5051SOL    HW216053   4.773   5.330   1.253
 5052SOL     OW16054   2.642   1.192   5.066
 5052SOL    HW116055   2.634   1.190   4.966
 5052SOL    HW216056   2.559   1.155   5.107
 5053SOL     OW16057   0.126   0.228   1.781
 5053SOL    HW116058   0.153   0.163   1.709
 5053SOL    HW216059   0.041   0.274   1.754
 5054SOL     OW16060   3.712   5.023   4.060
 5054SOL    HW116061   3.666   4.979   3.983
 5054SOL    HW216062   3.781   4.961   4.098
 5055SOL     OW16063   0.096   3.547   6.499
 5055SOL    HW116064   0.188   3.555   6.537
 5055SOL    HW216065   0.099   3.491   6.416
 5056SOL     OW16066   5.388   4.270   4.296
 5056SOL    HW116067   5.445   4.280   4.214
 5056SOL    HW216068   5.305   4.326   4.287
 5057SOL     OW16069   0.928   6.059   2.089
 5057SOL    HW116070   0.938   5.974   2.140
 5057SOL    HW216071   0.863   6.046   2.014
 5058SOL     OW16072   2.888   5.699   5.219
 5058SOL    HW116073   2.812   5.634   5.221
 5058SOL    HW216074   2.972   5.653   5.246
 5059SOL     OW16075   0.210   0.164   2.173
 5059SOL    HW116076   0.300   0.153   2.131
 5059SOL    HW216077   0.143   0.109   2.124
 5060SOL     OW16078   6.471   1.948   5.750
 5060SOL    HW116079   6.380   1.972   5.786
 5060SOL    HW216080   6.496   2.013   5.678
 5061SOL     OW16081   5.631   4.254   0.245
 5061SOL    HW116082   5.615   4.338   0.195
 5061SOL    HW216083   5.679   4.274   0.330
 5062SOL     OW16084   0.269   0.397   1.164
 5062SOL    HW116085   0.189   0.452   1.190
 5062SOL    HW216086   0.296   0.338   1.240
 5063SOL     OW16087   1.351   6.107   1.318
 5063SOL    HW116088   1.338   6.016   1.357
 5063SOL    HW216089   1.301   6.174   1.372
 5064SOL     OW16090   4.910   3.433   0.108
 5064SOL    HW116091   4.832   3.471   0.158
 5064SOL    HW216092   4.921   3.482   0.021
 5065SOL     OW16093   2.269   6.052   5.530
 5065SOL    HW116094   2.298   6.032   5.436
 5065SOL    HW216095   2.347   6.043   5.591
 5066SOL     OW16096   4.932   5.204   1.176
 5066SOL    HW116097   4.868   5.127   1.177
 5066SOL    HW216098   5.005   5.188   1.243
 5067SOL     OW16099   4.931   1.340   6.726
 5067SOL    HW116100   4.886   1.395   6.796
 5067SOL    HW216101   5.010   1.293   6.765
 5068SOL     OW16102   2.827   5.214   1.773
 5068SOL    HW116103   2.773   5.210   1.688
 5068SOL    HW216104   2.924   5.205   1.751
 5069SOL     OW16105   0.376   4.813   3.126
 5069SOL    HW116106   0.277   4.801   3.113
 5069SOL    HW216107   0.393   4.845   3.219
 5070SOL     OW16108   4.850   3.248   4.378
 5070SOL    HW116109   4.866   3.154   4.349
 5070SOL    HW216110   4.757   3.275   4.353
 5071SOL     OW16111   4.276   0.882   6.661
 5071SOL    HW116112   4.240   0.974   6.645
 5071SOL    HW216113   4.307   0.843   6.574
 5072SOL     OW16114   1.330   4.071   1.107
 5072SOL    HW116115   1.365   3.984   1.140
 5072SOL    HW216116   1.282   4.118   1.181
 5073SOL     OW16117   4.244   1.670   3.704
 5073SOL    HW116118   4.162   1.688   3.649
 5073SOL    HW216119   4.217   1.637   3.794
 5074SOL     OW16120   3.217   4.133   5.787
 5074SOL    HW116121   3.126   4.159   5.819
 5074SOL    HW216122   3.261   4.212   5.744
 5075SOL     OW16123   6.616   6.075   4.307
 5075SOL    HW116124   6.618   6.172   4.286
 5075SOL    HW216125   6.636   6.062   4.404
 5076SOL     OW16126   3.378   0.137   1.079
 5076SOL    HW116127   3.326   0.209   1.125
 5076SOL    HW216128   3.390   0.060   1.142
 5077SOL     OW16129   0.554   2.231   2.311
 5077SOL    HW116130   0.489   2.220   2.387
 5077SOL    HW216131   0.589   2.324   2.311
 5078SOL     OW16132   1.243   1.102   3.971
 5078SOL    HW116133   1.230   1.003   3.975
 5078SOL    HW216134   1.155   1.148   3.974
 5079SOL     OW16135   4.310   4.987   4.971
 5079SOL    HW116136   4.220   5.014   4.935
 5079SOL    HW216137   4.298   4.912   5.036
 5080SOL     OW16138   6.100   6.527   6.190
 5080SOL    HW116139   6.042   6.451   6.220
 5080SOL    HW216140   6.092   6.539   6.092
 5081SOL     OW16141   3.142   3.668   3.015
 5081SOL    HW116142   3.222   3.711   3.056
 5081SOL    HW216143   3.067   3.667   3.081
 5082SOL     OW16144   6.467   6.617   5.253
 5082SOL    HW116145   6.434   6.632   5.346
 5082SOL    HW216146   6.390   6.627   5.189
 5083SOL     OW16147   1.552   5.904   1.612
 5083SOL    HW116148   1.650   5.886   1.604
 5083SOL    HW216149   1.512   5.843   1.681
 5084SOL     OW16150   2.249   6.150   2.799
 5084SOL    HW116151   2.200   6.160   2.886
 5084SOL    HW216152   2.184   6.128   2.726
 5085SOL     OW16153   6.454   3.380   5.847
 5085SOL    HW116154   6.482   3.349   5.756
 5085SOL    HW216155   6.462   3.305   5.912
 5086SOL     OW16156   6.615   5.263   3.579
 5086SOL    HW116157   6.518   5.249   3.601
 5086SOL    HW216158   6.623   5.317   3.496
 5087SOL     OW16159   0.234   6.011   5.386
 5087SOL    HW116160   0.307   5.950   5.417
 5087SOL    HW216161   0.203   5.983   5.295
 5088SOL     OW16162   5.829   0.185   6.882
 5088SOL    HW116163   5.787   0.125   6.950
 5088SOL    HW216164   5.923   0.156   6.866
 5089SOL     OW16165   5.119   2.704   3.785
 5089SOL    HW116166   5.022   2.721   3.805
 5089SOL    HW216167   5.169   2.791   3.787
 5090SOL     OW16168   1.410   4.613   0.738
 5090SOL    HW116169   1.359   4.548   0.681
 5090SOL    HW216170   1.360   4.700   0.742
 5091SOL     OW16171   1.557   5.963   2.734
 5091SOL    HW116172   1.534   6.047   2.782
 5091SOL    HW216173   1.507   5.886   2.775
 5092SOL     OW16174   3.751   2.717   1.649
 5092SOL    HW116175   3.664   2.735   1.603
 5092SOL    HW216176   3.753   2.767   1.736
 5093SOL     OW16177   0.886   2.129   1.094
 5093SOL    HW116178   0.852   2.054   1.036
 5093SOL    HW216179   0.840   2.127   1.182
 5094SOL     OW16180   6.623   0.613   6.600
 5094SOL    HW116181   6.565   0.538   6.568
 5094SOL    HW216182   6.693   0.632   6.532
 5095SOL     OW16183   3.059   0.026   5.204
 5095SOL    HW116184   3.001   0.044   5.125
 5095SOL    HW216185   3.152   0.005   5.173
 5096SOL     OW16186   4.334   5.086   2.401
 5096SOL    HW116187   4.383   5.125   2.323
 5096SOL    HW216188   4.235   5.094   2.386
 5097SOL     OW16189   0.608   0.843   6.765
 5097SOL    HW116190   0.617   0.801   6.856
 5097SOL    HW216191   0.699   0.860   6.727
 5098SOL     OW16192   6.914   2.733   2.526
 5098SOL    HW116193   6.952   2.654   2.478
 5098SOL    HW216194   6.982   2.768   2.590
 5099SOL     OW16195   0.978   6.680   4.644
 5099SOL    HW116196   1.070   6.645   4.660
 5099SOL    HW216197   0.937   6.632   4.567
 5100SOL     OW16198   5.199   6.155   6.532
 5100SOL    HW116199   5.161   6.067   6.503
 5100SOL    HW216200   5.145   6.190   6.609
 5101SOL     OW16201   3.975   5.897   0.247
 5101SOL    HW116202   4.058   5.935   0.207
 5101SOL    HW216203   3.897   5.955   0.226
 5102SOL     OW16204   3.526   6.151   4.888
 5102SOL    HW116205   3.524   6.091   4.968
 5102SOL    HW216206   3.480   6.107   4.811
 5103SOL     OW16207   1.259   0.622   4.341
 5103SOL    HW116208   1.293   0.627   4.247
 5103SOL    HW216209   1.247   0.715   4.377
 5104SOL     OW16210   1.249   6.520   1.037
 5104SOL    HW116211   1.318   6.493   1.104
 5104SOL    HW216212   1.161   6.533   1.083
 5105SOL     OW16213   2.342   3.123   6.454
 5105SOL    HW116214   2.371   3.125   6.358
 5105SOL    HW216215   2.343   3.217   6.490
 5106SOL     OW16216   3.509   0.480   2.302
 5106SOL    HW116217   3.499   0.394   2.251
 5106SOL    HW216218   3.440   0.484   2.375
 5107SOL     OW16219   1.258   0.067   5.878
 5107SOL    HW116220   1.284   7.004   5.826
 5107SOL    HW216221   1.167   0.053   5.918
 5108SOL     OW16222   2.948   3.760   3.739
 5108SOL    HW116223   2.929   3.673   3.784
 5108SOL    HW216224   2.927   3.753   3.641
 5109SOL     OW16225   0.123   1.246   0.938
 5109SOL    HW116226   0.105   1.181   1.012
 5109SOL    HW216227   0.138   1.197   0.853
 5110SOL     OW16228   1.763   6.118   5.691
 5110SOL    HW116229   1.832   6.084   5.628
 5110SOL    HW216230   1.799   6.197   5.740
 5111SOL     OW16231   1.711   1.022   6.942
 5111SOL    HW116232   1.710   0.941   6.884
 5111SOL    HW216233   1.672   1.099   6.892
 5112SOL     OW16234   0.627   0.146   3.611
 5112SOL    HW116235   0.576   0.068   3.574
 5112SOL    HW216236   0.567   0.224   3.622
 5113SOL     OW16237   0.743   0.070   6.815
 5113SOL    HW116238   0.806   0.094   6.741
 5113SOL    HW216239   0.792   0.021   6.887
 5114SOL     OW16240   3.795   5.242   6.956
 5114SOL    HW116241   3.807   5.163   7.016
 5114SOL    HW216242   3.811   5.326   7.007
 5115SOL     OW16243   1.988   4.004   5.015
 5115SOL    HW116244   1.945   3.923   4.976
 5115SOL    HW216245   2.087   3.989   5.023
 5116SOL     OW16246   6.989   3.362   1.299
 5116SOL    HW116247   6.981   3.423   1.378
 5116SOL    HW216248   0.011   3.275   1.329
 5117SOL     OW16249   2.532   4.585   3.844
 5117SOL    HW116250   2.494   4.517   3.781
 5117SOL    HW216251   2.521   4.552   3.938
 5118SOL     OW16252   4.601   0.033   1.607
 5118SOL    HW116253   4.584   0.007   1.512
 5118SOL    HW216254   4.622   0.131   1.611
 5119SOL     OW16255   6.463   6.939   2.637
 5119SOL    HW116256   6.467   6.953   2.736
 5119SOL    HW216257   6.515   6.857   2.613
 5120SOL     OW16258   4.178   1.316   2.630
 5120SOL    HW116259   4.084   1.313   2.662
 5120SOL    HW216260   4.200   1.232   2.581
 5121SOL     OW16261   1.347   3.476   4.581
 5121SOL    HW116262   1.304   3.546   4.638
 5121SOL    HW216263   1.278   3.409   4.552
 5122SOL     OW16264   2.083   5.674   3.382
 5122SOL    HW116265   2.003   5.699   3.436
 5122SOL    HW216266   2.077   5.716   3.292
 5123SOL     OW16267   6.119   4.219   1.822
 5123SOL    HW116268   6.190   4.150   1.812
 5123SOL    HW216269   6.029   4.177   1.809
 5124SOL     OW16270   2.924   5.986   0.489
 5124SOL    HW116271   2.950   5.889   0.490
 5124SOL    HW216272   2.825   5.994   0.495
 5125SOL     OW16273   6.610   2.377   5.874
 5125SOL    HW116274   6.591   2.278   5.871
 5125SOL    HW216275   6.629   2.409   5.781
 5126SOL     OW16276   4.532   2.619   6.473
 5126SOL    HW116277   4.562   2.568   6.391
 5126SOL    HW216278   4.608   2.623   6.538
 5127SOL     OW16279   5.247   3.194   6.691
 5127SOL    HW116280   5.323   3.255   6.712
 5127SOL    HW216281   5.203   3.165   6.776
 5128SOL     OW16282   0.397   0.124   0.164
 5128SOL    HW116283   0.444   0.148   0.079
 5128SOL    HW216284   0.355   0.033   0.154
 5129SOL     OW16285   4.306   2.283   2.352
 5129SOL    HW116286   4.290   2.294   2.450
 5129SOL    HW216287   4.373   2.352   2.321
 5130SOL     OW16288   0.905   6.616   5.331
 5130SOL    HW116289   0.913   6.581   5.424
 5130SOL    HW216290   0.808   6.622   5.306
 5131SOL     OW16291   3.814   5.021   3.607
 5131SOL    HW116292   3.836   5.099   3.667
 5131SOL    HW216293   3.882   4.949   3.621
 5132SOL     OW16294   3.891   1.452   6.844
 5132SOL    HW116295   3.882   1.473   6.746
 5132SOL    HW216296   3.872   1.355   6.859
 5133SOL     OW16297   4.923   4.765   6.903
 5133SOL    HW116298   4.856   4.780   6.975
 5133SOL    HW216299   4.876   4.748   6.816
 5134SOL     OW16300   5.796   6.082   0.533
 5134SOL    HW116301   5.794   6.104   0.435
 5134SOL    HW216302   5.830   6.161   0.584
 5135SOL     OW16303   0.084   2.850   2.682
 5135SOL    HW116304   0.052   2.889   2.768
 5135SOL    HW216305   0.178   2.878   2.666
 5136SOL     OW16306   1.179   1.423   5.897
 5136SOL    HW116307   1.250   1.363   5.860
 5136SOL    HW216308   1.089   1.392   5.866
 5137SOL     OW16309   5.520   0.301   3.539
 5137SOL    HW116310   5.422   0.319   3.526
 5137SOL    HW216311   5.546   0.221   3.485
 5138SOL     OW16312   2.954   3.151   2.673
 5138SOL    HW116313   3.007   3.081   2.720
 5138SOL    HW216314   2.941   3.125   2.577
 5139SOL     OW16315   2.825   0.550   5.989
 5139SOL    HW116316   2.751   0.532   5.924
 5139SOL    HW216317   2.884   0.622   5.954
 5140SOL     OW16318   3.292   2.913   6.178
 5140SOL    HW116319   3.262   2.954   6.264
 5140SOL    HW216320   3.347   2.832   6.197
 5141SOL     OW16321   0.094   2.842   1.405
 5141SOL    HW116322   0.048   2.771   1.350
 5141SOL    HW216323   0.029   2.879   1.472
 5142SOL     OW16324   0.531   6.949   2.287
 5142SOL    HW116325   0.516   7.017   2.215
 5142SOL    HW216326   0.444   6.927   2.331
 5143SOL     OW16327   0.313   6.373   2.864
 5143SOL    HW116328   0.297   6.383   2.962
 5143SOL    HW216329   0.379   6.442   2.834
 5144SOL     OW16330   2.260   2.878   5.304
 5144SOL    HW116331   2.217   2.825   5.230
 5144SOL    HW216332   2.325   2.943   5.265
 5145SOL     OW16333   2.704   5.701   6.027
 5145SOL    HW116334   2.638   5.775   6.042
 5145SOL    HW216335   2.667   5.635   5.962
 5146SOL     OW16336   5.801   6.279   6.762
 5146SOL    HW116337   5.725   6.341   6.781
 5146SOL    HW216338   5.767   6.196   6.719
 5147SOL     OW16339   4.758   2.234   3.416
 5147SOL    HW116340   4.695   2.310   3.398
 5147SOL    HW216341   4.753   2.209   3.512
 5148SOL     OW16342   0.427   0.608   6.714
 5148SOL    HW116343   0.486   0.689   6.719
 5148SOL    HW216344   0.335   0.635   6.688
 5149SOL     OW16345   3.933   5.775   4.359
 5149SOL    HW116346   3.897   5.804   4.271
 5149SOL    HW216347   4.030   5.799   4.365
 5150SOL     OW16348   6.203   6.855   3.528
 5150SOL    HW116349   6.237   6.856   3.622
 5150SOL    HW216350   6.270   6.810   3.469
 5151SOL     OW16351   5.878   6.026   2.260
 5151SOL    HW116352   5.870   6.116   2.304
 5151SOL    HW216353   5.885   5.955   2.329
 5152SOL     OW16354   2.221   1.713   0.033
 5152SOL    HW116355   2.262   1.629   7.015
 5152SOL    HW216356   2.123   1.698   0.048
 5153SOL     OW16357   1.089   1.791   0.518
 5153SOL    HW116358   1.034   1.834   0.447
 5153SOL    HW216359   1.185   1.817   0.507
 5154SOL     OW16360   0.357   2.827   1.025
 5154SOL    HW116361   0.266   2.811   0.985
 5154SOL    HW216362   0.357   2.797   1.120
 5155SOL     OW16363   1.665   1.539   0.119
 5155SOL    HW116364   1.693   1.632   0.141
 5155SOL    HW216365   1.632   1.494   0.202
 5156SOL     OW16366   6.065   6.117   5.610
 5156SOL    HW116367   6.089   6.179   5.536
 5156SOL    HW216368   5.970   6.134   5.639
 5157SOL     OW16369   3.163   0.180   1.436
 5157SOL    HW116370   3.186   0.196   1.340
 5157SOL    HW216371   3.157   0.267   1.484
 5158SOL     OW16372   1.304   2.174   2.080
 5158SOL    HW116373   1.212   2.212   2.073
 5158SOL    HW216374   1.371   2.244   2.055
 5159SOL     OW16375   6.015   3.292   5.659
 5159SOL    HW116376   6.105   3.259   5.687
 5159SOL    HW216377   6.021   3.389   5.637
 5160SOL     OW16378   6.315   6.636   3.083
 5160SOL    HW116379   6.257   6.662   3.005
 5160SOL    HW216380   6.411   6.651   3.059
 5161SOL     OW16381   1.384   2.882   6.982
 5161SOL    HW116382   1.407   2.812   0.032
 5161SOL    HW216383   1.361   2.968   0.010
 5162SOL     OW16384   0.093   0.057   4.809
 5162SOL    HW116385   0.022   0.075   4.878
 5162SOL    HW216386   0.170   0.120   4.823
 5163SOL     OW16387   3.711   0.180   1.909
 5163SOL    HW116388   3.781   0.250   1.898
 5163SOL    HW216389   3.629   0.206   1.858
 5164SOL     OW16390   2.954   3.875   0.512
 5164SOL    HW116391   3.048   3.897   0.539
 5164SOL    HW216392   2.898   3.861   0.593
 5165SOL     OW16393   1.399   4.098   5.565
 5165SOL    HW116394   1.478   4.145   5.526
 5165SOL    HW216395   1.385   4.011   5.517
 5166SOL     OW16396   0.894   4.290   0.566
 5166SOL    HW116397   0.830   4.262   0.638
 5166SOL    HW216398   0.984   4.251   0.584
 5167SOL     OW16399   5.568   3.089   5.462
 5167SOL    HW116400   5.498   3.074   5.531
 5167SOL    HW216401   5.641   3.146   5.501
 5168SOL     OW16402   4.304   2.401   2.906
 5168SOL    HW116403   4.210   2.429   2.922
 5168SOL    HW216404   4.311   2.301   2.912
 5169SOL     OW16405   4.969   5.683   4.408
 5169SOL    HW116406   4.907   5.628   4.464
 5169SOL    HW216407   4.979   5.640   4.318
 5170SOL     OW16408   2.022   3.939   6.205
 5170SOL    HW116409   1.924   3.940   6.185
 5170SOL    HW216410   2.046   4.022   6.255
 5171SOL     OW16411   1.825   6.619   6.017
 5171SOL    HW116412   1.827   6.710   6.057
 5171SOL    HW216413   1.868   6.554   6.080
 5172SOL     OW16414   5.752   5.715   5.415
 5172SOL    HW116415   5.792   5.635   5.458
 5172SOL    HW216416   5.701   5.767   5.483
 5173SOL     OW16417   4.484   5.666   5.370
 5173SOL    HW116418   4.442   5.585   5.330
 5173SOL    HW216419   4.552   5.704   5.307
 5174SOL     OW16420   2.128   6.752   3.344
 5174SOL    HW116421   2.214   6.741   3.296
 5174SOL    HW216422   2.109   6.669   3.398
 5175SOL     OW16423   2.851   3.146   6.743
 5175SOL    HW116424   2.841   3.220   6.809
 5175SOL    HW216425   2.808   3.063   6.779
 5176SOL     OW16426   6.505   5.927   6.716
 5176SOL    HW116427   6.466   5.876   6.793
 5176SOL    HW216428   6.491   6.025   6.731
 5177SOL     OW16429   6.269   6.825   0.478
 5177SOL    HW116430   6.279   6.778   0.565
 5177SOL    HW216431   6.359   6.856   0.446
 5178SOL     OW16432   0.780   4.339   1.356
 5178SOL    HW116433   0.870   4.321   1.394
 5178SOL    HW216434   0.717   4.365   1.430
 5179SOL     OW16435   4.665   5.891   3.271
 5179SOL    HW116436   4.590   5.844   3.224
 5179SOL    HW216437   4.651   5.886   3.370
 5180SOL     OW16438   1.670   4.473   2.491
 5180SOL    HW116439   1.765   4.503   2.505
 5180SOL    HW216440   1.664   4.375   2.508
 5181SOL     OW16441   6.312   1.109   5.501
 5181SOL    HW116442   6.351   1.045   5.436
 5181SOL    HW216443   6.333   1.079   5.594
 5182SOL     OW16444   2.325   6.425   2.807
 5182SOL    HW116445   2.401   6.434   2.743
 5182SOL    HW216446   2.290   6.331   2.805
 5183SOL     OW16447   4.103   2.157   3.956
 5183SOL    HW116448   4.138   2.236   3.906
 5183SOL    HW216449   4.161   2.139   4.035
 5184SOL     OW16450   1.795   1.227   3.185
 5184SOL    HW116451   1.713   1.173   3.204
 5184SOL    HW216452   1.851   1.179   3.118
 5185SOL     OW16453   6.954   0.535   2.731
 5185SOL    HW116454   6.900   0.461   2.692
 5185SOL    HW216455   0.020   0.546   2.678
 5186SOL     OW16456   6.556   3.662   6.559
 5186SOL    HW116457   6.519   3.670   6.651
 5186SOL    HW216458   6.561   3.752   6.517
 5187SOL     OW16459   1.448   4.679   5.006
 5187SOL    HW116460   1.428   4.769   5.045
 5187SOL    HW216461   1.515   4.632   5.064
 5188SOL     OW16462   5.982   0.523   2.402
 5188SOL    HW116463   5.965   0.456   2.474
 5188SOL    HW216464   6.081   0.540   2.396
 5189SOL     OW16465   4.593   6.380   6.819
 5189SOL    HW116466   4.541   6.323   6.881
 5189SOL    HW216467   4.569   6.476   6.834
 5190SOL     OW16468   1.835   4.505   6.977
 5190SOL    HW116469   1.790   4.543   0.039
 5190SOL    HW216470   1.852   4.577   6.910
 5191SOL     OW16471   2.509   4.564   2.119
 5191SOL    HW116472   2.597   4.519   2.104
 5191SOL    HW216473   2.518   4.662   2.097
 5192SOL     OW16474   1.016   4.754   2.334
 5192SOL    HW116475   0.979   4.846   2.350
 5192SOL    HW216476   1.082   4.732   2.406
 5193SOL     OW16477   5.374   0.828   5.734
 5193SOL    HW116478   5.334   0.918   5.749
 5193SOL    HW216479   5.473   0.837   5.720
 5194SOL     OW16480   4.761   1.184   5.617
 5194SOL    HW116481   4.666   1.190   5.588
 5194SOL    HW216482   4.799   1.276   5.625
 5195SOL     OW16483   0.455   0.710   5.482
 5195SOL    HW116484   0.546   0.692   5.446
 5195SOL    HW216485   0.387   0.663   5.426
 5196SOL     OW16486   5.598   6.595   3.611
 5196SOL    HW116487   5.684   6.644   3.595
 5196SOL    HW216488   5.562   6.620   3.701
 5197SOL     OW16489   0.833   2.814   4.579
 5197SOL    HW116490   0.782   2.886   4.627
 5197SOL    HW216491   0.795   2.803   4.487
 5198SOL     OW16492   6.003   5.232   3.106
 5198SOL    HW116493   5.951   5.268   3.028
 5198SOL    HW216494   6.075   5.296   3.131
 5199SOL     OW16495   0.122   4.802   0.984
 5199SOL    HW116496   0.200   4.830   0.927
 5199SOL    HW216497   0.063   4.881   1.000
 5200SOL     OW16498   6.897   3.588   5.018
 5200SOL    HW116499   6.809   3.595   5.066
 5200SOL    HW216500   6.899   3.653   4.942
 5201SOL     OW16501   0.164   5.593   4.421
 5201SOL    HW116502   0.184   5.566   4.326
 5201SOL    HW216503   0.179   5.691   4.431
 5202SOL     OW16504   0.988   4.784   1.437
 5202SOL    HW116505   0.970   4.692   1.472
 5202SOL    HW216506   0.902   4.823   1.402
 5203SOL     OW16507   0.208   2.704   0.017
 5203SOL    HW116508   0.181   2.642   6.962
 5203SOL    HW216509   0.253   2.651   0.090
 5204SOL     OW16510   4.758   4.713   6.709
 5204SOL    HW116511   4.708   4.794   6.741
 5204SOL    HW216512   4.719   4.682   6.623
 5205SOL     OW16513   1.071   0.036   0.368
 5205SOL    HW116514   1.106   0.110   0.310
 5205SOL    HW216515   1.144   0.002   0.427
 5206SOL     OW16516   0.373   4.157   5.039
 5206SOL    HW116517   0.448   4.214   5.005
 5206SOL    HW216518   0.307   4.215   5.088
 5207SOL     OW16519   1.976   4.555   3.639
 5207SOL    HW116520   1.938   4.630   3.585
 5207SOL    HW216521   2.035   4.592   3.711
 5208SOL     OW16522   4.940   0.989   0.084
 5208SOL    HW116523   4.970   1.000   0.178
 5208SOL    HW216524   4.857   0.934   0.081
 5209SOL     OW16525   5.746   5.556   3.044
 5209SOL    HW116526   5.772   5.521   3.134
 5209SOL    HW216527   5.747   5.656   3.046
 5210SOL     OW16528   4.771   4.135   3.016
 5210SOL    HW116529   4.765   4.080   3.099
 5210SOL    HW216530   4.733   4.226   3.033
 5211SOL     OW16531   3.528   3.789   2.292
 5211SOL    HW116532   3.476   3.706   2.313
 5211SOL    HW216533   3.600   3.801   2.360
 5212SOL     OW16534   1.032   1.027   0.195
 5212SOL    HW116535   1.123   1.065   0.205
 5212SOL    HW216536   1.014   1.008   0.098
 5213SOL     OW16537   4.518   2.442   6.720
 5213SOL    HW116538   4.570   2.527   6.712
 5213SOL    HW216539   4.427   2.454   6.681
 5214SOL     OW16540   5.835   1.452   0.081
 5214SOL    HW116541   5.920   1.503   0.088
 5214SOL    HW216542   5.852   1.355   0.099
 5215SOL     OW16543   5.804   5.265   2.615
 5215SOL    HW116544   5.877   5.215   2.568
 5215SOL    HW216545   5.716   5.236   2.580
 5216SOL     OW16546   4.646   5.716   1.362
 5216SOL    HW116547   4.672   5.749   1.272
 5216SOL    HW216548   4.587   5.783   1.407
 5217SOL     OW16549   2.907   4.903   3.601
 5217SOL    HW116550   2.828   4.854   3.564
 5217SOL    HW216551   2.903   4.903   3.701
 5218SOL     OW16552   1.977   6.802   4.623
 5218SOL    HW116553   1.986   6.733   4.551
 5218SOL    HW216554   1.887   6.845   4.618
 5219SOL     OW16555   2.799   5.820   0.919
 5219SOL    HW116556   2.774   5.809   1.015
 5219SOL    HW216557   2.745   5.893   0.879
 5220SOL     OW16558   1.132   6.750   2.220
 5220SOL    HW116559   1.182   6.770   2.304
 5220SOL    HW216560   1.182   6.682   2.167
 5221SOL     OW16561   4.788   1.922   5.103
 5221SOL    HW116562   4.694   1.957   5.104
 5221SOL    HW216563   4.833   1.944   5.189
 5222SOL     OW16564   1.063   6.725   2.724
 5222SOL    HW116565   0.967   6.736   2.698
 5222SOL    HW216566   1.067   6.678   2.813
 5223SOL     OW16567   5.094   6.865   0.826
 5223SOL    HW116568   5.006   6.912   0.835
 5223SOL    HW216569   5.155   6.919   0.767
 5224SOL     OW16570   5.172   1.228   3.078
 5224SOL    HW116571   5.108   1.238   3.002
 5224SOL    HW216572   5.122   1.204   3.161
 5225SOL     OW16573   6.177   6.484   5.581
 5225SOL    HW116574   6.151   6.577   5.555
 5225SOL    HW216575   6.151   6.420   5.508
 5226SOL     OW16576   1.994   6.387   3.866
 5226SOL    HW116577   2.089   6.359   3.881
 5226SOL    HW216578   1.954   6.331   3.794
 5227SOL     OW16579   5.380   3.541   3.590
 5227SOL    HW116580   5.467   3.537   3.541
 5227SOL    HW216581   5.397   3.539   3.688
 5228SOL     OW16582   5.184   0.421   1.302
 5228SOL    HW116583   5.101   0.460   1.262
 5228SOL    HW216584   5.165   0.329   1.336
 5229SOL     OW16585   0.814   4.420   4.050
 5229SOL    HW116586   0.891   4.416   4.114
 5229SOL    HW216587   0.799   4.330   4.010
 5230SOL     OW16588   1.369   6.489   6.350
 5230SOL    HW116589   1.353   6.439   6.265
 5230SOL    HW216590   1.297   6.557   6.363
 5231SOL     OW16591   3.627   3.089   3.732
 5231SOL    HW116592   3.591   3.179   3.757
 5231SOL    HW216593   3.709   3.069   3.786
 5232SOL     OW16594   5.203   2.991   5.248
 5232SOL    HW116595   5.149   3.060   5.297
 5232SOL    HW216596   5.152   2.959   5.168
 5233SOL     OW16597   0.407   0.734   2.911
 5233SOL    HW116598   0.322   0.772   2.950
 5233SOL    HW216599   0.385   0.677   2.832
 5234SOL     OW16600   4.371   6.014   1.271
 5234SOL    HW116601   4.395   6.076   1.346
 5234SOL    HW216602   4.272   6.016   1.257
 5235SOL     OW16603   0.859   3.710   1.016
 5235SOL    HW116604   0.948   3.702   1.060
 5235SOL    HW216605   0.787   3.689   1.082
 5236SOL     OW16606   5.209   3.101   1.206
 5236SOL    HW116607   5.170   3.015   1.174
 5236SOL    HW216608   5.186   3.114   1.303
 5237SOL     OW16609   2.074   1.908   4.343
 5237SOL    HW116610   2.164   1.949   4.324
 5237SOL    HW216611   2.085   1.810   4.357
 5238SOL     OW16612   1.733   4.061   1.084
 5238SOL    HW116613   1.828   4.074   1.112
 5238SOL    HW216614   1.700   4.145   1.040
 5239SOL     OW16615   3.151   3.424   5.207
 5239SOL    HW116616   3.112   3.387   5.291
 5239SOL    HW216617   3.160   3.350   5.140
 5240SOL     OW16618   2.622   1.773   4.972
 5240SOL    HW116619   2.549   1.705   4.973
 5240SOL    HW216620   2.584   1.862   4.946
 5241SOL     OW16621   3.070   5.597   5.708
 5241SOL    HW116622   3.018   5.663   5.762
 5241SOL    HW216623   3.164   5.593   5.740
 5242SOL     OW16624   4.398   0.896   6.160
 5242SOL    HW116625   4.351   0.859   6.079
 5242SOL    HW216626   4.334   0.901   6.236
 5243SOL     OW16627   0.602   3.903   0.100
 5243SOL    HW116628   0.678   3.839   0.113
 5243SOL    HW216629   0.631   3.995   0.125
 5244SOL     OW16630   6.007   3.662   6.705
 5244SOL    HW116631   5.926   3.681   6.650
 5244SOL    HW216632   6.052   3.580   6.670
 5245SOL     OW16633   4.688   4.238   6.908
 5245SOL    HW116634   4.770   4.192   6.940
 5245SOL    HW216635   4.619   4.170   6.883
 5246SOL     OW16636   0.882   3.518   2.849
 5246SOL    HW116637   0.854   3.446   2.786
 5246SOL    HW216638   0.956   3.484   2.907
 5247SOL     OW16639   0.384   5.294   1.124
 5247SOL    HW116640   0.472   5.248   1.140
 5247SOL    HW216641   0.391   5.351   1.043
 5248SOL     OW16642   4.311   0.185   6.797
 5248SOL    HW116643   4.244   0.111   6.793
 5248SOL    HW216644   4.284   0.251   6.867
 5249SOL     OW16645   1.665   5.412   5.347
 5249SOL    HW116646   1.708   5.328   5.380
 5249SOL    HW216647   1.574   5.421   5.387
 5250SOL     OW16648   0.446   1.394   5.664
 5250SOL    HW116649   0.371   1.355   5.612
 5250SOL    HW216650   0.427   1.491   5.681
 5251SOL     OW16651   0.406   2.954   1.423
 5251SOL    HW116652   0.415   2.863   1.383
 5251SOL    HW216653   0.310   2.972   1.444
 5252SOL     OW16654   4.123   6.198   0.468
 5252SOL    HW116655   4.159   6.247   0.388
 5252SOL    HW216656   4.152   6.246   0.551
 5253SOL     OW16657   6.015   2.767   3.731
 5253SOL    HW116658   5.921   2.758   3.700
 5253SOL    HW216659   6.045   2.862   3.722
 5254SOL     OW16660   4.364   1.048   3.988
 5254SOL    HW116661   4.335   1.009   4.075
 5254SOL    HW216662   4.463   1.037   3.978
 5255SOL     OW16663   3.413   6.482   4.392
 5255SOL    HW116664   3.342   6.514   4.330
 5255SOL    HW216665   3.372   6.452   4.478
 5256SOL     OW16666   5.722   6.739   2.768
 5256SOL    HW116667   5.797   6.764   2.706
 5256SOL    HW216668   5.731   6.790   2.853
 5257SOL     OW16669   3.328   1.217   2.358
 5257SOL    HW116670   3.385   1.299   2.348
 5257SOL    HW216671   3.233   1.239   2.335
 5258SOL     OW16672   6.042   2.431   2.070
 5258SOL    HW116673   6.069   2.463   1.979
 5258SOL    HW216674   5.960   2.375   2.063
 5259SOL     OW16675   5.277   4.208   2.143
 5259SOL    HW116676   5.299   4.249   2.231
 5259SOL    HW216677   5.186   4.240   2.114
 5260SOL     OW16678   5.289   3.254   1.680
 5260SOL    HW116679   5.318   3.350   1.676
 5260SOL    HW216680   5.322   3.206   1.600
 5261SOL     OW16681   1.935   2.451   4.434
 5261SOL    HW116682   1.922   2.457   4.533
 5261SOL    HW216683   1.856   2.406   4.392
 5262SOL     OW16684   2.544   0.527   2.126
 5262SOL    HW116685   2.547   0.613   2.073
 5262SOL    HW216686   2.452   0.489   2.123
 5263SOL     OW16687   0.785   6.608   0.827
 5263SOL    HW116688   0.880   6.619   0.798
 5263SOL    HW216689   0.769   6.514   0.854
 5264SOL     OW16690   0.807   2.287   0.819
 5264SOL    HW116691   0.841   2.374   0.854
 5264SOL    HW216692   0.884   2.227   0.798
 5265SOL     OW16693   5.834   4.716   2.576
 5265SOL    HW116694   5.760   4.769   2.617
 5265SOL    HW216695   5.899   4.688   2.647
 5266SOL     OW16696   1.414   6.847   1.264
 5266SOL    HW116697   1.359   6.917   1.219
 5266SOL    HW216698   1.499   6.833   1.213
 5267SOL     OW16699   5.002   4.125   4.986
 5267SOL    HW116700   4.965   4.126   4.894
 5267SOL    HW216701   4.936   4.084   5.049
 5268SOL     OW16702   5.522   4.699   5.554
 5268SOL    HW116703   5.509   4.643   5.635
 5268SOL    HW216704   5.442   4.688   5.494
 5269SOL     OW16705   0.981   4.763   4.873
 5269SOL    HW116706   0.957   4.691   4.808
 5269SOL    HW216707   1.046   4.726   4.940
 5270SOL     OW16708   6.774   3.115   2.982
 5270SOL    HW116709   6.720   3.155   3.057
 5270SOL    HW216710   6.717   3.106   2.901
 5271SOL     OW16711   5.077   4.380   5.103
 5271SOL    HW116712   5.030   4.294   5.081
 5271SOL    HW216713   5.175   4.365   5.103
 5272SOL     OW16714   1.624   1.032   3.802
 5272SOL    HW116715   1.640   1.125   3.836
 5272SOL    HW216716   1.627   1.032   3.702
 5273SOL     OW16717   0.794   0.668   4.681
 5273SOL    HW116718   0.862   0.732   4.718
 5273SOL    HW216719   0.791   0.675   4.582
 5274SOL     OW16720   6.528   5.330   4.609
 5274SOL    HW116721   6.429   5.326   4.595
 5274SOL    HW216722   6.575   5.302   4.526
 5275SOL     OW16723   2.730   6.405   6.594
 5275SOL    HW116724   2.722   6.394   6.694
 5275SOL    HW216725   2.815   6.453   6.573
 5276SOL     OW16726   0.054   0.454   1.323
 5276SOL    HW116727   6.982   0.431   1.357
 5276SOL    HW216728   0.122   0.439   1.395
 5277SOL     OW16729   1.352   1.767   2.669
 5277SOL    HW116730   1.252   1.770   2.668
 5277SOL    HW216731   1.383   1.711   2.745
 5278SOL     OW16732   0.583   4.100   6.378
 5278SOL    HW116733   0.650   4.166   6.413
 5278SOL    HW216734   0.493   4.119   6.419
 5279SOL     OW16735   2.436   6.264   6.572
 5279SOL    HW116736   2.527   6.248   6.535
 5279SOL    HW216737   2.367   6.220   6.514
 5280SOL     OW16738   4.652   6.570   5.244
 5280SOL    HW116739   4.615   6.536   5.158
 5280SOL    HW216740   4.622   6.664   5.258
 5281SOL     OW16741   2.746   6.896   5.269
 5281SOL    HW116742   2.719   6.913   5.364
 5281SOL    HW216743   2.836   6.853   5.266
 5282SOL     OW16744   1.260   6.528   1.666
 5282SOL    HW116745   1.223   6.584   1.591
 5282SOL    HW216746   1.201   6.536   1.746
 5283SOL     OW16747   1.020   0.752   4.204
 5283SOL    HW116748   1.076   0.669   4.199
 5283SOL    HW216749   0.962   0.758   4.123
 5284SOL     OW16750   4.584   2.872   1.599
 5284SOL    HW116751   4.597   2.962   1.641
 5284SOL    HW216752   4.619   2.801   1.661
 5285SOL     OW16753   1.422   2.205   4.473
 5285SOL    HW116754   1.398   2.252   4.558
 5285SOL    HW216755   1.424   2.107   4.489
 5286SOL     OW16756   5.941   2.934   1.489
 5286SOL    HW116757   5.987   3.022   1.474
 5286SOL    HW216758   5.997   2.860   1.451
 5287SOL     OW16759   2.069   5.101   1.429
 5287SOL    HW116760   2.089   5.067   1.521
 5287SOL    HW216761   2.155   5.111   1.378
 5288SOL     OW16762   4.157   0.586   1.253
 5288SOL    HW116763   4.210   0.505   1.278
 5288SOL    HW216764   4.076   0.593   1.312
 5289SOL     OW16765   2.600   4.946   6.052
 5289SOL    HW116766   2.696   4.928   6.074
 5289SOL    HW216767   2.543   4.875   6.094
 5290SOL     OW16768   1.672   3.315   4.486
 5290SOL    HW116769   1.675   3.407   4.447
 5290SOL    HW216770   1.751   3.263   4.454
 5291SOL     OW16771   2.628   4.702   4.575
 5291SOL    HW116772   2.682   4.766   4.520
 5291SOL    HW216773   2.671   4.691   4.664
 5292SOL     OW16774   0.329   3.911   5.569
 5292SOL    HW116775   0.413   3.923   5.622
 5292SOL    HW216776   0.338   3.831   5.510
 5293SOL     OW16777   2.297   6.613   4.312
 5293SOL    HW116778   2.380   6.665   4.298
 5293SOL    HW216779   2.232   6.630   4.238
 5294SOL     OW16780   4.119   0.090   5.113
 5294SOL    HW116781   4.085   0.126   5.200
 5294SOL    HW216782   4.188   0.020   5.130
 5295SOL     OW16783   3.121   1.534   2.613
 5295SOL    HW116784   3.045   1.477   2.646
 5295SOL    HW216785   3.117   1.539   2.513
 5296SOL     OW16786   4.632   4.904   1.667
 5296SOL    HW116787   4.713   4.911   1.726
 5296SOL    HW216788   4.623   4.988   1.614
 5297SOL     OW16789   3.045   4.868   0.286
 5297SOL    HW116790   3.007   4.808   0.216
 5297SOL    HW216791   3.004   4.959   0.279
 5298SOL     OW16792   1.964   0.506   0.211
 5298SOL    HW116793   1.967   0.406   0.207
 5298SOL    HW216794   1.943   0.535   0.304
 5299SOL     OW16795   2.493   1.138   1.501
 5299SOL    HW116796   2.500   1.050   1.455
 5299SOL    HW216797   2.515   1.127   1.598
 5300SOL     OW16798   2.582   4.843   6.677
 5300SOL    HW116799   2.650   4.772   6.659
 5300SOL    HW216800   2.607   4.926   6.626
 5301SOL     OW16801   5.070   0.050   5.993
 5301SOL    HW116802   5.060   6.986   5.937
 5301SOL    HW216803   5.166   0.077   5.996
 5302SOL     OW16804   5.595   6.130   3.587
 5302SOL    HW116805   5.504   6.161   3.558
 5302SOL    HW216806   5.613   6.039   3.548
 5303SOL     OW16807   0.974   5.445   5.966
 5303SOL    HW116808   0.982   5.448   5.867
 5303SOL    HW216809   0.923   5.525   5.998
 5304SOL     OW16810   6.805   0.601   2.421
 5304SOL    HW116811   6.863   0.663   2.473
 5304SOL    HW216812   6.804   0.511   2.466
 5305SOL     OW16813   0.855   5.013   3.254
 5305SOL    HW116814   0.804   5.011   3.167
 5305SOL    HW216815   0.953   5.009   3.235
 5306SOL     OW16816   0.298   3.325   5.960
 5306SOL    HW116817   0.304   3.424   5.962
 5306SOL    HW216818   0.262   3.295   5.871
 5307SOL     OW16819   6.498   1.549   1.500
 5307SOL    HW116820   6.480   1.514   1.408
 5307SOL    HW216821   6.597   1.554   1.515
 5308SOL     OW16822   1.713   3.977   3.113
 5308SOL    HW116823   1.615   3.960   3.121
 5308SOL    HW216824   1.736   3.993   3.017
 5309SOL     OW16825   6.312   6.068   2.377
 5309SOL    HW116826   6.241   6.001   2.393
 5309SOL    HW216827   6.283   6.157   2.414
 5310SOL     OW16828   5.325   2.650   2.692
 5310SOL    HW116829   5.264   2.626   2.617
 5310SOL    HW216830   5.393   2.579   2.705
 5311SOL     OW16831   5.721   0.089   0.533
 5311SOL    HW116832   5.753   0.183   0.519
 5311SOL    HW216833   5.780   0.044   0.600
 5312SOL     OW16834   6.947   6.540   0.626
 5312SOL    HW116835   0.023   6.512   0.610
 5312SOL    HW216836   6.890   6.459   0.640
 5313SOL     OW16837   1.149   5.891   5.308
 5313SOL    HW116838   1.209   5.811   5.315
 5313SOL    HW216839   1.063   5.864   5.264
 5314SOL     OW16840   6.129   0.992   2.089
 5314SOL    HW116841   6.221   0.988   2.128
 5314SOL    HW216842   6.109   0.905   2.044
 5315SOL     OW16843   4.675   1.105   4.435
 5315SOL    HW116844   4.643   1.154   4.355
 5315SOL    HW216845   4.774   1.090   4.428
 5316SOL     OW16846   0.746   2.070   4.298
 5316SOL    HW116847   0.781   2.112   4.382
 5316SOL    HW216848   0.774   1.974   4.294
 5317SOL     OW16849   5.993   2.318   6.543
 5317SOL    HW116850   5.998   2.222   6.515
 5317SOL    HW216851   5.959   2.322   6.637
 5318SOL     OW16852   6.818   3.759   6.286
 5318SOL    HW116853   6.734   3.718   6.252
 5318SOL    HW216854   6.829   3.739   6.383
 5319SOL     OW16855   4.601   6.755   1.268
 5319SOL    HW116856   4.538   6.696   1.218
 5319SOL    HW216857   4.555   6.842   1.288
 5320SOL     OW16858   3.070   5.837   0.942
 5320SOL    HW116859   2.977   5.802   0.943
 5320SOL    HW216860   3.076   5.913   0.877
 5321SOL     OW16861   1.796   4.319   4.584
 5321SOL    HW116862   1.716   4.338   4.642
 5321SOL    HW216863   1.869   4.280   4.641
 5322SOL     OW16864   5.406   6.730   2.288
 5322SOL    HW116865   5.505   6.741   2.286
 5322SOL    HW216866   5.381   6.666   2.361
 5323SOL     OW16867   3.994   1.221   5.849
 5323SOL    HW116868   3.950   1.200   5.936
 5323SOL    HW216869   4.062   1.151   5.828
 5324SOL     OW16870   2.206   1.349   0.650
 5324SOL    HW116871   2.115   1.357   0.610
 5324SOL    HW216872   2.254   1.436   0.643
 5325SOL     OW16873   2.248   1.832   4.660
 5325SOL    HW116874   2.324   1.864   4.716
 5325SOL    HW216875   2.282   1.770   4.589
 5326SOL     OW16876   6.442   6.336   2.491
 5326SOL    HW116877   6.511   6.264   2.486
 5326SOL    HW216878   6.443   6.389   2.407
 5327SOL     OW16879   6.025   2.319   4.773
 5327SOL    HW116880   6.070   2.375   4.842
 5327SOL    HW216881   6.070   2.230   4.767
 5328SOL     OW16882   4.291   4.712   6.810
 5328SOL    HW116883   4.344   4.676   6.887
 5328SOL    HW216884   4.332   4.799   6.780
 5329SOL     OW16885   1.156   6.673   6.443
 5329SOL    HW116886   1.178   6.763   6.480
 5329SOL    HW216887   1.109   6.684   6.355
 5330SOL     OW16888   2.485   3.761   0.736
 5330SOL    HW116889   2.437   3.753   0.823
 5330SOL    HW216890   2.483   3.673   0.688
 5331SOL     OW16891   6.196   0.717   6.652
 5331SOL    HW116892   6.101   0.745   6.659
 5331SOL    HW216893   6.222   0.664   6.732
 5332SOL     OW16894   1.243   5.010   2.292
 5332SOL    HW116895   1.233   5.075   2.216
 5332SOL    HW216896   1.196   5.047   2.373
 5333SOL     OW16897   0.728   6.124   4.175
 5333SOL    HW116898   0.714   6.097   4.080
 5333SOL    HW216899   0.754   6.044   4.229
 5334SOL     OW16900   3.107   7.001   4.371
 5334SOL    HW116901   3.190   6.963   4.410
 5334SOL    HW216902   3.038   7.011   4.442
 5335SOL     OW16903   6.895   5.940   0.630
 5335SOL    HW116904   6.863   5.914   0.721
 5335SOL    HW216905   6.821   5.982   0.578
 5336SOL     OW16906   1.331   3.930   1.561
 5336SOL    HW116907   1.238   3.906   1.591
 5336SOL    HW216908   1.385   3.957   1.641
 5337SOL     OW16909   5.163   4.486   1.240
 5337SOL    HW116910   5.132   4.558   1.301
 5337SOL    HW216911   5.235   4.521   1.180
 5338SOL     OW16912   6.079   2.379   6.271
 5338SOL    HW116913   6.054   2.371   6.368
 5338SOL    HW216914   6.155   2.444   6.262
 5339SOL     OW16915   6.215   1.441   3.275
 5339SOL    HW116916   6.143   1.458   3.342
 5339SOL    HW216917   6.273   1.522   3.267
 5340SOL     OW16918   5.262   2.275   6.253
 5340SOL    HW116919   5.340   2.321   6.211
 5340SOL    HW216920   5.231   2.201   6.195
 5341SOL     OW16921   4.375   0.323   0.358
 5341SOL    HW116922   4.375   0.375   0.444
 5341SOL    HW216923   4.282   0.295   0.335
 5342SOL     OW16924   3.399   0.799   5.443
 5342SOL    HW116925   3.346   0.714   5.445
 5342SOL    HW216926   3.496   0.777   5.434
 5343SOL     OW16927   3.691   3.835   2.515
 5343SOL    HW116928   3.760   3.812   2.584
 5343SOL    HW216929   3.671   3.932   2.518
 5344SOL     OW16930   2.492   2.021   3.160
 5344SOL    HW116931   2.465   2.035   3.065
 5344SOL    HW216932   2.549   2.097   3.190
 5345SOL     OW16933   4.647   6.775   1.690
 5345SOL    HW116934   4.735   6.743   1.726
 5345SOL    HW216935   4.655   6.870   1.663
 5346SOL     OW16936   2.546   6.450   3.146
 5346SOL    HW116937   2.523   6.506   3.226
 5346SOL    HW216938   2.482   6.374   3.139
 5347SOL     OW16939   6.933   1.650   1.352
 5347SOL    HW116940   6.895   1.568   1.310
 5347SOL    HW216941   6.947   1.721   1.283
 5348SOL     OW16942   0.445   1.425   6.854
 5348SOL    HW116943   0.471   1.388   6.944
 5348SOL    HW216944   0.356   1.469   6.862
 5349SOL     OW16945   6.352   0.909   1.626
 5349SOL    HW116946   6.368   0.903   1.725
 5349SOL    HW216947   6.384   0.826   1.582
 5350SOL     OW16948   2.697   1.435   6.406
 5350SOL    HW116949   2.694   1.395   6.497
 5350SOL    HW216950   2.656   1.526   6.409
 5351SOL     OW16951   4.000   0.052   1.975
 5351SOL    HW116952   3.947   6.990   1.948
 5351SOL    HW216953   4.021   0.047   2.073
 5352SOL     OW16954   3.372   5.377   3.787
 5352SOL    HW116955   3.440   5.350   3.856
 5352SOL    HW216956   3.344   5.297   3.735
 5353SOL     OW16957   5.772   6.125   5.739
 5353SOL    HW116958   5.782   6.032   5.774
 5353SOL    HW216959   5.810   6.190   5.804
 5354SOL     OW16960   0.574   4.140   1.357
 5354SOL    HW116961   0.611   4.228   1.386
 5354SOL    HW216962   0.531   4.095   1.435
 5355SOL     OW16963   4.522   1.983   5.160
 5355SOL    HW116964   4.510   1.884   5.154
 5355SOL    HW216965   4.445   2.029   5.116
 5356SOL     OW16966   6.300   3.485   0.983
 5356SOL    HW116967   6.207   3.497   0.949
 5356SOL    HW216968   6.311   3.535   1.069
 5357SOL     OW16969   3.558   6.939   0.264
 5357SOL    HW116970   3.559   6.844   0.235
 5357SOL    HW216971   3.463   6.971   0.269
 5358SOL     OW16972   4.750   3.217   0.754
 5358SOL    HW116973   4.732   3.210   0.656
 5358SOL    HW216974   4.821   3.285   0.770
 5359SOL     OW16975   1.911   0.551   6.687
 5359SOL    HW116976   1.852   0.629   6.667
 5359SOL    HW216977   1.912   0.534   6.785
 5360SOL     OW16978   3.318   0.069   6.875
 5360SOL    HW116979   3.378   0.078   6.795
 5360SOL    HW216980   3.345   7.008   6.928
 5361SOL     OW16981   2.160   0.681   5.609
 5361SOL    HW116982   2.064   0.667   5.586
 5361SOL    HW216983   2.171   0.772   5.650
 5362SOL     OW16984   4.455   5.341   2.813
 5362SOL    HW116985   4.370   5.318   2.764
 5362SOL    HW216986   4.531   5.341   2.748
 5363SOL     OW16987   0.767   5.605   6.123
 5363SOL    HW116988   0.695   5.537   6.131
 5363SOL    HW216989   0.738   5.678   6.060
 5364SOL     OW16990   0.704   6.289   0.667
 5364SOL    HW116991   0.728   6.362   0.602
 5364SOL    HW216992   0.725   6.200   0.626
 5365SOL     OW16993   4.345   1.811   6.215
 5365SOL    HW116994   4.381   1.813   6.308
 5365SOL    HW216995   4.420   1.795   6.150
 5366SOL     OW16996   4.019   3.201   0.076
 5366SOL    HW116997   4.049   3.183   7.000
 5366SOL    HW216998   3.937   3.148   0.095
 5367SOL     OW16999   7.013   5.053   1.050
 5367SOL    HW117000   6.960   5.034   1.132
 5367SOL    HW217001   6.967   5.124   0.996
 5368SOL     OW17002   5.863   1.434   3.737
 5368SOL    HW117003   5.877   1.338   3.761
 5368SOL    HW217004   5.944   1.487   3.759
 5369SOL     OW17005   2.178   3.857   2.811
 5369SOL    HW117006   2.179   3.760   2.788
 5369SOL    HW217007   2.245   3.905   2.754
 5370SOL     OW17008   3.847   3.037   1.494
 5370SOL    HW117009   3.872   3.011   1.587
 5370SOL    HW217010   3.914   3.102   1.458
 5371SOL     OW17011   0.581   3.758   5.240
 5371SOL    HW117012   0.675   3.723   5.242
 5371SOL    HW217013   0.577   3.848   5.281
 5372SOL     OW17014   2.857   5.179   2.644
 5372SOL    HW117015   2.785   5.233   2.601
 5372SOL    HW217016   2.942   5.190   2.593
 5373SOL     OW17017   2.834   4.785   3.226
 5373SOL    HW117018   2.835   4.713   3.156
 5373SOL    HW217019   2.807   4.872   3.184
 5374SOL     OW17020   2.541   2.191   0.380
 5374SOL    HW117021   2.568   2.239   0.464
 5374SOL    HW217022   2.452   2.147   0.394
 5375SOL     OW17023   1.537   4.759   3.945
 5375SOL    HW117024   1.626   4.785   3.906
 5375SOL    HW217025   1.471   4.747   3.871
 5376SOL     OW17026   1.872   3.778   0.648
 5376SOL    HW117027   1.775   3.768   0.671
 5376SOL    HW217028   1.902   3.698   0.596
 5377SOL     OW17029   0.276   1.558   1.261
 5377SOL    HW117030   0.356   1.504   1.233
 5377SOL    HW217031   0.196   1.526   1.211
 5378SOL     OW17032   5.459   0.659   0.752
 5378SOL    HW117033   5.383   0.711   0.791
 5378SOL    HW217034   5.521   0.720   0.704
 5379SOL     OW17035   6.916   6.331   1.794
 5379SOL    HW117036   7.014   6.336   1.816
 5379SOL    HW217037   6.903   6.343   1.696
 5380SOL     OW17038   3.095   0.307   4.348
 5380SOL    HW117039   3.136   0.304   4.257
 5380SOL    HW217040   3.151   0.253   4.412
 5381SOL     OW17041   5.713   4.107   1.502
 5381SOL    HW117042   5.619   4.096   1.469
 5381SOL    HW217043   5.777   4.081   1.429
 5382SOL     OW17044   1.863   0.046   1.617
 5382SOL    HW117045   1.827   6.993   1.557
 5382SOL    HW217046   1.792   0.075   1.681
 5383SOL     OW17047   2.278   1.832   5.032
 5383SOL    HW117048   2.299   1.881   5.117
 5383SOL    HW217049   2.363   1.798   4.991
 5384SOL     OW17050   5.860   6.552   4.226
 5384SOL    HW117051   5.784   6.570   4.289
 5384SOL    HW217052   5.947   6.568   4.273
 5385SOL     OW17053   3.402   4.000   2.149
 5385SOL    HW117054   3.303   4.010   2.162
 5385SOL    HW217055   3.436   3.926   2.208
 5386SOL     OW17056   5.230   6.220   5.068
 5386SOL    HW117057   5.258   6.182   4.980
 5386SOL    HW217058   5.301   6.203   5.136
 5387SOL     OW17059   2.722   5.737   1.783
 5387SOL    HW117060   2.799   5.801   1.786
 5387SOL    HW217061   2.725   5.678   1.864
 5388SOL     OW17062   5.829   0.511   2.662
 5388SOL    HW117063   5.840   0.484   2.757
 5388SOL    HW217064   5.732   0.528   2.643
 5389SOL     OW17065   4.795   2.231   1.088
 5389SOL    HW117066   4.758   2.164   1.024
 5389SOL    HW217067   4.727   2.249   1.159
 5390SOL     OW17068   6.124   4.885   6.233
 5390SOL    HW117069   6.194   4.814   6.228
 5390SOL    HW217070   6.102   4.903   6.328
 5391SOL     OW17071   2.565   3.195   6.856
 5391SOL    HW117072   2.539   3.291   6.852
 5391SOL    HW217073   2.622   3.172   6.776
 5392SOL     OW17074   6.399   3.032   2.509
 5392SOL    HW117075   6.489   3.003   2.475
 5392SOL    HW217076   6.344   3.065   2.433
 5393SOL     OW17077   6.689   0.289   6.770
 5393SOL    HW117078   6.631   0.289   6.688
 5393SOL    HW217079   6.776   0.244   6.749
 5394SOL     OW17080   0.923   3.815   5.712
 5394SOL    HW117081   0.936   3.893   5.650
 5394SOL    HW217082   1.007   3.799   5.763
 5395SOL     OW17083   4.236   1.551   0.174
 5395SOL    HW117084   4.336   1.552   0.181
 5395SOL    HW217085   4.210   1.525   0.081
 5396SOL     OW17086   5.479   3.273   2.579
 5396SOL    HW117087   5.390   3.318   2.584
 5396SOL    HW217088   5.496   3.241   2.486
 5397SOL     OW17089   0.352   3.520   1.614
 5397SOL    HW117090   0.347   3.615   1.647
 5397SOL    HW217091   0.350   3.519   1.514
 5398SOL     OW17092   3.144   2.791   1.795
 5398SOL    HW117093   3.172   2.697   1.776
 5398SOL    HW217094   3.132   2.840   1.709
 5399SOL     OW17095   1.314   5.762   0.934
 5399SOL    HW117096   1.298   5.804   1.023
 5399SOL    HW217097   1.301   5.830   0.862
 5400SOL     OW17098   2.718   4.680   0.657
 5400SOL    HW117099   2.704   4.723   0.747
 5400SOL    HW217100   2.815   4.688   0.632
 5401SOL     OW17101   6.013   3.198   1.474
 5401SOL    HW117102   6.057   3.230   1.558
 5401SOL    HW217103   5.941   3.262   1.447
 5402SOL     OW17104   1.116   6.268   2.254
 5402SOL    HW117105   1.082   6.213   2.178
 5402SOL    HW217106   1.216   6.266   2.254
 5403SOL     OW17107   7.016   2.713   6.369
 5403SOL    HW117108   0.047   2.655   6.305
 5403SOL    HW217109   7.010   2.668   6.458
 5404SOL     OW17110   1.869   2.946   3.301
 5404SOL    HW117111   1.803   3.006   3.345
 5404SOL    HW217112   1.950   2.936   3.359
 5405SOL     OW17113   6.725   4.936   6.256
 5405SOL    HW117114   6.777   4.963   6.338
 5405SOL    HW217115   6.633   4.973   6.262
 5406SOL     OW17116   2.381   0.599   5.230
 5406SOL    HW117117   2.359   0.689   5.266
 5406SOL    HW217118   2.355   0.594   5.134
 5407SOL     OW17119   4.030   3.553   6.384
 5407SOL    HW117120   3.986   3.630   6.339
 5407SOL    HW217121   3.963   3.503   6.438
 5408SOL     OW17122   2.766   1.075   6.868
 5408SOL    HW117123   2.735   1.103   6.778
 5408SOL    HW217124   2.701   1.008   6.905
 5409SOL     OW17125   3.927   0.721   2.276
 5409SOL    HW117126   3.932   0.699   2.178
 5409SOL    HW217127   3.880   0.808   2.288
 5410SOL     OW17128   2.580   2.105   2.122
 5410SOL    HW117129   2.627   2.193   2.117
 5410SOL    HW217130   2.646   2.031   2.106
 5411SOL     OW17131   0.671   5.543   4.740
 5411SOL    HW117132   0.761   5.501   4.755
 5411SOL    HW217133   0.606   5.503   4.805
 5412SOL     OW17134   6.139   2.899   1.161
 5412SOL    HW117135   6.187   2.895   1.074
 5412SOL    HW217136   6.048   2.938   1.148
 5413SOL     OW17137   2.011   0.807   1.865
 5413SOL    HW117138   1.958   0.756   1.796
 5413SOL    HW217139   2.078   0.865   1.819
 5414SOL     OW17140   3.885   1.178   5.238
 5414SOL    HW117141   3.840   1.199   5.151
 5414SOL    HW217142   3.896   1.079   5.247
 5415SOL     OW17143   6.101   5.157   2.022
 5415SOL    HW117144   6.063   5.184   1.933
 5415SOL    HW217145   6.146   5.236   2.065
 5416SOL     OW17146   4.481   5.660   4.371
 5416SOL    HW117147   4.418   5.649   4.295
 5416SOL    HW217148   4.509   5.570   4.405
 5417SOL     OW17149   3.204   6.729   4.595
 5417SOL    HW117150   3.154   6.815   4.590
 5417SOL    HW217151   3.297   6.746   4.626
 5418SOL     OW17152   3.727   0.620   3.007
 5418SOL    HW117153   3.717   0.596   2.910
 5418SOL    HW217154   3.639   0.608   3.053
 5419SOL     OW17155   3.368   4.291   7.018
 5419SOL    HW117156   3.347   4.389   7.014
 5419SOL    HW217157   3.338   4.255   0.088
 5420SOL     OW17158   1.123   1.165   2.909
 5420SOL    HW117159   1.127   1.241   2.844
 5420SOL    HW217160   1.073   1.089   2.866
 5421SOL     OW17161   1.685   3.635   1.781
 5421SOL    HW117162   1.692   3.649   1.682
 5421SOL    HW217163   1.731   3.710   1.829
 5422SOL     OW17164   2.204   3.399   0.882
 5422SOL    HW117165   2.189   3.325   0.947
 5422SOL    HW217166   2.301   3.424   0.882
 5423SOL     OW17167   5.816   3.326   6.918
 5423SOL    HW117168   5.790   3.401   6.980
 5423SOL    HW217169   5.775   3.342   6.828
 5424SOL     OW17170   5.264   4.040   5.053
 5424SOL    HW117171   5.195   4.090   5.000
 5424SOL    HW217172   5.219   3.980   5.118
 5425SOL     OW17173   5.167   0.341   4.968
 5425SOL    HW117174   5.205   0.373   4.880
 5425SOL    HW217175   5.216   0.260   4.998
 5426SOL     OW17176   6.025   0.198   5.209
 5426SOL    HW117177   6.083   0.198   5.128
 5426SOL    HW217178   5.981   0.108   5.219
 5427SOL     OW17179   3.997   5.855   6.705
 5427SOL    HW117180   4.048   5.920   6.762
 5427SOL    HW217181   3.983   5.895   6.614
 5428SOL     OW17182   1.206   0.573   6.972
 5428SOL    HW117183   1.229   0.528   6.885
 5428SOL    HW217184   1.246   0.665   6.973
 5429SOL     OW17185   1.123   2.386   6.668
 5429SOL    HW117186   1.141   2.444   6.747
 5429SOL    HW217187   1.041   2.418   6.620
 5430SOL     OW17188   2.151   2.644   5.553
 5430SOL    HW117189   2.238   2.619   5.595
 5430SOL    HW217190   2.121   2.733   5.587
 5431SOL     OW17191   3.848   6.157   4.598
 5431SOL    HW117192   3.901   6.213   4.661
 5431SOL    HW217193   3.762   6.203   4.575
 5432SOL     OW17194   5.257   6.714   1.218
 5432SOL    HW117195   5.202   6.702   1.136
 5432SOL    HW217196   5.304   6.628   1.240
 5433SOL     OW17197   0.062   1.541   4.655
 5433SOL    HW117198   0.012   1.456   4.643
 5433SOL    HW217199   0.160   1.521   4.663
 5434SOL     OW17200   2.753   0.008   5.852
 5434SOL    HW117201   2.809   6.950   5.819
 5434SOL    HW217202   2.726   0.065   5.775
 5435SOL     OW17203   4.593   0.918   1.902
 5435SOL    HW117204   4.532   0.842   1.924
 5435SOL    HW217205   4.573   0.995   1.962
 5436SOL     OW17206   5.367   4.268   2.404
 5436SOL    HW117207   5.300   4.313   2.463
 5436SOL    HW217208   5.455   4.317   2.411
 5437SOL     OW17209   3.081   3.424   6.956
 5437SOL    HW117210   3.034   3.409   0.025
 5437SOL    HW217211   3.015   3.416   6.881
 5438SOL     OW17212   6.562   2.364   0.800
 5438SOL    HW117213   6.644   2.390   0.850
 5438SOL    HW217214   6.506   2.303   0.857
 5439SOL     OW17215   1.190   2.079   1.227
 5439SOL    HW117216   1.203   2.118   1.136
 5439SOL    HW217217   1.235   2.136   1.295
 5440SOL     OW17218   1.184   1.608   1.074
 5440SOL    HW117219   1.186   1.654   1.163
 5440SOL    HW217220   1.116   1.535   1.076
 5441SOL     OW17221   3.723   2.085   3.398
 5441SOL    HW117222   3.683   2.064   3.487
 5441SOL    HW217223   3.653   2.076   3.327
 5442SOL     OW17224   4.152   0.539   2.314
 5442SOL    HW117225   4.088   0.616   2.314
 5442SOL    HW217226   4.140   0.486   2.398
 5443SOL     OW17227   3.443   6.914   5.325
 5443SOL    HW117228   3.438   6.983   5.252
 5443SOL    HW217229   3.384   6.837   5.301
 5444SOL     OW17230   6.887   6.822   3.420
 5444SOL    HW117231   6.812   6.812   3.354
 5444SOL    HW217232   6.965   6.866   3.375
 5445SOL     OW17233   5.917   3.549   2.080
 5445SOL    HW117234   5.937   3.457   2.111
 5445SOL    HW217235   5.878   3.603   2.156
 5446SOL     OW17236   6.551   5.445   5.687
 5446SOL    HW117237   6.467   5.498   5.687
 5446SOL    HW217238   6.588   5.441   5.594
 5447SOL     OW17239   3.669   1.781   0.294
 5447SOL    HW117240   3.747   1.773   0.356
 5447SOL    HW217241   3.694   1.745   0.205
 5448SOL     OW17242   5.503   2.236   5.633
 5448SOL    HW117243   5.460   2.238   5.542
 5448SOL    HW217244   5.530   2.329   5.659
 5449SOL     OW17245   0.930   3.414   6.519
 5449SOL    HW117246   0.956   3.319   6.532
 5449SOL    HW217247   0.864   3.441   6.589
 5450SOL     OW17248   1.761   6.839   0.850
 5450SOL    HW117249   1.809   6.925   0.834
 5450SOL    HW217250   1.828   6.765   0.861
 5451SOL     OW17251   1.350   0.208   2.552
 5451SOL    HW117252   1.447   0.230   2.541
 5451SOL    HW217253   1.321   0.231   2.645
 5452SOL     OW17254   2.820   3.835   6.085
 5452SOL    HW117255   2.847   3.911   6.026
 5452SOL    HW217256   2.895   3.810   6.145
 5453SOL     OW17257   6.150   5.120   6.773
 5453SOL    HW117258   6.092   5.072   6.708
 5453SOL    HW217259   6.239   5.076   6.778
 5454SOL     OW17260   6.908   4.748   6.909
 5454SOL    HW117261   6.982   4.681   6.907
 5454SOL    HW217262   6.820   4.701   6.913
 5455SOL     OW17263   6.585   3.394   1.424
 5455SOL    HW117264   6.519   3.320   1.440
 5455SOL    HW217265   6.622   3.386   1.331
 5456SOL     OW17266   3.201   6.590   0.604
 5456SOL    HW117267   3.151   6.650   0.667
 5456SOL    HW217268   3.143   6.570   0.525
 5457SOL     OW17269   6.540   3.318   0.443
 5457SOL    HW117270   6.463   3.317   0.506
 5457SOL    HW217271   6.616   3.370   0.483
 5458SOL     OW17272   2.425   3.906   6.895
 5458SOL    HW117273   2.513   3.950   6.879
 5458SOL    HW217274   2.430   3.848   6.976
 5459SOL     OW17275   1.854   4.687   6.304
 5459SOL    HW117276   1.825   4.700   6.398
 5459SOL    HW217277   1.872   4.776   6.261
 5460SOL     OW17278   3.022   0.540   1.239
 5460SOL    HW117279   3.112   0.585   1.240
 5460SOL    HW217280   2.991   0.527   1.333
 5461SOL     OW17281   4.496   6.932   5.480
 5461SOL    HW117282   4.458   6.997   5.545
 5461SOL    HW217283   4.566   6.877   5.525
 5462SOL     OW17284   0.613   0.394   1.089
 5462SOL    HW117285   0.625   0.389   0.989
 5462SOL    HW217286   0.519   0.422   1.109
 5463SOL     OW17287   6.901   2.732   1.024
 5463SOL    HW117288   6.876   2.825   1.052
 5463SOL    HW217289   6.827   2.694   0.968
 5464SOL     OW17290   1.939   0.042   4.439
 5464SOL    HW117291   1.936   0.086   4.528
 5464SOL    HW217292   2.034   0.027   4.413
 5465SOL     OW17293   2.656   6.963   5.507
 5465SOL    HW117294   2.596   6.916   5.572
 5465SOL    HW217295   2.704   0.019   5.553
 5466SOL     OW17296   4.474   4.607   4.554
 5466SOL    HW117297   4.374   4.598   4.549
 5466SOL    HW217298   4.515   4.564   4.473
 5467SOL     OW17299   5.969   1.487   2.199
 5467SOL    HW117300   6.034   1.528   2.263
 5467SOL    HW217301   6.012   1.412   2.150
 5468SOL     OW17302   4.290   1.529   5.149
 5468SOL    HW117303   4.239   1.586   5.213
 5468SOL    HW217304   4.228   1.461   5.108
 5469SOL     OW17305   4.147   4.174   6.541
 5469SOL    HW117306   4.192   4.205   6.457
 5469SOL    HW217307   4.057   4.218   6.548
 5470SOL     OW17308   1.508   5.239   3.615
 5470SOL    HW117309   1.421   5.284   3.590
 5470SOL    HW217310   1.567   5.235   3.534
 5471SOL     OW17311   6.237   5.697   2.098
 5471SOL    HW117312   6.173   5.713   2.173
 5471SOL    HW217313   6.189   5.701   2.011
 5472SOL     OW17314   3.894   4.947   5.353
 5472SOL    HW117315   3.963   4.878   5.372
 5472SOL    HW217316   3.931   5.013   5.287
 5473SOL     OW17317   1.140   3.542   3.474
 5473SOL    HW117318   1.239   3.547   3.456
 5473SOL    HW217319   1.114   3.447   3.488
 5474SOL     OW17320   1.561   5.466   3.382
 5474SOL    HW117321   1.467   5.482   3.412
 5474SOL    HW217322   1.621   5.460   3.462
 5475SOL     OW17323   2.846   2.566   1.153
 5475SOL    HW117324   2.902   2.563   1.070
 5475SOL    HW217325   2.872   2.491   1.214
 5476SOL     OW17326   1.196   3.130   5.572
 5476SOL    HW117327   1.201   3.161   5.667
 5476SOL    HW217328   1.190   3.210   5.512
 5477SOL     OW17329   2.120   3.083   2.916
 5477SOL    HW117330   2.025   3.084   2.885
 5477SOL    HW217331   2.176   3.035   2.849
 5478SOL     OW17332   6.787   6.286   5.960
 5478SOL    HW117333   6.793   6.188   5.981
 5478SOL    HW217334   6.717   6.301   5.891
 5479SOL     OW17335   4.696   0.452   4.579
 5479SOL    HW117336   4.735   0.366   4.545
 5479SOL    HW217337   4.651   0.436   4.666
 5480SOL     OW17338   0.556   3.332   4.176
 5480SOL    HW117339   0.456   3.342   4.173
 5480SOL    HW217340   0.588   3.286   4.094
 5481SOL     OW17341   4.836   6.519   3.896
 5481SOL    HW117342   4.783   6.567   3.826
 5481SOL    HW217343   4.933   6.526   3.874
 5482SOL     OW17344   1.805   4.493   1.620
 5482SOL    HW117345   1.745   4.454   1.551
 5482SOL    HW217346   1.872   4.553   1.576
 5483SOL     OW17347   6.993   2.342   5.541
 5483SOL    HW117348   6.972   2.328   5.445
 5483SOL    HW217349   6.909   2.343   5.594
 5484SOL     OW17350   4.562   0.661   5.029
 5484SOL    HW117351   4.653   0.663   5.072
 5484SOL    HW217352   4.502   0.601   5.081
 5485SOL     OW17353   3.201   0.369   4.930
 5485SOL    HW117354   3.284   0.396   4.881
 5485SOL    HW217355   3.158   0.450   4.970
 5486SOL     OW17356   2.657   6.130   5.370
 5486SOL    HW117357   2.734   6.080   5.331
 5486SOL    HW217358   2.687   6.181   5.451
 5487SOL     OW17359   3.119   5.606   5.421
 5487SOL    HW117360   3.109   5.579   5.517
 5487SOL    HW217361   3.158   5.698   5.416
 5488SOL     OW17362   5.817   2.227   0.769
 5488SOL    HW117363   5.913   2.220   0.796
 5488SOL    HW217364   5.791   2.323   0.764
 5489SOL     OW17365   6.600   3.919   3.173
 5489SOL    HW117366   6.576   3.999   3.227
 5489SOL    HW217367   6.694   3.927   3.140
 5490SOL     OW17368   1.915   6.229   2.924
 5490SOL    HW117369   1.851   6.279   2.865
 5490SOL    HW217370   1.908   6.131   2.905
 5491SOL     OW17371   6.700   4.166   0.536
 5491SOL    HW117372   6.657   4.078   0.553
 5491SOL    HW217373   6.714   4.214   0.623
 5492SOL     OW17374   6.698   2.077   5.969
 5492SOL    HW117375   6.722   2.069   5.872
 5492SOL    HW217376   6.754   2.149   6.011
 5493SOL     OW17377   4.035   3.752   1.118
 5493SOL    HW117378   4.005   3.660   1.095
 5493SOL    HW217379   4.105   3.747   1.190
 5494SOL     OW17380   6.206   3.933   5.288
 5494SOL    HW117381   6.177   3.885   5.205
 5494SOL    HW217382   6.280   3.996   5.266
 5495SOL     OW17383   5.569   6.843   0.291
 5495SOL    HW117384   5.515   6.759   0.294
 5495SOL    HW217385   5.654   6.830   0.341
 5496SOL     OW17386   4.183   0.447   4.279
 5496SOL    HW117387   4.140   0.507   4.347
 5496SOL    HW217388   4.143   0.464   4.189
 5497SOL     OW17389   1.206   0.518   5.783
 5497SOL    HW117390   1.255   0.456   5.721
 5497SOL    HW217391   1.110   0.524   5.755
 5498SOL     OW17392   0.677   5.474   0.924
 5498SOL    HW117393   0.629   5.514   0.846
 5498SOL    HW217394   0.725   5.545   0.975
 5499SOL     OW17395   1.860   0.243   4.658
 5499SOL    HW117396   1.850   0.329   4.709
 5499SOL    HW217397   1.893   0.172   4.719
 5500SOL     OW17398   2.654   0.197   1.081
 5500SOL    HW117399   2.615   0.221   0.992
 5500SOL    HW217400   2.642   0.099   1.097
 5501SOL     OW17401   3.686   3.691   6.855
 5501SOL    HW117402   3.648   3.774   6.897
 5501SOL    HW217403   3.779   3.675   6.890
 5502SOL     OW17404   4.731   2.835   0.239
 5502SOL    HW117405   4.721   2.910   0.174
 5502SOL    HW217406   4.642   2.795   0.258
 5503SOL     OW17407   6.586   3.534   0.830
 5503SOL    HW117408   6.676   3.559   0.866
 5503SOL    HW217409   6.515   3.563   0.894
 5504SOL     OW17410   3.770   1.627   0.025
 5504SOL    HW117411   3.766   1.715   6.996
 5504SOL    HW217412   3.837   1.569   6.999
 5505SOL     OW17413   2.910   5.450   3.497
 5505SOL    HW117414   2.861   5.443   3.410
 5505SOL    HW217415   2.919   5.359   3.537
 5506SOL     OW17416   0.373   3.393   5.576
 5506SOL    HW117417   0.431   3.327   5.624
 5506SOL    HW217418   0.425   3.475   5.555
 5507SOL     OW17419   2.729   6.815   6.709
 5507SOL    HW117420   2.767   6.802   6.801
 5507SOL    HW217421   2.789   6.876   6.657
 5508SOL     OW17422   6.677   0.838   6.385
 5508SOL    HW117423   6.734   0.755   6.386
 5508SOL    HW217424   6.605   0.829   6.453
 5509SOL     OW17425   6.412   5.074   1.019
 5509SOL    HW117426   6.505   5.098   1.047
 5509SOL    HW217427   6.411   4.980   0.985
 5510SOL     OW17428   4.099   4.978   0.118
 5510SOL    HW117429   4.009   4.963   0.077
 5510SOL    HW217430   4.092   4.967   0.217
 5511SOL     OW17431   0.112   1.964   5.465
 5511SOL    HW117432   0.127   1.865   5.465
 5511SOL    HW217433   0.131   2.001   5.374
 5512SOL     OW17434   2.449   0.704   2.331
 5512SOL    HW117435   2.500   0.659   2.258
 5512SOL    HW217436   2.352   0.701   2.310
 5513SOL     OW17437   4.070   4.082   0.197
 5513SOL    HW117438   4.066   4.167   0.143
 5513SOL    HW217439   4.146   4.026   0.165
 5514SOL     OW17440   3.241   1.045   0.459
 5514SOL    HW117441   3.228   0.950   0.489
 5514SOL    HW217442   3.193   1.106   0.521
 5515SOL     OW17443   2.858   5.714   2.251
 5515SOL    HW117444   2.844   5.641   2.185
 5515SOL    HW217445   2.956   5.727   2.266
 5516SOL     OW17446   1.563   2.209   5.295
 5516SOL    HW117447   1.493   2.270   5.258
 5516SOL    HW217448   1.620   2.260   5.360
 5517SOL     OW17449   1.397   2.340   3.262
 5517SOL    HW117450   1.389   2.438   3.247
 5517SOL    HW217451   1.476   2.322   3.321
 5518SOL     OW17452   4.683   4.968   6.780
 5518SOL    HW117453   4.650   4.974   6.875
 5518SOL    HW217454   4.755   5.037   6.766
 5519SOL     OW17455   4.871   3.003   4.318
 5519SOL    HW117456   4.791   2.945   4.299
 5519SOL    HW217457   4.954   2.954   4.292
 5520SOL     OW17458   5.024   0.253   1.738
 5520SOL    HW117459   5.052   0.162   1.707
 5520SOL    HW217460   5.089   0.287   1.805
 5521SOL     OW17461   4.721   6.365   2.232
 5521SOL    HW117462   4.671   6.445   2.198
 5521SOL    HW217463   4.729   6.372   2.332
 5522SOL     OW17464   5.773   6.151   1.303
 5522SOL    HW117465   5.673   6.158   1.314
 5522SOL    HW217466   5.795   6.137   1.206
 5523SOL     OW17467   5.400   1.359   1.118
 5523SOL    HW117468   5.379   1.448   1.077
 5523SOL    HW217469   5.415   1.291   1.046
 5524SOL     OW17470   2.638   1.196   3.976
 5524SOL    HW117471   2.552   1.199   4.028
 5524SOL    HW217472   2.633   1.260   3.900
 5525SOL     OW17473   6.133   1.268   1.580
 5525SOL    HW117474   6.040   1.231   1.581
 5525SOL    HW217475   6.187   1.220   1.511
 5526SOL     OW17476   5.439   4.958   4.122
 5526SOL    HW117477   5.521   4.975   4.066
 5526SOL    HW217478   5.414   4.861   4.115
 5527SOL     OW17479   5.804   0.640   3.610
 5527SOL    HW117480   5.745   0.689   3.674
 5527SOL    HW217481   5.786   0.542   3.616
 5528SOL     OW17482   0.823   1.093   6.874
 5528SOL    HW117483   0.749   1.154   6.845
 5528SOL    HW217484   0.903   1.107   6.815
 5529SOL     OW17485   3.727   0.659   2.073
 5529SOL    HW117486   3.760   0.565   2.071
 5529SOL    HW217487   3.642   0.664   2.126
 5530SOL     OW17488   0.063   2.381   1.122
 5530SOL    HW117489   0.004   2.317   1.171
 5530SOL    HW217490   0.149   2.337   1.097
 5531SOL     OW17491   2.183   4.342   1.529
 5531SOL    HW117492   2.207   4.246   1.546
 5531SOL    HW217493   2.127   4.377   1.603
 5532SOL     OW17494   1.253   2.827   6.730
 5532SOL    HW117495   1.306   2.823   6.814
 5532SOL    HW217496   1.171   2.770   6.739
 5533SOL     OW17497   3.225   1.621   2.373
 5533SOL    HW117498   3.282   1.698   2.345
 5533SOL    HW217499   3.281   1.538   2.378
 5534SOL     OW17500   1.457   0.432   4.542
 5534SOL    HW117501   1.451   0.518   4.491
 5534SOL    HW217502   1.388   0.368   4.509
 5535SOL     OW17503   0.071   1.689   3.175
 5535SOL    HW117504   0.056   1.788   3.165
 5535SOL    HW217505   0.133   1.657   3.103
 5536SOL     OW17506   3.925   6.178   4.349
 5536SOL    HW117507   3.936   6.274   4.321
 5536SOL    HW217508   3.878   6.174   4.437
 5537SOL     OW17509   2.994   1.758   3.701
 5537SOL    HW117510   3.002   1.810   3.786
 5537SOL    HW217511   3.065   1.687   3.699
 5538SOL     OW17512   4.580   5.414   4.551
 5538SOL    HW117513   4.520   5.434   4.628
 5538SOL    HW217514   4.546   5.333   4.502
 5539SOL     OW17515   2.271   4.878   0.360
 5539SOL    HW117516   2.187   4.834   0.391
 5539SOL    HW217517   2.324   4.814   0.304
 5540SOL     OW17518   4.822   5.450   1.757
 5540SOL    HW117519   4.868   5.533   1.786
 5540SOL    HW217520   4.740   5.473   1.705
 5541SOL     OW17521   4.843   1.447   5.670
 5541SOL    HW117522   4.767   1.496   5.712
 5541SOL    HW217523   4.929   1.475   5.714
 5542SOL     OW17524   5.515   4.520   6.794
 5542SOL    HW117525   5.462   4.590   6.747
 5542SOL    HW217526   5.613   4.535   6.778
 5543SOL     OW17527   6.899   1.716   5.705
 5543SOL    HW117528   6.939   1.797   5.749
 5543SOL    HW217529   6.864   1.654   5.775
 5544SOL     OW17530   5.965   0.608   7.014
 5544SOL    HW117531   5.891   0.541   7.008
 5544SOL    HW217532   5.931   0.698   6.985
 5545SOL     OW17533   2.800   2.417   1.680
 5545SOL    HW117534   2.819   2.407   1.778
 5545SOL    HW217535   2.815   2.512   1.653
 5546SOL     OW17536   3.403   4.955   5.532
 5546SOL    HW117537   3.494   4.930   5.499
 5546SOL    HW217538   3.375   4.890   5.603
 5547SOL     OW17539   3.656   5.515   4.091
 5547SOL    HW117540   3.606   5.519   4.177
 5547SOL    HW217541   3.656   5.605   4.047
 5548SOL     OW17542   0.494   2.371   4.739
 5548SOL    HW117543   0.538   2.461   4.731
 5548SOL    HW217544   0.559   2.305   4.776
 5549SOL     OW17545   3.604   4.680   0.443
 5549SOL    HW117546   3.637   4.617   0.512
 5549SOL    HW217547   3.526   4.732   0.479
 5550SOL     OW17548   3.243   6.637   2.389
 5550SOL    HW117549   3.202   6.693   2.317
 5550SOL    HW217550   3.339   6.663   2.401
 5551SOL     OW17551   0.329   1.125   2.521
 5551SOL    HW117552   0.396   1.094   2.453
 5551SOL    HW217553   0.239   1.088   2.498
 5552SOL     OW17554   0.841   2.471   1.691
 5552SOL    HW117555   0.814   2.566   1.674
 5552SOL    HW217556   0.765   2.421   1.732
 5553SOL     OW17557   4.845   6.350   6.920
 5553SOL    HW117558   4.821   6.303   7.005
 5553SOL    HW217559   4.763   6.365   6.866
 5554SOL     OW17560   3.688   1.045   4.571
 5554SOL    HW117561   3.651   1.001   4.653
 5554SOL    HW217562   3.728   0.977   4.511
 5555SOL     OW17563   0.486   5.847   2.141
 5555SOL    HW117564   0.455   5.773   2.081
 5555SOL    HW217565   0.584   5.861   2.128
 5556SOL     OW17566   0.826   1.179   4.518
 5556SOL    HW117567   0.925   1.161   4.522
 5556SOL    HW217568   0.810   1.277   4.532
 5557SOL     OW17569   2.648   0.644   3.095
 5557SOL    HW117570   2.720   0.713   3.087
 5557SOL    HW217571   2.594   0.641   3.011
 5558SOL     OW17572   5.017   2.602   5.438
 5558SOL    HW117573   4.958   2.614   5.358
 5558SOL    HW217574   5.091   2.669   5.434
 5559SOL     OW17575   2.276   0.560   1.710
 5559SOL    HW117576   2.211   0.507   1.765
 5559SOL    HW217577   2.261   0.658   1.726
 5560SOL     OW17578   6.850   1.304   4.209
 5560SOL    HW117579   6.941   1.332   4.180
 5560SOL    HW217580   6.855   1.264   4.301
 5561SOL     OW17581   1.750   3.541   2.458
 5561SOL    HW117582   1.811   3.471   2.497
 5561SOL    HW217583   1.784   3.632   2.483
 5562SOL     OW17584   2.980   2.348   6.639
 5562SOL    HW117585   3.079   2.343   6.653
 5562SOL    HW217586   2.944   2.431   6.680
 5563SOL     OW17587   4.019   4.244   1.657
 5563SOL    HW117588   3.992   4.256   1.561
 5563SOL    HW217589   3.959   4.177   1.701
 5564SOL     OW17590   5.618   3.009   1.767
 5564SOL    HW117591   5.548   3.024   1.836
 5564SOL    HW217592   5.646   2.913   1.768
 5565SOL     OW17593   3.389   2.958   5.372
 5565SOL    HW117594   3.325   3.034   5.367
 5565SOL    HW217595   3.482   2.990   5.354
 5566SOL     OW17596   1.998   4.516   0.536
 5566SOL    HW117597   2.040   4.453   0.471
 5566SOL    HW217598   1.955   4.464   0.610
 5567SOL     OW17599   1.501   5.045   3.059
 5567SOL    HW117600   1.537   5.129   3.099
 5567SOL    HW217601   1.547   5.027   2.971
 5568SOL     OW17602   3.588   2.632   0.991
 5568SOL    HW117603   3.681   2.651   0.961
 5568SOL    HW217604   3.576   2.533   1.003
 5569SOL     OW17605   5.303   2.104   6.601
 5569SOL    HW117606   5.329   2.168   6.673
 5569SOL    HW217607   5.267   2.155   6.523
 5570SOL     OW17608   0.753   3.436   5.040
 5570SOL    HW117609   0.795   3.508   5.096
 5570SOL    HW217610   0.703   3.372   5.098
 5571SOL     OW17611   6.639   4.643   6.958
 5571SOL    HW117612   6.546   4.679   6.952
 5571SOL    HW217613   6.659   4.617   0.034
 5572SOL     OW17614   6.179   2.923   5.061
 5572SOL    HW117615   6.176   2.993   4.989
 5572SOL    HW217616   6.179   2.968   5.150
 5573SOL     OW17617   6.972   4.112   0.039
 5573SOL    HW117618   6.921   4.193   0.068
 5573SOL    HW217619   0.002   4.132   6.973
 5574SOL     OW17620   0.911   6.575   4.121
 5574SOL    HW117621   0.971   6.538   4.050
 5574SOL    HW217622   0.872   6.499   4.174
 5575SOL     OW17623   0.987   1.288   1.526
 5575SOL    HW117624   1.030   1.327   1.608
 5575SOL    HW217625   0.892   1.266   1.546
 5576SOL     OW17626   5.791   5.886   6.526
 5576SOL    HW117627   5.714   5.822   6.518
 5576SOL    HW217628   5.756   5.978   6.541
 5577SOL     OW17629   2.420   4.458   4.874
 5577SOL    HW117630   2.348   4.418   4.930
 5577SOL    HW217631   2.481   4.512   4.933
 5578SOL     OW17632   3.355   1.946   6.532
 5578SOL    HW117633   3.408   2.016   6.484
 5578SOL    HW217634   3.378   1.947   6.629
 5579SOL     OW17635   4.794   5.217   1.890
 5579SOL    HW117636   4.804   5.308   1.850
 5579SOL    HW217637   4.724   5.219   1.961
 5580SOL     OW17638   5.395   1.181   1.685
 5580SOL    HW117639   5.456   1.160   1.608
 5580SOL    HW217640   5.312   1.225   1.650
 5581SOL     OW17641   2.729   2.827   0.471
 5581SOL    HW117642   2.656   2.840   0.539
 5581SOL    HW217643   2.690   2.838   0.380
 5582SOL     OW17644   3.280   2.934   3.752
 5582SOL    HW117645   3.264   2.927   3.654
 5582SOL    HW217646   3.349   2.866   3.779
 5583SOL     OW17647   4.759   0.764   0.326
 5583SOL    HW117648   4.787   0.743   0.419
 5583SOL    HW217649   4.661   0.746   0.316
 5584SOL     OW17650   5.195   3.252   2.889
 5584SOL    HW117651   5.162   3.190   2.960
 5584SOL    HW217652   5.271   3.209   2.840
 5585SOL     OW17653   0.468   6.525   4.651
 5585SOL    HW117654   0.454   6.504   4.748
 5585SOL    HW217655   0.424   6.455   4.595
 5586SOL     OW17656   2.967   1.340   6.397
 5586SOL    HW117657   2.875   1.377   6.412
 5586SOL    HW217658   3.015   1.334   6.484
 5587SOL     OW17659   3.474   6.336   4.133
 5587SOL    HW117660   3.429   6.249   4.112
 5587SOL    HW217661   3.412   6.393   4.188
 5588SOL     OW17662   4.913   0.189   5.808
 5588SOL    HW117663   4.952   0.281   5.802
 5588SOL    HW217664   4.944   0.145   5.892
 5589SOL     OW17665   2.769   3.782   0.073
 5589SOL    HW117666   2.720   3.819   0.152
 5589SOL    HW217667   2.781   3.854   0.005
 5590SOL     OW17668   6.727   0.358   3.699
 5590SOL    HW117669   6.761   0.435   3.646
 5590SOL    HW217670   6.736   0.273   3.646
 5591SOL     OW17671   5.454   0.067   0.246
 5591SOL    HW117672   5.537   0.122   0.238
 5591SOL    HW217673   5.478   6.991   0.270
 5592SOL     OW17674   1.503   2.419   2.671
 5592SOL    HW117675   1.492   2.376   2.581
 5592SOL    HW217676   1.537   2.512   2.659
 5593SOL     OW17677   2.384   4.541   4.620
 5593SOL    HW117678   2.380   4.514   4.717
 5593SOL    HW217679   2.466   4.596   4.604
 5594SOL     OW17680   3.233   1.611   6.219
 5594SOL    HW117681   3.246   1.709   6.232
 5594SOL    HW217682   3.261   1.585   6.127
 5595SOL     OW17683   0.251   1.997   5.987
 5595SOL    HW117684   0.341   1.976   5.949
 5595SOL    HW217685   0.203   2.060   5.926
 5596SOL     OW17686   4.570   2.566   4.110
 5596SOL    HW117687   4.647   2.604   4.161
 5596SOL    HW217688   4.594   2.475   4.076
 5597SOL     OW17689   6.981   2.083   6.191
 5597SOL    HW117690   6.912   2.094   6.263
 5597SOL    HW217691   6.966   1.997   6.144
 5598SOL     OW17692   6.720   1.909   3.884
 5598SOL    HW117693   6.774   1.973   3.829
 5598SOL    HW217694   6.670   1.848   3.823
 5599SOL     OW17695   5.461   2.323   3.069
 5599SOL    HW117696   5.525   2.252   3.099
 5599SOL    HW217697   5.371   2.283   3.054
 5600SOL     OW17698   2.056   2.567   2.006
 5600SOL    HW117699   2.156   2.576   2.014
 5600SOL    HW217700   2.033   2.550   1.910
 5601SOL     OW17701   5.823   3.395   5.879
 5601SOL    HW117702   5.892   3.341   5.830
 5601SOL    HW217703   5.867   3.475   5.921
 5602SOL     OW17704   6.487   2.479   2.428
 5602SOL    HW117705   6.550   2.531   2.486
 5602SOL    HW217706   6.532   2.395   2.397
 5603SOL     OW17707   3.717   2.196   6.163
 5603SOL    HW117708   3.685   2.102   6.171
 5603SOL    HW217709   3.639   2.258   6.173
 5604SOL     OW17710   1.064   6.206   3.763
 5604SOL    HW117711   0.969   6.236   3.770
 5604SOL    HW217712   1.072   6.114   3.802
 5605SOL     OW17713   4.320   0.456   3.847
 5605SOL    HW117714   4.392   0.432   3.783
 5605SOL    HW217715   4.313   0.555   3.855
 5606SOL     OW17716   4.664   3.228   0.417
 5606SOL    HW117717   4.750   3.191   0.382
 5606SOL    HW217718   4.623   3.163   0.481
 5607SOL     OW17719   0.234   2.538   3.395
 5607SOL    HW117720   0.253   2.458   3.453
 5607SOL    HW217721   0.150   2.582   3.425
 5608SOL     OW17722   5.244   0.361   4.130
 5608SOL    HW117723   5.174   0.422   4.092
 5608SOL    HW217724   5.265   0.388   4.224
 5609SOL     OW17725   6.626   1.078   6.900
 5609SOL    HW117726   6.609   1.068   6.998
 5609SOL    HW217727   6.588   0.999   6.852
 5610SOL     OW17728   6.008   5.854   6.351
 5610SOL    HW117729   5.957   5.904   6.421
 5610SOL    HW217730   5.950   5.782   6.313
 5611SOL     OW17731   6.070   3.981   1.617
 5611SOL    HW117732   6.117   4.046   1.557
 5611SOL    HW217733   5.986   4.022   1.652
 5612SOL     OW17734   3.995   2.310   0.562
 5612SOL    HW117735   3.955   2.262   0.484
 5612SOL    HW217736   3.976   2.259   0.646
 5613SOL     OW17737   6.059   5.430   6.135
 5613SOL    HW117738   6.123   5.507   6.124
 5613SOL    HW217739   6.102   5.347   6.099
 5614SOL     OW17740   4.859   1.998   4.823
 5614SOL    HW117741   4.903   2.077   4.867
 5614SOL    HW217742   4.837   1.929   4.892
 5615SOL     OW17743   0.634   3.157   3.965
 5615SOL    HW117744   0.567   3.197   3.902
 5615SOL    HW217745   0.719   3.139   3.915
 5616SOL     OW17746   1.784   3.177   2.520
 5616SOL    HW117747   1.877   3.204   2.545
 5616SOL    HW217748   1.718   3.234   2.570
 5617SOL     OW17749   1.401   4.959   6.273
 5617SOL    HW117750   1.356   4.878   6.310
 5617SOL    HW217751   1.437   5.014   6.348
 5618SOL     OW17752   4.756   6.896   2.660
 5618SOL    HW117753   4.827   6.842   2.614
 5618SOL    HW217754   4.745   6.864   2.754
 5619SOL     OW17755   3.236   3.311   3.057
 5619SOL    HW117756   3.215   3.381   2.988
 5619SOL    HW217757   3.316   3.340   3.110
 5620SOL     OW17758   5.037   4.481   4.829
 5620SOL    HW117759   5.086   4.428   4.898
 5620SOL    HW217760   4.939   4.460   4.833
 5621SOL     OW17761   0.633   2.657   6.452
 5621SOL    HW117762   0.646   2.718   6.375
 5621SOL    HW217763   0.598   2.709   6.530
 5622SOL     OW17764   4.796   5.230   4.134
 5622SOL    HW117765   4.719   5.282   4.096
 5622SOL    HW217766   4.861   5.208   4.061
 5623SOL     OW17767   4.687   4.743   3.747
 5623SOL    HW117768   4.634   4.824   3.722
 5623SOL    HW217769   4.631   4.661   3.732
 5624SOL     OW17770   4.928   4.240   3.461
 5624SOL    HW117771   4.976   4.165   3.506
 5624SOL    HW217772   4.962   4.327   3.495
 5625SOL     OW17773   2.885   6.633   6.285
 5625SOL    HW117774   2.909   6.641   6.381
 5625SOL    HW217775   2.786   6.628   6.275
 5626SOL     OW17776   1.296   4.635   6.274
 5626SOL    HW117777   1.298   4.590   6.363
 5626SOL    HW217778   1.203   4.631   6.237
 5627SOL     OW17779   1.097   5.121   0.265
 5627SOL    HW117780   1.076   5.029   0.231
 5627SOL    HW217781   1.014   5.162   0.304
 5628SOL     OW17782   1.666   3.186   0.068
 5628SOL    HW117783   1.704   3.262   0.015
 5628SOL    HW217784   1.708   3.100   0.037
 5629SOL     OW17785   6.681   3.489   3.399
 5629SOL    HW117786   6.754   3.433   3.360
 5629SOL    HW217787   6.656   3.454   3.489
 5630SOL     OW17788   0.897   3.376   0.760
 5630SOL    HW117789   0.960   3.348   0.832
 5630SOL    HW217790   0.949   3.402   0.678
 5631SOL     OW17791   3.593   1.273   1.359
 5631SOL    HW117792   3.637   1.211   1.295
 5631SOL    HW217793   3.653   1.351   1.376
 5632SOL     OW17794   4.701   6.320   6.142
 5632SOL    HW117795   4.701   6.366   6.054
 5632SOL    HW217796   4.643   6.239   6.137
 5633SOL     OW17797   1.387   5.416   5.380
 5633SOL    HW117798   1.384   5.346   5.450
 5633SOL    HW217799   1.363   5.377   5.291
 5634SOL     OW17800   3.057   0.773   1.430
 5634SOL    HW117801   3.016   0.860   1.456
 5634SOL    HW217802   3.139   0.790   1.374
 5635SOL     OW17803   3.661   0.651   1.459
 5635SOL    HW117804   3.665   0.713   1.538
 5635SOL    HW217805   3.598   0.576   1.479
 5636SOL     OW17806   5.422   0.489   5.719
 5636SOL    HW117807   5.353   0.536   5.774
 5636SOL    HW217808   5.388   0.480   5.625
 5637SOL     OW17809   5.287   7.010   4.821
 5637SOL    HW117810   5.317   0.032   4.735
 5637SOL    HW217811   5.303   0.056   4.896
 5638SOL     OW17812   6.096   5.708   0.587
 5638SOL    HW117813   6.129   5.629   0.639
 5638SOL    HW217814   6.014   5.745   0.631
 5639SOL     OW17815   2.952   0.497   1.499
 5639SOL    HW117816   2.894   0.560   1.551
 5639SOL    HW217817   2.919   0.404   1.510
 5640SOL     OW17818   3.112   6.954   3.113
 5640SOL    HW117819   3.199   7.004   3.120
 5640SOL    HW217820   3.128   6.857   3.131
 5641SOL     OW17821   6.810   4.178   3.790
 5641SOL    HW117822   6.787   4.087   3.756
 5641SOL    HW217823   6.863   4.227   3.721
 5642SOL     OW17824   2.343   3.544   6.285
 5642SOL    HW117825   2.326   3.489   6.367
 5642SOL    HW217826   2.293   3.631   6.292
 5643SOL     OW17827   5.927   2.378   4.311
 5643SOL    HW117828   5.960   2.404   4.402
 5643SOL    HW217829   6.005   2.357   4.252
 5644SOL     OW17830   3.997   0.336   5.149
 5644SOL    HW117831   3.996   0.406   5.220
 5644SOL    HW217832   4.070   0.356   5.083
 5645SOL     OW17833   6.158   6.392   3.636
 5645SOL    HW117834   6.063   6.422   3.649
 5645SOL    HW217835   6.158   6.300   3.596
 5646SOL     OW17836   6.520   6.571   3.912
 5646SOL    HW117837   6.438   6.583   3.855
 5646SOL    HW217838   6.593   6.532   3.856
 5647SOL     OW17839   6.788   4.055   6.816
 5647SOL    HW117840   6.845   4.136   6.823
 5647SOL    HW217841   6.823   3.995   6.744
 5648SOL     OW17842   2.806   1.114   4.640
 5648SOL    HW117843   2.779   1.208   4.657
 5648SOL    HW217844   2.872   1.111   4.565
 5649SOL     OW17845   1.113   6.853   5.554
 5649SOL    HW117846   1.183   6.880   5.620
 5649SOL    HW217847   1.152   6.785   5.491
 5650SOL     OW17848   6.587   4.697   6.291
 5650SOL    HW117849   6.644   4.624   6.329
 5650SOL    HW217850   6.644   4.772   6.260
 5651SOL     OW17851   5.723   1.454   2.354
 5651SOL    HW117852   5.771   1.407   2.428
 5651SOL    HW217853   5.781   1.526   2.316
 5652SOL     OW17854   5.781   3.958   0.688
 5652SOL    HW117855   5.849   4.001   0.629
 5652SOL    HW217856   5.738   3.881   0.640
 5653SOL     OW17857   2.049   5.877   6.416
 5653SOL    HW117858   2.071   5.885   6.319
 5653SOL    HW217859   2.052   5.781   6.443
 5654SOL     OW17860   1.747   6.151   6.639
 5654SOL    HW117861   1.728   6.242   6.604
 5654SOL    HW217862   1.700   6.083   6.582
 5655SOL     OW17863   6.794   5.627   2.997
 5655SOL    HW117864   6.863   5.564   2.961
 5655SOL    HW217865   6.819   5.654   3.091
 5656SOL     OW17866   3.604   5.657   6.628
 5656SOL    HW117867   3.702   5.641   6.643
 5656SOL    HW217868   3.592   5.723   6.553
 5657SOL     OW17869   4.220   5.414   2.037
 5657SOL    HW117870   4.167   5.499   2.039
 5657SOL    HW217871   4.191   5.355   2.112
 5658SOL     OW17872   5.259   6.600   5.721
 5658SOL    HW117873   5.229   6.645   5.806
 5658SOL    HW217874   5.336   6.540   5.741
 5659SOL     OW17875   3.024   3.945   2.923
 5659SOL    HW117876   3.066   3.909   2.840
 5659SOL    HW217877   2.987   3.869   2.977
 5660SOL     OW17878   6.314   6.319   1.535
 5660SOL    HW117879   6.335   6.268   1.451
 5660SOL    HW217880   6.248   6.391   1.514
 5661SOL     OW17881   6.201   5.766   4.625
 5661SOL    HW117882   6.145   5.847   4.606
 5661SOL    HW217883   6.158   5.685   4.586
 5662SOL     OW17884   2.352   4.810   5.019
 5662SOL    HW117885   2.427   4.746   5.038
 5662SOL    HW217886   2.298   4.776   4.941
 5663SOL     OW17887   2.574   4.232   1.224
 5663SOL    HW117888   2.532   4.302   1.282
 5663SOL    HW217889   2.526   4.145   1.236
 5664SOL     OW17890   0.223   6.018   2.666
 5664SOL    HW117891   0.218   6.061   2.756
 5664SOL    HW217892   0.132   6.006   2.629
 5665SOL     OW17893   1.579   1.415   6.001
 5665SOL    HW117894   1.551   1.481   5.931
 5665SOL    HW217895   1.615   1.333   5.956
 5666SOL     OW17896   5.753   5.810   0.154
 5666SOL    HW117897   5.692   5.888   0.172
 5666SOL    HW217898   5.828   5.839   0.095
 5667SOL     OW17899   6.313   5.712   3.107
 5667SOL    HW117900   6.311   5.647   3.183
 5667SOL    HW217901   6.304   5.805   3.143
 5668SOL     OW17902   6.268   3.627   5.833
 5668SOL    HW117903   6.172   3.609   5.855
 5668SOL    HW217904   6.318   3.540   5.835
 5669SOL     OW17905   6.762   3.253   5.018
 5669SOL    HW117906   6.770   3.172   5.077
 5669SOL    HW217907   6.853   3.278   4.984
 5670SOL     OW17908   1.463   3.668   2.543
 5670SOL    HW117909   1.395   3.620   2.487
 5670SOL    HW217910   1.546   3.613   2.549
 5671SOL     OW17911   1.347   0.929   5.397
 5671SOL    HW117912   1.350   0.854   5.330
 5671SOL    HW217913   1.268   0.916   5.457
 5672SOL     OW17914   5.349   3.618   6.007
 5672SOL    HW117915   5.321   3.670   5.926
 5672SOL    HW217916   5.277   3.553   6.032
 5673SOL     OW17917   1.437   0.532   0.952
 5673SOL    HW117918   1.476   0.452   0.907
 5673SOL    HW217919   1.345   0.511   0.985
 5674SOL     OW17920   6.335   3.040   1.289
 5674SOL    HW117921   6.259   2.980   1.267
 5674SOL    HW217922   6.343   3.111   1.220
 5675SOL     OW17923   3.790   1.143   6.317
 5675SOL    HW117924   3.864   1.094   6.364
 5675SOL    HW217925   3.702   1.104   6.343
 5676SOL     OW17926   3.389   0.087   1.551
 5676SOL    HW117927   3.295   0.101   1.521
 5676SOL    HW217928   3.452   0.114   1.477
 5677SOL     OW17929   6.830   1.072   3.882
 5677SOL    HW117930   6.915   1.125   3.876
 5677SOL    HW217931   6.771   1.095   3.805
 5678SOL     OW17932   1.684   5.184   3.396
 5678SOL    HW117933   1.768   5.184   3.342
 5678SOL    HW217934   1.606   5.166   3.337
 5679SOL     OW17935   3.266   5.770   5.191
 5679SOL    HW117936   3.364   5.764   5.213
 5679SOL    HW217937   3.255   5.816   5.103
 5680SOL     OW17938   2.094   0.001   6.565
 5680SOL    HW117939   2.172   0.060   6.545
 5680SOL    HW217940   2.103   6.981   6.657
 5681SOL     OW17941   2.431   3.819   0.125
 5681SOL    HW117942   2.488   3.859   0.197
 5681SOL    HW217943   2.369   3.751   0.165
 5682SOL     OW17944   0.987   3.987   4.157
 5682SOL    HW117945   1.063   3.998   4.092
 5682SOL    HW217946   0.905   4.028   4.118
 5683SOL     OW17947   4.138   3.495   4.541
 5683SOL    HW117948   4.121   3.570   4.477
 5683SOL    HW217949   4.139   3.530   4.634
 5684SOL     OW17950   2.893   3.755   3.134
 5684SOL    HW117951   2.918   3.667   3.175
 5684SOL    HW217952   2.806   3.746   3.086
 5685SOL     OW17953   0.729   5.532   2.128
 5685SOL    HW117954   0.777   5.504   2.044
 5685SOL    HW217955   0.739   5.460   2.197
 5686SOL     OW17956   3.517   5.174   6.875
 5686SOL    HW117957   3.473   5.229   6.804
 5686SOL    HW217958   3.608   5.211   6.894
 5687SOL     OW17959   4.271   5.555   6.192
 5687SOL    HW117960   4.343   5.548   6.260
 5687SOL    HW217961   4.217   5.637   6.209
 5688SOL     OW17962   5.683   1.772   2.595
 5688SOL    HW117963   5.760   1.765   2.532
 5688SOL    HW217964   5.714   1.810   2.682
 5689SOL     OW17965   4.482   2.903   6.403
 5689SOL    HW117966   4.389   2.933   6.386
 5689SOL    HW217967   4.482   2.807   6.433
 5690SOL     OW17968   4.442   6.574   2.235
 5690SOL    HW117969   4.354   6.617   2.216
 5690SOL    HW217970   4.441   6.534   2.327
 5691SOL     OW17971   2.662   0.191   3.581
 5691SOL    HW117972   2.580   0.248   3.571
 5691SOL    HW217973   2.741   0.239   3.543
 5692SOL     OW17974   5.763   3.402   0.232
 5692SOL    HW117975   5.806   3.315   0.206
 5692SOL    HW217976   5.832   3.461   0.275
 5693SOL     OW17977   4.697   2.693   2.666
 5693SOL    HW117978   4.722   2.727   2.756
 5693SOL    HW217979   4.701   2.768   2.600
 5694SOL     OW17980   1.479   1.791   4.278
 5694SOL    HW117981   1.546   1.837   4.220
 5694SOL    HW217982   1.455   1.850   4.354
 5695SOL     OW17983   1.868   3.943   3.610
 5695SOL    HW117984   1.781   3.928   3.657
 5695SOL    HW217985   1.851   3.964   3.514
 5696SOL     OW17986   3.289   0.523   6.004
 5696SOL    HW117987   3.377   0.508   6.048
 5696SOL    HW217988   3.290   0.610   5.955
 5697SOL     OW17989   6.359   3.495   6.872
 5697SOL    HW117990   6.267   3.475   6.905
 5697SOL    HW217991   6.363   3.588   6.837
 5698SOL     OW17992   1.066   4.243   2.739
 5698SOL    HW117993   1.027   4.331   2.767
 5698SOL    HW217994   1.079   4.185   2.819
 5699SOL     OW17995   6.435   1.607   4.805
 5699SOL    HW117996   6.528   1.577   4.782
 5699SOL    HW217997   6.387   1.634   4.722
 5700SOL     OW17998   1.039   5.362   2.742
 5700SOL    HW117999   1.129   5.404   2.750
 5700SOL    HW218000   0.986   5.381   2.825
 5701SOL     OW18001   5.176   5.135   2.087
 5701SOL    HW118002   5.115   5.215   2.083
 5701SOL    HW218003   5.271   5.166   2.093
 5702SOL     OW18004   2.228   0.477   6.916
 5702SOL    HW118005   2.183   0.393   6.887
 5702SOL    HW218006   2.217   0.547   6.845
 5703SOL     OW18007   4.612   4.251   1.634
 5703SOL    HW118008   4.553   4.249   1.714
 5703SOL    HW218009   4.699   4.205   1.656
 5704SOL     OW18010   5.153   4.461   3.522
 5704SOL    HW118011   5.177   4.536   3.459
 5704SOL    HW218012   5.131   4.499   3.612
 5705SOL     OW18013   5.558   1.627   2.848
 5705SOL    HW118014   5.629   1.691   2.878
 5705SOL    HW218015   5.589   1.580   2.765
 5706SOL     OW18016   2.017   0.856   6.936
 5706SOL    HW118017   2.041   0.947   6.970
 5706SOL    HW218018   1.932   0.826   6.978
 5707SOL     OW18019   3.256   1.863   6.272
 5707SOL    HW118020   3.292   1.870   6.365
 5707SOL    HW218021   3.304   1.929   6.214
 5708SOL     OW18022   6.474   6.933   1.860
 5708SOL    HW118023   6.570   6.960   1.859
 5708SOL    HW218024   6.452   6.891   1.948
 5709SOL     OW18025   1.067   1.269   2.418
 5709SOL    HW118026   1.031   1.360   2.440
 5709SOL    HW218027   0.996   1.215   2.372
 5710SOL     OW18028   3.161   4.369   6.385
 5710SOL    HW118029   3.175   4.350   6.287
 5710SOL    HW218030   3.250   4.369   6.431
 5711SOL     OW18031   4.779   1.284   4.821
 5711SOL    HW118032   4.724   1.249   4.897
 5711SOL    HW218033   4.866   1.319   4.856
 5712SOL     OW18034   6.923   6.179   6.694
 5712SOL    HW118035   6.850   6.215   6.637
 5712SOL    HW218036   6.909   6.208   6.789
 5713SOL     OW18037   6.912   2.582   2.842
 5713SOL    HW118038   6.933   2.521   2.766
 5713SOL    HW218039   6.992   2.590   2.902
 5714SOL     OW18040   2.010   0.838   6.406
 5714SOL    HW118041   1.987   0.892   6.487
 5714SOL    HW218042   2.057   0.755   6.435
 5715SOL     OW18043   1.586   6.815   3.325
 5715SOL    HW118044   1.596   6.717   3.311
 5715SOL    HW218045   1.667   6.862   3.290
 5716SOL     OW18046   1.624   2.688   4.905
 5716SOL    HW118047   1.670   2.660   4.989
 5716SOL    HW218048   1.679   2.660   4.826
 5717SOL     OW18049   0.501   3.572   6.955
 5717SOL    HW118050   0.451   3.658   6.960
 5717SOL    HW218051   0.524   3.542   0.030
 5718SOL     OW18052   2.136   5.166   4.836
 5718SOL    HW118053   2.227   5.141   4.802
 5718SOL    HW218054   2.082   5.083   4.852
 5719SOL     OW18055   2.750   0.281   0.101
 5719SOL    HW118056   2.832   0.314   0.053
 5719SOL    HW218057   2.704   0.358   0.145
 5720SOL     OW18058   2.215   6.046   3.912
 5720SOL    HW118059   2.117   6.035   3.893
 5720SOL    HW218060   2.247   5.972   3.971
 5721SOL     OW18061   0.097   4.037   0.431
 5721SOL    HW118062   0.047   3.972   0.488
 5721SOL    HW218063   0.136   4.109   0.489
 5722SOL     OW18064   5.478   1.294   3.708
 5722SOL    HW118065   5.394   1.245   3.729
 5722SOL    HW218066   5.540   1.233   3.657
 5723SOL     OW18067   1.301   4.413   0.532
 5723SOL    HW118068   1.222   4.466   0.563
 5723SOL    HW218069   1.280   4.315   0.541
 5724SOL     OW18070   4.959   2.165   6.296
 5724SOL    HW118071   4.955   2.264   6.307
 5724SOL    HW218072   5.047   2.139   6.258
 5725SOL     OW18073   5.134   5.793   5.958
 5725SOL    HW118074   5.162   5.887   5.938
 5725SOL    HW218075   5.082   5.757   5.881
 5726SOL     OW18076   4.538   3.565   5.498
 5726SOL    HW118077   4.602   3.490   5.483
 5726SOL    HW218078   4.458   3.554   5.439
 5727SOL     OW18079   6.122   2.256   3.875
 5727SOL    HW118080   6.205   2.229   3.825
 5727SOL    HW218081   6.043   2.210   3.834
 5728SOL     OW18082   4.791   0.644   5.904
 5728SOL    HW118083   4.848   0.724   5.924
 5728SOL    HW218084   4.726   0.630   5.979
 5729SOL     OW18085   1.147   3.239   4.870
 5729SOL    HW118086   1.124   3.185   4.951
 5729SOL    HW218087   1.210   3.187   4.813
 5730SOL     OW18088   4.178   5.411   6.945
 5730SOL    HW118089   4.201   5.465   0.007
 5730SOL    HW218090   4.111   5.341   6.969
 5731SOL     OW18091   4.131   1.119   4.533
 5731SOL    HW118092   4.089   1.205   4.563
 5731SOL    HW218093   4.219   1.138   4.490
 5732SOL     OW18094   5.766   3.984   3.952
 5732SOL    HW118095   5.717   3.999   4.038
 5732SOL    HW218096   5.844   3.923   3.968
 5733SOL     OW18097   2.320   6.893   1.145
 5733SOL    HW118098   2.361   6.901   1.055
 5733SOL    HW218099   2.309   6.984   1.185
 5734SOL     OW18100   1.628   6.496   6.438
 5734SOL    HW118101   1.658   6.590   6.453
 5734SOL    HW218102   1.534   6.497   6.404
 5735SOL     OW18103   5.226   0.822   2.270
 5735SOL    HW118104   5.219   0.918   2.299
 5735SOL    HW218105   5.156   0.768   2.317
 5736SOL     OW18106   6.348   4.757   6.961
 5736SOL    HW118107   6.344   4.661   6.989
 5736SOL    HW218108   6.258   4.786   6.928
 5737SOL     OW18109   4.615   5.495   1.587
 5737SOL    HW118110   4.516   5.503   1.598
 5737SOL    HW218111   4.641   5.533   1.498
 5738SOL     OW18112   2.212   0.357   0.828
 5738SOL    HW118113   2.194   0.259   0.833
 5738SOL    HW218114   2.276   0.383   0.900
 5739SOL     OW18115   2.445   1.154   5.822
 5739SOL    HW118116   2.466   1.125   5.729
 5739SOL    HW218117   2.513   1.221   5.852
 5740SOL     OW18118   4.874   3.465   2.455
 5740SOL    HW118119   4.896   3.393   2.521
 5740SOL    HW218120   4.871   3.425   2.363
 5741SOL     OW18121   0.282   3.395   4.018
 5741SOL    HW118122   0.261   3.297   4.019
 5741SOL    HW218123   0.213   3.444   3.965
 5742SOL     OW18124   5.657   0.027   3.411
 5742SOL    HW118125   5.558   0.032   3.403
 5742SOL    HW218126   5.688   6.953   3.386
 5743SOL     OW18127   3.166   5.302   6.792
 5743SOL    HW118128   3.108   5.368   6.745
 5743SOL    HW218129   3.259   5.307   6.756
 5744SOL     OW18130   5.227   6.856   3.192
 5744SOL    HW118131   5.170   6.932   3.162
 5744SOL    HW218132   5.171   6.789   3.240
 5745SOL     OW18133   1.112   2.814   1.723
 5745SOL    HW118134   1.061   2.774   1.799
 5745SOL    HW218135   1.123   2.912   1.738
 5746SOL     OW18136   4.844   6.653   3.180
 5746SOL    HW118137   4.868   6.729   3.118
 5746SOL    HW218138   4.879   6.567   3.141
 5747SOL     OW18139   1.578   6.789   0.678
 5747SOL    HW118140   1.560   6.692   0.695
 5747SOL    HW218141   1.630   6.827   0.755
 5748SOL     OW18142   0.013   6.224   0.847
 5748SOL    HW118143   0.107   6.197   0.826
 5748SOL    HW218144   6.992   6.159   0.912
 5749SOL     OW18145   1.967   5.585   6.248
 5749SOL    HW118146   1.921   5.674   6.242
 5749SOL    HW218147   1.998   5.571   6.342
 5750SOL     OW18148   0.009   3.042   4.751
 5750SOL    HW118149   0.011   3.094   4.666
 5750SOL    HW218150   0.100   3.044   4.793
 5751SOL     OW18151   1.268   3.728   4.740
 5751SOL    HW118152   1.222   3.740   4.828
 5751SOL    HW218153   1.366   3.740   4.751
 5752SOL     OW18154   5.245   0.568   1.008
 5752SOL    HW118155   5.326   0.540   0.957
 5752SOL    HW218156   5.190   0.487   1.029
 5753SOL     OW18157   3.821   4.147   4.863
 5753SOL    HW118158   3.779   4.120   4.777
 5753SOL    HW218159   3.909   4.191   4.845
 5754SOL     OW18160   0.764   5.850   1.477
 5754SOL    HW118161   0.741   5.932   1.530
 5754SOL    HW218162   0.700   5.840   1.401
 5755SOL     OW18163   1.007   2.833   6.439
 5755SOL    HW118164   1.066   2.774   6.493
 5755SOL    HW218165   0.935   2.778   6.396
 5756SOL     OW18166   5.741   6.235   1.572
 5756SOL    HW118167   5.673   6.304   1.548
 5756SOL    HW218168   5.748   6.169   1.497
 5757SOL     OW18169   6.767   1.052   4.125
 5757SOL    HW118170   6.780   1.057   4.026
 5757SOL    HW218171   6.781   1.143   4.165
 5758SOL     OW18172   5.918   6.746   3.136
 5758SOL    HW118173   5.952   6.695   3.215
 5758SOL    HW218174   5.820   6.728   3.124
 5759SOL     OW18175   2.529   0.194   1.532
 5759SOL    HW118176   2.478   0.155   1.456
 5759SOL    HW218177   2.471   0.198   1.613
 5760SOL     OW18178   1.972   2.628   0.257
 5760SOL    HW118179   2.056   2.650   0.208
 5760SOL    HW218180   1.923   2.712   0.280
 5761SOL     OW18181   6.292   0.129   4.529
 5761SOL    HW118182   6.334   0.061   4.590
 5761SOL    HW218183   6.222   0.179   4.578
 5762SOL     OW18184   0.325   5.549   6.571
 5762SOL    HW118185   0.375   5.635   6.585
 5762SOL    HW218186   0.359   5.504   6.489
 5763SOL     OW18187   5.811   0.041   0.242
 5763SOL    HW118188   5.771   0.130   0.221
 5763SOL    HW218189   5.796   0.019   0.338
 5764SOL     OW18190   4.984   6.057   3.934
 5764SOL    HW118191   4.986   6.111   3.850
 5764SOL    HW218192   4.890   6.030   3.955
 5765SOL     OW18193   6.028   5.130   2.467
 5765SOL    HW118194   6.077   5.068   2.527
 5765SOL    HW218195   6.001   5.082   2.383
 5766SOL     OW18196   0.163   1.203   4.504
 5766SOL    HW118197   0.221   1.167   4.577
 5766SOL    HW218198   0.078   1.239   4.543
 5767SOL     OW18199   3.877   6.697   6.736
 5767SOL    HW118200   3.910   6.712   6.830
 5767SOL    HW218201   3.795   6.641   6.738
 5768SOL     OW18202   0.678   0.716   5.337
 5768SOL    HW118203   0.682   0.674   5.246
 5768SOL    HW218204   0.766   0.758   5.359
 5769SOL     OW18205   1.938   3.928   5.431
 5769SOL    HW118206   2.022   3.930   5.376
 5769SOL    HW218207   1.947   3.994   5.506
 5770SOL     OW18208   2.388   4.231   1.871
 5770SOL    HW118209   2.334   4.301   1.822
 5770SOL    HW218210   2.470   4.274   1.909
 5771SOL     OW18211   3.555   4.926   3.824
 5771SOL    HW118212   3.535   4.964   3.735
 5771SOL    HW218213   3.532   4.828   3.825
 5772SOL     OW18214   3.324   0.230   2.270
 5772SOL    HW118215   3.383   0.236   2.350
 5772SOL    HW218216   3.271   0.315   2.261
 5773SOL     OW18217   4.961   1.496   2.563
 5773SOL    HW118218   4.979   1.561   2.490
 5773SOL    HW218219   5.037   1.495   2.627
 5774SOL     OW18220   0.706   6.837   2.099
 5774SOL    HW118221   0.749   6.757   2.141
 5774SOL    HW218222   0.634   6.871   2.159
 5775SOL     OW18223   6.242   5.424   1.308
 5775SOL    HW118224   6.148   5.442   1.280
 5775SOL    HW218225   6.266   5.329   1.285
 5776SOL     OW18226   2.767   1.090   4.193
 5776SOL    HW118227   2.712   1.123   4.117
 5776SOL    HW218228   2.863   1.087   4.166
 5777SOL     OW18229   2.001   6.510   2.333
 5777SOL    HW118230   2.038   6.603   2.345
 5777SOL    HW218231   1.938   6.509   2.256
 5778SOL     OW18232   0.776   1.632   0.875
 5778SOL    HW118233   0.830   1.642   0.791
 5778SOL    HW218234   0.815   1.558   0.931
 5779SOL     OW18235   5.789   1.067   5.954
 5779SOL    HW118236   5.806   0.983   6.006
 5779SOL    HW218237   5.786   1.145   6.016
 5780SOL     OW18238   5.138   5.272   4.338
 5780SOL    HW118239   5.175   5.345   4.396
 5780SOL    HW218240   5.060   5.308   4.285
 5781SOL     OW18241   0.839   5.057   5.228
 5781SOL    HW118242   0.924   5.102   5.201
 5781SOL    HW218243   0.799   5.011   5.148
 5782SOL     OW18244   0.343   0.623   0.540
 5782SOL    HW118245   0.384   0.711   0.514
 5782SOL    HW218246   0.386   0.590   0.624
 5783SOL     OW18247   1.870   1.922   0.839
 5783SOL    HW118248   1.797   1.918   0.771
 5783SOL    HW218249   1.945   1.977   0.804
 5784SOL     OW18250   6.751   5.794   6.671
 5784SOL    HW118251   6.690   5.870   6.691
 5784SOL    HW218252   6.771   5.792   6.573
 5785SOL     OW18253   0.859   1.237   0.702
 5785SOL    HW118254   0.844   1.310   0.635
 5785SOL    HW218255   0.950   1.246   0.742
 5786SOL     OW18256   5.764   5.244   1.964
 5786SOL    HW118257   5.807   5.318   2.015
 5786SOL    HW218258   5.735   5.173   2.028
 5787SOL     OW18259   2.430   2.644   6.166
 5787SOL    HW118260   2.421   2.723   6.226
 5787SOL    HW218261   2.451   2.674   6.073
 5788SOL     OW18262   2.451   0.982   3.809
 5788SOL    HW118263   2.546   0.955   3.828
 5788SOL    HW218264   2.399   0.903   3.778
 5789SOL     OW18265   4.035   4.641   6.254
 5789SOL    HW118266   3.947   4.597   6.235
 5789SOL    HW218267   4.064   4.692   6.173
 5790SOL     OW18268   1.079   3.252   3.477
 5790SOL    HW118269   1.098   3.197   3.558
 5790SOL    HW218270   1.074   3.192   3.396
 5791SOL     OW18271   2.204   0.703   2.924
 5791SOL    HW118272   2.181   0.606   2.929
 5791SOL    HW218273   2.304   0.714   2.927
 5792SOL     OW18274   6.998   2.407   2.649
 5792SOL    HW118275   7.015   2.475   2.578
 5792SOL    HW218276   6.960   2.324   2.607
 5793SOL     OW18277   0.315   0.725   4.087
 5793SOL    HW118278   0.357   0.669   4.016
 5793SOL    HW218279   0.216   0.726   4.076
 5794SOL     OW18280   4.823   4.275   6.668
 5794SOL    HW118281   4.773   4.292   6.753
 5794SOL    HW218282   4.790   4.191   6.625
 5795SOL     OW18283   5.739   4.287   6.879
 5795SOL    HW118284   5.669   4.217   6.892
 5795SOL    HW218285   5.790   4.268   6.795
 5796SOL     OW18286   3.768   2.238   0.402
 5796SOL    HW118287   3.718   2.177   0.462
 5796SOL    HW218288   3.724   2.328   0.401
 5797SOL     OW18289   3.060   2.023   5.764
 5797SOL    HW118290   3.090   1.985   5.676
 5797SOL    HW218291   2.982   2.084   5.749
 5798SOL     OW18292   6.690   4.562   4.283
 5798SOL    HW118293   6.727   4.472   4.306
 5798SOL    HW218294   6.658   4.562   4.189
 5799SOL     OW18295   5.756   0.385   3.642
 5799SOL    HW118296   5.812   0.303   3.632
 5799SOL    HW218297   5.665   0.368   3.604
 5800SOL     OW18298   5.558   5.310   0.941
 5800SOL    HW118299   5.460   5.288   0.939
 5800SOL    HW218300   5.588   5.335   0.849
 5801SOL     OW18301   2.380   1.318   3.165
 5801SOL    HW118302   2.347   1.404   3.204
 5801SOL    HW218303   2.338   1.241   3.214
 5802SOL     OW18304   0.564   2.832   4.959
 5802SOL    HW118305   0.609   2.921   4.944
 5802SOL    HW218306   0.478   2.846   5.008
 5803SOL     OW18307   1.769   4.385   0.312
 5803SOL    HW118308   1.853   4.347   0.350
 5803SOL    HW218309   1.691   4.351   0.364
 5804SOL     OW18310   6.309   3.340   4.960
 5804SOL    HW118311   6.307   3.284   5.043
 5804SOL    HW218312   6.399   3.385   4.953
 5805SOL     OW18313   5.375   3.420   0.020
 5805SOL    HW118314   5.344   3.515   0.021
 5805SOL    HW218315   5.366   3.381   0.111
 5806SOL     OW18316   0.277   6.441   0.317
 5806SOL    HW118317   0.266   6.463   0.414
 5806SOL    HW218318   0.361   6.389   0.304
 5807SOL     OW18319   2.031   3.627   1.758
 5807SOL    HW118320   2.114   3.608   1.811
 5807SOL    HW218321   1.989   3.711   1.790
 5808SOL     OW18322   6.912   3.527   3.060
 5808SOL    HW118323   6.952   3.540   3.151
 5808SOL    HW218324   6.815   3.507   3.068
 5809SOL     OW18325   6.632   3.449   4.159
 5809SOL    HW118326   6.543   3.477   4.196
 5809SOL    HW218327   6.688   3.411   4.231
 5810SOL     OW18328   2.641   2.393   2.329
 5810SOL    HW118329   2.625   2.411   2.232
 5810SOL    HW218330   2.601   2.466   2.384
 5811SOL     OW18331   2.267   1.692   3.485
 5811SOL    HW118332   2.211   1.773   3.468
 5811SOL    HW218333   2.209   1.618   3.519
 5812SOL     OW18334   4.237   0.792   4.731
 5812SOL    HW118335   4.269   0.770   4.639
 5812SOL    HW218336   4.298   0.750   4.799
 5813SOL     OW18337   1.388   0.632   5.356
 5813SOL    HW118338   1.297   0.652   5.392
 5813SOL    HW218339   1.389   0.540   5.317
 5814SOL     OW18340   0.173   5.128   0.773
 5814SOL    HW118341   0.183   5.077   0.687
 5814SOL    HW218342   0.143   5.065   0.845
 5815SOL     OW18343   3.114   1.805   2.650
 5815SOL    HW118344   3.083   1.852   2.567
 5815SOL    HW218345   3.114   1.706   2.635
 5816SOL     OW18346   4.809   0.397   0.953
 5816SOL    HW118347   4.881   0.453   0.912
 5816SOL    HW218348   4.737   0.379   0.886
 5817SOL     OW18349   5.117   2.158   4.938
 5817SOL    HW118350   5.194   2.187   4.882
 5817SOL    HW218351   5.083   2.235   4.992
 5818SOL     OW18352   6.129   6.183   5.968
 5818SOL    HW118353   6.186   6.101   5.975
 5818SOL    HW218354   6.178   6.260   6.009
 5819SOL     OW18355   6.244   0.061   1.187
 5819SOL    HW118356   6.214   0.054   1.282
 5819SOL    HW218357   6.262   0.157   1.165
 5820SOL     OW18358   5.407   6.251   3.189
 5820SOL    HW118359   5.394   6.243   3.287
 5820SOL    HW218360   5.318   6.252   3.143
 5821SOL     OW18361   2.769   0.737   1.474
 5821SOL    HW118362   2.792   0.760   1.569
 5821SOL    HW218363   2.851   0.740   1.418
 5822SOL     OW18364   0.126   1.413   2.281
 5822SOL    HW118365   0.106   1.336   2.220
 5822SOL    HW218366   0.225   1.416   2.299
 5823SOL     OW18367   2.764   2.121   4.112
 5823SOL    HW118368   2.813   2.113   4.026
 5823SOL    HW218369   2.758   2.031   4.156
 5824SOL     OW18370   4.880   0.071   3.957
 5824SOL    HW118371   4.788   0.094   3.924
 5824SOL    HW218372   4.882   0.078   4.056
 5825SOL     OW18373   2.519   0.627   1.053
 5825SOL    HW118374   2.485   0.708   1.100
 5825SOL    HW218375   2.604   0.597   1.096
 5826SOL     OW18376   6.666   0.813   4.723
 5826SOL    HW118377   6.760   0.780   4.732
 5826SOL    HW218378   6.643   0.870   4.802
 5827SOL     OW18379   1.057   5.561   4.745
 5827SOL    HW118380   0.966   5.519   4.752
 5827SOL    HW218381   1.125   5.491   4.724
 5828SOL     OW18382   0.101   3.500   1.736
 5828SOL    HW118383   0.121   3.569   1.806
 5828SOL    HW218384   0.182   3.485   1.680
 5829SOL     OW18385   1.645   1.238   1.761
 5829SOL    HW118386   1.625   1.143   1.734
 5829SOL    HW218387   1.720   1.239   1.826
 5830SOL     OW18388   2.093   1.605   5.820
 5830SOL    HW118389   2.003   1.642   5.798
 5830SOL    HW218390   2.163   1.655   5.770
 5831SOL     OW18391   5.455   6.457   2.983
 5831SOL    HW118392   5.450   6.406   3.069
 5831SOL    HW218393   5.375   6.516   2.974
 5832SOL     OW18394   3.765   3.848   4.973
 5832SOL    HW118395   3.689   3.877   4.916
 5832SOL    HW218396   3.852   3.870   4.929
 5833SOL     OW18397   3.549   3.233   4.853
 5833SOL    HW118398   3.627   3.187   4.812
 5833SOL    HW218399   3.569   3.330   4.863
 5834SOL     OW18400   6.012   1.048   0.527
 5834SOL    HW118401   5.961   1.098   0.457
 5834SOL    HW218402   6.103   1.088   0.538
 5835SOL     OW18403   4.909   2.519   4.135
 5835SOL    HW118404   4.846   2.474   4.072
 5835SOL    HW218405   4.998   2.529   4.090
 5836SOL     OW18406   3.383   6.091   2.423
 5836SOL    HW118407   3.333   6.176   2.406
 5836SOL    HW218408   3.357   6.022   2.355
 5837SOL     OW18409   4.587   4.589   6.514
 5837SOL    HW118410   4.582   4.495   6.480
 5837SOL    HW218411   4.507   4.640   6.484
 5838SOL     OW18412   0.861   1.019   5.481
 5838SOL    HW118413   0.852   1.092   5.549
 5838SOL    HW218414   0.937   1.040   5.419
 5839SOL     OW18415   0.178   3.167   2.822
 5839SOL    HW118416   0.090   3.214   2.834
 5839SOL    HW218417   0.187   3.137   2.727
 5840SOL     OW18418   1.907   4.922   6.214
 5840SOL    HW118419   2.002   4.951   6.200
 5840SOL    HW218420   1.856   4.994   6.260
 5841SOL     OW18421   6.901   2.252   3.150
 5841SOL    HW118422   6.952   2.273   3.234
 5841SOL    HW218423   6.810   2.295   3.155
 5842SOL     OW18424   3.724   3.473   0.782
 5842SOL    HW118425   3.786   3.448   0.856
 5842SOL    HW218426   3.743   3.417   0.702
 5843SOL     OW18427   1.475   3.446   1.775
 5843SOL    HW118428   1.566   3.480   1.797
 5843SOL    HW218429   1.416   3.522   1.749
 5844SOL     OW18430   0.808   6.349   6.765
 5844SOL    HW118431   0.803   6.287   6.686
 5844SOL    HW218432   0.862   6.430   6.740
 5845SOL     OW18433   0.857   2.202   4.500
 5845SOL    HW118434   0.804   2.285   4.519
 5845SOL    HW218435   0.952   2.226   4.483
 5846SOL     OW18436   6.864   3.025   6.067
 5846SOL    HW118437   6.914   3.010   6.153
 5846SOL    HW218438   6.856   2.939   6.017
 5847SOL     OW18439   2.247   2.648   3.052
 5847SOL    HW118440   2.168   2.685   3.101
 5847SOL    HW218441   2.331   2.687   3.089
 5848SOL     OW18442   1.381   4.587   3.715
 5848SOL    HW118443   1.376   4.511   3.780
 5848SOL    HW218444   1.475   4.594   3.681
 5849SOL     OW18445   2.434   6.633   5.593
 5849SOL    HW118446   2.343   6.599   5.614
 5849SOL    HW218447   2.438   6.731   5.612
 5850SOL     OW18448   0.864   4.712   2.752
 5850SOL    HW118449   0.775   4.667   2.739
 5850SOL    HW218450   0.885   4.716   2.849
 5851SOL     OW18451   6.366   3.348   1.876
 5851SOL    HW118452   6.357   3.415   1.949
 5851SOL    HW218453   6.275   3.319   1.845
 5852SOL     OW18454   4.131   5.570   2.967
 5852SOL    HW118455   4.044   5.620   2.968
 5852SOL    HW218456   4.132   5.504   3.042
 5853SOL     OW18457   3.525   4.262   5.946
 5853SOL    HW118458   3.442   4.234   5.993
 5853SOL    HW218459   3.511   4.254   5.847
 5854SOL     OW18460   6.953   1.061   6.543
 5854SOL    HW118461   0.018   1.009   6.526
 5854SOL    HW218462   6.976   1.149   6.583
 5855SOL     OW18463   1.801   1.009   4.803
 5855SOL    HW118464   1.746   1.030   4.723
 5855SOL    HW218465   1.755   0.939   4.858
 5856SOL     OW18466   2.019   4.807   3.782
 5856SOL    HW118467   2.118   4.818   3.776
 5856SOL    HW218468   1.998   4.737   3.851
 5857SOL     OW18469   6.765   2.668   5.314
 5857SOL    HW118470   6.818   2.740   5.358
 5857SOL    HW218471   6.693   2.709   5.258
 5858SOL     OW18472   3.985   0.617   2.569
 5858SOL    HW118473   3.961   0.647   2.477
 5858SOL    HW218474   4.045   0.685   2.612
 5859SOL     OW18475   6.412   6.489   1.052
 5859SOL    HW118476   6.404   6.406   1.106
 5859SOL    HW218477   6.389   6.568   1.109
 5860SOL     OW18478   1.640   3.659   0.908
 5860SOL    HW118479   1.740   3.651   0.910
 5860SOL    HW218480   1.607   3.687   0.999
 5861SOL     OW18481   6.147   2.359   4.117
 5861SOL    HW118482   6.110   2.451   4.101
 5861SOL    HW218483   6.137   2.304   4.034
 5862SOL     OW18484   4.866   4.274   2.695
 5862SOL    HW118485   4.847   4.181   2.726
 5862SOL    HW218486   4.915   4.324   2.767
 5863SOL     OW18487   2.268   1.457   0.011
 5863SOL    HW118488   2.188   1.399   7.016
 5863SOL    HW218489   2.348   1.400   0.031
 5864SOL     OW18490   4.732   5.006   1.192
 5864SOL    HW118491   4.710   4.950   1.272
 5864SOL    HW218492   4.647   5.037   1.148
 5865SOL     OW18493   3.990   0.538   3.072
 5865SOL    HW118494   4.045   0.608   3.027
 5865SOL    HW218495   3.893   0.563   3.066
 5866SOL     OW18496   3.932   0.238   6.597
 5866SOL    HW118497   3.990   0.266   6.520
 5866SOL    HW218498   3.934   0.139   6.605
 5867SOL     OW18499   0.273   2.367   1.344
 5867SOL    HW118500   0.293   2.301   1.416
 5867SOL    HW218501   0.353   2.378   1.285
 5868SOL     OW18502   1.429   6.823   5.227
 5868SOL    HW118503   1.437   6.743   5.168
 5868SOL    HW218504   1.496   6.892   5.201
 5869SOL     OW18505   2.708   4.761   3.477
 5869SOL    HW118506   2.745   4.774   3.385
 5869SOL    HW218507   2.653   4.677   3.480
 5870SOL     OW18508   5.472   4.986   4.994
 5870SOL    HW118509   5.508   5.025   4.909
 5870SOL    HW218510   5.386   4.939   4.974
 5871SOL     OW18511   3.115   3.103   6.851
 5871SOL    HW118512   3.055   3.115   6.930
 5871SOL    HW218513   3.063   3.119   6.767
 5872SOL     OW18514   3.187   6.063   5.166
 5872SOL    HW118515   3.167   6.005   5.087
 5872SOL    HW218516   3.223   6.151   5.135
 5873SOL     OW18517   2.648   3.532   0.065
 5873SOL    HW118518   2.689   3.623   0.053
 5873SOL    HW218519   2.634   3.515   0.162
 5874SOL     OW18520   1.474   4.122   0.810
 5874SOL    HW118521   1.516   4.170   0.887
 5874SOL    HW218522   1.381   4.096   0.834
 5875SOL     OW18523   4.243   1.845   0.185
 5875SOL    HW118524   4.236   1.747   0.165
 5875SOL    HW218525   4.151   1.883   0.196
 5876SOL     OW18526   3.330   4.569   5.893
 5876SOL    HW118527   3.360   4.473   5.895
 5876SOL    HW218528   3.318   4.602   5.987
 5877SOL     OW18529   6.964   6.903   2.960
 5877SOL    HW118530   6.891   6.936   3.019
 5877SOL    HW218531   6.934   6.906   2.865
 5878SOL     OW18532   5.108   4.591   2.224
 5878SOL    HW118533   5.054   4.523   2.273
 5878SOL    HW218534   5.150   4.548   2.143
 5879SOL     OW18535   3.724   3.217   5.864
 5879SOL    HW118536   3.752   3.165   5.945
 5879SOL    HW218537   3.720   3.156   5.785
 5880SOL     OW18538   5.423   2.653   5.920
 5880SOL    HW118539   5.483   2.674   5.843
 5880SOL    HW218540   5.470   2.675   6.006
 5881SOL     OW18541   1.568   6.269   2.554
 5881SOL    HW118542   1.531   6.194   2.499
 5881SOL    HW218543   1.505   6.290   2.628
 5882SOL     OW18544   1.642   5.002   5.333
 5882SOL    HW118545   1.738   4.982   5.352
 5882SOL    HW218546   1.601   4.926   5.283
 5883SOL     OW18547   6.568   4.836   0.537
 5883SOL    HW118548   6.526   4.848   0.628
 5883SOL    HW218549   6.639   4.905   0.524
 5884SOL     OW18550   6.198   2.322   2.814
 5884SOL    HW118551   6.167   2.286   2.902
 5884SOL    HW218552   6.200   2.422   2.817
 5885SOL     OW18553   6.339   5.773   0.190
 5885SOL    HW118554   6.262   5.837   0.200
 5885SOL    HW218555   6.303   5.680   0.180
 5886SOL     OW18556   2.197   4.270   3.374
 5886SOL    HW118557   2.290   4.302   3.393
 5886SOL    HW218558   2.136   4.299   3.448
 5887SOL     OW18559   2.643   2.797   0.848
 5887SOL    HW118560   2.742   2.806   0.838
 5887SOL    HW218561   2.623   2.755   0.937
 5888SOL     OW18562   3.374   6.863   1.193
 5888SOL    HW118563   3.365   6.804   1.272
 5888SOL    HW218564   3.450   6.926   1.207
 5889SOL     OW18565   5.923   1.221   2.012
 5889SOL    HW118566   5.968   1.301   1.972
 5889SOL    HW218567   5.990   1.164   2.058
 5890SOL     OW18568   1.425   5.586   2.561
 5890SOL    HW118569   1.476   5.661   2.604
 5890SOL    HW218570   1.485   5.534   2.501
 5891SOL     OW18571   2.501   3.459   6.870
 5891SOL    HW118572   2.406   3.436   6.889
 5891SOL    HW218573   2.546   3.486   6.955
 5892SOL     OW18574   1.262   3.006   0.201
 5892SOL    HW118575   1.194   3.048   0.262
 5892SOL    HW218576   1.305   2.929   0.248
 5893SOL     OW18577   0.996   6.565   1.137
 5893SOL    HW118578   1.048   6.648   1.154
 5893SOL    HW218579   0.903   6.575   1.173
 5894SOL     OW18580   2.184   5.676   6.725
 5894SOL    HW118581   2.258   5.735   6.692
 5894SOL    HW218582   2.160   5.702   6.819
 5895SOL     OW18583   5.233   3.832   3.814
 5895SOL    HW118584   5.154   3.788   3.856
 5895SOL    HW218585   5.234   3.929   3.839
 5896SOL     OW18586   5.721   2.457   2.496
 5896SOL    HW118587   5.711   2.531   2.430
 5896SOL    HW218588   5.642   2.454   2.557
 5897SOL     OW18589   3.973   2.203   0.107
 5897SOL    HW118590   3.965   2.149   0.024
 5897SOL    HW218591   3.979   2.141   0.186
 5898SOL     OW18592   1.952   1.230   6.112
 5898SOL    HW118593   1.971   1.325   6.086
 5898SOL    HW218594   2.023   1.198   6.175
 5899SOL     OW18595   0.313   6.554   6.505
 5899SOL    HW118596   0.387   6.560   6.438
 5899SOL    HW218597   0.351   6.536   6.595
 5900SOL     OW18598   5.871   6.479   3.404
 5900SOL    HW118599   5.848   6.571   3.438
 5900SOL    HW218600   5.873   6.415   3.481
 5901SOL     OW18601   2.579   0.829   5.091
 5901SOL    HW118602   2.599   0.854   4.996
 5901SOL    HW218603   2.510   0.757   5.092
 5902SOL     OW18604   4.446   4.111   6.138
 5902SOL    HW118605   4.405   4.020   6.148
 5902SOL    HW218606   4.530   4.104   6.085
 5903SOL     OW18607   6.063   1.834   5.505
 5903SOL    HW118608   6.088   1.746   5.464
 5903SOL    HW218609   5.963   1.845   5.499
 5904SOL     OW18610   1.178   4.766   1.627
 5904SOL    HW118611   1.141   4.815   1.548
 5904SOL    HW218612   1.276   4.751   1.614
 5905SOL     OW18613   5.646   1.171   4.472
 5905SOL    HW118614   5.596   1.238   4.417
 5905SOL    HW218615   5.724   1.216   4.517
 5906SOL     OW18616   4.853   0.991   5.786
 5906SOL    HW118617   4.812   1.056   5.723
 5906SOL    HW218618   4.805   0.996   5.874
 5907SOL     OW18619   1.567   3.676   5.218
 5907SOL    HW118620   1.622   3.593   5.206
 5907SOL    HW218621   1.559   3.696   5.316
 5908SOL     OW18622   5.341   3.472   6.560
 5908SOL    HW118623   5.308   3.404   6.494
 5908SOL    HW218624   5.400   3.428   6.627
 5909SOL     OW18625   6.697   4.539   3.751
 5909SOL    HW118626   6.602   4.571   3.756
 5909SOL    HW218627   6.715   4.502   3.660
 5910SOL     OW18628   2.672   4.800   0.904
 5910SOL    HW118629   2.626   4.722   0.946
 5910SOL    HW218630   2.636   4.885   0.943
 5911SOL     OW18631   5.362   6.650   0.225
 5911SOL    HW118632   5.326   6.718   0.289
 5911SOL    HW218633   5.346   6.681   0.131
 5912SOL     OW18634   0.048   2.771   5.678
 5912SOL    HW118635   0.081   2.865   5.667
 5912SOL    HW218636   0.090   2.730   5.759
 5913SOL     OW18637   1.300   2.114   5.339
 5913SOL    HW118638   1.303   2.016   5.358
 5913SOL    HW218639   1.391   2.145   5.312
 5914SOL     OW18640   2.054   5.916   1.218
 5914SOL    HW118641   2.039   5.894   1.121
 5914SOL    HW218642   1.971   5.897   1.270
 5915SOL     OW18643   5.140   3.148   3.501
 5915SOL    HW118644   5.143   3.055   3.538
 5915SOL    HW218645   5.045   3.179   3.496
 5916SOL     OW18646   3.417   0.149   6.126
 5916SOL    HW118647   3.417   0.192   6.035
 5916SOL    HW218648   3.327   0.110   6.144
 5917SOL     OW18649   4.119   3.162   2.562
 5917SOL    HW118650   4.197   3.105   2.587
 5917SOL    HW218651   4.100   3.227   2.636
 5918SOL     OW18652   2.349   2.810   3.880
 5918SOL    HW118653   2.323   2.784   3.973
 5918SOL    HW218654   2.345   2.730   3.821
 5919SOL     OW18655   1.531   2.651   0.115
 5919SOL    HW118656   1.604   2.648   0.047
 5919SOL    HW218657   1.570   2.675   0.204
 5920SOL     OW18658   3.005   5.316   7.011
 5920SOL    HW118659   3.064   5.320   6.930
 5920SOL    HW218660   3.059   5.336   0.074
 5921SOL     OW18661   3.929   5.308   5.301
 5921SOL    HW118662   4.018   5.262   5.295
 5921SOL    HW218663   3.932   5.395   5.252
 5922SOL     OW18664   5.861   4.120   1.737
 5922SOL    HW118665   5.806   4.103   1.655
 5922SOL    HW218666   5.837   4.209   1.776
 5923SOL     OW18667   0.056   6.961   3.287
 5923SOL    HW118668   0.005   0.009   3.233
 5923SOL    HW218669   0.140   6.936   3.239
 5924SOL     OW18670   5.409   2.218   4.378
 5924SOL    HW118671   5.500   2.258   4.390
 5924SOL    HW218672   5.356   2.230   4.462
 5925SOL     OW18673   6.429   6.068   1.076
 5925SOL    HW118674   6.356   6.080   1.009
 5925SOL    HW218675   6.425   5.974   1.112
 5926SOL     OW18676   3.729   4.874   2.190
 5926SOL    HW118677   3.691   4.965   2.201
 5926SOL    HW218678   3.690   4.831   2.109
 5927SOL     OW18679   2.394   5.500   2.131
 5927SOL    HW118680   2.300   5.534   2.134
 5927SOL    HW218681   2.416   5.469   2.039
 5928SOL     OW18682   1.073   6.638   1.827
 5928SOL    HW118683   1.036   6.566   1.886
 5928SOL    HW218684   1.017   6.720   1.835
 5929SOL     OW18685   1.590   0.063   5.656
 5929SOL    HW118686   1.546   0.018   5.734
 5929SOL    HW218687   1.533   0.054   5.575
 5930SOL     OW18688   0.140   1.351   5.172
 5930SOL    HW118689   0.074   1.387   5.238
 5930SOL    HW218690   0.139   1.409   5.090
 5931SOL     OW18691   5.486   5.351   1.570
 5931SOL    HW118692   5.523   5.268   1.610
 5931SOL    HW218693   5.560   5.411   1.541
 5932SOL     OW18694   2.160   6.743   0.007
 5932SOL    HW118695   2.130   6.669   0.067
 5932SOL    HW218696   2.260   6.742   7.018
 5933SOL     OW18697   6.170   3.344   2.628
 5933SOL    HW118698   6.259   3.368   2.590
 5933SOL    HW218699   6.182   3.295   2.714
 5934SOL     OW18700   3.663   4.043   3.075
 5934SOL    HW118701   3.705   4.059   2.986
 5934SOL    HW218702   3.566   4.069   3.071
 5935SOL     OW18703   3.828   3.001   3.157
 5935SOL    HW118704   3.788   3.029   3.245
 5935SOL    HW218705   3.779   2.922   3.122
 5936SOL     OW18706   5.696   6.003   6.209
 5936SOL    HW118707   5.650   6.082   6.249
 5936SOL    HW218708   5.775   6.034   6.155
 5937SOL     OW18709   0.873   3.772   0.518
 5937SOL    HW118710   0.790   3.805   0.562
 5937SOL    HW218711   0.949   3.776   0.583
 5938SOL     OW18712   1.975   4.084   1.217
 5938SOL    HW118713   2.011   4.177   1.211
 5938SOL    HW218714   1.918   4.076   1.299
 5939SOL     OW18715   2.431   1.009   3.012
 5939SOL    HW118716   2.398   1.030   3.104
 5939SOL    HW218717   2.472   1.091   2.972
 5940SOL     OW18718   4.548   5.167   3.692
 5940SOL    HW118719   4.461   5.215   3.705
 5940SOL    HW218720   4.623   5.228   3.715
 5941SOL     OW18721   6.379   4.394   2.563
 5941SOL    HW118722   6.459   4.430   2.515
 5941SOL    HW218723   6.363   4.299   2.535
 5942SOL     OW18724   5.848   1.635   5.536
 5942SOL    HW118725   5.947   1.622   5.538
 5942SOL    HW218726   5.803   1.545   5.537
 5943SOL     OW18727   1.231   5.440   6.836
 5943SOL    HW118728   1.248   5.531   6.800
 5943SOL    HW218729   1.212   5.446   6.934
 5944SOL     OW18730   4.610   1.826   2.751
 5944SOL    HW118731   4.528   1.839   2.805
 5944SOL    HW218732   4.602   1.741   2.698
 5945SOL     OW18733   0.191   4.841   5.824
 5945SOL    HW118734   0.218   4.897   5.746
 5945SOL    HW218735   0.236   4.752   5.818
 5946SOL     OW18736   3.989   3.026   5.359
 5946SOL    HW118737   3.963   2.940   5.403
 5946SOL    HW218738   4.087   3.042   5.373
 5947SOL     OW18739   4.359   3.540   1.730
 5947SOL    HW118740   4.393   3.446   1.732
 5947SOL    HW218741   4.316   3.558   1.642
 5948SOL     OW18742   3.985   4.775   2.948
 5948SOL    HW118743   3.942   4.858   2.983
 5948SOL    HW218744   3.915   4.704   2.937
 5949SOL     OW18745   4.612   4.800   2.177
 5949SOL    HW118746   4.577   4.789   2.271
 5949SOL    HW218747   4.699   4.752   2.168
 5950SOL     OW18748   6.509   2.721   3.436
 5950SOL    HW118749   6.436   2.683   3.380
 5950SOL    HW218750   6.543   2.652   3.499
 5951SOL     OW18751   2.033   6.083   3.538
 5951SOL    HW118752   1.982   6.168   3.532
 5951SOL    HW218753   2.131   6.103   3.547
 5952SOL     OW18754   6.959   6.864   4.714
 5952SOL    HW118755   7.007   6.947   4.745
 5952SOL    HW218756   7.009   6.784   4.745
 5953SOL     OW18757   0.286   3.143   6.412
 5953SOL    HW118758   0.295   3.043   6.406
 5953SOL    HW218759   0.377   3.184   6.422
 5954SOL     OW18760   1.264   4.879   6.604
 5954SOL    HW118761   1.197   4.862   6.531
 5954SOL    HW218762   1.221   4.933   6.676
 5955SOL     OW18763   5.349   5.671   2.704
 5955SOL    HW118764   5.423   5.627   2.755
 5955SOL    HW218765   5.304   5.604   2.646
 5956SOL     OW18766   6.303   2.607   0.049
 5956SOL    HW118767   6.271   2.693   0.009
 5956SOL    HW218768   6.383   2.625   0.106
 5957SOL     OW18769   4.965   6.801   5.766
 5957SOL    HW118770   4.908   6.862   5.820
 5957SOL    HW218771   5.037   6.763   5.824
 5958SOL     OW18772   0.746   5.814   2.463
 5958SOL    HW118773   0.709   5.851   2.548
 5958SOL    HW218774   0.794   5.728   2.483
 5959SOL     OW18775   2.002   1.315   6.489
 5959SOL    HW118776   2.047   1.292   6.402
 5959SOL    HW218777   2.069   1.355   6.551
 5960SOL     OW18778   3.679   0.679   4.500
 5960SOL    HW118779   3.712   0.603   4.555
 5960SOL    HW218780   3.750   0.750   4.497
 5961SOL     OW18781   2.825   1.002   6.080
 5961SOL    HW118782   2.796   0.997   5.985
 5961SOL    HW218783   2.846   0.910   6.114
 5962SOL     OW18784   5.713   5.521   2.456
 5962SOL    HW118785   5.620   5.486   2.461
 5962SOL    HW218786   5.772   5.452   2.413
 5963SOL     OW18787   3.889   3.907   2.291
 5963SOL    HW118788   3.976   3.863   2.314
 5963SOL    HW218789   3.819   3.879   2.358
 5964SOL     OW18790   1.112   4.078   5.806
 5964SOL    HW118791   1.126   4.153   5.741
 5964SOL    HW218792   1.014   4.062   5.817
 5965SOL     OW18793   2.296   1.657   4.418
 5965SOL    HW118794   2.310   1.716   4.338
 5965SOL    HW218795   2.357   1.579   4.413
 5966SOL     OW18796   1.441   6.546   4.022
 5966SOL    HW118797   1.373   6.617   4.004
 5966SOL    HW218798   1.520   6.560   3.962
 5967SOL     OW18799   4.488   6.993   2.258
 5967SOL    HW118800   4.538   0.047   2.304
 5967SOL    HW218801   4.467   0.002   2.164
 5968SOL     OW18802   0.484   2.177   4.166
 5968SOL    HW118803   0.560   2.185   4.230
 5968SOL    HW218804   0.399   2.201   4.212
 5969SOL     OW18805   5.710   2.964   2.663
 5969SOL    HW118806   5.717   2.933   2.758
 5969SOL    HW218807   5.761   3.049   2.652
 5970SOL     OW18808   1.892   2.641   3.603
 5970SOL    HW118809   1.814   2.648   3.665
 5970SOL    HW218810   1.954   2.718   3.619
 5971SOL     OW18811   2.372   6.890   2.545
 5971SOL    HW118812   2.364   6.848   2.635
 5971SOL    HW218813   2.352   6.822   2.475
 5972SOL     OW18814   4.538   6.440   1.373
 5972SOL    HW118815   4.590   6.410   1.293
 5972SOL    HW218816   4.565   6.534   1.397
 5973SOL     OW18817   0.973   4.669   3.445
 5973SOL    HW118818   0.985   4.575   3.413
 5973SOL    HW218819   1.058   4.703   3.484
 5974SOL     OW18820   1.053   3.918   6.319
 5974SOL    HW118821   1.062   3.930   6.220
 5974SOL    HW218822   0.963   3.951   6.348
 5975SOL     OW18823   1.906   2.722   6.885
 5975SOL    HW118824   1.936   2.771   6.967
 5975SOL    HW218825   1.887   2.787   6.812
 5976SOL     OW18826   3.359   3.913   5.192
 5976SOL    HW118827   3.315   3.827   5.220
 5976SOL    HW218828   3.458   3.903   5.202
 5977SOL     OW18829   1.083   3.099   3.250
 5977SOL    HW118830   1.174   3.060   3.236
 5977SOL    HW218831   1.026   3.078   3.171
 5978SOL     OW18832   5.521   5.555   2.868
 5978SOL    HW118833   5.455   5.488   2.902
 5978SOL    HW218834   5.593   5.569   2.937
 5979SOL     OW18835   0.172   0.821   2.996
 5979SOL    HW118836   0.183   0.885   3.072
 5979SOL    HW218837   0.105   0.857   2.931
 5980SOL     OW18838   6.610   3.644   6.188
 5980SOL    HW118839   6.621   3.604   6.097
 5980SOL    HW218840   6.542   3.592   6.239
 5981SOL     OW18841   3.930   1.302   1.433
 5981SOL    HW118842   3.894   1.263   1.517
 5981SOL    HW218843   4.028   1.284   1.426
 5982SOL     OW18844   5.844   2.621   6.716
 5982SOL    HW118845   5.926   2.651   6.667
 5982SOL    HW218846   5.864   2.535   6.763
 5983SOL     OW18847   1.137   1.086   4.841
 5983SOL    HW118848   1.237   1.082   4.849
 5983SOL    HW218849   1.102   1.156   4.903
 5984SOL     OW18850   0.287   0.234   5.416
 5984SOL    HW118851   0.353   0.264   5.485
 5984SOL    HW218852   0.287   0.134   5.412
 5985SOL     OW18853   4.672   2.811   4.318
 5985SOL    HW118854   4.744   2.743   4.324
 5985SOL    HW218855   4.585   2.771   4.346
 5986SOL     OW18856   3.670   2.924   2.463
 5986SOL    HW118857   3.686   3.022   2.458
 5986SOL    HW218858   3.661   2.887   2.370
 5987SOL     OW18859   4.280   6.930   5.263
 5987SOL    HW118860   4.231   6.845   5.280
 5987SOL    HW218861   4.327   6.959   5.346
 5988SOL     OW18862   3.971   0.733   4.076
 5988SOL    HW118863   4.020   0.796   4.136
 5988SOL    HW218864   3.903   0.783   4.023
 5989SOL     OW18865   2.676   1.029   6.600
 5989SOL    HW118866   2.757   1.006   6.547
 5989SOL    HW218867   2.599   0.971   6.571
 5990SOL     OW18868   3.088   4.853   1.918
 5990SOL    HW118869   3.176   4.820   1.883
 5990SOL    HW218870   3.017   4.838   1.849
 5991SOL     OW18871   2.883   5.196   3.767
 5991SOL    HW118872   2.854   5.101   3.757
 5991SOL    HW218873   2.932   5.224   3.684
 5992SOL     OW18874   4.613   1.020   3.849
 5992SOL    HW118875   4.647   1.113   3.862
 5992SOL    HW218876   4.562   1.016   3.762
 5993SOL     OW18877   3.723   5.384   4.600
 5993SOL    HW118878   3.649   5.347   4.544
 5993SOL    HW218879   3.803   5.400   4.542
 5994SOL     OW18880   6.989   2.437   1.722
 5994SOL    HW118881   0.034   2.453   1.797
 5994SOL    HW218882   0.022   2.430   1.636
 5995SOL     OW18883   0.032   4.605   1.165
 5995SOL    HW118884   0.087   4.663   1.105
 5995SOL    HW218885   6.988   4.550   1.111
 5996SOL     OW18886   0.895   5.206   6.281
 5996SOL    HW118887   0.821   5.155   6.324
 5996SOL    HW218888   0.868   5.231   6.188
 5997SOL     OW18889   0.614   0.283   1.962
 5997SOL    HW118890   0.624   0.356   1.894
 5997SOL    HW218891   0.701   0.235   1.972
 5998SOL     OW18892   4.142   1.983   3.168
 5998SOL    HW118893   4.047   1.952   3.174
 5998SOL    HW218894   4.201   1.919   3.216
 5999SOL     OW18895   1.643   1.498   2.603
 5999SOL    HW118896   1.734   1.503   2.561
 5999SOL    HW218897   1.599   1.588   2.600
 6000SOL     OW18898   4.269   6.197   2.839
 6000SOL    HW118899   4.325   6.205   2.757
 6000SOL    HW218900   4.249   6.101   2.857
 6001SOL     OW18901   6.234   2.178   6.794
 6001SOL    HW118902   6.211   2.275   6.793
 6001SOL    HW218903   6.321   2.164   6.746
 6002SOL     OW18904   1.716   0.386   1.858
 6002SOL    HW118905   1.751   0.401   1.951
 6002SOL    HW218906   1.697   0.289   1.846
 6003SOL     OW18907   4.701   4.267   3.804
 6003SOL    HW118908   4.644   4.345   3.830
 6003SOL    HW218909   4.737   4.281   3.712
 6004SOL     OW18910   0.088   4.138   1.913
 6004SOL    HW118911   0.007   4.198   1.914
 6004SOL    HW218912   0.159   4.180   1.857
 6005SOL     OW18913   2.662   6.236   2.389
 6005SOL    HW118914   2.610   6.156   2.419
 6005SOL    HW218915   2.756   6.229   2.423
 6006SOL     OW18916   2.278   6.040   0.050
 6006SOL    HW118917   2.201   6.097   0.078
 6006SOL    HW218918   2.364   6.090   0.064
 6007SOL     OW18919   5.523   2.535   4.153
 6007SOL    HW118920   5.469   2.468   4.103
 6007SOL    HW218921   5.462   2.602   4.195
 6008SOL     OW18922   3.884   4.451   6.942
 6008SOL    HW118923   3.918   4.544   6.929
 6008SOL    HW218924   3.812   4.451   7.011
 6009SOL     OW18925   3.013   1.517   4.311
 6009SOL    HW118926   3.101   1.551   4.343
 6009SOL    HW218927   2.943   1.535   4.380
 6010SOL     OW18928   1.813   2.521   3.367
 6010SOL    HW118929   1.862   2.567   3.441
 6010SOL    HW218930   1.872   2.450   3.327
 6011SOL     OW18931   6.782   3.419   2.558
 6011SOL    HW118932   6.861   3.369   2.593
 6011SOL    HW218933   6.794   3.437   2.460
 6012SOL     OW18934   6.757   3.201   0.997
 6012SOL    HW118935   6.820   3.265   0.952
 6012SOL    HW218936   6.804   3.114   1.013
 6013SOL     OW18937   5.790   1.106   2.779
 6013SOL    HW118938   5.856   1.077   2.848
 6013SOL    HW218939   5.754   1.025   2.732
 6014SOL     OW18940   5.452   0.432   1.266
 6014SOL    HW118941   5.481   0.494   1.193
 6014SOL    HW218942   5.353   0.438   1.276
 6015SOL     OW18943   4.919   1.782   4.545
 6015SOL    HW118944   4.881   1.768   4.637
 6015SOL    HW218945   4.944   1.878   4.534
 6016SOL     OW18946   1.754   6.821   5.339
 6016SOL    HW118947   1.713   6.843   5.251
 6016SOL    HW218948   1.720   6.732   5.369
 6017SOL     OW18949   6.637   4.179   2.741
 6017SOL    HW118950   6.598   4.266   2.771
 6017SOL    HW218951   6.631   4.172   2.641
 6018SOL     OW18952   2.558   5.042   1.015
 6018SOL    HW118953   2.579   5.097   0.934
 6018SOL    HW218954   2.466   5.003   1.006
 6019SOL     OW18955   4.928   6.851   4.221
 6019SOL    HW118956   4.854   6.794   4.256
 6019SOL    HW218957   4.930   6.937   4.273
 6020SOL     OW18958   3.520   0.570   2.757
 6020SOL    HW118959   3.592   0.524   2.705
 6020SOL    HW218960   3.436   0.516   2.753
 6021SOL     OW18961   4.105   0.446   2.741
 6021SOL    HW118962   4.087   0.439   2.643
 6021SOL    HW218963   4.084   0.539   2.772
 6022SOL     OW18964   4.206   1.714   5.482
 6022SOL    HW118965   4.283   1.771   5.451
 6022SOL    HW218966   4.226   1.679   5.574
 6023SOL     OW18967   6.692   1.882   2.327
 6023SOL    HW118968   6.596   1.905   2.313
 6023SOL    HW218969   6.721   1.816   2.257
 6024SOL     OW18970   0.709   4.590   2.379
 6024SOL    HW118971   0.654   4.673   2.373
 6024SOL    HW218972   0.805   4.612   2.363
 6025SOL     OW18973   4.182   1.792   1.920
 6025SOL    HW118974   4.098   1.747   1.891
 6025SOL    HW218975   4.205   1.764   2.013
 6026SOL     OW18976   1.149   4.644   5.299
 6026SOL    HW118977   1.091   4.720   5.328
 6026SOL    HW218978   1.245   4.674   5.298
 6027SOL     OW18979   2.947   3.675   1.123
 6027SOL    HW118980   2.994   3.734   1.057
 6027SOL    HW218981   3.014   3.633   1.184
 6028SOL     OW18982   1.539   3.616   6.928
 6028SOL    HW118983   1.475   3.650   6.997
 6028SOL    HW218984   1.487   3.572   6.855
 6029SOL     OW18985   1.436   4.845   1.316
 6029SOL    HW118986   1.346   4.818   1.281
 6029SOL    HW218987   1.470   4.923   1.262
 6030SOL     OW18988   1.847   0.076   0.776
 6030SOL    HW118989   1.943   0.055   0.795
 6030SOL    HW218990   1.810   0.134   0.849
 6031SOL     OW18991   5.398   0.148   5.015
 6031SOL    HW118992   5.383   0.157   5.113
 6031SOL    HW218993   5.471   0.210   4.986
 6032SOL     OW18994   0.336   3.386   2.780
 6032SOL    HW118995   0.275   3.308   2.790
 6032SOL    HW218996   0.431   3.355   2.788
 6033SOL     OW18997   1.104   0.419   4.394
 6033SOL    HW118998   1.144   0.506   4.365
 6033SOL    HW218999   1.175   0.358   4.429
 6034SOL     OW19000   2.223   4.045   4.646
 6034SOL    HW119001   2.282   4.012   4.720
 6034SOL    HW219002   2.192   3.968   4.591
 6035SOL     OW19003   5.980   0.640   3.994
 6035SOL    HW119004   5.902   0.629   3.932
 6035SOL    HW219005   6.031   0.722   3.970
 6036SOL     OW19006   0.402   1.345   4.354
 6036SOL    HW119007   0.468   1.270   4.357
 6036SOL    HW219008   0.309   1.307   4.359
 6037SOL     OW19009   6.541   4.918   4.995
 6037SOL    HW119010   6.470   4.955   4.935
 6037SOL    HW219011   6.518   4.937   5.090
 6038SOL     OW19012   5.068   4.148   6.655
 6038SOL    HW119013   5.152   4.118   6.701
 6038SOL    HW219014   4.996   4.162   6.723
 6039SOL     OW19015   3.126   3.510   3.621
 6039SOL    HW119016   3.136   3.531   3.718
 6039SOL    HW219017   3.123   3.595   3.569
 6040SOL     OW19018   0.565   1.943   0.061
 6040SOL    HW119019   0.664   1.959   0.068
 6040SOL    HW219020   0.530   1.987   6.996
 6041SOL     OW19021   0.650   2.945   0.216
 6041SOL    HW119022   0.629   3.042   0.201
 6041SOL    HW219023   0.692   2.934   0.306
 6042SOL     OW19024   5.578   5.209   4.179
 6042SOL    HW119025   5.676   5.194   4.168
 6042SOL    HW219026   5.528   5.125   4.157
 6043SOL     OW19027   0.311   4.954   3.851
 6043SOL    HW119028   0.256   4.872   3.868
 6043SOL    HW219029   0.360   4.979   3.934
 6044SOL     OW19030   0.933   0.689   1.422
 6044SOL    HW119031   0.932   0.747   1.341
 6044SOL    HW219032   1.022   0.646   1.431
 6045SOL     OW19033   0.285   3.914   1.011
 6045SOL    HW119034   0.359   3.901   1.076
 6045SOL    HW219035   0.255   3.826   0.975
 6046SOL     OW19036   3.096   2.860   0.240
 6046SOL    HW119037   3.106   2.958   0.225
 6046SOL    HW219038   3.069   2.844   0.335
 6047SOL     OW19039   0.123   6.414   5.152
 6047SOL    HW119040   0.026   6.437   5.157
 6047SOL    HW219041   0.145   6.349   5.225
 6048SOL     OW19042   4.705   6.226   4.832
 6048SOL    HW119043   4.714   6.184   4.742
 6048SOL    HW219044   4.788   6.276   4.855
 6049SOL     OW19045   6.007   5.286   1.793
 6049SOL    HW119046   6.058   5.220   1.738
 6049SOL    HW219047   5.911   5.285   1.766
 6050SOL     OW19048   4.850   4.201   5.392
 6050SOL    HW119049   4.948   4.181   5.387
 6050SOL    HW219050   4.826   4.227   5.485
 6051SOL     OW19051   1.942   2.304   3.269
 6051SOL    HW119052   2.017   2.352   3.225
 6051SOL    HW219053   1.901   2.238   3.205
 6052SOL     OW19054   6.613   0.826   0.123
 6052SOL    HW119055   6.561   0.742   0.141
 6052SOL    HW219056   6.686   0.834   0.191
 6053SOL     OW19057   2.142   0.597   6.115
 6053SOL    HW119058   2.201   0.536   6.062
 6053SOL    HW219059   2.192   0.681   6.137
 6054SOL     OW19060   2.663   4.861   0.206
 6054SOL    HW119061   2.667   4.783   0.268
 6054SOL    HW219062   2.683   4.945   0.257
 6055SOL     OW19063   5.078   0.530   4.043
 6055SOL    HW119064   5.153   0.585   4.008
 6055SOL    HW219065   4.992   0.581   4.035
 6056SOL     OW19066   4.731   3.096   6.254
 6056SOL    HW119067   4.798   3.035   6.296
 6056SOL    HW219068   4.639   3.057   6.263
 6057SOL     OW19069   3.483   0.765   6.232
 6057SOL    HW119070   3.390   0.773   6.268
 6057SOL    HW219071   3.481   0.774   6.133
 6058SOL     OW19072   5.575   1.561   4.050
 6058SOL    HW119073   5.626   1.593   3.970
 6058SOL    HW219074   5.623   1.484   4.091
 6059SOL     OW19075   7.011   5.646   6.319
 6059SOL    HW119076   0.092   5.636   6.319
 6059SOL    HW219077   6.977   5.643   6.224
 6060SOL     OW19078   3.502   6.580   6.289
 6060SOL    HW119079   3.476   6.675   6.268
 6060SOL    HW219080   3.589   6.559   6.244
 6061SOL     OW19081   2.216   2.027   6.392
 6061SOL    HW119082   2.151   1.952   6.390
 6061SOL    HW219083   2.171   2.110   6.426
 6062SOL     OW19084   2.443   0.757   4.563
 6062SOL    HW119085   2.473   0.782   4.471
 6062SOL    HW219086   2.352   0.796   4.580
 6063SOL     OW19087   4.194   0.090   0.162
 6063SOL    HW119088   4.291   0.066   0.163
 6063SOL    HW219089   4.182   0.179   0.119
 6064SOL     OW19090   0.925   5.886   3.527
 6064SOL    HW119091   0.940   5.901   3.429
 6064SOL    HW219092   1.013   5.875   3.573
 6065SOL     OW19093   6.527   0.392   0.806
 6065SOL    HW119094   6.471   0.386   0.724
 6065SOL    HW219095   6.517   0.307   0.858
 6066SOL     OW19096   4.466   2.229   0.109
 6066SOL    HW119097   4.536   2.224   0.038
 6066SOL    HW219098   4.499   2.285   0.185
 6067SOL     OW19099   5.637   2.664   6.924
 6067SOL    HW119100   5.563   2.602   6.899
 6067SOL    HW219101   5.715   2.611   6.957
 6068SOL     OW19102   4.866   2.334   5.149
 6068SOL    HW119103   4.820   2.262   5.201
 6068SOL    HW219104   4.811   2.358   5.069
 6069SOL     OW19105   6.135   3.670   4.398
 6069SOL    HW119106   6.109   3.731   4.472
 6069SOL    HW219107   6.055   3.618   4.368
 6070SOL     OW19108   3.540   2.110   6.421
 6070SOL    HW119109   3.562   2.198   6.463
 6070SOL    HW219110   3.513   2.125   6.326
 6071SOL     OW19111   4.622   6.180   5.281
 6071SOL    HW119112   4.553   6.167   5.210
 6071SOL    HW219113   4.712   6.190   5.239
 6072SOL     OW19114   0.064   2.034   0.671
 6072SOL    HW119115   0.108   2.079   0.749
 6072SOL    HW219116   0.133   1.985   0.618
 6073SOL     OW19117   0.131   2.191   1.532
 6073SOL    HW119118   0.037   2.184   1.498
 6073SOL    HW219119   0.130   2.193   1.632
 6074SOL     OW19120   0.682   0.444   4.817
 6074SOL    HW119121   0.713   0.524   4.766
 6074SOL    HW219122   0.608   0.399   4.767
 6075SOL     OW19123   5.219   4.312   6.971
 6075SOL    HW119124   5.220   4.286   6.874
 6075SOL    HW219125   5.208   4.411   6.978
 6076SOL     OW19126   2.518   6.538   3.427
 6076SOL    HW119127   2.578   6.600   3.478
 6076SOL    HW219128   2.442   6.511   3.486
 6077SOL     OW19129   5.719   5.981   2.568
 6077SOL    HW119130   5.741   6.057   2.629
 6077SOL    HW219131   5.622   5.958   2.577
 6078SOL     OW19132   2.487   4.872   3.106
 6078SOL    HW119133   2.394   4.837   3.120
 6078SOL    HW219134   2.529   4.824   3.029
 6079SOL     OW19135   2.105   1.133   0.237
 6079SOL    HW119136   2.064   1.222   0.261
 6079SOL    HW219137   2.073   1.064   0.301
 6080SOL     OW19138   5.949   2.101   2.896
 6080SOL    HW119139   5.998   2.164   2.957
 6080SOL    HW219140   5.900   2.154   2.826
 6081SOL     OW19141   0.535   4.361   3.416
 6081SOL    HW119142   0.562   4.266   3.397
 6081SOL    HW219143   0.471   4.392   3.346
 6082SOL     OW19144   3.991   1.603   4.520
 6082SOL    HW119145   3.991   1.615   4.421
 6082SOL    HW219146   4.050   1.672   4.562
 6083SOL     OW19147   1.902   6.825   0.371
 6083SOL    HW119148   1.892   6.733   0.408
 6083SOL    HW219149   1.818   6.877   0.387
 6084SOL     OW19150   0.573   5.095   6.114
 6084SOL    HW119151   0.539   5.029   6.181
 6084SOL    HW219152   0.672   5.106   6.125
 6085SOL     OW19153   4.697   4.408   1.426
 6085SOL    HW119154   4.653   4.358   1.500
 6085SOL    HW219155   4.724   4.344   1.353
 6086SOL     OW19156   2.539   1.655   3.405
 6086SOL    HW119157   2.445   1.689   3.413
 6086SOL    HW219158   2.573   1.675   3.313
 6087SOL     OW19159   4.934   6.748   0.243
 6087SOL    HW119160   4.880   6.821   0.200
 6087SOL    HW219161   4.923   6.663   0.191
 6088SOL     OW19162   6.817   0.131   4.900
 6088SOL    HW119163   6.775   0.151   4.811
 6088SOL    HW219164   6.785   0.197   4.968
 6089SOL     OW19165   0.008   3.100   0.239
 6089SOL    HW119166   6.948   3.149   0.201
 6089SOL    HW219167   0.027   3.018   0.185
 6090SOL     OW19168   0.078   5.811   4.181
 6090SOL    HW119169   0.019   5.891   4.171
 6090SOL    HW219170   0.149   5.830   4.249
 6091SOL     OW19171   5.861   2.230   1.933
 6091SOL    HW119172   5.891   2.208   1.840
 6091SOL    HW219173   5.782   2.291   1.929
 6092SOL     OW19174   1.487   2.424   1.033
 6092SOL    HW119175   1.579   2.396   1.003
 6092SOL    HW219176   1.480   2.414   1.132
 6093SOL     OW19177   1.190   3.043   1.201
 6093SOL    HW119178   1.240   3.129   1.208
 6093SOL    HW219179   1.206   2.989   1.284
 6094SOL     OW19180   1.094   0.646   0.888
 6094SOL    HW119181   1.079   0.625   0.791
 6094SOL    HW219182   1.172   0.708   0.897
 6095SOL     OW19183   6.914   4.167   5.511
 6095SOL    HW119184   6.921   4.250   5.455
 6095SOL    HW219185   6.998   4.114   5.503
 6096SOL     OW19186   3.691   1.861   2.602
 6096SOL    HW119187   3.610   1.810   2.571
 6096SOL    HW219188   3.714   1.834   2.695
 6097SOL     OW19189   3.032   2.101   1.687
 6097SOL    HW119190   3.099   2.030   1.708
 6097SOL    HW219191   2.955   2.093   1.751
 6098SOL     OW19192   1.649   1.536   5.671
 6098SOL    HW119193   1.551   1.555   5.672
 6098SOL    HW219194   1.664   1.438   5.675
 6099SOL     OW19195   6.176   5.107   5.156
 6099SOL    HW119196   6.171   5.007   5.165
 6099SOL    HW219197   6.271   5.134   5.142
 6100SOL     OW19198   6.452   2.916   0.275
 6100SOL    HW119199   6.353   2.918   0.281
 6100SOL    HW219200   6.479   2.893   0.181
 6101SOL     OW19201   5.737   1.750   4.373
 6101SOL    HW119202   5.734   1.678   4.442
 6101SOL    HW219203   5.766   1.712   4.285
 6102SOL     OW19204   3.292   0.581   5.227
 6102SOL    HW119205   3.325   0.488   5.244
 6102SOL    HW219206   3.363   0.633   5.180
 6103SOL     OW19207   6.131   0.418   5.396
 6103SOL    HW119208   6.136   0.402   5.494
 6103SOL    HW219209   6.096   0.336   5.350
 6104SOL     OW19210   1.595   2.997   0.456
 6104SOL    HW119211   1.653   3.067   0.415
 6104SOL    HW219212   1.569   3.026   0.548
 6105SOL     OW19213   3.431   5.489   4.302
 6105SOL    HW119214   3.442   5.393   4.328
 6105SOL    HW219215   3.469   5.547   4.374
 6106SOL     OW19216   3.399   5.666   4.714
 6106SOL    HW119217   3.416   5.600   4.787
 6106SOL    HW219218   3.470   5.657   4.645
 6107SOL     OW19219   2.205   5.011   5.183
 6107SOL    HW119220   2.223   4.913   5.174
 6107SOL    HW219221   2.112   5.031   5.155
 6108SOL     OW19222   6.775   2.151   4.068
 6108SOL    HW119223   6.700   2.138   4.003
 6108SOL    HW219224   6.841   2.215   4.030
 6109SOL     OW19225   6.531   4.555   1.935
 6109SOL    HW119226   6.476   4.499   1.873
 6109SOL    HW219227   6.622   4.569   1.896
 6110SOL     OW19228   3.069   2.049   4.242
 6110SOL    HW119229   3.055   2.100   4.327
 6110SOL    HW219230   3.156   2.000   4.246
 6111SOL     OW19231   0.744   4.986   2.989
 6111SOL    HW119232   0.725   4.889   2.976
 6111SOL    HW219233   0.660   5.038   2.973
 6112SOL     OW19234   0.816   1.814   2.587
 6112SOL    HW119235   0.805   1.777   2.495
 6112SOL    HW219236   0.792   1.911   2.587
 6113SOL     OW19237   1.931   5.513   5.248
 6113SOL    HW119238   1.903   5.470   5.334
 6113SOL    HW219239   2.018   5.474   5.218
 6114SOL     OW19240   5.351   5.364   0.685
 6114SOL    HW119241   5.419   5.296   0.660
 6114SOL    HW219242   5.323   5.349   0.780
 6115SOL     OW19243   6.225   4.609   2.596
 6115SOL    HW119244   6.287   4.531   2.598
 6115SOL    HW219245   6.259   4.676   2.529
 6116SOL     OW19246   3.711   1.534   1.396
 6116SOL    HW119247   3.751   1.598   1.331
 6116SOL    HW219248   3.784   1.482   1.440
 6117SOL     OW19249   5.483   6.804   4.533
 6117SOL    HW119250   5.553   6.799   4.605
 6117SOL    HW219251   5.435   6.891   4.541
 6118SOL     OW19252   5.871   0.092   2.772
 6118SOL    HW119253   5.864   0.018   2.840
 6118SOL    HW219254   5.889   0.178   2.818
 6119SOL     OW19255   6.296   5.028   3.792
 6119SOL    HW119256   6.388   4.992   3.803
 6119SOL    HW219257   6.251   5.036   3.881
 6120SOL     OW19258   2.917   0.759   3.066
 6120SOL    HW119259   2.924   0.766   2.966
 6120SOL    HW219260   2.904   0.851   3.105
 6121SOL     OW19261   6.564   2.455   4.361
 6121SOL    HW119262   6.581   2.553   4.346
 6121SOL    HW219263   6.517   2.417   4.282
 6122SOL     OW19264   4.647   5.565   3.540
 6122SOL    HW119265   4.671   5.660   3.519
 6122SOL    HW219266   4.634   5.554   3.638
 6123SOL     OW19267   6.791   1.376   2.218
 6123SOL    HW119268   6.727   1.422   2.156
 6123SOL    HW219269   6.876   1.428   2.222
 6124SOL     OW19270   2.946   0.306   5.965
 6124SOL    HW119271   3.018   0.288   6.033
 6124SOL    HW219272   2.926   0.403   5.962
 6125SOL     OW19273   1.737   5.220   2.027
 6125SOL    HW119274   1.726   5.319   2.021
 6125SOL    HW219275   1.707   5.177   1.941
 6126SOL     OW19276   5.256   5.407   2.443
 6126SOL    HW119277   5.337   5.350   2.457
 6126SOL    HW219278   5.184   5.377   2.506
 6127SOL     OW19279   2.063   4.421   1.754
 6127SOL    HW119280   1.982   4.471   1.723
 6127SOL    HW219281   2.138   4.486   1.770
 6128SOL     OW19282   5.087   2.230   1.143
 6128SOL    HW119283   5.117   2.284   1.064
 6128SOL    HW219284   4.991   2.206   1.132
 6129SOL     OW19285   5.972   4.012   3.743
 6129SOL    HW119286   6.033   4.023   3.822
 6129SOL    HW219287   5.889   3.964   3.771
 6130SOL     OW19288   5.601   4.202   2.652
 6130SOL    HW119289   5.627   4.209   2.556
 6130SOL    HW219290   5.634   4.282   2.702
 6131SOL     OW19291   6.776   1.163   4.896
 6131SOL    HW119292   6.876   1.155   4.895
 6131SOL    HW219293   6.748   1.224   4.970
 6132SOL     OW19294   6.519   2.608   0.194
 6132SOL    HW119295   6.616   2.627   0.179
 6132SOL    HW219296   6.493   2.638   0.285
 6133SOL     OW19297   1.603   4.068   0.198
 6133SOL    HW119298   1.517   4.024   0.171
 6133SOL    HW219299   1.625   4.043   0.292
 6134SOL     OW19300   4.640   3.042   0.054
 6134SOL    HW119301   4.716   3.092   0.014
 6134SOL    HW219302   4.553   3.080   0.020
 6135SOL     OW19303   5.427   0.189   1.504
 6135SOL    HW119304   5.494   0.259   1.482
 6135SOL    HW219305   5.337   0.216   1.468
 6136SOL     OW19306   0.295   1.611   1.732
 6136SOL    HW119307   0.270   1.631   1.638
 6136SOL    HW219308   0.395   1.612   1.740
 6137SOL     OW19309   2.868   6.793   5.764
 6137SOL    HW119310   2.839   6.762   5.855
 6137SOL    HW219311   2.810   6.750   5.695
 6138SOL     OW19312   4.368   7.004   3.102
 6138SOL    HW119313   4.460   7.014   3.139
 6138SOL    HW219314   4.311   0.062   3.133
 6139SOL     OW19315   2.089   5.282   4.514
 6139SOL    HW119316   2.064   5.336   4.433
 6139SOL    HW219317   2.149   5.207   4.487
 6140SOL     OW19318   1.810   6.436   1.110
 6140SOL    HW119319   1.876   6.365   1.136
 6140SOL    HW219320   1.818   6.513   1.173
 6141SOL     OW19321   6.366   6.479   5.765
 6141SOL    HW119322   6.373   6.575   5.792
 6141SOL    HW219323   6.282   6.465   5.712
 6142SOL     OW19324   0.631   4.759   3.019
 6142SOL    HW119325   0.567   4.799   3.084
 6142SOL    HW219326   0.580   4.713   2.946
 6143SOL     OW19327   6.473   4.256   6.656
 6143SOL    HW119328   6.559   4.234   6.609
 6143SOL    HW219329   6.479   4.348   6.695
 6144SOL     OW19330   6.909   5.435   3.942
 6144SOL    HW119331   6.819   5.391   3.935
 6144SOL    HW219332   6.898   5.526   3.982
 6145SOL     OW19333   5.038   5.835   3.744
 6145SOL    HW119334   4.983   5.754   3.761
 6145SOL    HW219335   5.022   5.902   3.816
 6146SOL     OW19336   5.215   0.730   3.048
 6146SOL    HW119337   5.248   0.822   3.069
 6146SOL    HW219338   5.271   0.662   3.096
 6147SOL     OW19339   1.573   3.428   2.873
 6147SOL    HW119340   1.635   3.371   2.927
 6147SOL    HW219341   1.584   3.524   2.900
 6148SOL     OW19342   6.203   6.343   3.996
 6148SOL    HW119343   6.176   6.363   4.090
 6148SOL    HW219344   6.197   6.427   3.941
 6149SOL     OW19345   2.204   6.838   3.879
 6149SOL    HW119346   2.255   6.789   3.808
 6149SOL    HW219347   2.194   6.933   3.853
 6150SOL     OW19348   4.510   5.597   5.993
 6150SOL    HW119349   4.576   5.540   6.042
 6150SOL    HW219350   4.422   5.595   6.041
 6151SOL     OW19351   4.308   1.603   5.755
 6151SOL    HW119352   4.289   1.694   5.793
 6151SOL    HW219353   4.227   1.545   5.765
 6152SOL     OW19354   0.139   5.109   6.528
 6152SOL    HW119355   0.186   5.156   6.453
 6152SOL    HW219356   0.202   5.044   6.571
 6153SOL     OW19357   4.877   3.780   0.221
 6153SOL    HW119358   4.822   3.809   0.143
 6153SOL    HW219359   4.969   3.755   0.190
 6154SOL     OW19360   5.214   2.864   2.776
 6154SOL    HW119361   5.148   2.842   2.848
 6154SOL    HW219362   5.274   2.785   2.760
 6155SOL     OW19363   1.497   3.814   4.161
 6155SOL    HW119364   1.476   3.757   4.240
 6155SOL    HW219365   1.433   3.793   4.087
 6156SOL     OW19366   6.666   0.425   3.945
 6156SOL    HW119367   6.609   0.506   3.963
 6156SOL    HW219368   6.663   0.403   3.848
 6157SOL     OW19369   1.686   1.486   3.199
 6157SOL    HW119370   1.715   1.566   3.251
 6157SOL    HW219371   1.759   1.418   3.197
 6158SOL     OW19372   4.673   0.943   0.600
 6158SOL    HW119373   4.669   1.004   0.521
 6158SOL    HW219374   4.713   0.991   0.678
 6159SOL     OW19375   4.852   3.199   6.955
 6159SOL    HW119376   4.861   3.268   0.008
 6159SOL    HW219377   4.943   3.176   6.919
 6160SOL     OW19378   6.718   4.932   2.163
 6160SOL    HW119379   6.766   4.886   2.239
 6160SOL    HW219380   6.665   5.009   2.199
 6161SOL     OW19381   5.435   0.333   6.689
 6161SOL    HW119382   5.383   0.380   6.617
 6161SOL    HW219383   5.383   0.254   6.722
 6162SOL     OW19384   5.786   5.425   3.843
 6162SOL    HW119385   5.848   5.498   3.870
 6162SOL    HW219386   5.831   5.337   3.855
 6163SOL     OW19387   6.908   4.336   1.913
 6163SOL    HW119388   6.835   4.283   1.869
 6163SOL    HW219389   6.896   4.333   2.012
 6164SOL     OW19390   4.557   3.026   0.617
 6164SOL    HW119391   4.518   3.045   0.707
 6164SOL    HW219392   4.609   2.941   0.620
 6165SOL     OW19393   4.446   6.534   0.829
 6165SOL    HW119394   4.416   6.492   0.915
 6165SOL    HW219395   4.546   6.530   0.823
 6166SOL     OW19396   3.516   1.552   6.772
 6166SOL    HW119397   3.526   1.643   6.813
 6166SOL    HW219398   3.602   1.503   6.776
 6167SOL     OW19399   6.588   4.757   3.466
 6167SOL    HW119400   6.649   4.680   3.449
 6167SOL    HW219401   6.634   4.825   3.523
 6168SOL     OW19402   0.807   2.481   2.025
 6168SOL    HW119403   0.729   2.459   1.966
 6168SOL    HW219404   0.786   2.457   2.119
 6169SOL     OW19405   1.939   4.206   2.301
 6169SOL    HW119406   1.994   4.125   2.281
 6169SOL    HW219407   1.951   4.274   2.228
 6170SOL     OW19408   6.995   2.492   3.677
 6170SOL    HW119409   0.058   2.436   3.657
 6170SOL    HW219410   0.005   2.576   3.723
 6171SOL     OW19411   6.686   0.499   6.164
 6171SOL    HW119412   6.697   0.555   6.081
 6171SOL    HW219413   6.681   0.402   6.138
 6172SOL     OW19414   0.928   4.526   3.748
 6172SOL    HW119415   0.897   4.453   3.687
 6172SOL    HW219416   0.922   4.495   3.843
 6173SOL     OW19417   5.598   5.913   3.415
 6173SOL    HW119418   5.689   5.871   3.421
 6173SOL    HW219419   5.579   5.940   3.321
 6174SOL     OW19420   5.942   3.026   1.835
 6174SOL    HW119421   5.844   3.010   1.840
 6174SOL    HW219422   5.978   2.990   1.749
 6175SOL     OW19423   3.374   2.110   6.163
 6175SOL    HW119424   3.310   2.087   6.091
 6175SOL    HW219425   3.402   2.206   6.154
 6176SOL     OW19426   3.902   4.311   6.231
 6176SOL    HW119427   3.833   4.380   6.208
 6176SOL    HW219428   3.928   4.321   6.328
 6177SOL     OW19429   5.843   0.028   1.443
 6177SOL    HW119430   5.751   7.017   1.470
 6177SOL    HW219431   5.855   0.012   1.345
 6178SOL     OW19432   3.998   4.793   1.563
 6178SOL    HW119433   3.984   4.743   1.649
 6178SOL    HW219434   4.019   4.728   1.490
 6179SOL     OW19435   5.953   4.952   5.023
 6179SOL    HW119436   5.942   4.853   5.030
 6179SOL    HW219437   6.014   4.974   4.947
 6180SOL     OW19438   3.327   4.749   6.567
 6180SOL    HW119439   3.293   4.687   6.637
 6180SOL    HW219440   3.377   4.697   6.497
 6181SOL     OW19441   5.888   6.208   7.003
 6181SOL    HW119442   5.972   6.251   0.020
 6181SOL    HW219443   5.870   6.242   6.911
 6182SOL     OW19444   3.601   2.462   0.465
 6182SOL    HW119445   3.601   2.551   0.418
 6182SOL    HW219446   3.534   2.401   0.422
 6183SOL     OW19447   0.193   6.740   0.458
 6183SOL    HW119448   0.119   6.802   0.483
 6183SOL    HW219449   0.249   6.720   0.538
 6184SOL     OW19450   2.721   6.530   5.592
 6184SOL    HW119451   2.635   6.576   5.612
 6184SOL    HW219452   2.773   6.584   5.526
 6185SOL     OW19453   3.742   3.119   4.710
 6185SOL    HW119454   3.732   3.026   4.744
 6185SOL    HW219455   3.840   3.140   4.698
 6186SOL     OW19456   0.457   1.701   2.222
 6186SOL    HW119457   0.507   1.757   2.288
 6186SOL    HW219458   0.520   1.637   2.178
 6187SOL     OW19459   3.407   1.094   5.927
 6187SOL    HW119460   3.424   1.171   5.988
 6187SOL    HW219461   3.332   1.116   5.864
 6188SOL     OW19462   1.642   1.210   5.135
 6188SOL    HW119463   1.693   1.290   5.104
 6188SOL    HW219464   1.649   1.137   5.068
 6189SOL     OW19465   6.477   5.709   1.331
 6189SOL    HW119466   6.556   5.757   1.367
 6189SOL    HW219467   6.503   5.614   1.309
 6190SOL     OW19468   0.492   3.114   4.735
 6190SOL    HW119469   0.475   3.199   4.785
 6190SOL    HW219470   0.591   3.100   4.727
 6191SOL     OW19471   3.364   3.680   0.408
 6191SOL    HW119472   3.375   3.584   0.432
 6191SOL    HW219473   3.316   3.688   0.320
 6192SOL     OW19474   3.056   1.728   0.784
 6192SOL    HW119475   3.101   1.778   0.710
 6192SOL    HW219476   3.116   1.653   0.815
 6193SOL     OW19477   4.361   5.817   6.516
 6193SOL    HW119478   4.360   5.844   6.612
 6193SOL    HW219479   4.454   5.818   6.481
 6194SOL     OW19480   5.381   6.791   7.017
 6194SOL    HW119481   5.321   6.774   6.938
 6194SOL    HW219482   5.422   6.882   7.008
 6195SOL     OW19483   6.183   6.181   6.545
 6195SOL    HW119484   6.205   6.089   6.577
 6195SOL    HW219485   6.084   6.191   6.534
 6196SOL     OW19486   5.708   3.639   2.671
 6196SOL    HW119487   5.708   3.539   2.675
 6196SOL    HW219488   5.632   3.674   2.727
 6197SOL     OW19489   1.003   5.369   0.852
 6197SOL    HW119490   0.935   5.338   0.918
 6197SOL    HW219491   1.044   5.454   0.884
 6198SOL     OW19492   5.811   1.129   6.697
 6198SOL    HW119493   5.744   1.055   6.692
 6198SOL    HW219494   5.843   1.151   6.605
 6199SOL     OW19495   2.057   0.053   5.909
 6199SOL    HW119496   2.155   0.048   5.928
 6199SOL    HW219497   2.032   0.147   5.886
 6200SOL     OW19498   1.368   0.863   1.484
 6200SOL    HW119499   1.442   0.811   1.526
 6200SOL    HW219500   1.282   0.839   1.528
 6201SOL     OW19501   0.350   4.983   2.835
 6201SOL    HW119502   0.441   4.946   2.817
 6201SOL    HW219503   0.299   4.920   2.893
 6202SOL     OW19504   5.780   1.361   2.626
 6202SOL    HW119505   5.858   1.420   2.607
 6202SOL    HW219506   5.806   1.289   2.690
 6203SOL     OW19507   6.387   0.346   1.914
 6203SOL    HW119508   6.468   0.401   1.898
 6203SOL    HW219509   6.340   0.378   1.997
 6204SOL     OW19510   1.361   6.444   5.340
 6204SOL    HW119511   1.369   6.412   5.435
 6204SOL    HW219512   1.289   6.513   5.335
 6205SOL     OW19513   5.389   4.295   3.758
 6205SOL    HW119514   5.396   4.393   3.739
 6205SOL    HW219515   5.481   4.255   3.763
 6206SOL     OW19516   5.683   1.850   3.920
 6206SOL    HW119517   5.765   1.808   3.959
 6206SOL    HW219518   5.679   1.829   3.822
 6207SOL     OW19519   0.750   5.882   4.300
 6207SOL    HW119520   0.697   5.817   4.246
 6207SOL    HW219521   0.746   5.857   4.397
 6208SOL     OW19522   4.361   4.155   5.556
 6208SOL    HW119523   4.329   4.111   5.640
 6208SOL    HW219524   4.454   4.125   5.536
 6209SOL     OW19525   3.361   2.154   1.569
 6209SOL    HW119526   3.421   2.188   1.641
 6209SOL    HW219527   3.337   2.059   1.587
 6210SOL     OW19528   5.156   2.029   4.495
 6210SOL    HW119529   5.130   2.021   4.399
 6210SOL    HW219530   5.230   1.964   4.515
 6211SOL     OW19531   5.634   4.292   5.122
 6211SOL    HW119532   5.640   4.217   5.056
 6211SOL    HW219533   5.657   4.257   5.213
 6212SOL     OW19534   4.858   4.974   5.397
 6212SOL    HW119535   4.880   5.003   5.304
 6212SOL    HW219536   4.935   4.922   5.435
 6213SOL     OW19537   4.108   5.726   0.494
 6213SOL    HW119538   4.078   5.640   0.537
 6213SOL    HW219539   4.053   5.743   0.412
 6214SOL     OW19540   5.980   6.753   6.781
 6214SOL    HW119541   5.952   6.811   6.704
 6214SOL    HW219542   6.076   6.768   6.801
 6215SOL     OW19543   5.837   2.349   5.128
 6215SOL    HW119544   5.791   2.401   5.055
 6215SOL    HW219545   5.928   2.388   5.143
 6216SOL     OW19546   4.555   1.640   4.265
 6216SOL    HW119547   4.479   1.642   4.329
 6216SOL    HW219548   4.522   1.608   4.176
 6217SOL     OW19549   0.371   4.413   3.161
 6217SOL    HW119550   0.377   4.501   3.210
 6217SOL    HW219551   0.360   4.431   3.063
 6218SOL     OW19552   4.800   5.813   0.093
 6218SOL    HW119553   4.792   5.832   7.013
 6218SOL    HW219554   4.846   5.726   0.107
 6219SOL     OW19555   2.226   1.373   6.630
 6219SOL    HW119556   2.285   1.439   6.676
 6219SOL    HW219557   2.282   1.314   6.570
 6220SOL     OW19558   3.456   6.437   0.403
 6220SOL    HW119559   3.411   6.382   0.474
 6220SOL    HW219560   3.408   6.425   0.316
 6221SOL     OW19561   5.397   5.867   6.757
 6221SOL    HW119562   5.446   5.813   6.688
 6221SOL    HW219563   5.366   5.953   6.716
 6222SOL     OW19564   6.748   1.746   2.095
 6222SOL    HW119565   6.825   1.699   2.138
 6222SOL    HW219566   6.757   1.741   1.995
 6223SOL     OW19567   6.951   5.053   4.207
 6223SOL    HW119568   6.984   5.119   4.139
 6223SOL    HW219569   0.008   5.028   4.268
 6224SOL     OW19570   3.593   0.174   0.200
 6224SOL    HW119571   3.686   0.205   0.220
 6224SOL    HW219572   3.584   0.078   0.224
 6225SOL     OW19573   4.806   5.959   6.625
 6225SOL    HW119574   4.788   6.057   6.619
 6225SOL    HW219575   4.902   5.941   6.601
 6226SOL     OW19576   1.159   0.912   4.384
 6226SOL    HW119577   1.103   0.856   4.322
 6226SOL    HW219578   1.098   0.967   4.442
 6227SOL     OW19579   3.254   5.149   5.399
 6227SOL    HW119580   3.303   5.068   5.432
 6227SOL    HW219581   3.194   5.124   5.323
 6228SOL     OW19582   0.827   3.316   3.647
 6228SOL    HW119583   0.868   3.301   3.557
 6228SOL    HW219584   0.751   3.381   3.638
 6229SOL     OW19585   0.559   2.909   4.129
 6229SOL    HW119586   0.636   2.858   4.166
 6229SOL    HW219587   0.592   2.995   4.090
 6230SOL     OW19588   6.955   1.102   1.633
 6230SOL    HW119589   0.024   1.086   1.587
 6230SOL    HW219590   6.897   1.021   1.624
 6231SOL     OW19591   2.382   4.980   6.368
 6231SOL    HW119592   2.433   4.916   6.310
 6231SOL    HW219593   2.379   4.945   6.461
 6232SOL     OW19594   4.032   0.311   6.339
 6232SOL    HW119595   4.122   0.292   6.378
 6232SOL    HW219596   4.020   0.256   6.256
 6233SOL     OW19597   6.718   3.405   1.178
 6233SOL    HW119598   6.709   3.342   1.101
 6233SOL    HW219599   6.812   3.403   1.212
 6234SOL     OW19600   5.111   4.865   4.573
 6234SOL    HW119601   5.039   4.923   4.611
 6234SOL    HW219602   5.125   4.889   4.477
 6235SOL     OW19603   0.637   0.285   2.649
 6235SOL    HW119604   0.604   0.194   2.675
 6235SOL    HW219605   0.623   0.298   2.551
 6236SOL     OW19606   6.578   5.658   1.792
 6236SOL    HW119607   6.523   5.575   1.789
 6236SOL    HW219608   6.572   5.699   1.883
 6237SOL     OW19609   3.372   1.016   2.144
 6237SOL    HW119610   3.401   0.932   2.189
 6237SOL    HW219611   3.331   1.078   2.212
 6238SOL     OW19612   2.619   0.563   3.933
 6238SOL    HW119613   2.670   0.483   3.963
 6238SOL    HW219614   2.594   0.618   4.013
 6239SOL     OW19615   4.917   1.140   4.617
 6239SOL    HW119616   4.861   1.200   4.674
 6239SOL    HW219617   4.947   1.061   4.670
 6240SOL     OW19618   3.884   3.038   3.847
 6240SOL    HW119619   3.920   2.954   3.806
 6240SOL    HW219620   3.907   3.040   3.944
 6241SOL     OW19621   3.440   6.905   3.601
 6241SOL    HW119622   3.424   6.984   3.542
 6241SOL    HW219623   3.492   6.836   3.551
 6242SOL     OW19624   2.781   1.925   3.609
 6242SOL    HW119625   2.831   1.838   3.614
 6242SOL    HW219626   2.814   1.977   3.531
 6243SOL     OW19627   4.539   1.568   6.477
 6243SOL    HW119628   4.626   1.523   6.499
 6243SOL    HW219629   4.492   1.592   6.562
 6244SOL     OW19630   4.643   2.750   1.829
 6244SOL    HW119631   4.668   2.670   1.884
 6244SOL    HW219632   4.658   2.833   1.883
 6245SOL     OW19633   0.293   5.227   1.835
 6245SOL    HW119634   0.374   5.247   1.780
 6245SOL    HW219635   0.231   5.168   1.783
 6246SOL     OW19636   6.901   0.221   4.323
 6246SOL    HW119637   6.928   0.314   4.298
 6246SOL    HW219638   6.810   0.202   4.286
 6247SOL     OW19639   6.118   5.856   3.855
 6247SOL    HW119640   6.072   5.929   3.805
 6247SOL    HW219641   6.176   5.805   3.792
 6248SOL     OW19642   3.743   3.091   5.214
 6248SOL    HW119643   3.743   3.177   5.163
 6248SOL    HW219644   3.835   3.074   5.250
 6249SOL     OW19645   6.307   3.446   2.305
 6249SOL    HW119646   6.217   3.403   2.307
 6249SOL    HW219647   6.311   3.510   2.228
 6250SOL     OW19648   5.636   0.046   6.730
 6250SOL    HW119649   5.574   0.033   6.807
 6250SOL    HW219650   5.704   0.115   6.753
 6251SOL     OW19651   2.426   0.309   4.463
 6251SOL    HW119652   2.416   0.286   4.366
 6251SOL    HW219653   2.523   0.310   4.488
 6252SOL     OW19654   3.220   5.341   6.328
 6252SOL    HW119655   3.222   5.254   6.377
 6252SOL    HW219656   3.287   5.403   6.367
 6253SOL     OW19657   3.874   5.761   3.482
 6253SOL    HW119658   3.852   5.694   3.552
 6253SOL    HW219659   3.868   5.853   3.520
 6254SOL     OW19660   0.474   0.106   1.636
 6254SOL    HW119661   0.418   0.078   1.714
 6254SOL    HW219662   0.522   0.026   1.598
 6255SOL     OW19663   1.322   1.861   0.383
 6255SOL    HW119664   1.393   1.818   0.439
 6255SOL    HW219665   1.278   1.793   0.326
 6256SOL     OW19666   5.855   6.252   2.450
 6256SOL    HW119667   5.819   6.241   2.543
 6256SOL    HW219668   5.948   6.287   2.454
 6257SOL     OW19669   3.067   4.800   0.794
 6257SOL    HW119670   3.016   4.849   0.723
 6257SOL    HW219671   3.084   4.706   0.764
 6258SOL     OW19672   4.530   5.253   5.254
 6258SOL    HW119673   4.542   5.208   5.166
 6258SOL    HW219674   4.594   5.330   5.261
 6259SOL     OW19675   4.221   1.056   5.022
 6259SOL    HW119676   4.166   1.137   5.044
 6259SOL    HW219677   4.167   0.994   4.965
 6260SOL     OW19678   1.624   1.825   0.170
 6260SOL    HW119679   1.647   1.923   0.177
 6260SOL    HW219680   1.536   1.815   0.126
 6261SOL     OW19681   3.404   0.180   0.558
 6261SOL    HW119682   3.488   0.217   0.518
 6261SOL    HW219683   3.354   0.253   0.604
 6262SOL     OW19684   5.917   1.053   2.394
 6262SOL    HW119685   5.865   1.092   2.471
 6262SOL    HW219686   5.936   0.957   2.413
 6263SOL     OW19687   6.256   5.892   5.928
 6263SOL    HW119688   6.337   5.944   5.952
 6263SOL    HW219689   6.246   5.890   5.828
 6264SOL     OW19690   2.648   6.269   6.854
 6264SOL    HW119691   2.548   6.258   6.854
 6264SOL    HW219692   2.691   6.186   6.819
 6265SOL     OW19693   4.707   6.818   6.340
 6265SOL    HW119694   4.632   6.856   6.395
 6265SOL    HW219695   4.785   6.881   6.342
 6266SOL     OW19696   3.012   5.227   2.917
 6266SOL    HW119697   2.919   5.204   2.889
 6266SOL    HW219698   3.069   5.242   2.836
 6267SOL     OW19699   1.633   6.472   4.895
 6267SOL    HW119700   1.592   6.401   4.837
 6267SOL    HW219701   1.671   6.430   4.977
 6268SOL     OW19702   3.259   1.892   0.637
 6268SOL    HW119703   3.340   1.920   0.688
 6268SOL    HW219704   3.285   1.829   0.564
 6269SOL     OW19705   6.883   5.418   6.840
 6269SOL    HW119706   6.968   5.454   6.880
 6269SOL    HW219707   6.903   5.332   6.793
 6270SOL     OW19708   2.223   6.114   0.968
 6270SOL    HW119709   2.132   6.074   0.964
 6270SOL    HW219710   2.242   6.144   1.061
 6271SOL     OW19711   6.663   3.032   5.800
 6271SOL    HW119712   6.712   2.953   5.839
 6271SOL    HW219713   6.728   3.104   5.778
 6272SOL     OW19714   0.268   0.629   0.132
 6272SOL    HW119715   0.241   0.691   0.058
 6272SOL    HW219716   0.220   0.655   0.216
 6273SOL     OW19717   0.875   6.645   2.240
 6273SOL    HW119718   0.884   6.561   2.294
 6273SOL    HW219719   0.964   6.692   2.237
 6274SOL     OW19720   2.788   5.845   3.720
 6274SOL    HW119721   2.853   5.770   3.733
 6274SOL    HW219722   2.711   5.834   3.782
 6275SOL     OW19723   3.132   5.799   6.408
 6275SOL    HW119724   3.137   5.776   6.311
 6275SOL    HW219725   3.222   5.789   6.450
 6276SOL     OW19726   1.138   5.649   2.493
 6276SOL    HW119727   1.231   5.613   2.488
 6276SOL    HW219728   1.140   5.748   2.477
 6277SOL     OW19729   5.401   2.562   1.175
 6277SOL    HW119730   5.383   2.469   1.205
 6277SOL    HW219731   5.463   2.561   1.096
 6278SOL     OW19732   4.301   2.173   0.669
 6278SOL    HW119733   4.297   2.270   0.642
 6278SOL    HW219734   4.357   2.123   0.603
 6279SOL     OW19735   3.539   0.021   1.307
 6279SOL    HW119736   3.521   0.117   1.286
 6279SOL    HW219737   3.635   0.009   1.329
 6280SOL     OW19738   5.170   2.657   6.309
 6280SOL    HW119739   5.206   2.726   6.246
 6280SOL    HW219740   5.244   2.622   6.367
 6281SOL     OW19741   5.242   4.129   6.404
 6281SOL    HW119742   5.170   4.134   6.473
 6281SOL    HW219743   5.323   4.176   6.437
 6282SOL     OW19744   0.328   3.617   6.020
 6282SOL    HW119745   0.266   3.676   6.073
 6282SOL    HW219746   0.315   3.635   5.923
 6283SOL     OW19747   1.969   6.575   4.464
 6283SOL    HW119748   2.037   6.503   4.455
 6283SOL    HW219749   1.940   6.604   4.373
 6284SOL     OW19750   1.360   3.297   5.242
 6284SOL    HW119751   1.372   3.334   5.150
 6284SOL    HW219752   1.401   3.206   5.247
 6285SOL     OW19753   1.163   3.195   2.788
 6285SOL    HW119754   1.208   3.258   2.852
 6285SOL    HW219755   1.141   3.244   2.703
 6286SOL     OW19756   0.905   2.464   6.523
 6286SOL    HW119757   0.837   2.520   6.571
 6286SOL    HW219758   0.908   2.490   6.427
 6287SOL     OW19759   4.963   4.531   5.512
 6287SOL    HW119760   4.872   4.497   5.537
 6287SOL    HW219761   4.964   4.551   5.414
 6288SOL     OW19762   2.614   3.864   5.903
 6288SOL    HW119763   2.667   3.862   5.987
 6288SOL    HW219764   2.517   3.881   5.925
 6289SOL     OW19765   2.088   4.645   5.390
 6289SOL    HW119766   2.158   4.619   5.456
 6289SOL    HW219767   2.116   4.616   5.299
 6290SOL     OW19768   5.930   6.891   4.190
 6290SOL    HW119769   6.028   6.885   4.210
 6290SOL    HW219770   5.878   6.879   4.275
 6291SOL     OW19771   3.680   3.607   2.087
 6291SOL    HW119772   3.646   3.683   2.143
 6291SOL    HW219773   3.774   3.627   2.057
 6292SOL     OW19774   1.206   4.540   4.027
 6292SOL    HW119775   1.225   4.622   3.973
 6292SOL    HW219776   1.265   4.465   3.997
 6293SOL     OW19777   2.847   1.822   6.277
 6293SOL    HW119778   2.906   1.761   6.330
 6293SOL    HW219779   2.879   1.916   6.288
 6294SOL     OW19780   1.875   1.326   2.254
 6294SOL    HW119781   1.962   1.369   2.227
 6294SOL    HW219782   1.882   1.227   2.245
 6295SOL     OW19783   4.391   3.263   6.297
 6295SOL    HW119784   4.315   3.200   6.315
 6295SOL    HW219785   4.355   3.354   6.275
 6296SOL     OW19786   1.038   2.674   6.827
 6296SOL    HW119787   0.954   2.673   6.880
 6296SOL    HW219788   1.103   2.609   6.866
 6297SOL     OW19789   6.321   1.320   3.655
 6297SOL    HW119790   6.263   1.396   3.627
 6297SOL    HW219791   6.277   1.234   3.632
 6298SOL     OW19792   0.471   6.481   1.056
 6298SOL    HW119793   0.460   6.570   1.100
 6298SOL    HW219794   0.565   6.471   1.024
 6299SOL     OW19795   3.870   1.536   3.873
 6299SOL    HW119796   3.944   1.503   3.814
 6299SOL    HW219797   3.840   1.462   3.934
 6300SOL     OW19798   2.779   1.944   6.976
 6300SOL    HW119799   2.867   1.897   6.967
 6300SOL    HW219800   2.705   1.876   6.979
 6301SOL     OW19801   4.236   6.099   6.941
 6301SOL    HW119802   4.334   6.117   6.948
 6301SOL    HW219803   4.211   6.025   7.002
 6302SOL     OW19804   2.021   3.018   6.789
 6302SOL    HW119805   1.982   3.070   6.713
 6302SOL    HW219806   2.121   3.026   6.787
 6303SOL     OW19807   0.393   5.734   4.595
 6303SOL    HW119808   0.463   5.694   4.536
 6303SOL    HW219809   0.405   5.703   4.689
 6304SOL     OW19810   3.162   0.760   4.732
 6304SOL    HW119811   3.138   0.714   4.818
 6304SOL    HW219812   3.135   0.703   4.655
 6305SOL     OW19813   1.032   5.585   5.709
 6305SOL    HW119814   1.126   5.568   5.679
 6305SOL    HW219815   1.034   5.637   5.795
 6306SOL     OW19816   0.534   4.661   5.254
 6306SOL    HW119817   0.560   4.670   5.157
 6306SOL    HW219818   0.496   4.570   5.269
 6307SOL     OW19819   3.731   3.059   2.090
 6307SOL    HW119820   3.677   2.989   2.136
 6307SOL    HW219821   3.827   3.048   2.115
 6308SOL     OW19822   0.542   2.441   0.062
 6308SOL    HW119823   0.552   2.540   0.065
 6308SOL    HW219824   0.524   2.412   6.987
 6309SOL     OW19825   2.226   6.191   5.010
 6309SOL    HW119826   2.291   6.257   4.972
 6309SOL    HW219827   2.235   6.104   4.963
 6310SOL     OW19828   1.350   6.959   3.398
 6310SOL    HW119829   1.363   6.977   3.496
 6310SOL    HW219830   1.429   6.910   3.363
 6311SOL     OW19831   6.261   1.170   6.661
 6311SOL    HW119832   6.175   1.196   6.704
 6311SOL    HW219833   6.309   1.251   6.629
 6312SOL     OW19834   2.850   5.540   6.967
 6312SOL    HW119835   2.915   5.465   6.970
 6312SOL    HW219836   2.848   5.587   0.036
 6313SOL     OW19837   6.399   4.288   3.953
 6313SOL    HW119838   6.391   4.385   3.931
 6313SOL    HW219839   6.494   4.269   3.980
 6314SOL     OW19840   1.833   6.662   2.717
 6314SOL    HW119841   1.932   6.671   2.723
 6314SOL    HW219842   1.802   6.585   2.773
 6315SOL     OW19843   2.129   1.534   3.637
 6315SOL    HW119844   2.093   1.553   3.728
 6315SOL    HW219845   2.198   1.462   3.643
 6316SOL     OW19846   4.149   0.770   5.039
 6316SOL    HW119847   4.161   0.731   5.130
 6316SOL    HW219848   4.159   0.698   4.970
 6317SOL     OW19849   5.557   4.620   2.580
 6317SOL    HW119850   5.580   4.546   2.516
 6317SOL    HW219851   5.597   4.600   2.670
 6318SOL     OW19852   6.538   6.976   0.026
 6318SOL    HW119853   6.606   7.018   0.086
 6318SOL    HW219854   6.580   6.951   6.958
 6319SOL     OW19855   5.181   1.835   4.195
 6319SOL    HW119856   5.139   1.747   4.219
 6319SOL    HW219857   5.228   1.826   4.108
 6320SOL     OW19858   6.106   1.547   5.526
 6320SOL    HW119859   6.178   1.497   5.477
 6320SOL    HW219860   6.084   1.499   5.610
 6321SOL     OW19861   0.386   2.626   0.240
 6321SOL    HW119862   0.476   2.585   0.256
 6321SOL    HW219863   0.396   2.725   0.230
 6322SOL     OW19864   1.251   0.953   3.077
 6322SOL    HW119865   1.279   0.968   3.172
 6322SOL    HW219866   1.248   1.040   3.029
 6323SOL     OW19867   2.119   4.867   0.701
 6323SOL    HW119868   2.152   4.828   0.615
 6323SOL    HW219869   2.086   4.794   0.761
 6324SOL     OW19870   4.988   3.607   1.389
 6324SOL    HW119871   5.006   3.515   1.426
 6324SOL    HW219872   4.895   3.635   1.413
 6325SOL     OW19873   1.427   2.701   4.042
 6325SOL    HW119874   1.369   2.675   3.964
 6325SOL    HW219875   1.500   2.762   4.011
 6326SOL     OW19876   5.294   5.347   5.661
 6326SOL    HW119877   5.366   5.285   5.632
 6326SOL    HW219878   5.309   5.375   5.756
 6327SOL     OW19879   0.403   1.303   3.673
 6327SOL    HW119880   0.395   1.247   3.755
 6327SOL    HW219881   0.491   1.349   3.672
 6328SOL     OW19882   4.770   3.739   5.358
 6328SOL    HW119883   4.705   3.681   5.308
 6328SOL    HW219884   4.853   3.687   5.376
 6329SOL     OW19885   0.803   1.960   6.040
 6329SOL    HW119886   0.718   2.002   6.008
 6329SOL    HW219887   0.812   1.868   6.002
 6330SOL     OW19888   4.582   1.304   4.002
 6330SOL    HW119889   4.514   1.374   4.028
 6330SOL    HW219890   4.663   1.314   4.059
 6331SOL     OW19891   1.096   3.309   4.053
 6331SOL    HW119892   1.045   3.389   4.086
 6331SOL    HW219893   1.112   3.317   3.955
 6332SOL     OW19894   3.255   1.585   6.655
 6332SOL    HW119895   3.343   1.562   6.697
 6332SOL    HW219896   3.252   1.683   6.637
 6333SOL     OW19897   5.594   0.951   1.169
 6333SOL    HW119898   5.510   1.000   1.145
 6333SOL    HW219899   5.673   1.012   1.157
 6334SOL     OW19900   1.573   1.101   1.273
 6334SOL    HW119901   1.654   1.158   1.266
 6334SOL    HW219902   1.543   1.096   1.368
 6335SOL     OW19903   6.515   3.168   6.028
 6335SOL    HW119904   6.524   3.070   6.042
 6335SOL    HW219905   6.605   3.207   6.007
 6336SOL     OW19906   0.576   3.574   5.486
 6336SOL    HW119907   0.556   3.659   5.534
 6336SOL    HW219908   0.674   3.558   5.486
 6337SOL     OW19909   5.301   0.162   5.268
 6337SOL    HW119910   5.354   0.246   5.274
 6337SOL    HW219911   5.326   0.101   5.344
 6338SOL     OW19912   0.872   0.827   3.336
 6338SOL    HW119913   0.784   0.805   3.378
 6338SOL    HW219914   0.857   0.852   3.240
 6339SOL     OW19915   0.186   4.156   3.595
 6339SOL    HW119916   0.276   4.150   3.551
 6339SOL    HW219917   0.139   4.068   3.587
 6340SOL     OW19918   2.651   4.417   0.569
 6340SOL    HW119919   2.633   4.354   0.644
 6340SOL    HW219920   2.670   4.508   0.606
 6341SOL     OW19921   0.471   5.603   1.998
 6341SOL    HW119922   0.479   5.629   1.902
 6341SOL    HW219923   0.563   5.591   2.037
 6342SOL     OW19924   1.692   0.965   1.764
 6342SOL    HW119925   1.768   0.913   1.724
 6342SOL    HW219926   1.729   1.040   1.820
 6343SOL     OW19927   1.125   5.717   0.630
 6343SOL    HW119928   1.206   5.674   0.588
 6343SOL    HW219929   1.084   5.780   0.564
 6344SOL     OW19930   1.379   1.310   4.091
 6344SOL    HW119931   1.328   1.231   4.056
 6344SOL    HW219932   1.322   1.392   4.086
 6345SOL     OW19933   5.676   2.426   2.931
 6345SOL    HW119934   5.609   2.373   2.983
 6345SOL    HW219935   5.743   2.465   2.994
 6346SOL     OW19936   0.188   3.939   5.187
 6346SOL    HW119937   0.174   3.841   5.174
 6346SOL    HW219938   0.237   3.977   5.109
 6347SOL     OW19939   2.335   2.427   3.390
 6347SOL    HW119940   2.418   2.457   3.436
 6347SOL    HW219941   2.273   2.385   3.456
 6348SOL     OW19942   0.885   2.655   5.882
 6348SOL    HW119943   0.872   2.557   5.866
 6348SOL    HW219944   0.968   2.669   5.936
 6349SOL     OW19945   6.427   1.336   0.802
 6349SOL    HW119946   6.418   1.342   0.901
 6349SOL    HW219947   6.388   1.249   0.770
 6350SOL     OW19948   1.182   6.095   1.626
 6350SOL    HW119949   1.129   6.014   1.601
 6350SOL    HW219950   1.251   6.070   1.693
 6351SOL     OW19951   5.872   4.030   1.294
 6351SOL    HW119952   5.851   4.045   1.197
 6351SOL    HW219953   5.962   4.068   1.314
 6352SOL     OW19954   3.806   0.820   4.889
 6352SOL    HW119955   3.714   0.842   4.856
 6352SOL    HW219956   3.873   0.837   4.817
 6353SOL     OW19957   3.744   6.259   5.267
 6353SOL    HW119958   3.829   6.267   5.320
 6353SOL    HW219959   3.765   6.231   5.174
 6354SOL     OW19960   4.941   5.372   2.530
 6354SOL    HW119961   4.924   5.297   2.593
 6354SOL    HW219962   4.923   5.342   2.436
 6355SOL     OW19963   3.348   5.509   0.679
 6355SOL    HW119964   3.249   5.505   0.693
 6355SOL    HW219965   3.372   5.451   0.602
 6356SOL     OW19966   0.176   5.918   6.208
 6356SOL    HW119967   0.091   5.891   6.162
 6356SOL    HW219968   0.154   5.962   6.295
 6357SOL     OW19969   5.246   0.710   2.646
 6357SOL    HW119970   5.302   0.697   2.563
 6357SOL    HW219971   5.181   0.784   2.631
 6358SOL     OW19972   1.139   2.261   4.988
 6358SOL    HW119973   1.077   2.329   4.949
 6358SOL    HW219974   1.110   2.240   5.082
 6359SOL     OW19975   5.347   6.282   1.611
 6359SOL    HW119976   5.400   6.348   1.558
 6359SOL    HW219977   5.334   6.199   1.557
 6360SOL     OW19978   1.342   2.070   0.963
 6360SOL    HW119979   1.303   2.010   0.893
 6360SOL    HW219980   1.391   2.145   0.920
 6361SOL     OW19981   0.547   1.586   0.731
 6361SOL    HW119982   0.529   1.496   0.771
 6361SOL    HW219983   0.616   1.633   0.786
 6362SOL     OW19984   1.560   5.387   0.848
 6362SOL    HW119985   1.578   5.486   0.842
 6362SOL    HW219986   1.643   5.340   0.878
 6363SOL     OW19987   1.886   3.870   1.875
 6363SOL    HW119988   1.812   3.891   1.940
 6363SOL    HW219989   1.939   3.953   1.857
 6364SOL     OW19990   2.717   2.296   4.492
 6364SOL    HW119991   2.699   2.313   4.589
 6364SOL    HW219992   2.633   2.311   4.440
 6365SOL     OW19993   5.924   6.981   3.007
 6365SOL    HW119994   5.934   6.894   3.054
 6365SOL    HW219995   5.859   0.020   3.056
 6366SOL     OW19996   6.094   0.962   4.995
 6366SOL    HW119997   6.035   1.040   5.014
 6366SOL    HW219998   6.157   0.949   5.071
 6367SOL     OW19999   0.992   2.281   3.108
 6367SOL    HW120000   1.072   2.297   3.050
 6367SOL    HW220001   1.015   2.215   3.180
 6368SOL     OW20002   4.930   3.793   4.917
 6368SOL    HW120003   4.927   3.857   4.994
 6368SOL    HW220004   4.880   3.710   4.940
 6369SOL     OW20005   4.482   4.958   0.396
 6369SOL    HW120006   4.462   5.026   0.325
 6369SOL    HW220007   4.563   4.906   0.370
 6370SOL     OW20008   5.401   4.007   4.248
 6370SOL    HW120009   5.401   4.106   4.253
 6370SOL    HW220010   5.491   3.974   4.219
 6371SOL     OW20011   5.350   4.848   1.117
 6371SOL    HW120012   5.373   4.873   1.211
 6371SOL    HW220013   5.355   4.749   1.107
 6372SOL     OW20014   6.421   1.892   1.444
 6372SOL    HW120015   6.404   1.912   1.541
 6372SOL    HW220016   6.375   1.808   1.418
 6373SOL     OW20017   4.913   3.307   2.255
 6373SOL    HW120018   4.857   3.224   2.249
 6373SOL    HW220019   4.901   3.360   2.171
 6374SOL     OW20020   4.678   3.682   6.690
 6374SOL    HW120021   4.598   3.637   6.651
 6374SOL    HW220022   4.745   3.613   6.718
 6375SOL     OW20023   4.875   1.127   2.025
 6375SOL    HW120024   4.817   1.207   2.010
 6375SOL    HW220025   4.958   1.136   1.970
 6376SOL     OW20026   2.589   0.258   0.807
 6376SOL    HW120027   2.548   0.211   0.729
 6376SOL    HW220028   2.660   0.321   0.775
 6377SOL     OW20029   0.538   0.684   0.216
 6377SOL    HW120030   0.586   0.703   0.131
 6377SOL    HW220031   0.439   0.691   0.201
 6378SOL     OW20032   5.824   4.608   2.307
 6378SOL    HW120033   5.827   4.608   2.407
 6378SOL    HW220034   5.782   4.693   2.275
 6379SOL     OW20035   1.806   5.108   6.404
 6379SOL    HW120036   1.719   5.124   6.357
 6379SOL    HW220037   1.795   5.035   6.472
 6380SOL     OW20038   0.855   3.568   5.251
 6380SOL    HW120039   0.910   3.632   5.197
 6380SOL    HW220040   0.859   3.594   5.348
 6381SOL     OW20041   4.021   3.529   0.379
 6381SOL    HW120042   4.037   3.446   0.432
 6381SOL    HW220043   3.983   3.504   0.290
 6382SOL     OW20044   1.483   1.351   0.321
 6382SOL    HW120045   1.548   1.312   0.387
 6382SOL    HW220046   1.469   1.448   0.340
 6383SOL     OW20047   2.330   2.689   2.109
 6383SOL    HW120048   2.351   2.613   2.171
 6383SOL    HW220049   2.347   2.661   2.015
 6384SOL     OW20050   6.339   2.448   2.111
 6384SOL    HW120051   6.328   2.365   2.057
 6384SOL    HW220052   6.283   2.442   2.194
 6385SOL     OW20053   6.904   3.839   0.111
 6385SOL    HW120054   6.868   3.780   0.039
 6385SOL    HW220055   6.895   3.935   0.083
 6386SOL     OW20056   2.913   2.802   0.719
 6386SOL    HW120057   2.922   2.821   0.622
 6386SOL    HW220058   2.910   2.703   0.734
 6387SOL     OW20059   0.058   6.646   6.917
 6387SOL    HW120060   0.086   6.563   6.869
 6387SOL    HW220061   0.107   6.652   7.004
 6388SOL     OW20062   5.482   5.466   2.268
 6388SOL    HW120063   5.496   5.536   2.198
 6388SOL    HW220064   5.411   5.496   2.332
 6389SOL     OW20065   6.837   6.388   0.973
 6389SOL    HW120066   6.898   6.330   0.920
 6389SOL    HW220067   6.879   6.478   0.986
 6390SOL     OW20068   5.307   0.770   0.123
 6390SOL    HW120069   5.347   0.837   0.186
 6390SOL    HW220070   5.310   0.680   0.165
 6391SOL     OW20071   1.351   1.854   4.841
 6391SOL    HW120072   1.372   1.872   4.937
 6391SOL    HW220073   1.425   1.888   4.783
 6392SOL     OW20074   4.422   6.813   3.957
 6392SOL    HW120075   4.471   6.757   4.023
 6392SOL    HW220076   4.382   6.755   3.887
 6393SOL     OW20077   1.467   4.795   0.268
 6393SOL    HW120078   1.425   4.704   0.275
 6393SOL    HW220079   1.450   4.845   0.353
 6394SOL     OW20080   1.656   5.152   1.778
 6394SOL    HW120081   1.753   5.129   1.776
 6394SOL    HW220082   1.615   5.129   1.690
 6395SOL     OW20083   2.020   4.114   3.757
 6395SOL    HW120084   1.968   4.114   3.842
 6395SOL    HW220085   1.972   4.059   3.689
 6396SOL     OW20086   2.013   3.099   5.111
 6396SOL    HW120087   2.042   3.007   5.136
 6396SOL    HW220088   2.081   3.165   5.142
 6397SOL     OW20089   5.855   3.972   4.940
 6397SOL    HW120090   5.787   3.900   4.925
 6397SOL    HW220091   5.945   3.941   4.910
 6398SOL     OW20092   2.562   0.089   2.798
 6398SOL    HW120093   2.605   0.037   2.724
 6398SOL    HW220094   2.620   0.167   2.822
 6399SOL     OW20095   3.312   0.066   0.193
 6399SOL    HW120096   3.270   0.153   0.219
 6399SOL    HW220097   3.364   0.078   0.108
 6400SOL     OW20098   0.817   6.518   2.996
 6400SOL    HW120099   0.817   6.423   2.967
 6400SOL    HW220100   0.744   6.568   2.950
 6401SOL     OW20101   4.255   5.285   2.643
 6401SOL    HW120102   4.299   5.244   2.564
 6401SOL    HW220103   4.156   5.293   2.627
 6402SOL     OW20104   3.118   4.553   5.720
 6402SOL    HW120105   3.032   4.578   5.764
 6402SOL    HW220106   3.188   4.539   5.790
 6403SOL     OW20107   5.422   5.121   5.536
 6403SOL    HW120108   5.441   5.039   5.589
 6403SOL    HW220109   5.458   5.110   5.443
 6404SOL     OW20110   4.942   6.208   1.050
 6404SOL    HW120111   5.026   6.210   0.996
 6404SOL    HW220112   4.962   6.236   1.144
 6405SOL     OW20113   4.554   1.189   2.671
 6405SOL    HW120114   4.592   1.208   2.762
 6405SOL    HW220115   4.605   1.113   2.629
 6406SOL     OW20116   0.458   3.363   3.220
 6406SOL    HW120117   0.515   3.352   3.139
 6406SOL    HW220118   0.367   3.396   3.193
 6407SOL     OW20119   0.527   6.710   2.621
 6407SOL    HW120120   0.510   6.654   2.540
 6407SOL    HW220121   0.440   6.741   2.659
 6408SOL     OW20122   0.108   1.213   2.084
 6408SOL    HW120123   0.088   1.238   1.990
 6408SOL    HW220124   0.068   1.123   2.104
 6409SOL     OW20125   5.415   4.515   3.935
 6409SOL    HW120126   5.330   4.507   3.883
 6409SOL    HW220127   5.396   4.553   4.025
 6410SOL     OW20128   2.105   1.105   6.974
 6410SOL    HW120129   2.091   1.104   0.055
 6410SOL    HW220130   2.203   1.105   6.954
 6411SOL     OW20131   0.619   2.938   2.195
 6411SOL    HW120132   0.527   2.918   2.160
 6411SOL    HW220133   0.615   3.013   2.260
 6412SOL     OW20134   4.050   0.992   6.898
 6412SOL    HW120135   4.082   1.024   6.809
 6412SOL    HW220136   4.105   0.913   6.927
 6413SOL     OW20137   4.891   6.231   3.721
 6413SOL    HW120138   4.805   6.190   3.690
 6413SOL    HW220139   4.906   6.317   3.673
 6414SOL     OW20140   2.522   0.550   0.773
 6414SOL    HW120141   2.619   0.571   0.769
 6414SOL    HW220142   2.484   0.580   0.860
 6415SOL     OW20143   0.846   2.146   4.068
 6415SOL    HW120144   0.938   2.179   4.086
 6415SOL    HW220145   0.794   2.143   4.154
 6416SOL     OW20146   2.878   4.774   0.050
 6416SOL    HW120147   2.858   4.676   0.053
 6416SOL    HW220148   2.803   4.826   0.089
 6417SOL     OW20149   4.388   2.870   6.741
 6417SOL    HW120150   4.373   2.961   6.702
 6417SOL    HW220151   4.447   2.878   6.822
 6418SOL     OW20152   5.124   4.650   0.276
 6418SOL    HW120153   5.083   4.563   0.248
 6418SOL    HW220154   5.060   4.700   0.334
 6419SOL     OW20155   0.893   6.675   6.282
 6419SOL    HW120156   0.858   6.582   6.273
 6419SOL    HW220157   0.848   6.720   6.360
 6420SOL     OW20158   2.764   4.691   3.925
 6420SOL    HW120159   2.822   4.615   3.898
 6420SOL    HW220160   2.676   4.684   3.879
 6421SOL     OW20161   4.498   0.465   2.115
 6421SOL    HW120162   4.503   0.544   2.176
 6421SOL    HW220163   4.450   0.391   2.160
 6422SOL     OW20164   6.394   2.371   4.854
 6422SOL    HW120165   6.313   2.419   4.890
 6422SOL    HW220166   6.445   2.433   4.794
 6423SOL     OW20167   1.316   4.805   4.599
 6423SOL    HW120168   1.381   4.880   4.611
 6423SOL    HW220169   1.360   4.719   4.623
 6424SOL     OW20170   6.672   4.237   6.464
 6424SOL    HW120171   6.744   4.197   6.522
 6424SOL    HW220172   6.715   4.287   6.389
 6425SOL     OW20173   6.780   6.345   4.480
 6425SOL    HW120174   6.833   6.269   4.516
 6425SOL    HW220175   6.832   6.430   4.490
 6426SOL     OW20176   4.786   5.251   4.781
 6426SOL    HW120177   4.791   5.250   4.881
 6426SOL    HW220178   4.720   5.320   4.752
 6427SOL     OW20179   3.769   3.033   3.436
 6427SOL    HW120180   3.857   3.053   3.479
 6427SOL    HW220181   3.705   2.997   3.504
 6428SOL     OW20182   5.631   2.641   0.337
 6428SOL    HW120183   5.551   2.685   0.296
 6428SOL    HW220184   5.605   2.551   0.374
 6429SOL     OW20185   2.380   1.263   5.288
 6429SOL    HW120186   2.355   1.177   5.245
 6429SOL    HW220187   2.298   1.308   5.324
 6430SOL     OW20188   6.054   0.685   5.468
 6430SOL    HW120189   6.092   0.594   5.485
 6430SOL    HW220190   6.128   0.748   5.445
 6431SOL     OW20191   3.393   4.858   2.445
 6431SOL    HW120192   3.347   4.776   2.477
 6431SOL    HW220193   3.386   4.863   2.345
 6432SOL     OW20194   5.088   3.420   6.103
 6432SOL    HW120195   5.019   3.348   6.104
 6432SOL    HW220196   5.048   3.506   6.134
 6433SOL     OW20197   3.467   4.653   5.263
 6433SOL    HW120198   3.513   4.568   5.290
 6433SOL    HW220199   3.514   4.731   5.306
 6434SOL     OW20200   5.300   5.670   6.132
 6434SOL    HW120201   5.390   5.713   6.128
 6434SOL    HW220202   5.239   5.712   6.065
 6435SOL     OW20203   4.430   1.351   1.354
 6435SOL    HW120204   4.487   1.378   1.276
 6435SOL    HW220205   4.467   1.392   1.438
 6436SOL     OW20206   0.040   3.250   3.768
 6436SOL    HW120207   0.111   3.205   3.823
 6436SOL    HW220208   6.968   3.224   3.803
 6437SOL     OW20209   1.517   2.574   5.659
 6437SOL    HW120210   1.548   2.571   5.564
 6437SOL    HW220211   1.555   2.655   5.704
 6438SOL     OW20212   0.572   5.150   0.087
 6438SOL    HW120213   0.526   5.215   0.027
 6438SOL    HW220214   0.562   5.058   0.049
 6439SOL     OW20215   5.126   6.563   2.325
 6439SOL    HW120216   5.197   6.498   2.297
 6439SOL    HW220217   5.162   6.622   2.397
 6440SOL     OW20218   3.003   1.493   6.154
 6440SOL    HW120219   3.090   1.531   6.183
 6440SOL    HW220220   2.963   1.442   6.231
 6441SOL     OW20221   6.929   2.093   2.036
 6441SOL    HW120222   6.847   2.069   1.984
 6441SOL    HW220223   7.005   2.108   1.974
 6442SOL     OW20224   2.439   2.192   4.677
 6442SOL    HW120225   2.494   2.273   4.698
 6442SOL    HW220226   2.344   2.209   4.702
 6443SOL     OW20227   4.044   2.588   6.472
 6443SOL    HW120228   4.023   2.491   6.459
 6443SOL    HW220229   3.963   2.636   6.504
 6444SOL     OW20230   0.038   4.330   4.575
 6444SOL    HW120231   0.097   4.272   4.631
 6444SOL    HW220232   0.048   4.425   4.603
 6445SOL     OW20233   2.919   3.283   3.398
 6445SOL    HW120234   2.868   3.323   3.475
 6445SOL    HW220235   3.017   3.302   3.409
 6446SOL     OW20236   1.170   1.867   6.765
 6446SOL    HW120237   1.151   1.791   6.828
 6446SOL    HW220238   1.206   1.944   6.817
 6447SOL     OW20239   5.636   3.510   2.313
 6447SOL    HW120240   5.679   3.599   2.297
 6447SOL    HW220241   5.552   3.522   2.364
 6448SOL     OW20242   4.298   4.659   1.061
 6448SOL    HW120243   4.304   4.591   1.134
 6448SOL    HW220244   4.256   4.743   1.096
 6449SOL     OW20245   3.476   5.089   0.397
 6449SOL    HW120246   3.490   5.015   0.332
 6449SOL    HW220247   3.517   5.173   0.361
 6450SOL     OW20248   6.232   4.548   6.713
 6450SOL    HW120249   6.162   4.618   6.729
 6450SOL    HW220250   6.269   4.516   6.800
 6451SOL     OW20251   4.232   2.545   1.713
 6451SOL    HW120252   4.212   2.643   1.718
 6451SOL    HW220253   4.149   2.495   1.692
 6452SOL     OW20254   3.661   2.141   4.508
 6452SOL    HW120255   3.612   2.174   4.427
 6452SOL    HW220256   3.759   2.140   4.490
 6453SOL     OW20257   2.257   0.468   2.651
 6453SOL    HW120258   2.228   0.391   2.709
 6453SOL    HW220259   2.327   0.436   2.587
 6454SOL     OW20260   5.254   2.561   3.605
 6454SOL    HW120261   5.203   2.617   3.670
 6454SOL    HW220262   5.323   2.508   3.652
 6455SOL     OW20263   6.808   2.960   4.219
 6455SOL    HW120264   6.905   2.961   4.245
 6455SOL    HW220265   6.800   2.953   4.120
 6456SOL     OW20266   6.188   1.650   2.281
 6456SOL    HW120267   6.247   1.597   2.220
 6456SOL    HW220268   6.157   1.732   2.234
 6457SOL     OW20269   3.076   6.812   2.779
 6457SOL    HW120270   3.094   6.723   2.738
 6457SOL    HW220271   3.159   6.868   2.774
 6458SOL     OW20272   0.098   0.082   4.456
 6458SOL    HW120273   0.039   0.130   4.391
 6458SOL    HW220274   0.043   0.051   4.534
 6459SOL     OW20275   0.688   3.345   3.068
 6459SOL    HW120276   0.715   3.252   3.095
 6459SOL    HW220277   0.768   3.395   3.038
 6460SOL     OW20278   0.870   5.691   6.777
 6460SOL    HW120279   0.934   5.717   6.705
 6460SOL    HW220280   0.811   5.770   6.798
 6461SOL     OW20281   1.230   6.272   0.897
 6461SOL    HW120282   1.237   6.362   0.939
 6461SOL    HW220283   1.252   6.278   0.799
 6462SOL     OW20284   1.919   3.760   4.881
 6462SOL    HW120285   2.018   3.763   4.895
 6462SOL    HW220286   1.890   3.665   4.867
 6463SOL     OW20287   4.276   3.281   1.129
 6463SOL    HW120288   4.336   3.221   1.181
 6463SOL    HW220289   4.295   3.270   1.031
 6464SOL     OW20290   0.756   4.136   4.078
 6464SOL    HW120291   0.687   4.186   4.132
 6464SOL    HW220292   0.710   4.083   4.007
 6465SOL     OW20293   3.267   0.882   4.353
 6465SOL    HW120294   3.366   0.869   4.347
 6465SOL    HW220295   3.236   0.937   4.275
 6466SOL     OW20296   0.030   4.887   0.065
 6466SOL    HW120297   7.014   4.980   0.077
 6466SOL    HW220298   6.988   4.836   0.004
 6467SOL     OW20299   1.656   2.359   6.248
 6467SOL    HW120300   1.570   2.344   6.298
 6467SOL    HW220301   1.726   2.297   6.283
 6468SOL     OW20302   1.814   0.248   0.985
 6468SOL    HW120303   1.726   0.295   0.972
 6468SOL    HW220304   1.877   0.309   1.032
 6469SOL     OW20305   2.014   1.188   1.706
 6469SOL    HW120306   1.953   1.191   1.785
 6469SOL    HW220307   1.960   1.174   1.623
 6470SOL     OW20308   6.520   2.045   6.745
 6470SOL    HW120309   6.619   2.056   6.744
 6470SOL    HW220310   6.493   1.989   6.823
 6471SOL     OW20311   0.630   6.557   5.846
 6471SOL    HW120312   0.599   6.628   5.783
 6471SOL    HW220313   0.683   6.599   5.920
 6472SOL     OW20314   0.133   6.188   3.215
 6472SOL    HW120315   0.103   6.283   3.201
 6472SOL    HW220316   0.066   6.142   3.274
 6473SOL     OW20317   2.282   1.085   3.286
 6473SOL    HW120318   2.293   1.126   3.377
 6473SOL    HW220319   2.196   1.035   3.282
 6474SOL     OW20320   3.590   6.271   4.552
 6474SOL    HW120321   3.555   6.345   4.494
 6474SOL    HW220322   3.557   6.183   4.518
 6475SOL     OW20323   5.836   5.775   2.418
 6475SOL    HW120324   5.791   5.687   2.434
 6475SOL    HW220325   5.784   5.847   2.464
 6476SOL     OW20326   3.816   2.731   6.547
 6476SOL    HW120327   3.762   2.697   6.624
 6476SOL    HW220328   3.759   2.788   6.488
 6477SOL     OW20329   0.237   6.487   1.328
 6477SOL    HW120330   0.255   6.461   1.233
 6477SOL    HW220331   0.316   6.536   1.365
 6478SOL     OW20332   2.777   6.087   1.174
 6478SOL    HW120333   2.686   6.127   1.181
 6478SOL    HW220334   2.772   5.988   1.188
 6479SOL     OW20335   4.525   5.642   3.164
 6479SOL    HW120336   4.493   5.712   3.100
 6479SOL    HW220337   4.466   5.643   3.246
 6480SOL     OW20338   4.219   1.364   6.217
 6480SOL    HW120339   4.305   1.411   6.196
 6480SOL    HW220340   4.143   1.412   6.175
 6481SOL     OW20341   4.002   3.014   2.136
 6481SOL    HW120342   4.054   2.948   2.190
 6481SOL    HW220343   4.054   3.038   2.053
 6482SOL     OW20344   5.046   3.868   6.025
 6482SOL    HW120345   5.117   3.878   5.956
 6482SOL    HW220346   5.068   3.924   6.105
 6483SOL     OW20347   1.960   5.732   4.909
 6483SOL    HW120348   1.936   5.639   4.935
 6483SOL    HW220349   2.043   5.730   4.853
 6484SOL     OW20350   3.192   1.279   3.185
 6484SOL    HW120351   3.211   1.235   3.097
 6484SOL    HW220352   3.223   1.219   3.259
 6485SOL     OW20353   2.303   5.923   4.938
 6485SOL    HW120354   2.288   5.919   4.839
 6485SOL    HW220355   2.258   5.845   4.981
 6486SOL     OW20356   0.303   4.473   2.670
 6486SOL    HW120357   0.368   4.434   2.604
 6486SOL    HW220358   0.315   4.572   2.674
 6487SOL     OW20359   6.566   4.998   3.846
 6487SOL    HW120360   6.625   4.968   3.921
 6487SOL    HW220361   6.607   4.973   3.759
 6488SOL     OW20362   3.521   5.208   4.138
 6488SOL    HW120363   3.525   5.274   4.062
 6488SOL    HW220364   3.575   5.128   4.114
 6489SOL     OW20365   5.524   3.246   5.222
 6489SOL    HW120366   5.463   3.210   5.151
 6489SOL    HW220367   5.542   3.174   5.289
 6490SOL     OW20368   2.110   2.274   0.565
 6490SOL    HW120369   2.074   2.344   0.504
 6490SOL    HW220370   2.175   2.217   0.515
 6491SOL     OW20371   1.525   0.029   2.070
 6491SOL    HW120372   1.512   0.115   2.120
 6491SOL    HW220373   1.517   6.971   2.134
 6492SOL     OW20374   4.134   3.394   3.916
 6492SOL    HW120375   4.153   3.417   3.820
 6492SOL    HW220376   4.127   3.478   3.970
 6493SOL     OW20377   1.038   4.459   4.222
 6493SOL    HW120378   1.093   4.511   4.156
 6493SOL    HW220379   1.058   4.491   4.315
 6494SOL     OW20380   6.731   1.061   1.797
 6494SOL    HW120381   6.807   1.126   1.790
 6494SOL    HW220382   6.765   0.972   1.827
 6495SOL     OW20383   6.424   6.977   2.907
 6495SOL    HW120384   6.397   6.937   2.995
 6495SOL    HW220385   6.342   7.013   2.861
 6496SOL     OW20386   3.297   1.929   1.942
 6496SOL    HW120387   3.212   1.972   1.972
 6496SOL    HW220388   3.370   1.950   2.007
 6497SOL     OW20389   6.895   1.020   0.480
 6497SOL    HW120390   6.836   1.094   0.511
 6497SOL    HW220391   6.988   1.055   0.467
 6498SOL     OW20392   2.317   4.251   4.051
 6498SOL    HW120393   2.395   4.310   4.073
 6498SOL    HW220394   2.274   4.220   4.135
 6499SOL     OW20395   4.662   2.568   3.692
 6499SOL    HW120396   4.694   2.475   3.712
 6499SOL    HW220397   4.657   2.582   3.594
 6500SOL     OW20398   1.545   3.622   3.211
 6500SOL    HW120399   1.569   3.629   3.114
 6500SOL    HW220400   1.623   3.651   3.267
 6501SOL     OW20401   5.900   1.703   3.162
 6501SOL    HW120402   5.940   1.643   3.093
 6501SOL    HW220403   5.968   1.723   3.233
 6502SOL     OW20404   0.140   3.952   1.659
 6502SOL    HW120405   0.101   4.024   1.602
 6502SOL    HW220406   0.088   3.945   1.744
 6503SOL     OW20407   0.142   3.296   5.701
 6503SOL    HW120408   0.079   3.280   5.625
 6503SOL    HW220409   0.234   3.311   5.665
 6504SOL     OW20410   3.583   6.916   6.059
 6504SOL    HW120411   3.676   6.949   6.078
 6504SOL    HW220412   3.554   6.948   5.969
 6505SOL     OW20413   0.225   6.463   0.578
 6505SOL    HW120414   0.226   6.374   0.624
 6505SOL    HW220415   0.289   6.525   0.623
 6506SOL     OW20416   0.846   3.959   2.382
 6506SOL    HW120417   0.823   3.863   2.397
 6506SOL    HW220418   0.892   3.996   2.462
 6507SOL     OW20419   4.215   5.479   0.225
 6507SOL    HW120420   4.184   5.401   0.279
 6507SOL    HW220421   4.301   5.514   0.263
 6508SOL     OW20422   0.198   0.105   3.506
 6508SOL    HW120423   0.189   0.061   3.417
 6508SOL    HW220424   0.270   0.174   3.503
 6509SOL     OW20425   2.566   1.774   6.987
 6509SOL    HW120426   2.526   1.694   0.013
 6509SOL    HW220427   2.521   1.789   6.899
 6510SOL     OW20428   3.154   5.927   4.907
 6510SOL    HW120429   3.072   5.898   4.856
 6510SOL    HW220430   3.235   5.913   4.850
 6511SOL     OW20431   2.917   2.554   0.760
 6511SOL    HW120432   2.822   2.523   0.763
 6511SOL    HW220433   2.976   2.478   0.735
 6512SOL     OW20434   4.854   1.399   0.502
 6512SOL    HW120435   4.857   1.301   0.518
 6512SOL    HW220436   4.922   1.424   0.433
 6513SOL     OW20437   2.626   4.626   2.580
 6513SOL    HW120438   2.553   4.580   2.530
 6513SOL    HW220439   2.688   4.670   2.515
 6514SOL     OW20440   5.084   6.445   5.541
 6514SOL    HW120441   5.115   6.513   5.607
 6514SOL    HW220442   4.986   6.458   5.523
 6515SOL     OW20443   0.942   4.830   2.985
 6515SOL    HW120444   0.919   4.759   3.051
 6515SOL    HW220445   0.873   4.903   2.990
 6516SOL     OW20446   6.653   2.878   2.413
 6516SOL    HW120447   6.714   2.811   2.457
 6516SOL    HW220448   6.640   2.854   2.317
 6517SOL     OW20449   6.777   3.150   0.622
 6517SOL    HW120450   6.797   3.198   0.708
 6517SOL    HW220451   6.850   3.169   0.556
 6518SOL     OW20452   1.034   1.015   2.173
 6518SOL    HW120453   1.089   0.994   2.253
 6518SOL    HW220454   0.948   1.057   2.202
 6519SOL     OW20455   1.148   0.741   3.279
 6519SOL    HW120456   1.133   0.773   3.186
 6519SOL    HW220457   1.065   0.755   3.334
 6520SOL     OW20458   0.407   5.669   0.427
 6520SOL    HW120459   0.311   5.692   0.442
 6520SOL    HW220460   0.434   5.595   0.489
 6521SOL     OW20461   1.960   4.614   3.936
 6521SOL    HW120462   1.884   4.581   3.992
 6521SOL    HW220463   2.025   4.540   3.919
 6522SOL     OW20464   2.553   2.756   5.257
 6522SOL    HW120465   2.633   2.759   5.317
 6522SOL    HW220466   2.505   2.844   5.260
 6523SOL     OW20467   6.234   6.593   0.660
 6523SOL    HW120468   6.160   6.609   0.726
 6523SOL    HW220469   6.310   6.546   0.705
 6524SOL     OW20470   2.933   2.951   1.484
 6524SOL    HW120471   2.895   2.886   1.419
 6524SOL    HW220472   3.025   2.922   1.511
 6525SOL     OW20473   1.234   5.010   3.654
 6525SOL    HW120474   1.178   4.933   3.624
 6525SOL    HW220475   1.278   5.053   3.575
 6526SOL     OW20476   0.449   6.150   0.724
 6526SOL    HW120477   0.470   6.052   0.723
 6526SOL    HW220478   0.534   6.201   0.739
 6527SOL     OW20479   6.287   1.646   0.465
 6527SOL    HW120480   6.228   1.617   0.541
 6527SOL    HW220481   6.232   1.659   0.383
 6528SOL     OW20482   4.129   6.302   0.153
 6528SOL    HW120483   4.137   6.401   0.138
 6528SOL    HW220484   4.188   6.254   0.089
 6529SOL     OW20485   5.040   6.986   2.142
 6529SOL    HW120486   5.035   6.887   2.144
 6529SOL    HW220487   5.106   7.015   2.072
 6530SOL     OW20488   0.711   2.590   3.203
 6530SOL    HW120489   0.725   2.570   3.106
 6530SOL    HW220490   0.614   2.608   3.220
 6531SOL     OW20491   3.777   4.064   4.326
 6531SOL    HW120492   3.739   3.983   4.372
 6531SOL    HW220493   3.726   4.080   4.241
 6532SOL     OW20494   1.417   6.091   0.517
 6532SOL    HW120495   1.483   6.028   0.477
 6532SOL    HW220496   1.380   6.151   0.446
 6533SOL     OW20497   4.894   4.507   1.987
 6533SOL    HW120498   4.910   4.484   1.891
 6533SOL    HW220499   4.974   4.478   2.041
 6534SOL     OW20500   6.911   4.510   3.263
 6534SOL    HW120501   6.922   4.491   3.166
 6534SOL    HW220502   6.993   4.481   3.312
 6535SOL     OW20503   5.081   3.795   5.594
 6535SOL    HW120504   5.089   3.757   5.686
 6535SOL    HW220505   5.067   3.894   5.600
 6536SOL     OW20506   0.603   4.300   5.599
 6536SOL    HW120507   0.638   4.300   5.693
 6536SOL    HW220508   0.636   4.382   5.552
 6537SOL     OW20509   6.348   5.253   3.651
 6537SOL    HW120510   6.325   5.164   3.691
 6537SOL    HW220511   6.281   5.321   3.680
 6538SOL     OW20512   0.926   2.587   4.739
 6538SOL    HW120513   0.870   2.651   4.686
 6538SOL    HW220514   0.973   2.525   4.676
 6539SOL     OW20515   4.888   6.607   6.311
 6539SOL    HW120516   4.879   6.578   6.406
 6539SOL    HW220517   4.821   6.679   6.292
 6540SOL     OW20518   6.836   2.413   5.275
 6540SOL    HW120519   6.922   2.396   5.226
 6540SOL    HW220520   6.820   2.512   5.280
 6541SOL     OW20521   4.872   1.745   5.664
 6541SOL    HW120522   4.848   1.738   5.567
 6541SOL    HW220523   4.969   1.770   5.672
 6542SOL     OW20524   1.661   3.671   2.941
 6542SOL    HW120525   1.759   3.673   2.964
 6542SOL    HW220526   1.634   3.758   2.900
 6543SOL     OW20527   4.075   1.508   4.912
 6543SOL    HW120528   3.984   1.542   4.890
 6543SOL    HW220529   4.143   1.550   4.852
 6544SOL     OW20530   0.304   0.226   0.942
 6544SOL    HW120531   0.282   0.295   1.011
 6544SOL    HW220532   0.267   0.254   0.854
 6545SOL     OW20533   4.849   6.593   1.283
 6545SOL    HW120534   4.779   6.664   1.278
 6545SOL    HW220535   4.862   6.552   1.193
 6546SOL     OW20536   5.242   4.391   6.167
 6546SOL    HW120537   5.273   4.385   6.262
 6546SOL    HW220538   5.268   4.308   6.118
 6547SOL     OW20539   0.912   6.198   5.297
 6547SOL    HW120540   0.847   6.250   5.352
 6547SOL    HW220541   0.882   6.103   5.290
 6548SOL     OW20542   0.117   1.345   6.034
 6548SOL    HW120543   0.071   1.257   6.048
 6548SOL    HW220544   0.215   1.332   6.041
 6549SOL     OW20545   3.946   1.673   3.055
 6549SOL    HW120546   3.925   1.732   3.133
 6549SOL    HW220547   3.988   1.588   3.087
 6550SOL     OW20548   6.177   6.362   2.894
 6550SOL    HW120549   6.168   6.443   2.836
 6550SOL    HW220550   6.252   6.376   2.959
 6551SOL     OW20551   2.629   4.247   0.783
 6551SOL    HW120552   2.613   4.167   0.841
 6551SOL    HW220553   2.666   4.321   0.838
 6552SOL     OW20554   2.005   5.074   0.075
 6552SOL    HW120555   1.940   5.144   0.104
 6552SOL    HW220556   1.966   4.983   0.092
 6553SOL     OW20557   0.807   1.771   3.505
 6553SOL    HW120558   0.903   1.744   3.513
 6553SOL    HW220559   0.801   1.870   3.491
 6554SOL     OW20560   1.533   2.619   4.291
 6554SOL    HW120561   1.478   2.662   4.219
 6554SOL    HW220562   1.627   2.651   4.286
 6555SOL     OW20563   0.159   3.975   3.970
 6555SOL    HW120564   0.154   3.896   4.032
 6555SOL    HW220565   0.184   3.943   3.879
 6556SOL     OW20566   4.844   3.113   2.848
 6556SOL    HW120567   4.763   3.088   2.795
 6556SOL    HW220568   4.924   3.065   2.811
 6557SOL     OW20569   2.080   0.678   2.588
 6557SOL    HW120570   2.129   0.598   2.622
 6557SOL    HW220571   1.997   0.692   2.642
 6558SOL     OW20572   5.189   6.445   0.231
 6558SOL    HW120573   5.242   6.530   0.230
 6558SOL    HW220574   5.094   6.464   0.206
 6559SOL     OW20575   6.541   2.889   6.073
 6559SOL    HW120576   6.629   2.866   6.032
 6559SOL    HW220577   6.471   2.828   6.038
 6560SOL     OW20578   6.699   4.915   0.153
 6560SOL    HW120579   6.797   4.937   0.157
 6560SOL    HW220580   6.687   4.817   0.168
 6561SOL     OW20581   3.041   4.258   0.328
 6561SOL    HW120582   3.031   4.265   0.428
 6561SOL    HW220583   3.122   4.204   0.307
 6562SOL     OW20584   4.987   2.711   1.842
 6562SOL    HW120585   5.066   2.651   1.827
 6562SOL    HW220586   4.965   2.713   1.940
 6563SOL     OW20587   6.169   5.255   5.406
 6563SOL    HW120588   6.156   5.157   5.423
 6563SOL    HW220589   6.095   5.289   5.347
 6564SOL     OW20590   5.945   3.244   2.569
 6564SOL    HW120591   5.923   3.222   2.474
 6564SOL    HW220592   6.040   3.275   2.574
 6565SOL     OW20593   5.255   6.620   2.940
 6565SOL    HW120594   5.164   6.628   2.899
 6565SOL    HW220595   5.257   6.671   3.026
 6566SOL     OW20596   5.070   5.445   3.837
 6566SOL    HW120597   5.167   5.466   3.825
 6566SOL    HW220598   5.014   5.520   3.800
 6567SOL     OW20599   3.882   0.397   2.089
 6567SOL    HW120600   3.851   0.387   2.184
 6567SOL    HW220601   3.981   0.382   2.085
 6568SOL     OW20602   4.358   1.388   1.023
 6568SOL    HW120603   4.435   1.437   1.064
 6568SOL    HW220604   4.373   1.290   1.031
 6569SOL     OW20605   1.083   4.852   4.441
 6569SOL    HW120606   1.085   4.915   4.364
 6569SOL    HW220607   1.161   4.869   4.501
 6570SOL     OW20608   4.185   6.924   2.326
 6570SOL    HW120609   4.154   6.849   2.267
 6570SOL    HW220610   4.285   6.921   2.333
 6571SOL     OW20611   3.001   6.211   3.166
 6571SOL    HW120612   2.929   6.166   3.113
 6571SOL    HW220613   3.041   6.146   3.230
 6572SOL     OW20614   1.672   6.101   3.796
 6572SOL    HW120615   1.643   6.183   3.846
 6572SOL    HW220616   1.610   6.026   3.818
 6573SOL     OW20617   0.487   2.094   3.382
 6573SOL    HW120618   0.397   2.076   3.342
 6573SOL    HW220619   0.494   2.190   3.409
 6574SOL     OW20620   1.338   4.744   2.202
 6574SOL    HW120621   1.332   4.756   2.103
 6574SOL    HW220622   1.289   4.818   2.248
 6575SOL     OW20623   6.990   1.525   3.657
 6575SOL    HW120624   0.048   1.556   3.713
 6575SOL    HW220625   0.003   1.514   3.562
 6576SOL     OW20626   4.320   6.792   1.535
 6576SOL    HW120627   4.266   6.873   1.515
 6576SOL    HW220628   4.351   6.793   1.630
 6577SOL     OW20629   3.689   1.125   4.186
 6577SOL    HW120630   3.645   1.176   4.260
 6577SOL    HW220631   3.630   1.050   4.157
 6578SOL     OW20632   0.951   4.503   0.400
 6578SOL    HW120633   0.998   4.499   0.312
 6578SOL    HW220634   0.933   4.411   0.433
 6579SOL     OW20635   0.714   0.995   3.660
 6579SOL    HW120636   0.776   1.053   3.712
 6579SOL    HW220637   0.691   1.039   3.573
 6580SOL     OW20638   2.701   1.950   0.321
 6580SOL    HW120639   2.617   1.896   0.318
 6580SOL    HW220640   2.680   2.043   0.354
 6581SOL     OW20641   0.595   2.225   0.965
 6581SOL    HW120642   0.686   2.239   0.927
 6581SOL    HW220643   0.566   2.308   1.013
 6582SOL     OW20644   5.698   0.817   2.986
 6582SOL    HW120645   5.614   0.804   2.933
 6582SOL    HW220646   5.777   0.812   2.925
 6583SOL     OW20647   3.076   4.401   0.076
 6583SOL    HW120648   3.134   4.481   0.061
 6583SOL    HW220649   3.053   4.393   0.173
 6584SOL     OW20650   4.477   2.003   6.443
 6584SOL    HW120651   4.473   2.052   6.356
 6584SOL    HW220652   4.385   1.978   6.471
 6585SOL     OW20653   5.787   0.130   2.299
 6585SOL    HW120654   5.747   0.221   2.312
 6585SOL    HW220655   5.864   0.137   2.236
 6586SOL     OW20656   6.647   1.164   6.468
 6586SOL    HW120657   6.585   1.242   6.469
 6586SOL    HW220658   6.604   1.087   6.516
 6587SOL     OW20659   2.440   5.111   5.076
 6587SOL    HW120660   2.354   5.081   5.116
 6587SOL    HW220661   2.515   5.057   5.115
 6588SOL     OW20662   0.443   2.449   0.548
 6588SOL    HW120663   0.344   2.451   0.532
 6588SOL    HW220664   0.489   2.489   0.469
 6589SOL     OW20665   6.799   6.484   2.293
 6589SOL    HW120666   6.729   6.415   2.312
 6589SOL    HW220667   6.815   6.539   2.375
 6590SOL     OW20668   0.827   6.342   4.515
 6590SOL    HW120669   0.855   6.337   4.419
 6590SOL    HW220670   0.904   6.320   4.574
 6591SOL     OW20671   6.185   3.802   3.628
 6591SOL    HW120672   6.103   3.766   3.672
 6591SOL    HW220673   6.264   3.746   3.654
 6592SOL     OW20674   6.256   6.582   3.820
 6592SOL    HW120675   6.184   6.651   3.818
 6592SOL    HW220676   6.233   6.507   3.759
 6593SOL     OW20677   1.817   1.224   1.962
 6593SOL    HW120678   1.857   1.316   1.960
 6593SOL    HW220679   1.776   1.208   2.052
 6594SOL     OW20680   5.158   6.933   6.943
 6594SOL    HW120681   5.121   6.965   0.012
 6594SOL    HW220682   5.106   6.854   6.912
 6595SOL     OW20683   0.909   1.921   5.236
 6595SOL    HW120684   0.828   1.919   5.295
 6595SOL    HW220685   0.988   1.885   5.286
 6596SOL     OW20686   5.017   0.722   2.397
 6596SOL    HW120687   4.959   0.783   2.343
 6596SOL    HW220688   4.980   0.629   2.394
 6597SOL     OW20689   0.660   4.832   1.054
 6597SOL    HW120690   0.675   4.741   1.094
 6597SOL    HW220691   0.712   4.840   0.970
 6598SOL     OW20692   1.879   4.800   3.243
 6598SOL    HW120693   1.975   4.827   3.235
 6598SOL    HW220694   1.864   4.719   3.186
 6599SOL     OW20695   0.393   5.635   5.811
 6599SOL    HW120696   0.480   5.677   5.838
 6599SOL    HW220697   0.368   5.565   5.878
 6600SOL     OW20698   4.718   0.133   5.396
 6600SOL    HW120699   4.750   0.044   5.363
 6600SOL    HW220700   4.686   0.188   5.318
 6601SOL     OW20701   1.543   1.997   1.832
 6601SOL    HW120702   1.642   2.012   1.841
 6601SOL    HW220703   1.503   1.983   1.922
 6602SOL     OW20704   0.151   5.526   1.823
 6602SOL    HW120705   0.077   5.467   1.790
 6602SOL    HW220706   0.201   5.480   1.895
 6603SOL     OW20707   0.098   4.108   2.505
 6603SOL    HW120708   0.125   4.018   2.540
 6603SOL    HW220709   0.177   4.152   2.461
 6604SOL     OW20710   1.722   5.685   3.253
 6604SOL    HW120711   1.697   5.733   3.169
 6604SOL    HW220712   1.648   5.624   3.280
 6605SOL     OW20713   0.030   5.787   0.919
 6605SOL    HW120714   6.987   5.863   0.897
 6605SOL    HW220715   0.124   5.821   0.923
 6606SOL     OW20716   1.530   3.310   2.618
 6606SOL    HW120717   1.530   3.380   2.689
 6606SOL    HW220718   1.505   3.222   2.657
 6607SOL     OW20719   6.377   3.300   3.764
 6607SOL    HW120720   6.325   3.273   3.845
 6607SOL    HW220721   6.471   3.265   3.772
 6608SOL     OW20722   1.604   6.801   5.853
 6608SOL    HW120723   1.702   6.820   5.846
 6608SOL    HW220724   1.587   6.706   5.828
 6609SOL     OW20725   4.201   1.783   6.804
 6609SOL    HW120726   4.237   1.872   6.831
 6609SOL    HW220727   4.101   1.785   6.808
 6610SOL     OW20728   2.902   5.512   1.175
 6610SOL    HW120729   2.925   5.430   1.227
 6610SOL    HW220730   2.969   5.527   1.103
 6611SOL     OW20731   2.878   1.700   5.083
 6611SOL    HW120732   2.790   1.734   5.050
 6611SOL    HW220733   2.935   1.676   5.004
 6612SOL     OW20734   0.433   0.448   6.953
 6612SOL    HW120735   0.445   0.514   6.879
 6612SOL    HW220736   0.373   0.486   0.005
 6613SOL     OW20737   4.687   6.910   0.266
 6613SOL    HW120738   4.719   6.907   0.361
 6613SOL    HW220739   4.693   7.004   0.232
 6614SOL     OW20740   3.987   4.951   0.595
 6614SOL    HW120741   3.912   4.990   0.542
 6614SOL    HW220742   4.066   4.936   0.535
 6615SOL     OW20743   3.776   5.921   6.246
 6615SOL    HW120744   3.704   5.875   6.193
 6615SOL    HW220745   3.831   5.978   6.184
 6616SOL     OW20746   4.306   1.070   0.071
 6616SOL    HW120747   4.226   1.095   0.017
 6616SOL    HW220748   4.382   1.047   0.010
 6617SOL     OW20749   3.444   0.537   3.957
 6617SOL    HW120750   3.381   0.469   3.919
 6617SOL    HW220751   3.414   0.628   3.929
 6618SOL     OW20752   5.680   2.499   4.367
 6618SOL    HW120753   5.770   2.493   4.324
 6618SOL    HW220754   5.610   2.498   4.296
 6619SOL     OW20755   5.003   5.221   3.965
 6619SOL    HW120756   5.022   5.310   3.922
 6619SOL    HW220757   5.084   5.163   3.959
 6620SOL     OW20758   1.317   2.613   3.227
 6620SOL    HW120759   1.357   2.632   3.137
 6620SOL    HW220760   1.217   2.619   3.220
 6621SOL     OW20761   2.918   3.609   4.001
 6621SOL    HW120762   2.887   3.514   3.998
 6621SOL    HW220763   2.872   3.656   4.076
 6622SOL     OW20764   0.534   5.635   1.294
 6622SOL    HW120765   0.495   5.644   1.203
 6622SOL    HW220766   0.491   5.702   1.355
 6623SOL     OW20767   3.227   4.014   4.506
 6623SOL    HW120768   3.283   4.096   4.493
 6623SOL    HW220769   3.170   4.025   4.587
 6624SOL     OW20770   2.445   2.118   2.620
 6624SOL    HW120771   2.523   2.058   2.601
 6624SOL    HW220772   2.476   2.212   2.627
 6625SOL     OW20773   6.663   4.076   5.416
 6625SOL    HW120774   6.574   4.080   5.462
 6625SOL    HW220775   6.725   4.143   5.457
 6626SOL     OW20776   3.128   6.129   5.793
 6626SOL    HW120777   3.207   6.070   5.775
 6626SOL    HW220778   3.143   6.178   5.879
 6627SOL     OW20779   2.297   6.316   3.859
 6627SOL    HW120780   2.266   6.224   3.835
 6627SOL    HW220781   2.343   6.312   3.948
 6628SOL     OW20782   3.624   6.338   3.282
 6628SOL    HW120783   3.720   6.365   3.277
 6628SOL    HW220784   3.574   6.405   3.337
 6629SOL     OW20785   5.006   5.724   5.707
 6629SOL    HW120786   4.968   5.783   5.636
 6629SOL    HW220787   5.060   5.651   5.665
 6630SOL     OW20788   1.412   0.964   0.080
 6630SOL    HW120789   1.439   0.881   0.128
 6630SOL    HW220790   1.492   1.004   0.035
 6631SOL     OW20791   1.978   3.483   5.734
 6631SOL    HW120792   1.981   3.465   5.636
 6631SOL    HW220793   1.930   3.569   5.751
 6632SOL     OW20794   1.228   0.028   6.915
 6632SOL    HW120795   1.314   0.070   6.944
 6632SOL    HW220796   1.152   0.090   6.937
 6633SOL     OW20797   4.288   5.310   6.000
 6633SOL    HW120798   4.208   5.273   5.953
 6633SOL    HW220799   4.263   5.397   6.043
 6634SOL     OW20800   3.478   2.027   3.992
 6634SOL    HW120801   3.398   2.070   3.951
 6634SOL    HW220802   3.450   1.948   4.046
 6635SOL     OW20803   4.882   5.328   5.065
 6635SOL    HW120804   4.819   5.372   5.129
 6635SOL    HW220805   4.970   5.374   5.067
 6636SOL     OW20806   4.475   0.737   0.222
 6636SOL    HW120807   4.384   0.739   0.264
 6636SOL    HW220808   4.480   0.805   0.149
 6637SOL     OW20809   0.183   2.503   0.440
 6637SOL    HW120810   0.111   2.559   0.482
 6637SOL    HW220811   0.215   2.548   0.356
 6638SOL     OW20812   3.033   3.957   3.977
 6638SOL    HW120813   2.968   3.904   3.922
 6638SOL    HW220814   3.048   3.910   4.065
 6639SOL     OW20815   5.247   2.773   1.136
 6639SOL    HW120816   5.294   2.687   1.154
 6639SOL    HW220817   5.179   2.760   1.064
 6640SOL     OW20818   1.719   4.256   4.989
 6640SOL    HW120819   1.662   4.243   5.069
 6640SOL    HW220820   1.762   4.169   4.963
 6641SOL     OW20821   6.067   2.334   1.042
 6641SOL    HW120822   6.082   2.361   0.947
 6641SOL    HW220823   6.146   2.362   1.097
 6642SOL     OW20824   1.507   5.901   6.937
 6642SOL    HW120825   1.411   5.875   6.947
 6642SOL    HW220826   1.541   5.938   0.005
 6643SOL     OW20827   3.084   5.958   6.040
 6643SOL    HW120828   3.155   5.893   6.069
 6643SOL    HW220829   3.128   6.043   6.011
 6644SOL     OW20830   1.883   6.672   4.189
 6644SOL    HW120831   1.982   6.688   4.177
 6644SOL    HW220832   1.852   6.606   4.121
 6645SOL     OW20833   5.456   3.078   6.243
 6645SOL    HW120834   5.379   3.034   6.289
 6645SOL    HW220835   5.451   3.061   6.145
 6646SOL     OW20836   3.766   0.122   5.637
 6646SOL    HW120837   3.820   0.133   5.553
 6646SOL    HW220838   3.694   0.054   5.622
 6647SOL     OW20839   4.126   4.930   0.864
 6647SOL    HW120840   4.082   5.010   0.824
 6647SOL    HW220841   4.176   4.881   0.794
 6648SOL     OW20842   2.908   6.100   5.198
 6648SOL    HW120843   3.008   6.095   5.190
 6648SOL    HW220844   2.866   6.028   5.143
 6649SOL     OW20845   4.656   2.528   6.249
 6649SOL    HW120846   4.700   2.439   6.243
 6649SOL    HW220847   4.725   2.600   6.245
 6650SOL     OW20848   1.388   1.513   5.651
 6650SOL    HW120849   1.327   1.549   5.721
 6650SOL    HW220850   1.392   1.413   5.658
 6651SOL     OW20851   6.748   1.653   5.933
 6651SOL    HW120852   6.653   1.680   5.914
 6651SOL    HW220853   6.747   1.570   5.989
 6652SOL     OW20854   0.069   4.739   0.484
 6652SOL    HW120855   0.114   4.814   0.531
 6652SOL    HW220856   0.047   4.666   0.549
 6653SOL     OW20857   5.872   4.526   0.433
 6653SOL    HW120858   5.899   4.575   0.515
 6653SOL    HW220859   5.822   4.588   0.372
 6654SOL     OW20860   6.366   3.604   3.708
 6654SOL    HW120861   6.380   3.603   3.807
 6654SOL    HW220862   6.324   3.518   3.680
 6655SOL     OW20863   6.983   5.920   1.819
 6655SOL    HW120864   0.034   5.983   1.785
 6655SOL    HW220865   6.898   5.970   1.838
 6656SOL     OW20866   4.121   1.334   3.416
 6656SOL    HW120867   4.044   1.308   3.474
 6656SOL    HW220868   4.154   1.255   3.366
 6657SOL     OW20869   5.344   1.824   3.959
 6657SOL    HW120870   5.432   1.783   3.981
 6657SOL    HW220871   5.308   1.784   3.875
 6658SOL     OW20872   6.733   6.330   5.386
 6658SOL    HW120873   6.802   6.283   5.440
 6658SOL    HW220874   6.654   6.270   5.373
 6659SOL     OW20875   0.460   5.043   1.477
 6659SOL    HW120876   0.494   5.137   1.485
 6659SOL    HW220877   0.368   5.045   1.439
 6660SOL     OW20878   6.707   0.521   4.424
 6660SOL    HW120879   6.788   0.524   4.483
 6660SOL    HW220880   6.663   0.432   4.432
 6661SOL     OW20881   4.180   5.519   3.884
 6661SOL    HW120882   4.185   5.539   3.982
 6661SOL    HW220883   4.096   5.558   3.847
 6662SOL     OW20884   3.480   6.541   2.571
 6662SOL    HW120885   3.447   6.447   2.567
 6662SOL    HW220886   3.467   6.577   2.664
 6663SOL     OW20887   0.907   4.543   5.886
 6663SOL    HW120888   0.838   4.478   5.918
 6663SOL    HW220889   0.938   4.515   5.795
 6664SOL     OW20890   2.591   0.580   1.361
 6664SOL    HW120891   2.647   0.642   1.415
 6664SOL    HW220892   2.650   0.525   1.302
 6665SOL     OW20893   2.770   0.873   0.079
 6665SOL    HW120894   2.867   0.898   0.076
 6665SOL    HW220895   2.744   0.854   0.174
 6666SOL     OW20896   3.752   6.278   4.994
 6666SOL    HW120897   3.818   6.250   4.924
 6666SOL    HW220898   3.662   6.238   4.973
 6667SOL     OW20899   1.433   5.783   6.539
 6667SOL    HW120900   1.386   5.872   6.537
 6667SOL    HW220901   1.408   5.731   6.457
 6668SOL     OW20902   0.421   4.193   0.451
 6668SOL    HW120903   0.346   4.248   0.413
 6668SOL    HW220904   0.394   4.159   0.542
 6669SOL     OW20905   1.704   1.956   2.705
 6669SOL    HW120906   1.727   2.043   2.750
 6669SOL    HW220907   1.786   1.899   2.700
 6670SOL     OW20908   3.802   3.114   0.349
 6670SOL    HW120909   3.866   3.044   0.318
 6670SOL    HW220910   3.758   3.156   0.269
 6671SOL     OW20911   4.667   4.839   0.042
 6671SOL    HW120912   4.714   4.777   0.104
 6671SOL    HW220913   4.688   4.934   0.068
 6672SOL     OW20914   0.989   2.147   1.806
 6672SOL    HW120915   1.042   2.230   1.784
 6672SOL    HW220916   1.052   2.070   1.819
 6673SOL     OW20917   6.337   2.899   4.083
 6673SOL    HW120918   6.282   2.880   4.165
 6673SOL    HW220919   6.276   2.919   4.006
 6674SOL     OW20920   0.471   1.625   0.455
 6674SOL    HW120921   0.458   1.720   0.424
 6674SOL    HW220922   0.498   1.626   0.551
 6675SOL     OW20923   4.759   0.477   6.664
 6675SOL    HW120924   4.733   0.550   6.726
 6675SOL    HW220925   4.792   0.399   6.717
 6676SOL     OW20926   0.539   4.269   4.222
 6676SOL    HW120927   0.556   4.216   4.305
 6676SOL    HW220928   0.581   4.359   4.230
 6677SOL     OW20929   0.796   1.824   6.262
 6677SOL    HW120930   0.892   1.812   6.289
 6677SOL    HW220931   0.788   1.903   6.202
 6678SOL     OW20932   2.639   4.181   6.158
 6678SOL    HW120933   2.683   4.126   6.229
 6678SOL    HW220934   2.601   4.264   6.198
 6679SOL     OW20935   1.664   0.467   3.827
 6679SOL    HW120936   1.700   0.560   3.827
 6679SOL    HW220937   1.683   0.424   3.915
 6680SOL     OW20938   6.702   6.023   1.197
 6680SOL    HW120939   6.687   5.970   1.280
 6680SOL    HW220940   6.618   6.023   1.142
 6681SOL     OW20941   3.429   6.157   1.571
 6681SOL    HW120942   3.463   6.119   1.485
 6681SOL    HW220943   3.338   6.195   1.557
 6682SOL     OW20944   3.327   5.977   5.748
 6682SOL    HW120945   3.376   5.974   5.836
 6682SOL    HW220946   3.379   5.927   5.679
 6683SOL     OW20947   0.091   4.857   6.110
 6683SOL    HW120948   0.157   4.873   6.037
 6683SOL    HW220949   0.024   4.932   6.112
 6684SOL     OW20950   2.984   5.877   0.159
 6684SOL    HW120951   2.927   5.794   0.157
 6684SOL    HW220952   3.008   5.899   0.253
 6685SOL     OW20953   5.310   2.792   0.622
 6685SOL    HW120954   5.336   2.888   0.612
 6685SOL    HW220955   5.211   2.785   0.636
 6686SOL     OW20956   5.414   5.312   4.776
 6686SOL    HW120957   5.448   5.218   4.775
 6686SOL    HW220958   5.382   5.335   4.867
 6687SOL     OW20959   6.857   1.396   1.284
 6687SOL    HW120960   6.761   1.386   1.256
 6687SOL    HW220961   6.869   1.357   1.375
 6688SOL     OW20962   4.223   4.914   0.414
 6688SOL    HW120963   4.322   4.929   0.413
 6688SOL    HW220964   4.204   4.817   0.431
 6689SOL     OW20965   2.710   4.422   5.734
 6689SOL    HW120966   2.797   4.434   5.686
 6689SOL    HW220967   2.689   4.324   5.742
 6690SOL     OW20968   0.760   0.313   6.550
 6690SOL    HW120969   0.770   0.281   6.456
 6690SOL    HW220970   0.679   0.372   6.556
 6691SOL     OW20971   3.045   1.858   2.409
 6691SOL    HW120972   3.109   1.935   2.399
 6691SOL    HW220973   2.975   1.863   2.339
 6692SOL     OW20974   4.339   5.454   2.380
 6692SOL    HW120975   4.397   5.507   2.442
 6692SOL    HW220976   4.244   5.460   2.411
 6693SOL     OW20977   3.627   1.858   5.132
 6693SOL    HW120978   3.587   1.830   5.218
 6693SOL    HW220979   3.706   1.917   5.149
 6694SOL     OW20980   3.980   4.294   1.387
 6694SOL    HW120981   3.890   4.276   1.348
 6694SOL    HW220982   4.050   4.275   1.318
 6695SOL     OW20983   2.800   2.214   0.601
 6695SOL    HW120984   2.712   2.260   0.617
 6695SOL    HW220985   2.865   2.241   0.671
 6696SOL     OW20986   4.108   3.248   4.147
 6696SOL    HW120987   4.125   3.288   4.057
 6696SOL    HW220988   4.024   3.193   4.143
 6697SOL     OW20989   4.650   2.098   2.103
 6697SOL    HW120990   4.646   2.094   2.202
 6697SOL    HW220991   4.559   2.119   2.067
 6698SOL     OW20992   3.679   4.194   1.609
 6698SOL    HW120993   3.689   4.137   1.691
 6698SOL    HW220994   3.644   4.284   1.636
 6699SOL     OW20995   1.263   3.601   5.560
 6699SOL    HW120996   1.197   3.614   5.634
 6699SOL    HW220997   1.343   3.658   5.575
 6700SOL     OW20998   5.713   0.278   0.843
 6700SOL    HW120999   5.707   0.190   0.889
 6700SOL    HW221000   5.762   0.267   0.756
 6701SOL     OW21001   6.329   6.859   1.619
 6701SOL    HW121002   6.351   6.767   1.589
 6701SOL    HW221003   6.323   6.862   1.719
 6702SOL     OW21004   3.697   3.213   1.025
 6702SOL    HW121005   3.743   3.168   1.101
 6702SOL    HW221006   3.682   3.310   1.047
 6703SOL     OW21007   6.965   1.302   0.376
 6703SOL    HW121008   6.939   1.285   0.281
 6703SOL    HW221009   6.898   1.363   0.418
 6704SOL     OW21010   3.453   6.950   5.825
 6704SOL    HW121011   3.394   6.871   5.841
 6704SOL    HW221012   3.486   6.949   5.730
 6705SOL     OW21013   0.271   4.418   2.156
 6705SOL    HW121014   0.275   4.517   2.170
 6705SOL    HW221015   0.353   4.387   2.109
 6706SOL     OW21016   0.126   6.635   1.614
 6706SOL    HW121017   0.066   6.573   1.565
 6706SOL    HW221018   0.161   6.704   1.550
 6707SOL     OW21019   4.885   1.076   2.334
 6707SOL    HW121020   4.977   1.041   2.317
 6707SOL    HW221021   4.879   1.169   2.298
 6708SOL     OW21022   0.813   3.512   0.259
 6708SOL    HW121023   0.745   3.470   0.319
 6708SOL    HW221024   0.905   3.492   0.292
 6709SOL     OW21025   2.302   4.392   2.114
 6709SOL    HW121026   2.340   4.305   2.145
 6709SOL    HW221027   2.374   4.462   2.115
 6710SOL     OW21028   4.819   1.333   0.891
 6710SOL    HW121029   4.854   1.413   0.842
 6710SOL    HW221030   4.721   1.345   0.908
 6711SOL     OW21031   3.222   6.235   6.111
 6711SOL    HW121032   3.190   6.176   6.185
 6711SOL    HW221033   3.157   6.309   6.096
 6712SOL     OW21034   5.329   4.698   1.497
 6712SOL    HW121035   5.252   4.747   1.457
 6712SOL    HW221036   5.317   4.600   1.481
 6713SOL     OW21037   1.851   5.565   4.351
 6713SOL    HW121038   1.768   5.590   4.300
 6713SOL    HW221039   1.883   5.644   4.404
 6714SOL     OW21040   5.722   1.157   1.787
 6714SOL    HW121041   5.761   1.157   1.879
 6714SOL    HW221042   5.791   1.124   1.722
 6715SOL     OW21043   1.524   0.387   6.531
 6715SOL    HW121044   1.563   0.305   6.490
 6715SOL    HW221045   1.522   0.377   6.631
 6716SOL     OW21046   7.011   6.051   2.488
 6716SOL    HW121047   0.040   6.134   2.459
 6716SOL    HW221048   6.995   5.993   2.408
 6717SOL     OW21049   5.719   1.593   6.060
 6717SOL    HW121050   5.715   1.683   6.104
 6717SOL    HW221051   5.786   1.595   5.986
 6718SOL     OW21052   4.409   1.484   0.590
 6718SOL    HW121053   4.446   1.401   0.549
 6718SOL    HW221054   4.393   1.552   0.518
 6719SOL     OW21055   1.836   1.500   6.915
 6719SOL    HW121056   1.895   1.427   6.883
 6719SOL    HW221057   1.778   1.466   6.989
 6720SOL     OW21058   1.559   0.862   5.981
 6720SOL    HW121059   1.518   0.853   6.072
 6720SOL    HW221060   1.658   0.877   5.990
 6721SOL     OW21061   6.051   0.006   0.996
 6721SOL    HW121062   6.118   0.038   1.063
 6721SOL    HW221063   5.960   0.002   1.038
 6722SOL     OW21064   5.507   3.708   0.355
 6722SOL    HW121065   5.431   3.764   0.323
 6722SOL    HW221066   5.578   3.767   0.394
 6723SOL     OW21067   1.076   2.799   5.579
 6723SOL    HW121068   1.161   2.748   5.578
 6723SOL    HW221069   1.073   2.858   5.660
 6724SOL     OW21070   2.047   3.653   4.062
 6724SOL    HW121071   2.122   3.714   4.036
 6724SOL    HW221072   2.007   3.612   3.981
 6725SOL     OW21073   4.869   2.590   3.504
 6725SOL    HW121074   4.936   2.585   3.431
 6725SOL    HW221075   4.910   2.556   3.589
 6726SOL     OW21076   0.571   0.611   5.735
 6726SOL    HW121077   0.497   0.642   5.675
 6726SOL    HW221078   0.631   0.688   5.756
 6727SOL     OW21079   1.383   4.944   5.785
 6727SOL    HW121080   1.437   4.861   5.768
 6727SOL    HW221081   1.440   5.012   5.830
 6728SOL     OW21082   3.538   1.191   3.082
 6728SOL    HW121083   3.615   1.129   3.064
 6728SOL    HW221084   3.458   1.159   3.032
 6729SOL     OW21085   4.309   1.161   2.190
 6729SOL    HW121086   4.253   1.078   2.184
 6729SOL    HW221087   4.249   1.241   2.200
 6730SOL     OW21088   0.209   1.829   0.526
 6730SOL    HW121089   0.294   1.873   0.554
 6730SOL    HW221090   0.206   1.820   0.427
 6731SOL     OW21091   3.750   0.286   6.376
 6731SOL    HW121092   3.846   0.259   6.385
 6731SOL    HW221093   3.744   0.385   6.360
 6732SOL     OW21094   6.864   4.967   5.823
 6732SOL    HW121095   6.886   4.984   5.919
 6732SOL    HW221096   6.941   4.921   5.778
 6733SOL     OW21097   4.780   4.800   5.702
 6733SOL    HW121098   4.701   4.862   5.703
 6733SOL    HW221099   4.819   4.795   5.794
 6734SOL     OW21100   6.082   1.895   3.918
 6734SOL    HW121101   6.121   1.817   3.967
 6734SOL    HW221102   6.012   1.938   3.974
 6735SOL     OW21103   6.611   2.493   2.898
 6735SOL    HW121104   6.531   2.541   2.932
 6735SOL    HW221105   6.640   2.424   2.964
 6736SOL     OW21106   3.514   3.733   0.909
 6736SOL    HW121107   3.427   3.717   0.957
 6736SOL    HW221108   3.560   3.812   0.948
 6737SOL     OW21109   6.774   3.757   6.894
 6737SOL    HW121110   6.779   3.839   6.836
 6737SOL    HW221111   6.745   3.679   6.839
 6738SOL     OW21112   1.130   6.207   4.117
 6738SOL    HW121113   1.103   6.121   4.160
 6738SOL    HW221114   1.160   6.190   4.023
 6739SOL     OW21115   6.975   0.189   5.310
 6739SOL    HW121116   0.028   0.141   5.259
 6739SOL    HW221117   6.887   0.177   5.265
 6740SOL     OW21118   0.492   6.736   3.037
 6740SOL    HW121119   0.576   6.723   3.090
 6740SOL    HW221120   0.485   6.833   3.011
 6741SOL     OW21121   3.951   2.040   6.897
 6741SOL    HW121122   4.045   2.006   6.892
 6741SOL    HW221123   3.918   2.059   6.805
 6742SOL     OW21124   5.826   4.061   3.521
 6742SOL    HW121125   5.739   4.035   3.563
 6742SOL    HW221126   5.901   4.044   3.585
 6743SOL     OW21127   3.714   3.842   0.750
 6743SOL    HW121128   3.781   3.876   0.817
 6743SOL    HW221129   3.668   3.761   0.787
 6744SOL     OW21130   6.163   6.823   6.117
 6744SOL    HW121131   6.143   6.745   6.177
 6744SOL    HW221132   6.218   6.791   6.040
 6745SOL     OW21133   0.074   4.831   5.131
 6745SOL    HW121134   0.098   4.764   5.060
 6745SOL    HW221135   6.996   4.820   5.155
 6746SOL     OW21136   1.073   2.196   2.657
 6746SOL    HW121137   1.091   2.169   2.562
 6746SOL    HW221138   1.025   2.121   2.703
 6747SOL     OW21139   1.536   6.283   5.751
 6747SOL    HW121140   1.460   6.291   5.687
 6747SOL    HW221141   1.600   6.214   5.718
 6748SOL     OW21142   1.986   1.200   4.735
 6748SOL    HW121143   1.987   1.285   4.789
 6748SOL    HW221144   1.927   1.133   4.781
 6749SOL     OW21145   4.079   5.050   2.314
 6749SOL    HW121146   4.029   5.042   2.400
 6749SOL    HW221147   4.068   4.965   2.261
 6750SOL     OW21148   3.837   1.271   4.985
 6750SOL    HW121149   3.771   1.321   4.929
 6750SOL    HW221150   3.918   1.250   4.931
 6751SOL     OW21151   4.745   0.077   4.270
 6751SOL    HW121152   4.660   0.024   4.272
 6751SOL    HW221153   4.730   0.162   4.219
 6752SOL     OW21154   1.998   4.637   2.267
 6752SOL    HW121155   2.027   4.608   2.175
 6752SOL    HW221156   1.921   4.700   2.259
 6753SOL     OW21157   4.089   3.236   6.036
 6753SOL    HW121158   4.162   3.167   6.034
 6753SOL    HW221159   4.015   3.207   5.976
 6754SOL     OW21160   6.094   2.046   0.433
 6754SOL    HW121161   6.027   2.038   0.507
 6754SOL    HW221162   6.084   2.136   0.389
 6755SOL     OW21163   2.859   5.909   6.185
 6755SOL    HW121164   2.812   5.843   6.126
 6755SOL    HW221165   2.958   5.899   6.174
 6756SOL     OW21166   3.201   2.106   5.962
 6756SOL    HW121167   3.139   2.085   5.886
 6756SOL    HW221168   3.203   2.205   5.977
 6757SOL     OW21169   4.390   0.213   0.932
 6757SOL    HW121170   4.306   0.265   0.912
 6757SOL    HW221171   4.371   0.115   0.925
 6758SOL     OW21172   5.081   1.999   3.363
 6758SOL    HW121173   5.064   2.096   3.380
 6758SOL    HW221174   4.995   1.948   3.364
 6759SOL     OW21175   0.585   2.164   3.051
 6759SOL    HW121176   0.518   2.093   3.032
 6759SOL    HW221177   0.576   2.195   3.146
 6760SOL     OW21178   5.239   2.344   4.565
 6760SOL    HW121179   5.250   2.438   4.596
 6760SOL    HW221180   5.142   2.318   4.570
 6761SOL     OW21181   3.774   1.395   4.755
 6761SOL    HW121182   3.852   1.335   4.738
 6761SOL    HW221183   3.782   1.477   4.698
 6762SOL     OW21184   6.655   5.719   4.264
 6762SOL    HW121185   6.586   5.702   4.193
 6762SOL    HW221186   6.615   5.701   4.354
 6763SOL     OW21187   5.664   5.727   4.877
 6763SOL    HW121188   5.629   5.726   4.971
 6763SOL    HW221189   5.626   5.650   4.827
 6764SOL     OW21190   1.282   4.857   0.775
 6764SOL    HW121191   1.338   4.909   0.840
 6764SOL    HW221192   1.237   4.921   0.712
 6765SOL     OW21193   0.203   4.482   2.913
 6765SOL    HW121194   0.174   4.386   2.924
 6765SOL    HW221195   0.258   4.490   2.829
 6766SOL     OW21196   6.056   0.611   1.401
 6766SOL    HW121197   6.049   0.564   1.488
 6766SOL    HW221198   5.965   0.636   1.369
 6767SOL     OW21199   3.265   0.395   0.729
 6767SOL    HW121200   3.324   0.456   0.677
 6767SOL    HW221201   3.177   0.440   0.745
 6768SOL     OW21202   1.478   0.911   0.405
 6768SOL    HW121203   1.405   0.850   0.370
 6768SOL    HW221204   1.566   0.863   0.400
 6769SOL     OW21205   4.131   2.857   1.670
 6769SOL    HW121206   4.207   2.916   1.699
 6769SOL    HW221207   4.126   2.857   1.570
 6770SOL     OW21208   0.388   0.552   1.762
 6770SOL    HW121209   0.483   0.574   1.741
 6770SOL    HW221210   0.368   0.577   1.856
 6771SOL     OW21211   4.194   2.262   3.223
 6771SOL    HW121212   4.268   2.267   3.156
 6771SOL    HW221213   4.163   2.168   3.232
 6772SOL     OW21214   3.343   1.794   3.378
 6772SOL    HW121215   3.364   1.706   3.336
 6772SOL    HW221216   3.251   1.791   3.419
 6773SOL     OW21217   0.610   4.099   1.689
 6773SOL    HW121218   0.581   4.069   1.780
 6773SOL    HW221219   0.698   4.057   1.667
 6774SOL     OW21220   0.341   1.750   6.181
 6774SOL    HW121221   0.410   1.701   6.128
 6774SOL    HW221222   0.288   1.809   6.120
 6775SOL     OW21223   2.393   4.664   0.165
 6775SOL    HW121224   2.356   4.589   0.111
 6775SOL    HW221225   2.409   4.633   0.259
 6776SOL     OW21226   5.742   5.510   7.009
 6776SOL    HW121227   5.681   5.491   0.067
 6776SOL    HW221228   5.836   5.518   0.023
 6777SOL     OW21229   4.752   5.068   6.437
 6777SOL    HW121230   4.658   5.040   6.456
 6777SOL    HW221231   4.769   5.065   6.339
 6778SOL     OW21232   0.641   6.326   2.853
 6778SOL    HW121233   0.619   6.423   2.839
 6778SOL    HW221234   0.616   6.275   2.771
 6779SOL     OW21235   0.502   4.329   0.179
 6779SOL    HW121236   0.543   4.418   0.158
 6779SOL    HW221237   0.571   4.257   0.169
 6780SOL     OW21238   0.363   2.899   2.124
 6780SOL    HW121239   0.301   2.867   2.196
 6780SOL    HW221240   0.311   2.944   2.052
 6781SOL     OW21241   6.075   5.138   6.050
 6781SOL    HW121242   6.170   5.130   6.020
 6781SOL    HW221243   6.033   5.048   6.054
 6782SOL     OW21244   5.859   1.237   3.059
 6782SOL    HW121245   5.775   1.200   3.019
 6782SOL    HW221246   5.839   1.327   3.099
 6783SOL     OW21247   0.564   6.071   6.569
 6783SOL    HW121248   0.492   6.140   6.572
 6783SOL    HW221249   0.557   6.011   6.649
 6784SOL     OW21250   3.400   3.079   0.204
 6784SOL    HW121251   3.434   3.045   0.116
 6784SOL    HW221252   3.452   3.038   0.278
 6785SOL     OW21253   6.262   6.599   2.538
 6785SOL    HW121254   6.199   6.673   2.514
 6785SOL    HW221255   6.331   6.589   2.466
 6786SOL     OW21256   2.050   3.040   6.177
 6786SOL    HW121257   1.995   3.003   6.252
 6786SOL    HW221258   2.145   3.046   6.205
 6787SOL     OW21259   1.130   3.792   1.718
 6787SOL    HW121260   1.064   3.866   1.707
 6787SOL    HW221261   1.131   3.762   1.814
 6788SOL     OW21262   2.598   4.025   0.924
 6788SOL    HW121263   2.523   3.986   0.976
 6788SOL    HW221264   2.675   3.961   0.922
 6789SOL     OW21265   0.506   6.569   2.835
 6789SOL    HW121266   0.510   6.636   2.761
 6789SOL    HW221267   0.465   6.612   2.916
 6790SOL     OW21268   1.885   2.977   0.020
 6790SOL    HW121269   1.900   2.985   6.940
 6790SOL    HW221270   1.951   3.033   0.069
 6791SOL     OW21271   4.409   3.616   5.994
 6791SOL    HW121272   4.359   3.580   6.073
 6791SOL    HW221273   4.398   3.553   5.916
 6792SOL     OW21274   0.017   5.546   0.677
 6792SOL    HW121275   0.002   5.480   0.604
 6792SOL    HW221276   6.966   5.534   0.748
 6793SOL     OW21277   6.605   1.810   1.069
 6793SOL    HW121278   6.633   1.733   1.126
 6793SOL    HW221279   6.630   1.792   0.974
 6794SOL     OW21280   4.839   0.921   4.790
 6794SOL    HW121281   4.742   0.928   4.766
 6794SOL    HW221282   4.855   0.963   4.879
 6795SOL     OW21283   3.113   5.559   6.670
 6795SOL    HW121284   3.207   5.569   6.702
 6795SOL    HW221285   3.054   5.620   6.722
 6796SOL     OW21286   4.336   1.851   2.849
 6796SOL    HW121287   4.374   1.759   2.866
 6796SOL    HW221288   4.243   1.856   2.885
 6797SOL     OW21289   6.831   3.572   2.296
 6797SOL    HW121290   6.797   3.660   2.264
 6797SOL    HW221291   6.929   3.564   2.277
 6798SOL     OW21292   6.500   6.117   2.703
 6798SOL    HW121293   6.520   6.215   2.709
 6798SOL    HW221294   6.544   6.078   2.623
 6799SOL     OW21295   5.258   6.240   1.147
 6799SOL    HW121296   5.239   6.145   1.120
 6799SOL    HW221297   5.201   6.264   1.226
 6800SOL     OW21298   2.962   4.915   6.821
 6800SOL    HW121299   2.912   4.980   6.878
 6800SOL    HW221300   2.924   4.823   6.834
 6801SOL     OW21301   1.702   1.794   2.322
 6801SOL    HW121302   1.667   1.772   2.413
 6801SOL    HW221303   1.702   1.894   2.309
 6802SOL     OW21304   2.261   6.061   2.350
 6802SOL    HW121305   2.332   6.000   2.386
 6802SOL    HW221306   2.176   6.047   2.401
 6803SOL     OW21307   5.174   2.626   6.890
 6803SOL    HW121308   5.268   2.641   6.858
 6803SOL    HW221309   5.137   2.543   6.849
 6804SOL     OW21310   1.624   6.694   3.900
 6804SOL    HW121311   1.658   6.787   3.916
 6804SOL    HW221312   1.576   6.691   3.812
 6805SOL     OW21313   5.392   0.481   4.504
 6805SOL    HW121314   5.442   0.439   4.428
 6805SOL    HW221315   5.426   0.573   4.520
 6806SOL     OW21316   4.256   0.735   5.744
 6806SOL    HW121317   4.330   0.787   5.701
 6806SOL    HW221318   4.220   0.669   5.678
 6807SOL     OW21319   3.186   3.134   0.370
 6807SOL    HW121320   3.209   3.223   0.409
 6807SOL    HW221321   3.249   3.112   0.296
 6808SOL     OW21322   1.651   3.072   4.869
 6808SOL    HW121323   1.693   3.149   4.821
 6808SOL    HW221324   1.618   3.005   4.802
 6809SOL     OW21325   1.834   3.607   6.405
 6809SOL    HW121326   1.803   3.637   6.315
 6809SOL    HW221327   1.881   3.682   6.452
 6810SOL     OW21328   5.987   1.498   2.514
 6810SOL    HW121329   6.055   1.552   2.564
 6810SOL    HW221330   6.029   1.412   2.483
 6811SOL     OW21331   5.058   5.685   1.555
 6811SOL    HW121332   5.112   5.620   1.609
 6811SOL    HW221333   4.979   5.715   1.610
 6812SOL     OW21334   3.146   3.470   2.815
 6812SOL    HW121335   3.140   3.535   2.891
 6812SOL    HW221336   3.074   3.401   2.824
 6813SOL     OW21337   4.549   3.782   0.930
 6813SOL    HW121338   4.579   3.718   1.000
 6813SOL    HW221339   4.465   3.827   0.959
 6814SOL     OW21340   2.448   3.605   0.393
 6814SOL    HW121341   2.358   3.634   0.428
 6814SOL    HW221342   2.462   3.508   0.415
 6815SOL     OW21343   2.099   0.419   1.896
 6815SOL    HW121344   2.065   0.382   1.809
 6815SOL    HW221345   2.022   0.431   1.959
 6816SOL     OW21346   6.489   4.619   1.236
 6816SOL    HW121347   6.461   4.524   1.226
 6816SOL    HW221348   6.463   4.670   1.154
 6817SOL     OW21349   0.057   1.484   5.763
 6817SOL    HW121350   6.989   1.434   5.754
 6817SOL    HW221351   0.094   1.470   5.855
 6818SOL     OW21352   3.420   6.286   2.702
 6818SOL    HW121353   3.330   6.313   2.667
 6818SOL    HW221354   3.411   6.256   2.797
 6819SOL     OW21355   3.335   1.280   3.778
 6819SOL    HW121356   3.319   1.344   3.853
 6819SOL    HW221357   3.365   1.331   3.697
 6820SOL     OW21358   0.806   4.353   3.597
 6820SOL    HW121359   0.727   4.391   3.646
 6820SOL    HW221360   0.799   4.254   3.595
 6821SOL     OW21361   2.335   2.102   4.426
 6821SOL    HW121362   2.357   2.137   4.517
 6821SOL    HW221363   2.404   2.034   4.399
 6822SOL     OW21364   5.258   2.076   5.745
 6822SOL    HW121365   5.201   2.115   5.672
 6822SOL    HW221366   5.333   2.139   5.765
 6823SOL     OW21367   2.948   3.248   2.115
 6823SOL    HW121368   2.957   3.305   2.197
 6823SOL    HW221369   2.920   3.305   2.038
 6824SOL     OW21370   1.611   3.977   6.483
 6824SOL    HW121371   1.709   3.988   6.468
 6824SOL    HW221372   1.561   4.016   6.407
 6825SOL     OW21373   5.005   6.951   3.601
 6825SOL    HW121374   5.058   6.935   3.683
 6825SOL    HW221375   4.957   0.021   3.609
 6826SOL     OW21376   1.264   3.086   2.525
 6826SOL    HW121377   1.347   3.071   2.579
 6826SOL    HW221378   1.287   3.137   2.442
 6827SOL     OW21379   5.604   5.982   4.782
 6827SOL    HW121380   5.524   5.996   4.725
 6827SOL    HW221381   5.622   5.884   4.791
 6828SOL     OW21382   1.428   2.694   1.349
 6828SOL    HW121383   1.365   2.693   1.272
 6828SOL    HW221384   1.460   2.601   1.366
 6829SOL     OW21385   4.642   5.567   3.840
 6829SOL    HW121386   4.575   5.638   3.859
 6829SOL    HW221387   4.611   5.480   3.878
 6830SOL     OW21388   5.477   2.319   4.008
 6830SOL    HW121389   5.494   2.231   4.051
 6830SOL    HW221390   5.426   2.305   3.923
 6831SOL     OW21391   0.210   1.177   6.342
 6831SOL    HW121392   0.247   1.089   6.314
 6831SOL    HW221393   0.280   1.248   6.335
 6832SOL     OW21394   2.942   5.390   2.243
 6832SOL    HW121395   2.975   5.312   2.190
 6832SOL    HW221396   2.846   5.407   2.221
 6833SOL     OW21397   4.295   5.114   6.999
 6833SOL    HW121398   4.278   5.187   6.932
 6833SOL    HW221399   4.209   5.089   0.025
 6834SOL     OW21400   3.621   5.346   2.562
 6834SOL    HW121401   3.549   5.307   2.505
 6834SOL    HW221402   3.606   5.444   2.573
 6835SOL     OW21403   4.090   6.832   4.827
 6835SOL    HW121404   4.087   6.902   4.755
 6835SOL    HW221405   4.040   6.751   4.796
 6836SOL     OW21406   3.310   6.197   6.814
 6836SOL    HW121407   3.338   6.103   6.794
 6836SOL    HW221408   3.277   6.204   6.908
 6837SOL     OW21409   1.335   3.144   2.059
 6837SOL    HW121410   1.416   3.134   2.003
 6837SOL    HW221411   1.320   3.241   2.079
 6838SOL     OW21412   2.400   1.585   6.769
 6838SOL    HW121413   2.309   1.627   6.771
 6838SOL    HW221414   2.467   1.653   6.739
 6839SOL     OW21415   4.439   1.132   1.065
 6839SOL    HW121416   4.404   1.128   1.159
 6839SOL    HW221417   4.507   1.061   1.051
 6840SOL     OW21418   1.014   2.009   6.581
 6840SOL    HW121419   0.929   1.960   6.564
 6840SOL    HW221420   1.068   1.960   6.648
 6841SOL     OW21421   6.983   3.917   6.168
 6841SOL    HW121422   6.902   3.877   6.210
 6841SOL    HW221423   6.956   3.996   6.113
 6842SOL     OW21424   2.092   4.481   2.735
 6842SOL    HW121425   2.062   4.437   2.819
 6842SOL    HW221426   2.149   4.417   2.683
 6843SOL     OW21427   4.176   6.556   0.096
 6843SOL    HW121428   4.164   6.630   0.162
 6843SOL    HW221429   4.219   6.592   0.013
 6844SOL     OW21430   5.097   0.635   5.577
 6844SOL    HW121431   5.037   0.714   5.561
 6844SOL    HW221432   5.134   0.640   5.670
 6845SOL     OW21433   5.399   2.062   2.248
 6845SOL    HW121434   5.409   1.963   2.251
 6845SOL    HW221435   5.486   2.105   2.273
 6846SOL     OW21436   2.670   3.754   0.362
 6846SOL    HW121437   2.582   3.711   0.380
 6846SOL    HW221438   2.679   3.835   0.421
 6847SOL     OW21439   6.628   3.467   3.698
 6847SOL    HW121440   6.530   3.483   3.710
 6847SOL    HW221441   6.672   3.460   3.787
 6848SOL     OW21442   5.871   4.324   3.490
 6848SOL    HW121443   5.843   4.228   3.499
 6848SOL    HW221444   5.801   4.375   3.439
 6849SOL     OW21445   3.165   3.993   6.768
 6849SOL    HW121446   3.156   4.024   6.862
 6849SOL    HW221447   3.139   3.897   6.762
 6850SOL     OW21448   4.199   1.619   3.959
 6850SOL    HW121449   4.198   1.713   3.994
 6850SOL    HW221450   4.118   1.570   3.992
 6851SOL     OW21451   2.068   2.958   3.829
 6851SOL    HW121452   2.129   3.030   3.861
 6851SOL    HW221453   2.005   2.932   3.903
 6852SOL     OW21454   2.591   4.666   0.369
 6852SOL    HW121455   2.513   4.604   0.379
 6852SOL    HW221456   2.627   4.689   0.460
 6853SOL     OW21457   4.949   3.572   6.883
 6853SOL    HW121458   4.977   3.503   6.816
 6853SOL    HW221459   4.986   3.661   6.856
 6854SOL     OW21460   6.153   5.979   6.175
 6854SOL    HW121461   6.186   5.931   6.093
 6854SOL    HW221462   6.094   5.917   6.228
 6855SOL     OW21463   4.279   5.066   3.358
 6855SOL    HW121464   4.321   4.998   3.419
 6855SOL    HW221465   4.348   5.132   3.331
 6856SOL     OW21466   0.555   1.670   6.344
 6856SOL    HW121467   0.474   1.696   6.292
 6856SOL    HW221468   0.628   1.735   6.326
 6857SOL     OW21469   0.912   3.779   5.045
 6857SOL    HW121470   1.006   3.758   5.017
 6857SOL    HW221471   0.856   3.796   4.965
 6858SOL     OW21472   2.326   3.756   1.759
 6858SOL    HW121473   2.285   3.701   1.831
 6858SOL    HW221474   2.350   3.698   1.681
 6859SOL     OW21475   1.143   1.539   2.533
 6859SOL    HW121476   1.233   1.519   2.493
 6859SOL    HW221477   1.144   1.516   2.630
 6860SOL     OW21478   0.744   6.302   2.229
 6860SOL    HW121479   0.745   6.292   2.328
 6860SOL    HW221480   0.774   6.217   2.186
 6861SOL     OW21481   5.781   2.996   5.298
 6861SOL    HW121482   5.824   3.085   5.316
 6861SOL    HW221483   5.715   2.976   5.371
 6862SOL     OW21484   0.766   4.434   4.921
 6862SOL    HW121485   0.832   4.473   4.857
 6862SOL    HW221486   0.798   4.345   4.953
 6863SOL     OW21487   5.822   0.703   5.615
 6863SOL    HW121488   5.906   0.686   5.563
 6863SOL    HW221489   5.789   0.617   5.654
 6864SOL     OW21490   1.172   3.668   5.839
 6864SOL    HW121491   1.187   3.585   5.892
 6864SOL    HW221492   1.256   3.722   5.836
 6865SOL     OW21493   2.381   0.193   3.906
 6865SOL    HW121494   2.337   0.142   3.832
 6865SOL    HW221495   2.480   0.176   3.905
 6866SOL     OW21496   1.101   4.578   0.654
 6866SOL    HW121497   1.024   4.613   0.600
 6866SOL    HW221498   1.088   4.602   0.750
 6867SOL     OW21499   2.209   4.109   6.961
 6867SOL    HW121500   2.262   4.033   6.924
 6867SOL    HW221501   2.237   4.194   6.918
 6868SOL     OW21502   2.730   5.354   3.894
 6868SOL    HW121503   2.792   5.309   3.829
 6868SOL    HW221504   2.764   5.342   3.987
 6869SOL     OW21505   3.160   1.035   6.113
 6869SOL    HW121506   3.250   1.021   6.072
 6869SOL    HW221507   3.094   1.057   6.042
 6870SOL     OW21508   6.093   2.504   0.778
 6870SOL    HW121509   6.088   2.416   0.730
 6870SOL    HW221510   6.189   2.529   0.792
 6871SOL     OW21511   0.317   3.910   2.361
 6871SOL    HW121512   0.264   3.884   2.442
 6871SOL    HW221513   0.269   3.983   2.312
 6872SOL     OW21514   1.419   3.917   0.644
 6872SOL    HW121515   1.458   3.996   0.690
 6872SOL    HW221516   1.472   3.896   0.562
 6873SOL     OW21517   0.335   4.623   3.683
 6873SOL    HW121518   0.270   4.651   3.754
 6873SOL    HW221519   0.425   4.662   3.703
 6874SOL     OW21520   5.332   6.186   3.448
 6874SOL    HW121521   5.310   6.284   3.446
 6874SOL    HW221522   5.303   6.147   3.535
 6875SOL     OW21523   2.769   1.559   0.501
 6875SOL    HW121524   2.780   1.499   0.580
 6875SOL    HW221525   2.820   1.644   0.515
 6876SOL     OW21526   5.297   4.755   3.781
 6876SOL    HW121527   5.255   4.670   3.815
 6876SOL    HW221528   5.378   4.733   3.727
 6877SOL     OW21529   0.966   3.451   2.189
 6877SOL    HW121530   1.052   3.498   2.170
 6877SOL    HW221531   0.960   3.368   2.134
 6878SOL     OW21532   2.045   0.593   4.622
 6878SOL    HW121533   2.039   0.671   4.684
 6878SOL    HW221534   2.135   0.551   4.630
 6879SOL     OW21535   2.227   0.846   0.857
 6879SOL    HW121536   2.223   0.859   0.758
 6879SOL    HW221537   2.137   0.823   0.891
 6880SOL     OW21538   1.744   5.517   6.573
 6880SOL    HW121539   1.686   5.498   6.494
 6880SOL    HW221540   1.795   5.433   6.597
 6881SOL     OW21541   0.789   2.940   0.797
 6881SOL    HW121542   0.817   2.857   0.748
 6881SOL    HW221543   0.800   2.925   0.896
 6882SOL     OW21544   2.617   6.596   6.356
 6882SOL    HW121545   2.521   6.627   6.357
 6882SOL    HW221546   2.637   6.549   6.442
 6883SOL     OW21547   4.745   0.698   0.623
 6883SOL    HW121548   4.717   0.794   0.615
 6883SOL    HW221549   4.761   0.676   0.719
 6884SOL     OW21550   2.148   4.013   3.042
 6884SOL    HW121551   2.104   3.959   3.114
 6884SOL    HW221552   2.186   3.951   2.973
 6885SOL     OW21553   5.938   5.437   4.778
 6885SOL    HW121554   5.971   5.521   4.821
 6885SOL    HW221555   5.868   5.460   4.710
 6886SOL     OW21556   5.388   2.329   0.156
 6886SOL    HW121557   5.411   2.258   0.090
 6886SOL    HW221558   5.320   2.391   0.115
 6887SOL     OW21559   5.336   5.608   5.828
 6887SOL    HW121560   5.297   5.571   5.912
 6887SOL    HW221561   5.431   5.634   5.843
 6888SOL     OW21562   6.298   4.976   6.480
 6888SOL    HW121563   6.382   4.972   6.534
 6888SOL    HW221564   6.244   4.893   6.496
 6889SOL     OW21565   0.292   2.254   6.631
 6889SOL    HW121566   0.214   2.215   6.680
 6889SOL    HW221567   0.346   2.180   6.590
 6890SOL     OW21568   4.660   4.383   3.073
 6890SOL    HW121569   4.594   4.418   3.140
 6890SOL    HW221570   4.750   4.423   3.092
 6891SOL     OW21571   2.044   1.151   0.908
 6891SOL    HW121572   2.107   1.201   0.967
 6891SOL    HW221573   2.092   1.119   0.826
 6892SOL     OW21574   2.826   0.604   4.641
 6892SOL    HW121575   2.814   0.700   4.616
 6892SOL    HW221576   2.886   0.559   4.574
 6893SOL     OW21577   5.825   3.189   0.894
 6893SOL    HW121578   5.764   3.238   0.956
 6893SOL    HW221579   5.771   3.130   0.833
 6894SOL     OW21580   5.838   5.383   0.636
 6894SOL    HW121581   5.840   5.398   0.538
 6894SOL    HW221582   5.926   5.409   0.675
 6895SOL     OW21583   0.333   6.538   2.038
 6895SOL    HW121584   0.334   6.505   1.944
 6895SOL    HW221585   0.419   6.514   2.083
 6896SOL     OW21586   4.681   1.496   4.674
 6896SOL    HW121587   4.673   1.480   4.576
 6896SOL    HW221588   4.739   1.425   4.715
 6897SOL     OW21589   4.898   3.175   5.009
 6897SOL    HW121590   4.828   3.118   4.967
 6897SOL    HW221591   4.903   3.263   4.962
 6898SOL     OW21592   1.802   6.803   1.577
 6898SOL    HW121593   1.718   6.784   1.628
 6898SOL    HW221594   1.878   6.750   1.617
 6899SOL     OW21595   6.394   5.742   2.437
 6899SOL    HW121596   6.312   5.766   2.384
 6899SOL    HW221597   6.471   5.798   2.405
 6900SOL     OW21598   6.516   3.798   5.513
 6900SOL    HW121599   6.591   3.782   5.577
 6900SOL    HW221600   6.550   3.853   5.436
 6901SOL     OW21601   5.399   4.866   6.963
 6901SOL    HW121602   5.398   4.831   6.869
 6901SOL    HW221603   5.314   4.915   6.981
 6902SOL     OW21604   0.808   5.949   5.867
 6902SOL    HW121605   0.779   5.994   5.951
 6902SOL    HW221606   0.767   5.996   5.788
 6903SOL     OW21607   1.347   5.745   4.712
 6903SOL    HW121608   1.248   5.737   4.723
 6903SOL    HW221609   1.393   5.692   4.783
 6904SOL     OW21610   6.976   6.726   5.740
 6904SOL    HW121611   6.956   6.757   5.647
 6904SOL    HW221612   6.939   6.634   5.753
 6905SOL     OW21613   4.856   6.059   5.988
 6905SOL    HW121614   4.776   6.043   6.046
 6905SOL    HW221615   4.826   6.098   5.901
 6906SOL     OW21616   3.103   1.197   3.626
 6906SOL    HW121617   3.197   1.187   3.660
 6906SOL    HW221618   3.045   1.126   3.666
 6907SOL     OW21619   5.917   2.696   0.420
 6907SOL    HW121620   5.902   2.697   0.519
 6907SOL    HW221621   5.830   2.680   0.374
 6908SOL     OW21622   2.650   5.103   0.394
 6908SOL    HW121623   2.552   5.085   0.387
 6908SOL    HW221624   2.665   5.195   0.431
 6909SOL     OW21625   6.417   5.306   2.007
 6909SOL    HW121626   6.374   5.347   1.927
 6909SOL    HW221627   6.351   5.304   2.083
 6910SOL     OW21628   1.137   2.681   2.613
 6910SOL    HW121629   1.189   2.620   2.672
 6910SOL    HW221630   1.115   2.766   2.662
 6911SOL     OW21631   1.696   6.551   5.420
 6911SOL    HW121632   1.719   6.454   5.407
 6911SOL    HW221633   1.628   6.560   5.493
 6912SOL     OW21634   2.720   3.848   6.620
 6912SOL    HW121635   2.669   3.871   6.538
 6912SOL    HW221636   2.708   3.920   6.688
 6913SOL     OW21637   5.107   6.074   5.888
 6913SOL    HW121638   5.014   6.067   5.925
 6913SOL    HW221639   5.102   6.093   5.790
 6914SOL     OW21640   6.026   2.774   2.563
 6914SOL    HW121641   6.092   2.708   2.526
 6914SOL    HW221642   6.072   2.837   2.625
 6915SOL     OW21643   6.430   3.407   3.339
 6915SOL    HW121644   6.502   3.476   3.342
 6915SOL    HW221645   6.444   3.341   3.414
 6916SOL     OW21646   5.015   6.179   6.738
 6916SOL    HW121647   4.966   6.256   6.780
 6916SOL    HW221648   5.050   6.118   6.810
 6917SOL     OW21649   4.739   6.305   1.738
 6917SOL    HW121650   4.676   6.381   1.724
 6917SOL    HW221651   4.780   6.312   1.829
 6918SOL     OW21652   1.956   3.203   1.000
 6918SOL    HW121653   1.960   3.269   1.076
 6918SOL    HW221654   1.947   3.111   1.037
 6919SOL     OW21655   5.473   5.533   3.605
 6919SOL    HW121656   5.454   5.631   3.604
 6919SOL    HW221657   5.572   5.519   3.600
 6920SOL     OW21658   6.157   1.163   6.134
 6920SOL    HW121659   6.174   1.098   6.060
 6920SOL    HW221660   6.165   1.116   6.222
 6921SOL     OW21661   4.196   0.141   4.386
 6921SOL    HW121662   4.144   0.214   4.341
 6921SOL    HW221663   4.259   0.100   4.321
 6922SOL     OW21664   1.817   4.264   6.053
 6922SOL    HW121665   1.814   4.188   6.118
 6922SOL    HW221666   1.725   4.281   6.017
 6923SOL     OW21667   5.846   6.924   2.550
 6923SOL    HW121668   5.832   6.967   2.461
 6923SOL    HW221669   5.830   6.991   2.622
 6924SOL     OW21670   3.149   5.887   1.689
 6924SOL    HW121671   3.053   5.910   1.678
 6924SOL    HW221672   3.200   5.915   1.608
 6925SOL     OW21673   5.670   6.619   5.543
 6925SOL    HW121674   5.627   6.629   5.633
 6925SOL    HW221675   5.614   6.560   5.486
 6926SOL     OW21676   3.149   2.442   0.670
 6926SOL    HW121677   3.206   2.509   0.623
 6926SOL    HW221678   3.173   2.350   0.640
 6927SOL     OW21679   5.020   0.848   0.563
 6927SOL    HW121680   5.066   0.759   0.560
 6927SOL    HW221681   5.047   0.897   0.645
 6928SOL     OW21682   4.530   5.070   0.666
 6928SOL    HW121683   4.545   4.997   0.733
 6928SOL    HW221684   4.497   5.030   0.581
 6929SOL     OW21685   5.684   5.004   2.061
 6929SOL    HW121686   5.738   4.934   2.014
 6929SOL    HW221687   5.640   4.964   2.141
 6930SOL     OW21688   0.805   6.980   1.425
 6930SOL    HW121689   0.879   6.964   1.490
 6930SOL    HW221690   0.791   0.060   1.414
 6931SOL     OW21691   2.563   3.608   1.163
 6931SOL    HW121692   2.548   3.681   1.229
 6931SOL    HW221693   2.586   3.648   1.074
 6932SOL     OW21694   4.115   6.156   6.684
 6932SOL    HW121695   4.170   6.175   6.766
 6932SOL    HW221696   4.176   6.131   6.609
 6933SOL     OW21697   3.401   5.942   6.255
 6933SOL    HW121698   3.357   6.032   6.251
 6933SOL    HW221699   3.340   5.873   6.214
 6934SOL     OW21700   5.326   4.336   6.699
 6934SOL    HW121701   5.375   4.266   6.647
 6934SOL    HW221702   5.391   4.405   6.731
 6935SOL     OW21703   4.281   6.484   1.950
 6935SOL    HW121704   4.190   6.508   1.984
 6935SOL    HW221705   4.310   6.551   1.882
 6936SOL     OW21706   0.162   1.703   5.337
 6936SOL    HW121707   0.074   1.686   5.382
 6936SOL    HW221708   0.148   1.711   5.238
 6937SOL     OW21709   5.601   5.394   0.195
 6937SOL    HW121710   5.621   5.300   0.222
 6937SOL    HW221711   5.544   5.438   0.264
 6938SOL     OW21712   2.245   0.963   4.898
 6938SOL    HW121713   2.149   0.950   4.922
 6938SOL    HW221714   2.258   0.943   4.800
 6939SOL     OW21715   5.956   3.472   3.449
 6939SOL    HW121716   5.919   3.386   3.416
 6939SOL    HW221717   5.991   3.461   3.542
 6940SOL     OW21718   3.064   6.038   0.756
 6940SOL    HW121719   3.010   6.086   0.825
 6940SOL    HW221720   3.026   6.056   0.665
 6941SOL     OW21721   3.649   3.604   3.229
 6941SOL    HW121722   3.701   3.680   3.268
 6941SOL    HW221723   3.556   3.634   3.210
 6942SOL     OW21724   6.109   5.735   2.360
 6942SOL    HW121725   6.012   5.716   2.346
 6942SOL    HW221726   6.126   5.756   2.456
 6943SOL     OW21727   4.293   4.585   6.355
 6943SOL    HW121728   4.199   4.602   6.326
 6943SOL    HW221729   4.354   4.594   6.275
 6944SOL     OW21730   1.483   4.365   5.271
 6944SOL    HW121731   1.504   4.270   5.251
 6944SOL    HW221732   1.564   4.422   5.253
 6945SOL     OW21733   4.923   1.801   1.101
 6945SOL    HW121734   4.924   1.705   1.129
 6945SOL    HW221735   4.922   1.860   1.182
 6946SOL     OW21736   4.965   5.647   3.123
 6946SOL    HW121737   4.924   5.731   3.088
 6946SOL    HW221738   4.902   5.571   3.110
 6947SOL     OW21739   6.092   4.582   5.520
 6947SOL    HW121740   6.066   4.499   5.471
 6947SOL    HW221741   6.026   4.655   5.500
 6948SOL     OW21742   0.327   4.673   6.806
 6948SOL    HW121743   0.414   4.694   6.849
 6948SOL    HW221744   0.281   4.600   6.856
 6949SOL     OW21745   2.476   2.068   4.046
 6949SOL    HW121746   2.564   2.079   4.000
 6949SOL    HW221747   2.474   1.980   4.094
 6950SOL     OW21748   0.347   0.967   4.400
 6950SOL    HW121749   0.414   0.917   4.455
 6950SOL    HW221750   0.326   1.054   4.444
 6951SOL     OW21751   0.665   4.073   6.729
 6951SOL    HW121752   0.569   4.099   6.739
 6951SOL    HW221753   0.722   4.133   6.785
 6952SOL     OW21754   4.749   5.984   4.080
 6952SOL    HW121755   4.761   5.887   4.104
 6952SOL    HW221756   4.783   6.042   4.154
 6953SOL     OW21757   6.463   2.215   1.017
 6953SOL    HW121758   6.381   2.270   1.034
 6953SOL    HW221759   6.518   2.210   1.101
 6954SOL     OW21760   6.661   4.661   0.206
 6954SOL    HW121761   6.731   4.660   0.278
 6954SOL    HW221762   6.570   4.667   0.249
 6955SOL     OW21763   4.483   6.163   3.130
 6955SOL    HW121764   4.559   6.214   3.091
 6955SOL    HW221765   4.398   6.211   3.112
 6956SOL     OW21766   5.994   5.406   2.380
 6956SOL    HW121767   5.968   5.319   2.423
 6956SOL    HW221768   6.052   5.458   2.443
 6957SOL     OW21769   6.334   5.644   5.717
 6957SOL    HW121770   6.346   5.662   5.815
 6957SOL    HW221771   6.297   5.725   5.672
 6958SOL     OW21772   2.977   3.751   3.451
 6958SOL    HW121773   3.047   3.822   3.460
 6958SOL    HW221774   2.936   3.755   3.360
 6959SOL     OW21775   1.655   4.162   2.683
 6959SOL    HW121776   1.599   4.141   2.603
 6959SOL    HW221777   1.595   4.185   2.760
 6960SOL     OW21778   3.791   4.235   0.758
 6960SOL    HW121779   3.852   4.208   0.684
 6960SOL    HW221780   3.840   4.294   0.822
 6961SOL     OW21781   4.421   2.197   5.009
 6961SOL    HW121782   4.326   2.183   4.981
 6961SOL    HW221783   4.431   2.288   5.048
 6962SOL     OW21784   2.304   6.966   6.271
 6962SOL    HW121785   2.226   0.010   6.266
 6962SOL    HW221786   2.367   6.998   6.342
 6963SOL     OW21787   6.228   5.757   0.852
 6963SOL    HW121788   6.275   5.741   0.766
 6963SOL    HW221789   6.285   5.726   0.928
 6964SOL     OW21790   1.727   1.394   5.422
 6964SOL    HW121791   1.792   1.452   5.372
 6964SOL    HW221792   1.641   1.444   5.435
 6965SOL     OW21793   0.910   1.895   0.331
 6965SOL    HW121794   0.851   1.816   0.351
 6965SOL    HW221795   0.863   1.979   0.357
 6966SOL     OW21796   1.503   6.404   1.175
 6966SOL    HW121797   1.510   6.447   1.265
 6966SOL    HW221798   1.585   6.349   1.158
 6967SOL     OW21799   4.476   1.204   6.417
 6967SOL    HW121800   4.550   1.202   6.485
 6967SOL    HW221801   4.419   1.285   6.433
 6968SOL     OW21802   4.041   6.402   3.022
 6968SOL    HW121803   4.120   6.459   2.999
 6968SOL    HW221804   4.004   6.362   2.938
 6969SOL     OW21805   2.010   1.682   2.390
 6969SOL    HW121806   2.068   1.699   2.310
 6969SOL    HW221807   1.928   1.739   2.385
 6970SOL     OW21808   3.915   5.538   5.160
 6970SOL    HW121809   3.865   5.557   5.076
 6970SOL    HW221810   3.907   5.616   5.222
 6971SOL     OW21811   6.811   3.856   0.486
 6971SOL    HW121812   6.862   3.898   0.562
 6971SOL    HW221813   6.875   3.823   0.417
 6972SOL     OW21814   5.446   4.139   1.391
 6972SOL    HW121815   5.373   4.094   1.443
 6972SOL    HW221816   5.420   4.141   1.294
 6973SOL     OW21817   1.981   2.409   2.703
 6973SOL    HW121818   1.888   2.389   2.670
 6973SOL    HW221819   1.987   2.385   2.800
 6974SOL     OW21820   3.873   3.436   2.942
 6974SOL    HW121821   3.800   3.504   2.935
 6974SOL    HW221822   3.861   3.366   2.872
 6975SOL     OW21823   2.863   5.403   4.133
 6975SOL    HW121824   2.808   5.485   4.149
 6975SOL    HW221825   2.954   5.416   4.173
 6976SOL     OW21826   4.557   4.314   6.413
 6976SOL    HW121827   4.625   4.251   6.452
 6976SOL    HW221828   4.548   4.297   6.315
 6977SOL     OW21829   4.580   5.267   2.059
 6977SOL    HW121830   4.547   5.342   2.001
 6977SOL    HW221831   4.515   5.191   2.055
 6978SOL     OW21832   6.782   4.022   1.540
 6978SOL    HW121833   6.775   4.027   1.640
 6978SOL    HW221834   6.791   3.927   1.512
 6979SOL     OW21835   1.586   3.196   1.936
 6979SOL    HW121836   1.670   3.149   1.909
 6979SOL    HW221837   1.605   3.291   1.956
 6980SOL     OW21838   1.806   5.655   2.270
 6980SOL    HW121839   1.901   5.685   2.269
 6980SOL    HW221840   1.803   5.556   2.279
 6981SOL     OW21841   4.300   2.503   6.537
 6981SOL    HW121842   4.362   2.577   6.512
 6981SOL    HW221843   4.209   2.523   6.501
 6982SOL     OW21844   1.794   0.720   2.583
 6982SOL    HW121845   1.730   0.691   2.655
 6982SOL    HW221846   1.782   0.817   2.565
 6983SOL     OW21847   5.813   0.833   4.242
 6983SOL    HW121848   5.777   0.867   4.155
 6983SOL    HW221849   5.885   0.766   4.224
 6984SOL     OW21850   1.223   2.938   2.897
 6984SOL    HW121851   1.146   2.875   2.909
 6984SOL    HW221852   1.201   3.004   2.825
 6985SOL     OW21853   5.684   3.441   6.701
 6985SOL    HW121854   5.641   3.531   6.704
 6985SOL    HW221855   5.710   3.420   6.607
 6986SOL     OW21856   4.703   4.561   5.578
 6986SOL    HW121857   4.753   4.647   5.589
 6986SOL    HW221858   4.659   4.537   5.665
 6987SOL     OW21859   0.459   1.082   6.676
 6987SOL    HW121860   0.513   1.157   6.637
 6987SOL    HW221861   0.520   1.009   6.706
 6988SOL     OW21862   3.010   1.734   6.756
 6988SOL    HW121863   3.012   1.794   6.676
 6988SOL    HW221864   3.050   1.646   6.732
 6989SOL     OW21865   0.573   4.870   2.737
 6989SOL    HW121866   0.635   4.938   2.698
 6989SOL    HW221867   0.619   4.781   2.742
 6990SOL     OW21868   3.867   3.256   0.603
 6990SOL    HW121869   3.830   3.223   0.516
 6990SOL    HW221870   3.953   3.306   0.587
 6991SOL     OW21871   6.631   3.150   2.761
 6991SOL    HW121872   6.657   3.110   2.673
 6991SOL    HW221873   6.595   3.242   2.746
 6992SOL     OW21874   1.110   5.832   0.311
 6992SOL    HW121875   1.017   5.796   0.308
 6992SOL    HW221876   1.175   5.759   0.290
 6993SOL     OW21877   4.626   1.770   1.521
 6993SOL    HW121878   4.546   1.762   1.580
 6993SOL    HW221879   4.709   1.750   1.573
 6994SOL     OW21880   2.680   0.846   3.916
 6994SOL    HW121881   2.750   0.882   3.854
 6994SOL    HW221882   2.721   0.824   4.004
 6995SOL     OW21883   0.251   4.179   1.046
 6995SOL    HW121884   0.236   4.177   1.144
 6995SOL    HW221885   0.249   4.085   1.010
 6996SOL     OW21886   1.112   1.419   6.671
 6996SOL    HW121887   1.094   1.421   6.572
 6996SOL    HW221888   1.045   1.476   6.718
 6997SOL     OW21889   5.852   5.596   6.015
 6997SOL    HW121890   5.931   5.568   5.960
 6997SOL    HW221891   5.865   5.568   6.109
 6998SOL     OW21892   6.787   1.204   0.166
 6998SOL    HW121893   6.823   1.237   0.078
 6998SOL    HW221894   6.727   1.274   0.205
 6999SOL     OW21895   0.217   2.944   6.838
 6999SOL    HW121896   0.150   3.012   6.811
 6999SOL    HW221897   0.172   2.870   6.887
 7000SOL     OW21898   6.946   5.444   3.331
 7000SOL    HW121899   6.960   5.532   3.286
 7000SOL    HW221900   6.989   5.372   3.277
 7001SOL     OW21901   6.948   2.310   3.900
 7001SOL    HW121902   6.891   2.373   3.847
 7001SOL    HW221903   0.022   2.347   3.907
 7002SOL     OW21904   0.880   5.582   2.490
 7002SOL    HW121905   0.977   5.602   2.485
 7002SOL    HW221906   0.856   5.515   2.419
 7003SOL     OW21907   6.997   3.918   0.661
 7003SOL    HW121908   6.934   3.938   0.736
 7003SOL    HW221909   0.060   3.873   0.698
 7004SOL     OW21910   1.855   6.621   0.559
 7004SOL    HW121911   1.788   6.683   0.601
 7004SOL    HW221912   1.848   6.531   0.602
 7005SOL     OW21913   1.251   5.511   0.947
 7005SOL    HW121914   1.311   5.457   0.888
 7005SOL    HW221915   1.265   5.609   0.929
 7006SOL     OW21916   1.156   0.175   3.918
 7006SOL    HW121917   1.057   0.188   3.913
 7006SOL    HW221918   1.180   0.134   4.005
 7007SOL     OW21919   2.624   0.790   5.992
 7007SOL    HW121920   2.567   0.872   6.004
 7007SOL    HW221921   2.599   0.721   6.060
 7008SOL     OW21922   5.464   3.608   2.938
 7008SOL    HW121923   5.459   3.591   2.839
 7008SOL    HW221924   5.384   3.568   2.982
 7009SOL     OW21925   4.717   5.690   2.542
 7009SOL    HW121926   4.742   5.779   2.506
 7009SOL    HW221927   4.718   5.622   2.468
 7010SOL     OW21928   5.245   3.643   1.894
 7010SOL    HW121929   5.180   3.646   1.970
 7010SOL    HW221930   5.318   3.709   1.910
 7011SOL     OW21931   3.298   6.772   6.572
 7011SOL    HW121932   3.349   6.836   6.516
 7011SOL    HW221933   3.323   6.678   6.547
 7012SOL     OW21934   6.700   2.938   0.408
 7012SOL    HW121935   6.626   2.914   0.346
 7012SOL    HW221936   6.709   3.037   0.413
 7013SOL     OW21937   3.182   2.618   0.129
 7013SOL    HW121938   3.179   2.707   0.174
 7013SOL    HW221939   3.092   2.574   0.137
 7014SOL     OW21940   5.757   3.174   0.447
 7014SOL    HW121941   5.814   3.194   0.368
 7014SOL    HW221942   5.710   3.087   0.432
 7015SOL     OW21943   5.824   6.790   1.254
 7015SOL    HW121944   5.782   6.805   1.165
 7015SOL    HW221945   5.757   6.810   1.326
 7016SOL     OW21946   3.318   4.905   0.847
 7016SOL    HW121947   3.224   4.872   0.847
 7016SOL    HW221948   3.381   4.828   0.850
 7017SOL     OW21949   6.055   4.917   5.574
 7017SOL    HW121950   6.039   4.855   5.497
 7017SOL    HW221951   6.010   4.880   5.655
 7018SOL     OW21952   5.147   3.785   4.591
 7018SOL    HW121953   5.148   3.875   4.550
 7018SOL    HW221954   5.225   3.775   4.653
 7019SOL     OW21955   4.081   5.854   2.292
 7019SOL    HW121956   4.134   5.902   2.223
 7019SOL    HW221957   4.003   5.910   2.319
 7020SOL     OW21958   0.462   2.677   6.138
 7020SOL    HW121959   0.476   2.763   6.185
 7020SOL    HW221960   0.433   2.694   6.044
 7021SOL     OW21961   0.731   1.819   4.825
 7021SOL    HW121962   0.798   1.849   4.892
 7021SOL    HW221963   0.742   1.721   4.809
 7022SOL     OW21964   3.102   2.309   1.041
 7022SOL    HW121965   3.144   2.219   1.030
 7022SOL    HW221966   3.122   2.343   1.133
 7023SOL     OW21967   0.401   1.879   0.286
 7023SOL    HW121968   0.407   1.935   0.369
 7023SOL    HW221969   0.467   1.913   0.219
 7024SOL     OW21970   3.832   3.800   4.636
 7024SOL    HW121971   3.886   3.777   4.555
 7024SOL    HW221972   3.805   3.716   4.683
 7025SOL     OW21973   2.927   0.270   0.959
 7025SOL    HW121974   2.839   0.239   0.995
 7025SOL    HW221975   2.984   0.192   0.934
 7026SOL     OW21976   3.472   3.036   1.009
 7026SOL    HW121977   3.497   2.973   1.083
 7026SOL    HW221978   3.542   3.107   1.001
 7027SOL     OW21979   2.527   5.012   2.672
 7027SOL    HW121980   2.624   4.999   2.695
 7027SOL    HW221981   2.491   5.091   2.722
 7028SOL     OW21982   2.949   7.009   3.485
 7028SOL    HW121983   2.903   0.046   3.554
 7028SOL    HW221984   2.947   0.038   3.397
 7029SOL     OW21985   3.315   3.832   3.835
 7029SOL    HW121986   3.262   3.917   3.829
 7029SOL    HW221987   3.399   3.849   3.886
 7030SOL     OW21988   6.526   0.869   4.482
 7030SOL    HW121989   6.576   0.891   4.566
 7030SOL    HW221990   6.591   0.841   4.411
 7031SOL     OW21991   4.708   6.759   0.572
 7031SOL    HW121992   4.805   6.762   0.549
 7031SOL    HW221993   4.680   6.848   0.609
 7032SOL     OW21994   4.898   5.376   4.355
 7032SOL    HW121995   4.913   5.345   4.449
 7032SOL    HW221996   4.861   5.301   4.301
 7033SOL     OW21997   1.790   1.906   4.787
 7033SOL    HW121998   1.843   1.882   4.706
 7033SOL    HW221999   1.838   1.877   4.870
 7034SOL     OW22000   6.396   0.887   3.618
 7034SOL    HW122001   6.400   0.893   3.519
 7034SOL    HW222002   6.453   0.811   3.649
 7035SOL     OW22003   1.636   0.224   0.645
 7035SOL    HW122004   1.711   0.158   0.645
 7035SOL    HW222005   1.674   0.317   0.650
 7036SOL     OW22006   6.434   1.445   2.658
 7036SOL    HW122007   6.450   1.370   2.721
 7036SOL    HW222008   6.516   1.458   2.601
 7037SOL     OW22009   1.396   0.279   5.718
 7037SOL    HW122010   1.348   0.212   5.774
 7037SOL    HW222011   1.485   0.242   5.690
 7038SOL     OW22012   0.924   3.974   0.010
 7038SOL    HW122013   0.976   3.939   6.951
 7038SOL    HW222014   0.897   3.897   0.069
 7039SOL     OW22015   0.471   6.563   2.405
 7039SOL    HW122016   0.510   6.501   2.336
 7039SOL    HW222017   0.388   6.522   2.443
 7040SOL     OW22018   5.352   3.162   5.034
 7040SOL    HW122019   5.290   3.104   5.088
 7040SOL    HW222020   5.334   3.147   4.937
 7041SOL     OW22021   1.585   6.630   4.256
 7041SOL    HW122022   1.656   6.696   4.231
 7041SOL    HW222023   1.516   6.625   4.184
 7042SOL     OW22024   5.358   6.144   5.312
 7042SOL    HW122025   5.372   6.181   5.404
 7042SOL    HW222026   5.443   6.102   5.280
 7043SOL     OW22027   2.313   5.102   1.333
 7043SOL    HW122028   2.373   5.029   1.366
 7043SOL    HW222029   2.364   5.188   1.327
 7044SOL     OW22030   5.585   6.939   5.004
 7044SOL    HW122031   5.524   6.866   4.973
 7044SOL    HW222032   5.538   0.008   4.997
 7045SOL     OW22033   6.507   6.007   2.196
 7045SOL    HW122034   6.446   6.058   2.257
 7045SOL    HW222035   6.556   5.937   2.248
 7046SOL     OW22036   2.244   1.459   4.159
 7046SOL    HW122037   2.282   1.502   4.242
 7046SOL    HW222038   2.277   1.365   4.152
 7047SOL     OW22039   1.255   6.332   0.647
 7047SOL    HW122040   1.298   6.256   0.597
 7047SOL    HW222041   1.307   6.416   0.632
 7048SOL     OW22042   0.320   6.378   4.426
 7048SOL    HW122043   0.273   6.305   4.475
 7048SOL    HW222044   0.257   6.417   4.358
 7049SOL     OW22045   3.665   1.178   3.578
 7049SOL    HW122046   3.706   1.095   3.539
 7049SOL    HW222047   3.593   1.212   3.518
 7050SOL     OW22048   3.859   3.903   1.012
 7050SOL    HW122049   3.904   3.964   0.946
 7050SOL    HW222050   3.929   3.852   1.063
 7051SOL     OW22051   0.997   1.202   1.975
 7051SOL    HW122052   0.902   1.168   1.974
 7051SOL    HW222053   1.043   1.169   2.058
 7052SOL     OW22054   4.164   0.763   3.004
 7052SOL    HW122055   4.242   0.750   3.065
 7052SOL    HW222056   4.195   0.806   2.919
 7053SOL     OW22057   1.847   3.439   3.237
 7053SOL    HW122058   1.890   3.374   3.300
 7053SOL    HW222059   1.828   3.525   3.286
 7054SOL     OW22060   6.164   0.895   0.270
 7054SOL    HW122061   6.252   0.924   0.232
 7054SOL    HW222062   6.144   0.949   0.352
 7055SOL     OW22063   2.372   1.133   0.255
 7055SOL    HW122064   2.274   1.128   0.238
 7055SOL    HW222065   2.419   1.065   0.199
 7056SOL     OW22066   0.048   5.491   1.253
 7056SOL    HW122067   0.143   5.520   1.241
 7056SOL    HW222068   0.001   5.494   1.165
 7057SOL     OW22069   2.528   5.598   4.814
 7057SOL    HW122070   2.624   5.589   4.842
 7057SOL    HW222071   2.497   5.512   4.775
 7058SOL     OW22072   5.575   2.703   6.135
 7058SOL    HW122073   5.525   2.748   6.209
 7058SOL    HW222074   5.671   2.691   6.163
 7059SOL     OW22075   2.212   0.006   5.155
 7059SOL    HW122076   2.219   7.015   5.254
 7059SOL    HW222077   2.203   0.103   5.131
 7060SOL     OW22078   3.208   1.523   1.302
 7060SOL    HW122079   3.198   1.440   1.246
 7060SOL    HW222080   3.303   1.552   1.302
 7061SOL     OW22081   1.039   1.639   1.777
 7061SOL    HW122082   1.090   1.672   1.857
 7061SOL    HW222083   1.030   1.540   1.782
 7062SOL     OW22084   3.372   0.140   3.979
 7062SOL    HW122085   3.472   0.144   3.970
 7062SOL    HW222086   3.341   0.047   3.960
 7063SOL     OW22087   0.420   0.828   1.256
 7063SOL    HW122088   0.495   0.891   1.278
 7063SOL    HW222089   0.410   0.821   1.157
 7064SOL     OW22090   3.765   1.552   5.082
 7064SOL    HW122091   3.686   1.593   5.036
 7064SOL    HW222092   3.768   1.454   5.059
 7065SOL     OW22093   4.116   5.589   5.403
 7065SOL    HW122094   4.163   5.676   5.413
 7065SOL    HW222095   4.042   5.599   5.336
 7066SOL     OW22096   3.646   0.344   0.523
 7066SOL    HW122097   3.684   0.308   0.607
 7066SOL    HW222098   3.719   0.360   0.456
 7067SOL     OW22099   1.395   3.422   6.331
 7067SOL    HW122100   1.473   3.436   6.392
 7067SOL    HW222101   1.360   3.329   6.342
 7068SOL     OW22102   5.173   4.014   4.413
 7068SOL    HW122103   5.176   4.087   4.482
 7068SOL    HW222104   5.254   4.019   4.355
 7069SOL     OW22105   5.310   0.696   6.304
 7069SOL    HW122106   5.227   0.640   6.295
 7069SOL    HW222107   5.287   0.792   6.290
 7070SOL     OW22108   0.180   0.576   5.526
 7070SOL    HW122109   0.120   0.530   5.461
 7070SOL    HW222110   0.234   0.509   5.575
 7071SOL     OW22111   4.917   5.450   6.866
 7071SOL    HW122112   4.932   5.516   6.938
 7071SOL    HW222113   4.942   5.490   6.777
 7072SOL     OW22114   0.779   3.792   6.105
 7072SOL    HW122115   0.774   3.891   6.118
 7072SOL    HW222116   0.821   3.750   6.186
 7073SOL     OW22117   4.611   1.580   3.824
 7073SOL    HW122118   4.698   1.580   3.874
 7073SOL    HW222119   4.628   1.560   3.727
 7074SOL     OW22120   5.231   4.294   3.121
 7074SOL    HW122121   5.168   4.217   3.111
 7074SOL    HW222122   5.270   4.294   3.213
 7075SOL     OW22123   2.728   5.023   3.119
 7075SOL    HW122124   2.631   5.000   3.131
 7075SOL    HW222125   2.743   5.054   3.025
 7076SOL     OW22126   5.759   2.550   1.455
 7076SOL    HW122127   5.677   2.603   1.474
 7076SOL    HW222128   5.801   2.582   1.370
 7077SOL     OW22129   3.777   5.266   2.112
 7077SOL    HW122130   3.773   5.324   2.030
 7077SOL    HW222131   3.688   5.222   2.126
 7078SOL     OW22132   6.348   0.331   6.946
 7078SOL    HW122133   6.446   0.347   6.937
 7078SOL    HW222134   6.320   0.258   6.884
 7079SOL     OW22135   1.486   6.266   4.736
 7079SOL    HW122136   1.449   6.221   4.655
 7079SOL    HW222137   1.476   6.206   4.815
 7080SOL     OW22138   4.164   1.992   5.711
 7080SOL    HW122139   4.192   1.958   5.621
 7080SOL    HW222140   4.065   2.005   5.713
 7081SOL     OW22141   2.056   0.228   0.174
 7081SOL    HW122142   2.153   0.249   0.182
 7081SOL    HW222143   2.043   0.130   0.165
 7082SOL     OW22144   0.654   3.902   3.045
 7082SOL    HW122145   0.569   3.849   3.039
 7082SOL    HW222146   0.722   3.850   3.097
 7083SOL     OW22147   5.508   2.191   2.758
 7083SOL    HW122148   5.497   2.142   2.844
 7083SOL    HW222149   5.442   2.156   2.691
 7084SOL     OW22150   1.143   5.415   0.117
 7084SOL    HW122151   1.058   5.438   0.164
 7084SOL    HW222152   1.172   5.323   0.142
 7085SOL     OW22153   0.811   3.963   2.093
 7085SOL    HW122154   0.854   4.053   2.092
 7085SOL    HW222155   0.761   3.951   2.179
 7086SOL     OW22156   5.256   1.098   3.756
 7086SOL    HW122157   5.185   1.168   3.761
 7086SOL    HW222158   5.254   1.056   3.665
 7087SOL     OW22159   4.891   3.298   3.032
 7087SOL    HW122160   4.868   3.248   2.948
 7087SOL    HW222161   4.858   3.392   3.025
 7088SOL     OW22162   5.982   1.936   5.212
 7088SOL    HW122163   5.964   1.967   5.306
 7088SOL    HW222164   6.080   1.942   5.193
 7089SOL     OW22165   2.673   5.646   1.520
 7089SOL    HW122166   2.677   5.685   1.612
 7089SOL    HW222167   2.765   5.617   1.493
 7090SOL     OW22168   4.393   2.874   1.421
 7090SOL    HW122169   4.397   2.793   1.362
 7090SOL    HW222170   4.455   2.861   1.499
 7091SOL     OW22171   0.379   6.636   0.726
 7091SOL    HW122172   0.400   6.733   0.713
 7091SOL    HW222173   0.464   6.586   0.738
 7092SOL     OW22174   4.569   0.516   6.069
 7092SOL    HW122175   4.606   0.438   6.019
 7092SOL    HW222176   4.557   0.493   6.165
 7093SOL     OW22177   3.474   3.334   0.779
 7093SOL    HW122178   3.565   3.373   0.791
 7093SOL    HW222179   3.431   3.319   0.868
 7094SOL     OW22180   3.683   0.210   6.109
 7094SOL    HW122181   3.715   0.190   6.201
 7094SOL    HW222182   3.590   0.174   6.097
 7095SOL     OW22183   2.168   4.970   4.486
 7095SOL    HW122184   2.267   4.967   4.470
 7095SOL    HW222185   2.149   5.020   4.570
 7096SOL     OW22186   6.815   0.373   1.394
 7096SOL    HW122187   6.768   0.409   1.474
 7096SOL    HW222188   6.751   0.364   1.318
 7097SOL     OW22189   4.903   1.515   2.190
 7097SOL    HW122190   4.988   1.486   2.146
 7097SOL    HW222191   4.893   1.467   2.277
 7098SOL     OW22192   0.998   0.310   3.463
 7098SOL    HW122193   1.077   0.334   3.521
 7098SOL    HW222194   0.923   0.373   3.482
 7099SOL     OW22195   2.807   2.034   4.434
 7099SOL    HW122196   2.849   2.043   4.344
 7099SOL    HW222197   2.777   2.123   4.466
 7100SOL     OW22198   6.661   4.144   1.856
 7100SOL    HW122199   6.638   4.164   1.952
 7100SOL    HW222200   6.727   4.069   1.853
 7101SOL     OW22201   2.140   5.936   5.227
 7101SOL    HW122202   2.230   5.976   5.243
 7101SOL    HW222203   2.116   5.877   5.305
 7102SOL     OW22204   5.700   1.306   2.131
 7102SOL    HW122205   5.780   1.288   2.074
 7102SOL    HW222206   5.725   1.374   2.201
 7103SOL     OW22207   4.938   3.580   3.275
 7103SOL    HW122208   4.972   3.548   3.186
 7103SOL    HW222209   4.982   3.527   3.348
 7104SOL     OW22210   4.775   2.831   4.003
 7104SOL    HW122211   4.748   2.859   4.095
 7104SOL    HW222212   4.706   2.768   3.966
 7105SOL     OW22213   3.326   4.152   3.498
 7105SOL    HW122214   3.424   4.149   3.513
 7105SOL    HW222215   3.286   4.228   3.550
 7106SOL     OW22216   3.274   1.907   1.651
 7106SOL    HW122217   3.253   1.812   1.628
 7106SOL    HW222218   3.304   1.912   1.747
 7107SOL     OW22219   3.965   0.601   6.360
 7107SOL    HW122220   3.986   0.504   6.351
 7107SOL    HW222221   4.049   0.653   6.374
 7108SOL     OW22222   4.668   0.354   1.928
 7108SOL    HW122223   4.593   0.394   1.979
 7108SOL    HW222224   4.658   0.255   1.925
 7109SOL     OW22225   2.556   5.355   6.916
 7109SOL    HW122226   2.488   5.296   6.873
 7109SOL    HW222227   2.641   5.352   6.863
 7110SOL     OW22228   3.414   0.120   4.321
 7110SOL    HW122229   3.328   0.154   4.283
 7110SOL    HW222230   3.404   0.024   4.346
 7111SOL     OW22231   6.997   0.863   5.125
 7111SOL    HW122232   0.071   0.846   5.161
 7111SOL    HW222233   7.003   0.878   5.026
 7112SOL     OW22234   0.768   4.899   5.012
 7112SOL    HW122235   0.833   4.881   4.938
 7112SOL    HW222236   0.690   4.838   5.003
 7113SOL     OW22237   3.477   6.424   4.887
 7113SOL    HW122238   3.487   6.325   4.895
 7113SOL    HW222239   3.531   6.468   4.959
 7114SOL     OW22240   5.848   4.168   1.039
 7114SOL    HW122241   5.906   4.249   1.051
 7114SOL    HW222242   5.900   4.097   0.991
 7115SOL     OW22243   6.035   3.654   6.235
 7115SOL    HW122244   6.078   3.743   6.218
 7115SOL    HW222245   6.095   3.582   6.202
 7116SOL     OW22246   6.346   3.541   4.612
 7116SOL    HW122247   6.280   3.469   4.590
 7116SOL    HW222248   6.308   3.630   4.587
 7117SOL     OW22249   5.412   0.144   3.268
 7117SOL    HW122250   5.442   0.124   3.175
 7117SOL    HW222251   5.321   0.187   3.265
 7118SOL     OW22252   3.688   4.478   5.863
 7118SOL    HW122253   3.715   4.508   5.955
 7118SOL    HW222254   3.637   4.392   5.870
 7119SOL     OW22255   3.693   6.746   5.057
 7119SOL    HW122256   3.619   6.793   5.009
 7119SOL    HW222257   3.774   6.806   5.060
 7120SOL     OW22258   4.580   0.923   0.960
 7120SOL    HW122259   4.492   0.883   0.987
 7120SOL    HW222260   4.641   0.850   0.928
 7121SOL     OW22261   1.465   5.975   2.123
 7121SOL    HW122262   1.502   6.043   2.186
 7121SOL    HW222263   1.378   6.007   2.087
 7122SOL     OW22264   3.396   1.996   0.007
 7122SOL    HW122265   3.306   2.032   0.029
 7122SOL    HW222266   3.466   2.052   0.052
 7123SOL     OW22267   5.610   5.133   6.039
 7123SOL    HW122268   5.575   5.216   6.081
 7123SOL    HW222269   5.611   5.059   6.106
 7124SOL     OW22270   1.511   2.413   1.331
 7124SOL    HW122271   1.581   2.406   1.402
 7124SOL    HW222272   1.434   2.353   1.354
 7125SOL     OW22273   0.672   6.320   2.510
 7125SOL    HW122274   0.575   6.319   2.534
 7125SOL    HW222275   0.698   6.413   2.485
 7126SOL     OW22276   3.511   5.331   0.899
 7126SOL    HW122277   3.420   5.306   0.865
 7126SOL    HW222278   3.514   5.430   0.914
 7127SOL     OW22279   2.514   6.183   6.000
 7127SOL    HW122280   2.499   6.234   6.085
 7127SOL    HW222281   2.587   6.226   5.947
 7128SOL     OW22282   3.732   4.161   6.995
 7128SOL    HW122283   3.804   4.169   6.926
 7128SOL    HW222284   3.712   4.251   0.015
 7129SOL     OW22285   0.550   0.005   0.424
 7129SOL    HW122286   0.511   0.060   0.350
 7129SOL    HW222287   0.514   6.930   0.418
 7130SOL     OW22288   3.540   6.262   3.702
 7130SOL    HW122289   3.500   6.175   3.729
 7130SOL    HW222290   3.471   6.335   3.712
 7131SOL     OW22291   2.125   1.381   1.914
 7131SOL    HW122292   2.035   1.408   1.879
 7131SOL    HW222293   2.118   1.362   2.012
 7132SOL     OW22294   4.928   4.412   0.551
 7132SOL    HW122295   4.890   4.443   0.464
 7132SOL    HW222296   4.893   4.320   0.572
 7133SOL     OW22297   4.860   5.887   3.030
 7133SOL    HW122298   4.801   5.833   2.970
 7133SOL    HW222299   4.804   5.934   3.099
 7134SOL     OW22300   4.951   5.322   0.255
 7134SOL    HW122301   5.042   5.361   0.272
 7134SOL    HW222302   4.919   5.277   0.339
 7135SOL     OW22303   1.378   3.245   1.223
 7135SOL    HW122304   1.342   3.333   1.191
 7135SOL    HW222305   1.477   3.242   1.209
 7136SOL     OW22306   1.023   2.298   2.170
 7136SOL    HW122307   1.028   2.352   2.087
 7136SOL    HW222308   1.105   2.314   2.226
 7137SOL     OW22309   2.624   1.332   1.086
 7137SOL    HW122310   2.659   1.304   1.175
 7137SOL    HW222311   2.559   1.407   1.098
 7138SOL     OW22312   0.665   2.543   0.356
 7138SOL    HW122313   0.698   2.450   0.370
 7138SOL    HW222314   0.739   2.599   0.317
 7139SOL     OW22315   5.728   6.324   0.904
 7139SOL    HW122316   5.797   6.337   0.833
 7139SOL    HW222317   5.753   6.245   0.961
 7140SOL     OW22318   6.580   4.350   0.146
 7140SOL    HW122319   6.515   4.365   0.221
 7140SOL    HW222320   6.664   4.310   0.183
 7141SOL     OW22321   2.736   0.479   1.163
 7141SOL    HW122322   2.836   0.490   1.160
 7141SOL    HW222323   2.712   0.384   1.145
 7142SOL     OW22324   3.996   0.151   4.886
 7142SOL    HW122325   4.046   0.121   4.967
 7142SOL    HW222326   4.061   0.174   4.813
 7143SOL     OW22327   2.813   3.388   6.868
 7143SOL    HW122328   2.740   3.366   6.933
 7143SOL    HW222329   2.791   3.472   6.819
 7144SOL     OW22330   6.684   1.136   6.112
 7144SOL    HW122331   6.602   1.178   6.151
 7144SOL    HW222332   6.668   1.114   6.016
 7145SOL     OW22333   5.403   1.629   6.494
 7145SOL    HW122334   5.481   1.684   6.465
 7145SOL    HW222335   5.342   1.684   6.551
 7146SOL     OW22336   1.212   2.186   5.796
 7146SOL    HW122337   1.253   2.269   5.757
 7146SOL    HW222338   1.261   2.161   5.880
 7147SOL     OW22339   6.286   6.362   1.814
 7147SOL    HW122340   6.263   6.349   1.718
 7147SOL    HW222341   6.280   6.275   1.862
 7148SOL     OW22342   6.342   6.682   1.231
 7148SOL    HW122343   6.253   6.703   1.271
 7148SOL    HW222344   6.393   6.766   1.214
 7149SOL     OW22345   6.023   4.832   5.942
 7149SOL    HW122346   6.068   4.852   6.029
 7149SOL    HW222347   6.037   4.735   5.919
 7150SOL     OW22348   3.281   2.807   6.852
 7150SOL    HW122349   3.198   2.861   6.868
 7150SOL    HW222350   3.275   2.722   6.905
 7151SOL     OW22351   4.919   1.263   0.088
 7151SOL    HW122352   4.998   1.273   0.028
 7151SOL    HW222353   4.909   1.167   0.115
 7152SOL     OW22354   5.569   0.780   6.406
 7152SOL    HW122355   5.475   0.775   6.372
 7152SOL    HW222356   5.606   0.687   6.415
 7153SOL     OW22357   3.195   5.510   0.122
 7153SOL    HW122358   3.162   5.601   0.148
 7153SOL    HW222359   3.258   5.477   0.192
 7154SOL     OW22360   3.993   1.512   2.001
 7154SOL    HW122361   3.903   1.544   2.031
 7154SOL    HW222362   4.061   1.584   2.016
 7155SOL     OW22363   1.310   1.025   2.275
 7155SOL    HW122364   1.378   1.025   2.349
 7155SOL    HW222365   1.290   1.119   2.249
 7156SOL     OW22366   6.426   2.923   5.336
 7156SOL    HW122367   6.472   2.849   5.289
 7156SOL    HW222368   6.352   2.886   5.392
 7157SOL     OW22369   0.372   4.096   6.029
 7157SOL    HW122370   0.459   4.063   5.992
 7157SOL    HW222371   0.302   4.092   5.958
 7158SOL     OW22372   4.834   6.773   3.996
 7158SOL    HW122373   4.898   6.696   3.988
 7158SOL    HW222374   4.852   6.822   4.081
 7159SOL     OW22375   0.229   6.394   3.595
 7159SOL    HW122376   0.292   6.349   3.659
 7159SOL    HW222377   0.259   6.377   3.501
 7160SOL     OW22378   6.314   0.100   3.857
 7160SOL    HW122379   6.296   0.103   3.955
 7160SOL    HW222380   6.231   0.125   3.807
 7161SOL     OW22381   3.785   3.694   2.751
 7161SOL    HW122382   3.692   3.728   2.769
 7161SOL    HW222383   3.780   3.604   2.708
 7162SOL     OW22384   0.381   5.971   1.624
 7162SOL    HW122385   0.316   6.024   1.679
 7162SOL    HW222386   0.417   6.028   1.550
 7163SOL     OW22387   6.893   0.950   0.885
 7163SOL    HW122388   6.801   0.931   0.852
 7163SOL    HW222389   6.953   0.873   0.862
 7164SOL     OW22390   1.756   0.772   6.629
 7164SOL    HW122391   1.674   0.717   6.641
 7164SOL    HW222392   1.733   0.854   6.576
 7165SOL     OW22393   6.111   2.501   0.394
 7165SOL    HW122394   6.189   2.563   0.397
 7165SOL    HW222395   6.028   2.551   0.419
 7166SOL     OW22396   0.004   6.096   5.903
 7166SOL    HW122397   0.079   6.045   5.861
 7166SOL    HW222398   0.040   6.176   5.950
 7167SOL     OW22399   6.527   2.369   5.083
 7167SOL    HW122400   6.612   2.326   5.055
 7167SOL    HW222401   6.463   2.370   5.006
 7168SOL     OW22402   1.862   1.065   2.257
 7168SOL    HW122403   1.785   1.016   2.217
 7168SOL    HW222404   1.923   1.000   2.302
 7169SOL     OW22405   2.065   4.291   5.739
 7169SOL    HW122406   2.138   4.294   5.670
 7169SOL    HW222407   1.979   4.265   5.695
 7170SOL     OW22408   3.484   1.425   1.107
 7170SOL    HW122409   3.477   1.497   1.176
 7170SOL    HW222410   3.496   1.337   1.152
 7171SOL     OW22411   0.334   4.124   0.699
 7171SOL    HW122412   0.314   4.033   0.735
 7171SOL    HW222413   0.365   4.184   0.773
 7172SOL     OW22414   0.772   2.194   3.808
 7172SOL    HW122415   0.784   2.189   3.907
 7172SOL    HW222416   0.682   2.231   3.787
 7173SOL     OW22417   4.934   5.387   5.983
 7173SOL    HW122418   4.853   5.356   5.932
 7173SOL    HW222419   4.932   5.487   5.992
 7174SOL     OW22420   6.583   4.286   2.169
 7174SOL    HW122421   6.497   4.237   2.173
 7174SOL    HW222422   6.579   4.355   2.096
 7175SOL     OW22423   6.741   4.276   5.696
 7175SOL    HW122424   6.706   4.193   5.739
 7175SOL    HW222425   6.813   4.253   5.631
 7176SOL     OW22426   0.018   0.684   6.139
 7176SOL    HW122427   0.106   0.679   6.092
 7176SOL    HW222428   0.009   0.607   6.202
 7177SOL     OW22429   1.191   5.801   3.601
 7177SOL    HW122430   1.212   5.738   3.676
 7177SOL    HW222431   1.268   5.805   3.538
 7178SOL     OW22432   2.017   6.334   4.885
 7178SOL    HW122433   2.077   6.257   4.905
 7178SOL    HW222434   1.928   6.300   4.855
 7179SOL     OW22435   4.050   4.914   6.081
 7179SOL    HW122436   4.118   4.941   6.150
 7179SOL    HW222437   4.097   4.890   5.996
 7180SOL     OW22438   1.987   3.168   1.614
 7180SOL    HW122439   2.001   3.265   1.593
 7180SOL    HW222440   2.012   3.151   1.709
 7181SOL     OW22441   1.844   1.707   6.632
 7181SOL    HW122442   1.893   1.789   6.603
 7181SOL    HW222443   1.837   1.706   6.732
 7182SOL     OW22444   1.803   1.270   3.909
 7182SOL    HW122445   1.739   1.319   3.968
 7182SOL    HW222446   1.891   1.260   3.955
 7183SOL     OW22447   1.543   6.576   2.158
 7183SOL    HW122448   1.564   6.575   2.256
 7183SOL    HW222449   1.626   6.560   2.106
 7184SOL     OW22450   6.316   1.197   3.383
 7184SOL    HW122451   6.290   1.289   3.353
 7184SOL    HW222452   6.408   1.175   3.350
 7185SOL     OW22453   4.448   0.380   4.322
 7185SOL    HW122454   4.349   0.393   4.314
 7185SOL    HW222455   4.495   0.467   4.305
 7186SOL     OW22456   6.323   0.878   6.887
 7186SOL    HW122457   6.305   0.788   6.846
 7186SOL    HW222458   6.353   0.941   6.816
 7187SOL     OW22459   3.419   3.377   4.195
 7187SOL    HW122460   3.369   3.314   4.255
 7187SOL    HW222461   3.487   3.427   4.249
 7188SOL     OW22462   4.639   4.517   6.875
 7188SOL    HW122463   4.641   4.420   6.850
 7188SOL    HW222464   4.699   4.568   6.814
 7189SOL     OW22465   6.134   2.812   5.730
 7189SOL    HW122466   6.091   2.876   5.666
 7189SOL    HW222467   6.064   2.750   5.767
 7190SOL     OW22468   6.447   5.029   0.084
 7190SOL    HW122469   6.423   5.000   7.010
 7190SOL    HW222470   6.538   4.996   0.107
 7191SOL     OW22471   6.838   5.054   3.119
 7191SOL    HW122472   6.752   5.102   3.139
 7191SOL    HW222473   6.822   4.987   3.046
 7192SOL     OW22474   2.284   4.149   5.857
 7192SOL    HW122475   2.205   4.205   5.882
 7192SOL    HW222476   2.349   4.204   5.805
 7193SOL     OW22477   3.338   2.054   3.292
 7193SOL    HW122478   3.363   1.961   3.321
 7193SOL    HW222479   3.420   2.108   3.277
 7194SOL     OW22480   2.769   2.871   6.015
 7194SOL    HW122481   2.820   2.894   5.932
 7194SOL    HW222482   2.833   2.855   6.090
 7195SOL     OW22483   0.600   4.666   4.991
 7195SOL    HW122484   0.542   4.684   4.911
 7195SOL    HW222485   0.663   4.591   4.971
 7196SOL     OW22486   3.531   4.209   1.954
 7196SOL    HW122487   3.588   4.232   2.034
 7196SOL    HW222488   3.439   4.187   1.985
 7197SOL     OW22489   3.453   4.641   6.340
 7197SOL    HW122490   3.520   4.654   6.413
 7197SOL    HW222491   3.477   4.700   6.262
 7198SOL     OW22492   0.736   1.115   1.998
 7198SOL    HW122493   0.649   1.165   2.000
 7198SOL    HW222494   0.718   1.017   1.995
 7199SOL     OW22495   6.055   1.679   2.817
 7199SOL    HW122496   6.044   1.587   2.855
 7199SOL    HW222497   6.104   1.673   2.730
 7200SOL     OW22498   1.068   2.367   0.578
 7200SOL    HW122499   1.083   2.370   0.676
 7200SOL    HW222500   1.108   2.283   0.540
 7201SOL     OW22501   6.160   5.105   4.015
 7201SOL    HW122502   6.198   5.072   4.101
 7201SOL    HW222503   6.190   5.199   3.999
 7202SOL     OW22504   4.722   6.908   5.828
 7202SOL    HW122505   4.655   6.855   5.881
 7202SOL    HW222506   4.684   6.997   5.806
 7203SOL     OW22507   0.120   1.717   1.004
 7203SOL    HW122508   0.119   1.625   1.045
 7203SOL    HW222509   0.137   1.709   0.906
 7204SOL     OW22510   6.566   0.269   2.493
 7204SOL    HW122511   6.547   0.306   2.401
 7204SOL    HW222512   6.536   0.334   2.562
 7205SOL     OW22513   3.026   1.877   3.940
 7205SOL    HW122514   2.987   1.849   4.027
 7205SOL    HW222515   3.024   1.977   3.933
 7206SOL     OW22516   1.728   3.377   6.916
 7206SOL    HW122517   1.680   3.465   6.912
 7206SOL    HW222518   1.826   3.392   6.909
 7207SOL     OW22519   1.900   0.957   3.629
 7207SOL    HW122520   1.840   1.021   3.581
 7207SOL    HW222521   1.908   0.873   3.575
 7208SOL     OW22522   3.308   0.604   4.182
 7208SOL    HW122523   3.367   0.597   4.101
 7208SOL    HW222524   3.359   0.644   4.258
 7209SOL     OW22525   3.596   1.143   2.023
 7209SOL    HW122526   3.522   1.092   2.067
 7209SOL    HW222527   3.564   1.181   1.936
 7210SOL     OW22528   3.015   1.583   3.260
 7210SOL    HW122529   3.014   1.499   3.314
 7210SOL    HW222530   3.051   1.658   3.316
 7211SOL     OW22531   4.585   6.421   5.439
 7211SOL    HW122532   4.626   6.331   5.426
 7211SOL    HW222533   4.617   6.482   5.366
 7212SOL     OW22534   0.337   4.593   5.793
 7212SOL    HW122535   0.421   4.647   5.797
 7212SOL    HW222536   0.324   4.559   5.700
 7213SOL     OW22537   4.218   2.270   6.982
 7213SOL    HW122538   4.138   2.272   0.024
 7213SOL    HW222539   4.301   2.270   0.018
 7214SOL     OW22540   6.233   0.650   6.206
 7214SOL    HW122541   6.135   0.659   6.224
 7214SOL    HW222542   6.264   0.561   6.239
 7215SOL     OW22543   5.807   1.964   3.103
 7215SOL    HW122544   5.853   1.875   3.106
 7215SOL    HW222545   5.848   2.021   3.032
 7216SOL     OW22546   3.871   6.450   3.247
 7216SOL    HW122547   3.902   6.536   3.288
 7216SOL    HW222548   3.946   6.410   3.194
 7217SOL     OW22549   1.010   2.999   2.579
 7217SOL    HW122550   0.968   3.019   2.490
 7217SOL    HW222551   1.104   3.033   2.579
 7218SOL     OW22552   6.418   2.879   4.460
 7218SOL    HW122553   6.461   2.969   4.463
 7218SOL    HW222554   6.325   2.887   4.422
 7219SOL     OW22555   3.397   6.561   2.862
 7219SOL    HW122556   3.416   6.473   2.907
 7219SOL    HW222557   3.299   6.581   2.866
 7220SOL     OW22558   6.558   4.573   4.038
 7220SOL    HW122559   6.647   4.616   4.021
 7220SOL    HW222560   6.485   4.638   4.016
 7221SOL     OW22561   3.853   5.528   3.898
 7221SOL    HW122562   3.860   5.515   3.799
 7221SOL    HW222563   3.768   5.576   3.920
 7222SOL     OW22564   6.317   5.955   4.805
 7222SOL    HW122565   6.348   5.901   4.726
 7222SOL    HW222566   6.223   5.986   4.789
 7223SOL     OW22567   0.284   4.309   1.811
 7223SOL    HW122568   0.288   4.355   1.722
 7223SOL    HW222569   0.374   4.312   1.855
 7224SOL     OW22570   4.246   2.014   2.451
 7224SOL    HW122571   4.231   2.081   2.378
 7224SOL    HW222572   4.340   2.020   2.483
 7225SOL     OW22573   1.405   5.439   0.564
 7225SOL    HW122574   1.500   5.410   0.572
 7225SOL    HW222575   1.401   5.533   0.530
 7226SOL     OW22576   6.525   6.495   0.526
 7226SOL    HW122577   6.533   6.537   0.435
 7226SOL    HW222578   6.537   6.565   0.596
 7227SOL     OW22579   2.092   1.127   2.603
 7227SOL    HW122580   2.057   1.055   2.542
 7227SOL    HW222581   2.146   1.085   2.676
 7228SOL     OW22582   6.942   3.290   2.322
 7228SOL    HW122583   6.859   3.235   2.332
 7228SOL    HW222584   0.000   3.231   2.297
 7229SOL     OW22585   6.427   1.257   5.021
 7229SOL    HW122586   6.502   1.310   5.061
 7229SOL    HW222587   6.361   1.320   4.978
 7230SOL     OW22588   2.398   5.345   4.755
 7230SOL    HW122589   2.307   5.376   4.725
 7230SOL    HW222590   2.390   5.294   4.840
 7231SOL     OW22591   4.312   2.420   5.990
 7231SOL    HW122592   4.304   2.349   5.921
 7231SOL    HW222593   4.279   2.386   6.078
 7232SOL     OW22594   5.280   6.317   3.729
 7232SOL    HW122595   5.375   6.311   3.760
 7232SOL    HW222596   5.240   6.225   3.725
 7233SOL     OW22597   0.040   1.210   4.889
 7233SOL    HW122598   0.013   1.279   4.955
 7233SOL    HW222599   0.117   1.157   4.925
 7234SOL     OW22600   5.085   4.049   3.597
 7234SOL    HW122601   5.181   4.028   3.579
 7234SOL    HW222602   5.028   3.991   3.540
 7235SOL     OW22603   6.800   5.673   1.621
 7235SOL    HW122604   6.844   5.758   1.593
 7235SOL    HW222605   6.728   5.693   1.688
 7236SOL     OW22606   1.153   3.648   2.588
 7236SOL    HW122607   1.172   3.697   2.673
 7236SOL    HW222608   1.151   3.714   2.512
 7237SOL     OW22609   6.008   0.772   0.538
 7237SOL    HW122610   6.105   0.753   0.552
 7237SOL    HW222611   5.995   0.871   0.526
 7238SOL     OW22612   4.081   3.446   6.798
 7238SOL    HW122613   3.984   3.421   6.795
 7238SOL    HW222614   4.137   3.363   6.796
 7239SOL     OW22615   6.932   2.624   2.185
 7239SOL    HW122616   6.850   2.570   2.201
 7239SOL    HW222617   6.909   2.704   2.129
 7240SOL     OW22618   6.477   1.808   6.909
 7240SOL    HW122619   6.476   1.769   7.001
 7240SOL    HW222620   6.551   1.767   6.856
 7241SOL     OW22621   2.520   1.376   1.948
 7241SOL    HW122622   2.591   1.355   1.881
 7241SOL    HW222623   2.444   1.423   1.904
 7242SOL     OW22624   6.796   4.638   4.555
 7242SOL    HW122625   6.758   4.610   4.466
 7242SOL    HW222626   6.787   4.737   4.566
 7243SOL     OW22627   5.822   4.445   6.453
 7243SOL    HW122628   5.790   4.359   6.414
 7243SOL    HW222629   5.915   4.433   6.488
 7244SOL     OW22630   0.569   6.259   6.915
 7244SOL    HW122631   0.650   6.278   6.861
 7244SOL    HW222632   0.591   6.193   6.987
 7245SOL     OW22633   0.704   3.200   0.692
 7245SOL    HW122634   0.756   3.280   0.719
 7245SOL    HW222635   0.742   3.119   0.736
 7246SOL     OW22636   4.213   6.674   3.775
 7246SOL    HW122637   4.119   6.655   3.804
 7246SOL    HW222638   4.243   6.604   3.710
 7247SOL     OW22639   3.221   3.958   5.463
 7247SOL    HW122640   3.262   3.868   5.451
 7247SOL    HW222641   3.137   3.949   5.517
 7248SOL     OW22642   3.186   1.132   5.035
 7248SOL    HW122643   3.098   1.129   4.986
 7248SOL    HW222644   3.173   1.177   5.123
 7249SOL     OW22645   3.932   5.008   2.582
 7249SOL    HW122646   3.853   4.960   2.544
 7249SOL    HW222647   3.902   5.089   2.632
 7250SOL     OW22648   5.482   5.054   5.278
 7250SOL    HW122649   5.546   5.130   5.289
 7250SOL    HW222650   5.466   5.037   5.181
 7251SOL     OW22651   0.163   6.000   5.702
 7251SOL    HW122652   0.256   5.981   5.669
 7251SOL    HW222653   0.101   6.006   5.623
 7252SOL     OW22654   3.491   4.078   2.449
 7252SOL    HW122655   3.413   4.112   2.502
 7252SOL    HW222656   3.467   4.076   2.352
 7253SOL     OW22657   2.183   5.767   4.670
 7253SOL    HW122658   2.203   5.859   4.636
 7253SOL    HW222659   2.246   5.745   4.745
 7254SOL     OW22660   5.566   3.305   3.831
 7254SOL    HW122661   5.481   3.276   3.789
 7254SOL    HW222662   5.547   3.341   3.923
 7255SOL     OW22663   4.898   2.931   6.439
 7255SOL    HW122664   4.826   2.929   6.509
 7255SOL    HW222665   4.986   2.912   6.482
 7256SOL     OW22666   3.337   0.341   5.342
 7256SOL    HW122667   3.290   0.304   5.422
 7256SOL    HW222668   3.329   0.276   5.266
 7257SOL     OW22669   0.344   1.623   4.446
 7257SOL    HW122670   0.427   1.678   4.435
 7257SOL    HW222671   0.353   1.538   4.395
 7258SOL     OW22672   6.173   2.298   2.502
 7258SOL    HW122673   6.192   2.383   2.453
 7258SOL    HW222674   6.204   2.306   2.597
 7259SOL     OW22675   1.287   3.886   2.514
 7259SOL    HW122676   1.348   3.807   2.512
 7259SOL    HW222677   1.315   3.948   2.588
 7260SOL     OW22678   5.778   3.390   1.376
 7260SOL    HW122679   5.822   3.365   1.290
 7260SOL    HW222680   5.755   3.307   1.427
 7261SOL     OW22681   0.076   4.673   0.227
 7261SOL    HW122682   0.100   4.697   0.321
 7261SOL    HW222683   0.065   4.756   0.173
 7262SOL     OW22684   6.310   1.413   5.381
 7262SOL    HW122685   6.334   1.320   5.356
 7262SOL    HW222686   6.393   1.467   5.393
 7263SOL     OW22687   0.622   5.395   6.920
 7263SOL    HW122688   0.522   5.387   6.914
 7263SOL    HW222689   0.658   5.429   6.833
 7264SOL     OW22690   6.482   1.739   0.156
 7264SOL    HW122691   6.492   1.783   0.245
 7264SOL    HW222692   6.388   1.705   0.146
 7265SOL     OW22693   4.417   5.972   5.659
 7265SOL    HW122694   4.420   5.889   5.715
 7265SOL    HW222695   4.328   6.016   5.668
 7266SOL     OW22696   0.483   1.137   3.890
 7266SOL    HW122697   0.455   1.102   3.979
 7266SOL    HW222698   0.487   1.062   3.824
 7267SOL     OW22699   6.315   4.718   4.829
 7267SOL    HW122700   6.359   4.766   4.753
 7267SOL    HW222701   6.381   4.704   4.902
 7268SOL     OW22702   6.508   6.416   4.390
 7268SOL    HW122703   6.469   6.503   4.420
 7268SOL    HW222704   6.597   6.402   4.433
 7269SOL     OW22705   2.472   4.606   5.390
 7269SOL    HW122706   2.519   4.675   5.445
 7269SOL    HW222707   2.496   4.515   5.424
 7270SOL     OW22708   0.614   1.139   4.345
 7270SOL    HW122709   0.691   1.113   4.403
 7270SOL    HW222710   0.595   1.066   4.279
 7271SOL     OW22711   0.989   4.409   3.361
 7271SOL    HW122712   0.920   4.386   3.430
 7271SOL    HW222713   1.075   4.362   3.382
 7272SOL     OW22714   6.569   4.688   2.861
 7272SOL    HW122715   6.498   4.758   2.866
 7272SOL    HW222716   6.639   4.707   2.930
 7273SOL     OW22717   0.250   2.421   5.350
 7273SOL    HW122718   0.243   2.490   5.422
 7273SOL    HW222719   0.216   2.459   5.264
 7274SOL     OW22720   0.656   4.666   0.190
 7274SOL    HW122721   0.725   4.738   0.203
 7274SOL    HW222722   0.589   4.671   0.264
 7275SOL     OW22723   7.009   0.326   2.999
 7275SOL    HW122724   0.049   0.322   2.918
 7275SOL    HW222725   0.014   0.407   3.053
 7276SOL     OW22726   5.676   6.629   4.410
 7276SOL    HW122727   5.588   6.672   4.431
 7276SOL    HW222728   5.738   6.641   4.488
 7277SOL     OW22729   4.645   0.279   5.967
 7277SOL    HW122730   4.668   0.254   5.873
 7277SOL    HW222731   4.719   0.249   6.028
 7278SOL     OW22732   2.869   3.622   2.706
 7278SOL    HW122733   2.892   3.602   2.801
 7278SOL    HW222734   2.867   3.537   2.653
 7279SOL     OW22735   3.262   6.536   5.997
 7279SOL    HW122736   3.167   6.506   5.992
 7279SOL    HW222737   3.285   6.558   6.092
 7280SOL     OW22738   4.786   1.529   5.993
 7280SOL    HW122739   4.706   1.481   5.957
 7280SOL    HW222740   4.756   1.598   6.059
 7281SOL     OW22741   5.036   1.125   6.524
 7281SOL    HW122742   4.984   1.204   6.558
 7281SOL    HW222743   5.010   1.107   6.429
 7282SOL     OW22744   5.746   5.728   2.133
 7282SOL    HW122745   5.758   5.804   2.197
 7282SOL    HW222746   5.648   5.712   2.119
 7283SOL     OW22747   1.973   0.544   3.886
 7283SOL    HW122748   1.909   0.610   3.926
 7283SOL    HW222749   2.034   0.509   3.956
 7284SOL     OW22750   0.154   3.910   4.887
 7284SOL    HW122751   0.219   3.842   4.854
 7284SOL    HW222752   0.141   3.980   4.817
 7285SOL     OW22753   4.824   5.793   1.699
 7285SOL    HW122754   4.780   5.862   1.641
 7285SOL    HW222755   4.795   5.806   1.794
 7286SOL     OW22756   2.079   3.716   1.439
 7286SOL    HW122757   1.988   3.706   1.401
 7286SOL    HW222758   2.104   3.633   1.490
 7287SOL     OW22759   5.936   1.485   6.296
 7287SOL    HW122760   5.962   1.480   6.392
 7287SOL    HW222761   5.894   1.399   6.268
 7288SOL     OW22762   3.778   6.560   0.178
 7288SOL    HW122763   3.837   6.521   0.249
 7288SOL    HW222764   3.765   6.492   0.105
 7289SOL     OW22765   4.445   1.833   3.144
 7289SOL    HW122766   4.470   1.917   3.095
 7289SOL    HW222767   4.425   1.761   3.078
 7290SOL     OW22768   2.437   4.975   4.461
 7290SOL    HW122769   2.519   4.935   4.419
 7290SOL    HW222770   2.424   5.068   4.426
 7291SOL     OW22771   2.465   5.810   1.786
 7291SOL    HW122772   2.560   5.788   1.763
 7291SOL    HW222773   2.454   5.811   1.885
 7292SOL     OW22774   2.734   6.830   4.238
 7292SOL    HW122775   2.780   6.912   4.205
 7292SOL    HW222776   2.781   6.797   4.320
 7293SOL     OW22777   1.071   2.207   5.245
 7293SOL    HW122778   1.163   2.191   5.282
 7293SOL    HW222779   1.004   2.203   5.319
 7294SOL     OW22780   3.302   5.193   0.754
 7294SOL    HW122781   3.335   5.099   0.759
 7294SOL    HW222782   3.287   5.217   0.658
 7295SOL     OW22783   6.101   0.895   1.591
 7295SOL    HW122784   6.200   0.908   1.596
 7295SOL    HW222785   6.073   0.882   1.496
 7296SOL     OW22786   3.781   4.874   1.400
 7296SOL    HW122787   3.856   4.823   1.442
 7296SOL    HW222788   3.700   4.867   1.458
 7297SOL     OW22789   5.027   6.997   1.717
 7297SOL    HW122790   4.970   6.976   1.796
 7297SOL    HW222791   5.002   6.938   1.641
 7298SOL     OW22792   5.759   3.666   4.246
 7298SOL    HW122793   5.731   3.686   4.339
 7298SOL    HW222794   5.717   3.581   4.215
 7299SOL     OW22795   6.449   4.030   6.791
 7299SOL    HW122796   6.425   4.115   6.744
 7299SOL    HW222797   6.515   4.049   6.863
 7300SOL     OW22798   4.278   5.113   1.004
 7300SOL    HW122799   4.246   5.040   0.944
 7300SOL    HW222800   4.370   5.142   0.976
 7301SOL     OW22801   6.632   0.212   6.144
 7301SOL    HW122802   6.546   0.179   6.107
 7301SOL    HW222803   6.707   0.184   6.084
 7302SOL     OW22804   5.304   1.013   6.636
 7302SOL    HW122805   5.209   1.040   6.651
 7302SOL    HW222806   5.333   1.044   6.545
 7303SOL     OW22807   3.540   1.171   0.169
 7303SOL    HW122808   3.602   1.250   0.165
 7303SOL    HW222809   3.550   1.126   0.257
 7304SOL     OW22810   3.598   3.895   5.779
 7304SOL    HW122811   3.645   3.974   5.740
 7304SOL    HW222812   3.666   3.827   5.808
 7305SOL     OW22813   5.211   1.320   0.798
 7305SOL    HW122814   5.302   1.348   0.828
 7305SOL    HW222815   5.144   1.341   0.869
 7306SOL     OW22816   4.848   4.949   1.861
 7306SOL    HW122817   4.842   5.048   1.874
 7306SOL    HW222818   4.820   4.903   1.945
 7307SOL     OW22819   4.076   6.479   2.317
 7307SOL    HW122820   4.151   6.501   2.380
 7307SOL    HW222821   3.989   6.493   2.364
 7308SOL     OW22822   6.678   2.450   4.613
 7308SOL    HW122823   6.620   2.442   4.531
 7308SOL    HW222824   6.734   2.367   4.622
 7309SOL     OW22825   4.575   6.514   1.686
 7309SOL    HW122826   4.584   6.614   1.686
 7309SOL    HW222827   4.537   6.484   1.599
 7310SOL     OW22828   3.193   5.125   1.492
 7310SOL    HW122829   3.263   5.102   1.560
 7310SOL    HW222830   3.126   5.051   1.487
 7311SOL     OW22831   2.840   2.093   1.896
 7311SOL    HW122832   2.882   2.155   1.962
 7311SOL    HW222833   2.746   2.121   1.878
 7312SOL     OW22834   6.650   1.109   5.858
 7312SOL    HW122835   6.713   1.137   5.786
 7312SOL    HW222836   6.557   1.102   5.820
 7313SOL     OW22837   4.062   2.344   6.426
 7313SOL    HW122838   4.013   2.257   6.436
 7313SOL    HW222839   4.155   2.327   6.394
 7314SOL     OW22840   0.051   3.358   4.205
 7314SOL    HW122841   7.003   3.432   4.195
 7314SOL    HW222842   0.136   3.383   4.157
 7315SOL     OW22843   6.757   0.163   3.969
 7315SOL    HW122844   6.690   0.122   4.031
 7315SOL    HW222845   6.735   0.259   3.954
 7316SOL     OW22846   3.387   3.641   5.535
 7316SOL    HW122847   3.386   3.720   5.597
 7316SOL    HW222848   3.473   3.591   5.546
 7317SOL     OW22849   3.406   1.009   3.751
 7317SOL    HW122850   3.355   1.092   3.772
 7317SOL    HW222851   3.491   1.033   3.705
 7318SOL     OW22852   1.861   2.290   1.358
 7318SOL    HW122853   1.817   2.353   1.421
 7318SOL    HW222854   1.953   2.268   1.392
 7319SOL     OW22855   5.766   4.528   6.705
 7319SOL    HW122856   5.778   4.446   6.760
 7319SOL    HW222857   5.778   4.506   6.608
 7320SOL     OW22858   0.218   3.267   2.118
 7320SOL    HW122859   0.193   3.189   2.176
 7320SOL    HW222860   0.149   3.277   2.046
 7321SOL     OW22861   2.896   1.223   4.410
 7321SOL    HW122862   2.825   1.218   4.340
 7321SOL    HW222863   2.983   1.247   4.367
 7322SOL     OW22864   0.329   4.148   3.145
 7322SOL    HW122865   0.350   4.245   3.147
 7322SOL    HW222866   0.381   4.104   3.072
 7323SOL     OW22867   1.991   3.306   3.512
 7323SOL    HW122868   2.038   3.394   3.505
 7323SOL    HW222869   2.058   3.232   3.503
 7324SOL     OW22870   5.430   6.886   2.868
 7324SOL    HW122871   5.339   6.850   2.845
 7324SOL    HW222872   5.459   6.950   2.797
 7325SOL     OW22873   3.224   6.049   0.070
 7325SOL    HW122874   3.160   6.051   0.147
 7325SOL    HW222875   3.174   6.034   7.003
 7326SOL     OW22876   3.087   6.915   5.672
 7326SOL    HW122877   2.993   6.879   5.670
 7326SOL    HW222878   3.144   6.855   5.729
 7327SOL     OW22879   1.386   2.894   5.581
 7327SOL    HW122880   1.308   2.956   5.576
 7327SOL    HW222881   1.463   2.941   5.624
 7328SOL     OW22882   2.424   0.256   6.870
 7328SOL    HW122883   2.410   0.184   6.938
 7328SOL    HW222884   2.353   0.325   6.880
 7329SOL     OW22885   4.112   3.155   1.343
 7329SOL    HW122886   4.090   3.249   1.366
 7329SOL    HW222887   4.209   3.147   1.318
 7330SOL     OW22888   3.649   1.428   0.167
 7330SOL    HW122889   3.553   1.452   0.158
 7330SOL    HW222890   3.704   1.493   0.114
 7331SOL     OW22891   5.538   0.503   1.780
 7331SOL    HW122892   5.455   0.553   1.801
 7331SOL    HW222893   5.558   0.508   1.682
 7332SOL     OW22894   3.684   5.158   0.989
 7332SOL    HW122895   3.619   5.218   0.944
 7332SOL    HW222896   3.662   5.062   0.968
 7333SOL     OW22897   1.139   4.666   2.558
 7333SOL    HW122898   1.217   4.668   2.621
 7333SOL    HW222899   1.056   4.695   2.606
 7334SOL     OW22900   3.930   6.439   4.268
 7334SOL    HW122901   3.955   6.535   4.283
 7334SOL    HW222902   3.849   6.435   4.210
 7335SOL     OW22903   1.957   2.740   2.678
 7335SOL    HW122904   2.046   2.699   2.697
 7335SOL    HW222905   1.923   2.708   2.590
 7336SOL     OW22906   2.313   6.143   3.537
 7336SOL    HW122907   2.353   6.100   3.456
 7336SOL    HW222908   2.319   6.242   3.528
 7337SOL     OW22909   6.876   2.870   2.084
 7337SOL    HW122910   6.776   2.879   2.084
 7337SOL    HW222911   6.917   2.956   2.114
 7338SOL     OW22912   6.659   2.673   0.477
 7338SOL    HW122913   6.670   2.765   0.437
 7338SOL    HW222914   6.569   2.666   0.520
 7339SOL     OW22915   6.781   5.773   4.807
 7339SOL    HW122916   6.721   5.697   4.784
 7339SOL    HW222917   6.729   5.844   4.854
 7340SOL     OW22918   2.263   7.005   6.969
 7340SOL    HW122919   2.259   6.968   6.877
 7340SOL    HW222920   2.206   0.069   6.974
 7341SOL     OW22921   6.171   2.655   6.582
 7341SOL    HW122922   6.150   2.748   6.552
 7341SOL    HW222923   6.204   2.602   6.504
 7342SOL     OW22924   0.286   6.765   2.715
 7342SOL    HW122925   0.269   6.837   2.782
 7342SOL    HW222926   0.199   6.732   2.680
 7343SOL     OW22927   5.323   3.866   0.243
 7343SOL    HW122928   5.354   3.950   0.198
 7343SOL    HW222929   5.232   3.841   0.208
 7344SOL     OW22930   1.640   6.233   6.269
 7344SOL    HW122931   1.636   6.322   6.312
 7344SOL    HW222932   1.602   6.239   6.176
 7345SOL     OW22933   3.797   5.397   5.938
 7345SOL    HW122934   3.872   5.447   5.981
 7345SOL    HW222935   3.740   5.355   6.008
 7346SOL     OW22936   5.289   4.520   2.988
 7346SOL    HW122937   5.270   4.429   3.025
 7346SOL    HW222938   5.310   4.513   2.891
 7347SOL     OW22939   5.719   2.420   6.486
 7347SOL    HW122940   5.681   2.389   6.573
 7347SOL    HW222941   5.818   2.419   6.490
 7348SOL     OW22942   0.018   4.802   1.748
 7348SOL    HW122943   0.080   4.732   1.783
 7348SOL    HW222944   6.945   4.787   1.785
 7349SOL     OW22945   3.934   1.903   1.565
 7349SOL    HW122946   3.851   1.847   1.570
 7349SOL    HW222947   3.995   1.878   1.640
 7350SOL     OW22948   3.611   0.261   5.031
 7350SOL    HW122949   3.604   0.358   5.006
 7350SOL    HW222950   3.655   0.210   4.957
 7351SOL     OW22951   3.289   5.112   3.947
 7351SOL    HW122952   3.197   5.082   3.975
 7351SOL    HW222953   3.356   5.081   4.014
 7352SOL     OW22954   6.720   2.498   3.586
 7352SOL    HW122955   6.672   2.500   3.674
 7352SOL    HW222956   6.818   2.511   3.600
 7353SOL     OW22957   6.235   0.442   6.596
 7353SOL    HW122958   6.141   0.439   6.561
 7353SOL    HW222959   6.257   0.536   6.621
 7354SOL     OW22960   0.942   1.649   2.915
 7354SOL    HW122961   0.850   1.662   2.880
 7354SOL    HW222962   0.976   1.736   2.952
 7355SOL     OW22963   1.464   2.274   0.003
 7355SOL    HW122964   1.452   2.359   6.970
 7355SOL    HW222965   1.512   2.293   0.089
 7356SOL     OW22966   4.552   4.372   6.123
 7356SOL    HW122967   4.468   4.391   6.072
 7356SOL    HW222968   4.603   4.299   6.078
 7357SOL     OW22969   5.253   5.793   2.253
 7357SOL    HW122970   5.314   5.816   2.329
 7357SOL    HW222971   5.204   5.709   2.274
 7358SOL     OW22972   5.361   0.602   3.463
 7358SOL    HW122973   5.327   0.527   3.521
 7358SOL    HW222974   5.318   0.688   3.490
 7359SOL     OW22975   5.084   0.137   0.708
 7359SOL    HW122976   4.998   0.116   0.755
 7359SOL    HW222977   5.150   0.175   0.774
 7360SOL     OW22978   2.936   3.661   5.259
 7360SOL    HW122979   2.915   3.568   5.230
 7360SOL    HW222980   3.030   3.683   5.234
 7361SOL     OW22981   5.251   0.320   3.545
 7361SOL    HW122982   5.193   0.280   3.474
 7361SOL    HW222983   5.260   0.256   3.621
 7362SOL     OW22984   3.670   5.324   6.342
 7362SOL    HW122985   3.662   5.255   6.271
 7362SOL    HW222986   3.698   5.280   6.428
 7363SOL     OW22987   3.757   0.322   1.164
 7363SOL    HW122988   3.800   0.307   1.075
 7363SOL    HW222989   3.828   0.344   1.231
 7364SOL     OW22990   5.572   6.982   1.486
 7364SOL    HW122991   5.535   6.974   1.393
 7364SOL    HW222992   5.530   0.043   1.531
 7365SOL     OW22993   5.917   4.795   2.067
 7365SOL    HW122994   5.902   4.791   1.968
 7365SOL    HW222995   5.989   4.730   2.092
 7366SOL     OW22996   1.999   1.232   4.106
 7366SOL    HW122997   1.929   1.234   4.178
 7366SOL    HW222998   2.089   1.216   4.148
 7367SOL     OW22999   4.158   6.972   6.804
 7367SOL    HW123000   4.063   6.959   6.774
 7367SOL    HW223001   4.218   6.915   6.747
 7368SOL     OW23002   4.054   3.673   3.244
 7368SOL    HW123003   4.035   3.770   3.230
 7368SOL    HW223004   4.071   3.630   3.155
 7369SOL     OW23005   5.314   2.304   0.925
 7369SOL    HW123006   5.309   2.382   0.863
 7369SOL    HW223007   5.290   2.220   0.876
 7370SOL     OW23008   2.006   1.587   4.503
 7370SOL    HW123009   2.101   1.606   4.477
 7370SOL    HW223010   1.987   1.490   4.490
 7371SOL     OW23011   3.816   0.754   3.722
 7371SOL    HW123012   3.785   0.786   3.811
 7371SOL    HW223013   3.886   0.816   3.687
 7372SOL     OW23014   5.362   0.624   5.458
 7372SOL    HW123015   5.386   0.719   5.437
 7372SOL    HW223016   5.263   0.617   5.468
 7373SOL     OW23017   5.655   3.178   4.168
 7373SOL    HW123018   5.598   3.212   4.093
 7373SOL    HW223019   5.635   3.232   4.251
 7374SOL     OW23020   6.377   1.686   5.479
 7374SOL    HW123021   6.304   1.625   5.511
 7374SOL    HW223022   6.459   1.671   5.534
 7375SOL     OW23023   1.831   3.662   2.184
 7375SOL    HW123024   1.746   3.713   2.176
 7375SOL    HW223025   1.842   3.630   2.278
 7376SOL     OW23026   0.121   3.664   6.974
 7376SOL    HW123027   0.065   3.740   6.942
 7376SOL    HW223028   0.206   3.698   7.012
 7377SOL     OW23029   3.020   6.034   1.325
 7377SOL    HW123030   2.969   6.059   1.243
 7377SOL    HW223031   3.044   5.937   1.322
 7378SOL     OW23032   1.239   6.021   3.844
 7378SOL    HW123033   1.201   5.928   3.842
 7378SOL    HW223034   1.334   6.017   3.872
 7379SOL     OW23035   3.846   0.890   1.014
 7379SOL    HW123036   3.810   0.935   1.096
 7379SOL    HW223037   3.940   0.920   0.997
 7380SOL     OW23038   5.214   3.760   2.395
 7380SOL    HW123039   5.300   3.802   2.425
 7380SOL    HW223040   5.183   3.804   2.311
 7381SOL     OW23041   3.425   1.028   0.702
 7381SOL    HW123042   3.363   0.955   0.731
 7381SOL    HW223043   3.513   1.017   0.749
 7382SOL     OW23044   6.410   1.326   6.461
 7382SOL    HW123045   6.380   1.414   6.425
 7382SOL    HW223046   6.411   1.259   6.387
 7383SOL     OW23047   2.074   0.026   0.506
 7383SOL    HW123048   2.001   0.040   0.573
 7383SOL    HW223049   2.037   0.034   0.414
 7384SOL     OW23050   6.990   0.178   1.204
 7384SOL    HW123051   0.010   0.113   1.138
 7384SOL    HW223052   0.035   0.253   1.218
 7385SOL     OW23053   5.672   4.150   2.989
 7385SOL    HW123054   5.754   4.141   2.933
 7385SOL    HW223055   5.695   4.135   3.085
 7386SOL     OW23056   5.667   3.373   0.609
 7386SOL    HW123057   5.598   3.316   0.653
 7386SOL    HW223058   5.702   3.326   0.528
 7387SOL     OW23059   6.949   5.803   5.633
 7387SOL    HW123060   0.017   5.754   5.645
 7387SOL    HW223061   6.929   5.812   5.535
 7388SOL     OW23062   2.244   5.522   2.544
 7388SOL    HW123063   2.257   5.512   2.643
 7388SOL    HW223064   2.227   5.433   2.503
 7389SOL     OW23065   5.915   3.146   0.225
 7389SOL    HW123066   5.996   3.176   0.174
 7389SOL    HW223067   5.895   3.051   0.203
 7390SOL     OW23068   2.350   2.367   2.910
 7390SOL    HW123069   2.359   2.268   2.898
 7390SOL    HW223070   2.320   2.387   3.003
 7391SOL     OW23071   3.994   3.151   3.556
 7391SOL    HW123072   4.017   3.186   3.646
 7391SOL    HW223073   4.041   3.204   3.486
 7392SOL     OW23074   3.074   6.405   6.799
 7392SOL    HW123075   3.002   6.472   6.783
 7392SOL    HW223076   3.048   6.345   6.874
 7393SOL     OW23077   5.166   5.000   4.335
 7393SOL    HW123078   5.155   5.100   4.329
 7393SOL    HW223079   5.191   4.964   4.245
 7394SOL     OW23080   2.863   1.706   6.000
 7394SOL    HW123081   2.843   1.772   6.073
 7394SOL    HW223082   2.885   1.618   6.040
 7395SOL     OW23083   3.022   5.454   0.760
 7395SOL    HW123084   3.055   5.494   0.845
 7395SOL    HW223085   2.943   5.506   0.727
 7396SOL     OW23086   2.655   5.280   1.973
 7396SOL    HW123087   2.582   5.325   1.921
 7396SOL    HW223088   2.730   5.257   1.910
 7397SOL     OW23089   5.997   4.359   4.027
 7397SOL    HW123090   5.917   4.343   4.085
 7397SOL    HW223091   5.970   4.416   3.949
 7398SOL     OW23092   2.434   4.520   2.411
 7398SOL    HW123093   2.468   4.532   2.317
 7398SOL    HW223094   2.347   4.472   2.408
 7399SOL     OW23095   5.122   2.387   5.139
 7399SOL    HW123096   5.028   2.355   5.150
 7399SOL    HW223097   5.156   2.420   5.228
 7400SOL     OW23098   5.486   2.929   5.701
 7400SOL    HW123099   5.487   2.974   5.790
 7400SOL    HW223100   5.395   2.892   5.683
 7401SOL     OW23101   1.720   2.699   3.795
 7401SOL    HW123102   1.701   2.765   3.867
 7401SOL    HW223103   1.697   2.607   3.826
 7402SOL     OW23104   3.254   6.091   4.496
 7402SOL    HW123105   3.278   6.178   4.541
 7402SOL    HW223106   3.331   6.062   4.438
 7403SOL     OW23107   1.776   3.895   4.137
 7403SOL    HW123108   1.680   3.867   4.148
 7403SOL    HW223109   1.818   3.905   4.227
 7404SOL     OW23110   3.177   3.559   1.252
 7404SOL    HW123111   3.232   3.627   1.202
 7404SOL    HW223112   3.237   3.487   1.285
 7405SOL     OW23113   3.725   6.420   4.083
 7405SOL    HW123114   3.641   6.366   4.084
 7405SOL    HW223115   3.727   6.477   4.001
 7406SOL     OW23116   1.092   1.251   5.053
 7406SOL    HW123117   1.154   1.327   5.070
 7406SOL    HW223118   0.999   1.285   5.043
 7407SOL     OW23119   0.878   5.917   5.268
 7407SOL    HW123120   0.843   5.924   5.362
 7407SOL    HW223121   0.836   5.839   5.222
 7408SOL     OW23122   3.612   4.868   5.326
 7408SOL    HW123123   3.711   4.875   5.327
 7408SOL    HW223124   3.573   4.947   5.278
 7409SOL     OW23125   6.413   3.270   1.103
 7409SOL    HW123126   6.508   3.300   1.099
 7409SOL    HW223127   6.356   3.332   1.048
 7410SOL     OW23128   0.175   0.920   1.350
 7410SOL    HW123129   0.190   0.991   1.419
 7410SOL    HW223130   0.262   0.877   1.327
 7411SOL     OW23131   1.598   1.727   5.278
 7411SOL    HW123132   1.694   1.701   5.270
 7411SOL    HW223133   1.549   1.658   5.331
 7412SOL     OW23134   4.201   6.762   0.261
 7412SOL    HW123135   4.131   6.795   0.197
 7412SOL    HW223136   4.158   6.738   0.348
 7413SOL     OW23137   4.230   6.949   3.751
 7413SOL    HW123138   4.138   6.989   3.751
 7413SOL    HW223139   4.225   6.855   3.783
 7414SOL     OW23140   3.332   1.604   4.184
 7414SOL    HW123141   3.367   1.570   4.271
 7414SOL    HW223142   3.406   1.600   4.116
 7415SOL     OW23143   3.731   6.221   6.333
 7415SOL    HW123144   3.726   6.268   6.244
 7415SOL    HW223145   3.805   6.262   6.387
 7416SOL     OW23146   1.345   0.915   2.020
 7416SOL    HW123147   1.298   0.834   1.985
 7416SOL    HW223148   1.310   0.938   2.111
 7417SOL     OW23149   0.414   1.159   3.177
 7417SOL    HW123150   0.413   1.059   3.174
 7417SOL    HW223151   0.346   1.191   3.243
 7418SOL     OW23152   1.649   3.818   5.908
 7418SOL    HW123153   1.555   3.805   5.876
 7418SOL    HW223154   1.713   3.801   5.832
 7419SOL     OW23155   6.989   3.790   3.854
 7419SOL    HW123156   6.980   3.811   3.952
 7419SOL    HW223157   6.900   3.796   3.811
 7420SOL     OW23158   6.740   7.013   1.887
 7420SOL    HW123159   6.774   6.938   1.944
 7420SOL    HW223160   6.813   0.026   1.827
 7421SOL     OW23161   5.347   4.152   1.144
 7421SOL    HW123162   5.248   4.142   1.153
 7421SOL    HW223163   5.368   4.219   1.073
 7422SOL     OW23164   5.443   2.022   2.988
 7422SOL    HW123165   5.488   2.048   3.073
 7422SOL    HW223166   5.444   1.922   2.978
 7423SOL     OW23167   5.150   1.807   5.740
 7423SOL    HW123168   5.206   1.889   5.753
 7423SOL    HW223169   5.208   1.733   5.708
 7424SOL     OW23170   0.875   2.439   3.722
 7424SOL    HW123171   0.854   2.347   3.755
 7424SOL    HW223172   0.873   2.440   3.622
 7425SOL     OW23173   5.766   0.657   0.928
 7425SOL    HW123174   5.783   0.611   0.841
 7425SOL    HW223175   5.852   0.687   0.968
 7426SOL     OW23176   4.015   3.306   5.545
 7426SOL    HW123177   3.929   3.275   5.507
 7426SOL    HW223178   4.070   3.349   5.473
 7427SOL     OW23179   2.710   1.060   3.563
 7427SOL    HW123180   2.637   1.123   3.591
 7427SOL    HW223181   2.676   0.996   3.495
 7428SOL     OW23182   4.508   6.182   4.987
 7428SOL    HW123183   4.442   6.130   4.932
 7428SOL    HW223184   4.594   6.189   4.937
 7429SOL     OW23185   1.678   6.884   2.777
 7429SOL    HW123186   1.693   6.954   2.707
 7429SOL    HW223187   1.728   6.801   2.751
 7430SOL     OW23188   6.704   5.340   2.665
 7430SOL    HW123189   6.636   5.329   2.593
 7430SOL    HW223190   6.659   5.354   2.753
 7431SOL     OW23191   1.618   1.348   3.584
 7431SOL    HW123192   1.542   1.329   3.647
 7431SOL    HW223193   1.668   1.429   3.617
 7432SOL     OW23194   2.436   0.724   3.245
 7432SOL    HW123195   2.359   0.700   3.185
 7432SOL    HW223196   2.521   0.690   3.205
 7433SOL     OW23197   2.687   0.165   6.523
 7433SOL    HW123198   2.698   0.231   6.449
 7433SOL    HW223199   2.689   0.213   6.611
 7434SOL     OW23200   4.294   6.744   4.981
 7434SOL    HW123201   4.216   6.769   4.924
 7434SOL    HW223202   4.359   6.690   4.927
 7435SOL     OW23203   5.034   4.404   2.853
 7435SOL    HW123204   5.008   4.409   2.949
 7435SOL    HW223205   5.130   4.428   2.843
 7436SOL     OW23206   5.512   2.977   5.981
 7436SOL    HW123207   5.513   2.879   5.997
 7436SOL    HW223208   5.602   3.015   6.001
 7437SOL     OW23209   3.188   6.831   0.755
 7437SOL    HW123210   3.267   6.891   0.739
 7437SOL    HW223211   3.206   6.774   0.834
 7438SOL     OW23212   1.840   0.489   6.942
 7438SOL    HW123213   1.868   0.466   0.017
 7438SOL    HW223214   1.819   0.404   6.892
 7439SOL     OW23215   1.401   4.260   6.890
 7439SOL    HW123216   1.499   4.260   6.911
 7439SOL    HW223217   1.384   4.209   6.806
 7440SOL     OW23218   5.611   3.647   3.969
 7440SOL    HW123219   5.571   3.673   4.057
 7440SOL    HW223220   5.705   3.615   3.983
 7441SOL     OW23221   5.568   5.624   0.989
 7441SOL    HW123222   5.576   5.607   0.891
 7441SOL    HW223223   5.489   5.682   1.007
 7442SOL     OW23224   5.716   0.493   6.026
 7442SOL    HW123225   5.657   0.417   5.999
 7442SOL    HW223226   5.660   0.574   6.042
 7443SOL     OW23227   0.483   1.249   2.039
 7443SOL    HW123228   0.405   1.237   1.978
 7443SOL    HW223229   0.453   1.244   2.134
 7444SOL     OW23230   1.708   6.404   6.783
 7444SOL    HW123231   1.748   6.467   6.850
 7444SOL    HW223232   1.716   6.310   6.817
 7445SOL     OW23233   4.151   6.400   1.667
 7445SOL    HW123234   4.207   6.430   1.589
 7445SOL    HW223235   4.129   6.303   1.656
 7446SOL     OW23236   5.444   4.024   0.529
 7446SOL    HW123237   5.527   4.002   0.477
 7446SOL    HW223238   5.416   4.118   0.509
 7447SOL     OW23239   0.412   4.601   0.884
 7447SOL    HW123240   0.489   4.568   0.938
 7447SOL    HW223241   0.427   4.697   0.859
 7448SOL     OW23242   4.824   5.210   6.679
 7448SOL    HW123243   4.782   5.300   6.669
 7448SOL    HW223244   4.800   5.153   6.599
 7449SOL     OW23245   0.600   4.692   6.147
 7449SOL    HW123246   0.550   4.746   6.214
 7449SOL    HW223247   0.637   4.610   6.190
 7450SOL     OW23248   5.391   2.226   5.386
 7450SOL    HW123249   5.411   2.160   5.313
 7450SOL    HW223250   5.297   2.257   5.379
 7451SOL     OW23251   4.919   4.471   3.117
 7451SOL    HW123252   4.993   4.434   3.175
 7451SOL    HW223253   4.947   4.560   3.081
 7452SOL     OW23254   5.925   5.261   5.642
 7452SOL    HW123255   5.922   5.212   5.555
 7452SOL    HW223256   5.869   5.213   5.710
 7453SOL     OW23257   3.454   5.961   5.976
 7453SOL    HW123258   3.452   5.942   6.075
 7453SOL    HW223259   3.506   6.045   5.960
 7454SOL     OW23260   4.375   2.130   0.927
 7454SOL    HW123261   4.387   2.227   0.950
 7454SOL    HW223262   4.348   2.121   0.831
 7455SOL     OW23263   6.924   2.149   2.912
 7455SOL    HW123264   6.922   2.179   3.007
 7455SOL    HW223265   6.897   2.224   2.852
 7456SOL     OW23266   2.716   2.357   6.058
 7456SOL    HW123267   2.631   2.334   6.105
 7456SOL    HW223268   2.792   2.310   6.103
 7457SOL     OW23269   2.482   0.755   2.908
 7457SOL    HW123270   2.472   0.852   2.932
 7457SOL    HW223271   2.478   0.745   2.808
 7458SOL     OW23272   1.817   4.880   4.967
 7458SOL    HW123273   1.812   4.781   4.981
 7458SOL    HW223274   1.885   4.919   5.028
 7459SOL     OW23275   5.955   0.269   2.567
 7459SOL    HW123276   5.944   0.182   2.615
 7459SOL    HW223277   5.899   0.339   2.611
 7460SOL     OW23278   2.255   6.232   0.733
 7460SOL    HW123279   2.257   6.202   0.828
 7460SOL    HW223280   2.219   6.326   0.729
 7461SOL     OW23281   1.963   4.485   6.162
 7461SOL    HW123282   1.904   4.563   6.182
 7461SOL    HW223283   1.907   4.403   6.153
 7462SOL     OW23284   1.326   4.577   0.296
 7462SOL    HW123285   1.360   4.528   0.216
 7462SOL    HW223286   1.306   4.511   0.369
 7463SOL     OW23287   3.990   5.352   1.343
 7463SOL    HW123288   4.071   5.355   1.285
 7463SOL    HW223289   3.996   5.424   1.412
 7464SOL     OW23290   6.086   6.298   5.371
 7464SOL    HW123291   6.158   6.274   5.306
 7464SOL    HW223292   5.997   6.273   5.333
 7465SOL     OW23293   1.638   5.012   0.103
 7465SOL    HW123294   1.570   4.946   0.135
 7465SOL    HW223295   1.640   5.091   0.164
 7466SOL     OW23296   0.575   0.333   5.173
 7466SOL    HW123297   0.627   0.364   5.253
 7466SOL    HW223298   0.637   0.290   5.108
 7467SOL     OW23299   0.396   2.864   5.223
 7467SOL    HW123300   0.431   2.943   5.275
 7467SOL    HW223301   0.306   2.839   5.257
 7468SOL     OW23302   6.164   4.068   5.587
 7468SOL    HW123303   6.120   4.088   5.500
 7468SOL    HW223304   6.100   4.018   5.646
 7469SOL     OW23305   6.786   2.406   0.944
 7469SOL    HW123306   6.875   2.439   0.913
 7469SOL    HW223307   6.799   2.342   1.020
 7470SOL     OW23308   5.641   2.633   3.538
 7470SOL    HW123309   5.554   2.651   3.583
 7470SOL    HW223310   5.679   2.547   3.573
 7471SOL     OW23311   4.302   6.085   5.967
 7471SOL    HW123312   4.400   6.086   5.987
 7471SOL    HW223313   4.284   6.015   5.897
 7472SOL     OW23314   6.049   6.806   5.714
 7472SOL    HW123315   6.035   6.882   5.778
 7472SOL    HW223316   6.111   6.836   5.641
 7473SOL     OW23317   3.658   5.768   3.942
 7473SOL    HW123318   3.707   5.776   3.855
 7473SOL    HW223319   3.562   5.793   3.928
 7474SOL     OW23320   5.804   1.649   6.593
 7474SOL    HW123321   5.852   1.736   6.608
 7474SOL    HW223322   5.748   1.657   6.511
 7475SOL     OW23323   5.159   2.102   0.767
 7475SOL    HW123324   5.082   2.166   0.764
 7475SOL    HW223325   5.151   2.043   0.848
 7476SOL     OW23326   2.296   0.233   3.104
 7476SOL    HW123327   2.393   0.255   3.095
 7476SOL    HW223328   2.244   0.316   3.123
 7477SOL     OW23329   0.630   4.016   4.876
 7477SOL    HW123330   0.670   3.934   4.835
 7477SOL    HW223331   0.541   3.993   4.915
 7478SOL     OW23332   0.739   0.934   6.043
 7478SOL    HW123333   0.786   1.018   6.017
 7478SOL    HW223334   0.642   0.943   6.021
 7479SOL     OW23335   5.118   2.899   0.258
 7479SOL    HW123336   5.131   2.971   0.190
 7479SOL    HW223337   5.071   2.937   0.338
 7480SOL     OW23338   3.667   4.904   2.468
 7480SOL    HW123339   3.704   4.878   2.379
 7480SOL    HW223340   3.568   4.897   2.466
 7481SOL     OW23341   0.329   3.530   6.694
 7481SOL    HW123342   0.314   3.432   6.681
 7481SOL    HW223343   0.414   3.544   6.744
 7482SOL     OW23344   5.192   2.434   2.899
 7482SOL    HW123345   5.231   2.354   2.945
 7482SOL    HW223346   5.092   2.428   2.900
 7483SOL     OW23347   5.033   2.040   5.272
 7483SOL    HW123348   5.097   1.968   5.297
 7483SOL    HW223349   5.041   2.060   5.174
 7484SOL     OW23350   3.116   6.824   3.991
 7484SOL    HW123351   3.042   6.880   3.954
 7484SOL    HW223352   3.203   6.850   3.949
 7485SOL     OW23353   3.615   6.598   5.404
 7485SOL    HW123354   3.626   6.612   5.306
 7485SOL    HW223355   3.676   6.661   5.453
 7486SOL     OW23356   2.387   6.613   1.158
 7486SOL    HW123357   2.343   6.701   1.174
 7486SOL    HW223358   2.351   6.545   1.222
 7487SOL     OW23359   4.157   6.120   4.530
 7487SOL    HW123360   4.087   6.130   4.459
 7487SOL    HW223361   4.113   6.105   4.619
 7488SOL     OW23362   0.520   5.589   4.384
 7488SOL    HW123363   0.497   5.638   4.300
 7488SOL    HW223364   0.582   5.514   4.363
 7489SOL     OW23365   5.129   3.167   6.947
 7489SOL    HW123366   5.138   3.069   6.965
 7489SOL    HW223367   5.195   3.217   7.003
 7490SOL     OW23368   0.587   2.479   2.244
 7490SOL    HW123369   0.654   2.550   2.266
 7490SOL    HW223370   0.509   2.521   2.197
 7491SOL     OW23371   4.126   3.314   0.519
 7491SOL    HW123372   4.203   3.331   0.581
 7491SOL    HW223373   4.161   3.275   0.433
 7492SOL     OW23374   1.299   6.939   4.443
 7492SOL    HW123375   1.234   6.928   4.519
 7492SOL    HW223376   1.372   6.872   4.452
 7493SOL     OW23377   6.762   4.545   5.379
 7493SOL    HW123378   6.793   4.533   5.473
 7493SOL    HW223379   6.664   4.522   5.373
 7494SOL     OW23380   6.976   0.989   2.153
 7494SOL    HW123381   6.923   1.025   2.230
 7494SOL    HW223382   6.913   0.955   2.082
 7495SOL     OW23383   1.715   3.978   4.897
 7495SOL    HW123384   1.761   3.931   4.822
 7495SOL    HW223385   1.735   3.930   4.983
 7496SOL     OW23386   5.845   4.290   2.438
 7496SOL    HW123387   5.887   4.302   2.348
 7496SOL    HW223388   5.916   4.280   2.507
 7497SOL     OW23389   0.056   6.735   1.198
 7497SOL    HW123390   0.066   6.680   1.115
 7497SOL    HW223391   0.122   6.704   1.266
 7498SOL     OW23392   3.323   6.934   2.653
 7498SOL    HW123393   3.420   6.931   2.631
 7498SOL    HW223394   3.271   6.952   2.570
 7499SOL     OW23395   3.279   1.485   3.933
 7499SOL    HW123396   3.261   1.572   3.887
 7499SOL    HW223397   3.244   1.489   4.026
 7500SOL     OW23398   3.680   0.022   3.355
 7500SOL    HW123399   3.684   6.941   3.354
 7500SOL    HW223400   3.745   0.059   3.289
 7501SOL     OW23401   6.160   2.451   4.963
 7501SOL    HW123402   6.138   2.402   5.047
 7501SOL    HW223403   6.124   2.544   4.968
 7502SOL     OW23404   4.405   0.692   3.988
 7502SOL    HW123405   4.442   0.722   4.076
 7502SOL    HW223406   4.470   0.715   3.915
 7503SOL     OW23407   1.851   5.889   1.548
 7503SOL    HW123408   1.847   5.902   1.449
 7503SOL    HW223409   1.891   5.971   1.590
 7504SOL     OW23410   6.689   6.894   4.726
 7504SOL    HW123411   6.656   6.800   4.716
 7504SOL    HW223412   6.789   6.893   4.737
 7505SOL     OW23413   0.212   6.286   5.363
 7505SOL    HW123414   0.296   6.330   5.397
 7505SOL    HW223415   0.216   6.188   5.383
 7506SOL     OW23416   3.655   1.609   3.654
 7506SOL    HW123417   3.604   1.691   3.630
 7506SOL    HW223418   3.711   1.627   3.736
 7507SOL     OW23419   6.530   4.420   5.832
 7507SOL    HW123420   6.498   4.379   5.918
 7507SOL    HW223421   6.578   4.350   5.778
 7508SOL     OW23422   2.578   5.805   0.289
 7508SOL    HW123423   2.563   5.831   0.194
 7508SOL    HW223424   2.509   5.738   0.317
 7509SOL     OW23425   6.002   4.943   1.584
 7509SOL    HW123426   6.066   5.013   1.616
 7509SOL    HW223427   6.004   4.939   1.484
 7510SOL     OW23428   3.411   3.843   3.077
 7510SOL    HW123429   3.410   3.941   3.054
 7510SOL    HW223430   3.428   3.833   3.175
 7511SOL     OW23431   4.468   6.694   4.236
 7511SOL    HW123432   4.563   6.683   4.264
 7511SOL    HW223433   4.412   6.716   4.316
 7512SOL     OW23434   3.888   0.837   0.095
 7512SOL    HW123435   3.829   0.819   0.017
 7512SOL    HW223436   3.892   0.936   0.112
 7513SOL     OW23437   1.515   2.337   2.406
 7513SOL    HW123438   1.434   2.281   2.387
 7513SOL    HW223439   1.515   2.417   2.345
 7514SOL     OW23440   1.114   5.613   1.306
 7514SOL    HW123441   1.132   5.698   1.256
 7514SOL    HW223442   1.135   5.627   1.403
 7515SOL     OW23443   0.285   5.128   5.201
 7515SOL    HW123444   0.213   5.183   5.243
 7515SOL    HW223445   0.285   5.037   5.243
 7516SOL     OW23446   1.448   6.166   5.493
 7516SOL    HW123447   1.437   6.071   5.522
 7516SOL    HW223448   1.371   6.193   5.436
 7517SOL     OW23449   0.659   1.334   6.007
 7517SOL    HW123450   0.726   1.393   6.051
 7517SOL    HW223451   0.706   1.255   5.966
 7518SOL     OW23452   4.731   2.297   3.702
 7518SOL    HW123453   4.668   2.226   3.671
 7518SOL    HW223454   4.797   2.258   3.766
 7519SOL     OW23455   3.715   6.107   4.194
 7519SOL    HW123456   3.686   6.194   4.153
 7519SOL    HW223457   3.802   6.121   4.242
 7520SOL     OW23458   1.993   1.392   0.279
 7520SOL    HW123459   2.081   1.432   0.305
 7520SOL    HW223460   1.943   1.457   0.221
 7521SOL     OW23461   3.613   2.043   5.550
 7521SOL    HW123462   3.606   1.969   5.483
 7521SOL    HW223463   3.626   2.130   5.503
 7522SOL     OW23464   2.077   6.978   3.152
 7522SOL    HW123465   2.144   6.924   3.204
 7522SOL    HW223466   2.094   6.967   3.054
 7523SOL     OW23467   5.439   1.510   0.761
 7523SOL    HW123468   5.380   1.502   0.682
 7523SOL    HW223469   5.496   1.428   0.769
 7524SOL     OW23470   0.126   3.299   4.519
 7524SOL    HW123471   0.142   3.201   4.530
 7524SOL    HW223472   0.052   3.314   4.453
 7525SOL     OW23473   4.038   5.734   6.236
 7525SOL    HW123474   4.077   5.746   6.328
 7525SOL    HW223475   3.977   5.811   6.216
 7526SOL     OW23476   2.369   3.396   1.617
 7526SOL    HW123477   2.399   3.482   1.576
 7526SOL    HW223478   2.359   3.408   1.716
 7527SOL     OW23479   4.043   4.853   3.595
 7527SOL    HW123480   4.085   4.804   3.671
 7527SOL    HW223481   4.086   4.825   3.509
 7528SOL     OW23482   5.908   3.047   6.433
 7528SOL    HW123483   5.850   3.009   6.360
 7528SOL    HW223484   6.001   3.012   6.423
 7529SOL     OW23485   6.261   2.993   3.821
 7529SOL    HW123486   6.314   2.920   3.777
 7529SOL    HW223487   6.191   3.026   3.757
 7530SOL     OW23488   0.458   2.187   1.823
 7530SOL    HW123489   0.555   2.161   1.820
 7530SOL    HW223490   0.401   2.109   1.799
 7531SOL     OW23491   4.272   2.090   3.718
 7531SOL    HW123492   4.243   2.050   3.805
 7531SOL    HW223493   4.249   2.187   3.717
 7532SOL     OW23494   4.478   5.275   6.622
 7532SOL    HW123495   4.543   5.294   6.695
 7532SOL    HW223496   4.459   5.177   6.620
 7533SOL     OW23497   4.272   4.346   1.675
 7533SOL    HW123498   4.186   4.301   1.698
 7533SOL    HW223499   4.345   4.309   1.732
 7534SOL     OW23500   3.990   7.007   4.616
 7534SOL    HW123501   3.987   6.994   4.517
 7534SOL    HW223502   3.897   6.999   4.653
 7535SOL     OW23503   0.698   6.034   3.888
 7535SOL    HW123504   0.706   6.060   3.792
 7535SOL    HW223505   0.745   5.947   3.904
 7536SOL     OW23506   5.069   6.183   4.561
 7536SOL    HW123507   5.086   6.087   4.541
 7536SOL    HW223508   5.073   6.236   4.477
 7537SOL     OW23509   2.558   6.791   3.065
 7537SOL    HW123510   2.609   6.856   3.121
 7537SOL    HW223511   2.585   6.802   2.969
 7538SOL     OW23512   0.377   3.696   0.490
 7538SOL    HW123513   0.418   3.693   0.398
 7538SOL    HW223514   0.446   3.671   0.558
 7539SOL     OW23515   0.246   0.393   4.194
 7539SOL    HW123516   0.293   0.405   4.107
 7539SOL    HW223517   0.270   0.304   4.233
 7540SOL     OW23518   6.160   5.433   2.629
 7540SOL    HW123519   6.171   5.532   2.619
 7540SOL    HW223520   6.080   5.414   2.686
 7541SOL     OW23521   2.307   4.355   6.262
 7541SOL    HW123522   2.241   4.403   6.320
 7541SOL    HW223523   2.263   4.328   6.177
 7542SOL     OW23524   6.282   6.065   5.263
 7542SOL    HW123525   6.184   6.052   5.247
 7542SOL    HW223526   6.332   6.052   5.177
 7543SOL     OW23527   2.355   1.115   6.855
 7543SOL    HW123528   2.343   1.099   6.757
 7543SOL    HW223529   2.435   1.172   6.870
 7544SOL     OW23530   6.475   1.897   3.998
 7544SOL    HW123531   6.452   1.867   3.906
 7544SOL    HW223532   6.571   1.877   4.017
 7545SOL     OW23533   1.371   4.754   6.049
 7545SOL    HW123534   1.289   4.807   6.028
 7545SOL    HW223535   1.371   4.730   6.146
 7546SOL     OW23536   2.318   2.895   1.811
 7546SOL    HW123537   2.299   2.818   1.872
 7546SOL    HW223538   2.415   2.894   1.786
 7547SOL     OW23539   4.518   0.199   1.181
 7547SOL    HW123540   4.616   0.183   1.190
 7547SOL    HW223541   4.493   0.201   1.084
 7548SOL     OW23542   3.515   2.365   6.179
 7548SOL    HW123543   3.525   2.401   6.086
 7548SOL    HW223544   3.533   2.438   6.245
 7549SOL     OW23545   5.626   2.059   4.042
 7549SOL    HW123546   5.574   2.017   4.117
 7549SOL    HW223547   5.645   1.990   3.972
 7550SOL     OW23548   2.753   4.703   4.210
 7550SOL    HW123549   2.759   4.682   4.113
 7550SOL    HW223550   2.657   4.716   4.235
 7551SOL     OW23551   6.321   2.767   5.952
 7551SOL    HW123552   6.334   2.668   5.958
 7551SOL    HW223553   6.245   2.787   5.891
 7552SOL     OW23554   2.612   6.531   5.161
 7552SOL    HW123555   2.668   6.448   5.158
 7552SOL    HW223556   2.670   6.611   5.143
 7553SOL     OW23557   5.353   6.291   5.547
 7553SOL    HW123558   5.420   6.331   5.609
 7553SOL    HW223559   5.267   6.342   5.553
 7554SOL     OW23560   4.884   0.763   1.093
 7554SOL    HW123561   4.962   0.820   1.069
 7554SOL    HW223562   4.836   0.805   1.171
 7555SOL     OW23563   3.876   5.222   4.989
 7555SOL    HW123564   3.861   5.231   5.088
 7555SOL    HW223565   3.803   5.270   4.940
 7556SOL     OW23566   0.497   6.526   1.562
 7556SOL    HW123567   0.531   6.621   1.556
 7556SOL    HW223568   0.546   6.470   1.495
 7557SOL     OW23569   4.706   0.701   0.900
 7557SOL    HW123570   4.775   0.711   0.971
 7557SOL    HW223571   4.682   0.604   0.890
 7558SOL     OW23572   1.109   1.605   4.075
 7558SOL    HW123573   1.122   1.704   4.076
 7558SOL    HW223574   1.017   1.584   4.043
 7559SOL     OW23575   2.835   1.515   5.296
 7559SOL    HW123576   2.835   1.571   5.378
 7559SOL    HW223577   2.851   1.573   5.216
 7560SOL     OW23578   0.834   1.721   5.945
 7560SOL    HW123579   0.856   1.685   5.854
 7560SOL    HW223580   0.790   1.650   6.000
 7561SOL     OW23581   5.806   1.762   5.147
 7561SOL    HW123582   5.719   1.807   5.127
 7561SOL    HW223583   5.859   1.818   5.210
 7562SOL     OW23584   1.942   5.809   3.585
 7562SOL    HW123585   1.942   5.782   3.681
 7562SOL    HW223586   1.962   5.907   3.578
 7563SOL     OW23587   3.425   5.599   2.244
 7563SOL    HW123588   3.358   5.538   2.202
 7563SOL    HW223589   3.517   5.565   2.225
 7564SOL     OW23590   3.246   2.071   5.552
 7564SOL    HW123591   3.314   2.124   5.501
 7564SOL    HW223592   3.175   2.131   5.587
 7565SOL     OW23593   6.600   4.049   5.779
 7565SOL    HW123594   6.516   4.097   5.753
 7565SOL    HW223595   6.578   3.954   5.800
 7566SOL     OW23596   4.566   4.831   1.371
 7566SOL    HW123597   4.604   4.833   1.463
 7566SOL    HW223598   4.518   4.744   1.356
 7567SOL     OW23599   1.459   0.060   4.278
 7567SOL    HW123600   1.453   0.017   4.188
 7567SOL    HW223601   1.397   0.014   4.341
 7568SOL     OW23602   5.858   5.747   1.888
 7568SOL    HW123603   5.804   5.727   1.970
 7568SOL    HW223604   5.886   5.662   1.844
 7569SOL     OW23605   4.644   3.771   0.395
 7569SOL    HW123606   4.740   3.795   0.381
 7569SOL    HW223607   4.613   3.805   0.484
 7570SOL     OW23608   0.319   2.950   2.533
 7570SOL    HW123609   0.343   3.015   2.461
 7570SOL    HW223610   0.393   2.945   2.600
 7571SOL     OW23611   4.836   2.031   3.162
 7571SOL    HW123612   4.809   2.029   3.259
 7571SOL    HW223613   4.816   1.943   3.119
 7572SOL     OW23614   4.240   6.833   3.468
 7572SOL    HW123615   4.251   6.855   3.565
 7572SOL    HW223616   4.219   6.916   3.417
 7573SOL     OW23617   4.764   6.807   5.538
 7573SOL    HW123618   4.752   6.830   5.635
 7573SOL    HW223619   4.856   6.831   5.510
 7574SOL     OW23620   1.004   2.643   3.869
 7574SOL    HW123621   0.945   2.573   3.829
 7574SOL    HW223622   1.083   2.658   3.809
 7575SOL     OW23623   0.079   6.822   1.806
 7575SOL    HW123624   0.031   6.781   1.884
 7575SOL    HW223625   0.095   6.753   1.737
 7576SOL     OW23626   5.106   2.601   0.343
 7576SOL    HW123627   5.178   2.532   0.339
 7576SOL    HW223628   5.135   2.682   0.291
 7577SOL     OW23629   1.033   6.815   1.263
 7577SOL    HW123630   1.096   6.884   1.227
 7577SOL    HW223631   0.940   6.851   1.262
 7578SOL     OW23632   6.566   5.814   3.535
 7578SOL    HW123633   6.553   5.882   3.608
 7578SOL    HW223634   6.657   5.826   3.495
 7579SOL     OW23635   0.306   1.127   0.181
 7579SOL    HW123636   0.267   1.201   0.126
 7579SOL    HW223637   0.403   1.118   0.160
 7580SOL     OW23638   2.529   4.895   3.680
 7580SOL    HW123639   2.568   4.933   3.763
 7580SOL    HW223640   2.602   4.856   3.623
 7581SOL     OW23641   6.560   0.755   2.503
 7581SOL    HW123642   6.640   0.714   2.458
 7581SOL    HW223643   6.505   0.683   2.544
 7582SOL     OW23644   2.750   1.035   5.784
 7582SOL    HW123645   2.691   1.111   5.810
 7582SOL    HW223646   2.819   1.066   5.719
 7583SOL     OW23647   5.069   2.827   2.992
 7583SOL    HW123648   4.982   2.786   2.965
 7583SOL    HW223649   5.060   2.866   3.083
 7584SOL     OW23650   0.224   0.799   3.525
 7584SOL    HW123651   0.178   0.851   3.454
 7584SOL    HW223652   0.178   0.814   3.613
 7585SOL     OW23653   1.591   1.239   6.824
 7585SOL    HW123654   1.624   1.324   6.782
 7585SOL    HW223655   1.492   1.243   6.834
 7586SOL     OW23656   1.596   0.850   2.389
 7586SOL    HW123657   1.589   0.888   2.297
 7586SOL    HW223658   1.558   0.914   2.455
 7587SOL     OW23659   4.152   0.787   0.752
 7587SOL    HW123660   4.072   0.818   0.700
 7587SOL    HW223661   4.158   0.687   0.749
 7588SOL     OW23662   1.886   2.927   4.366
 7588SOL    HW123663   1.931   2.882   4.443
 7588SOL    HW223664   1.859   2.859   4.299
 7589SOL     OW23665   0.436   0.485   2.694
 7589SOL    HW123666   0.390   0.435   2.767
 7589SOL    HW223667   0.522   0.440   2.672
 7590SOL     OW23668   0.034   0.657   6.750
 7590SOL    HW123669   0.003   0.585   6.812
 7590SOL    HW223670   6.982   0.728   6.743
 7591SOL     OW23671   4.016   3.136   4.693
 7591SOL    HW123672   4.031   3.200   4.617
 7591SOL    HW223673   4.064   3.051   4.674
 7592SOL     OW23674   0.137   6.710   4.875
 7592SOL    HW123675   0.234   6.715   4.898
 7592SOL    HW223676   0.082   6.721   4.958
 7593SOL     OW23677   1.172   1.094   5.904
 7593SOL    HW123678   1.209   1.026   5.968
 7593SOL    HW223679   1.237   1.110   5.830
 7594SOL     OW23680   0.220   4.301   0.119
 7594SOL    HW123681   0.145   4.310   0.185
 7594SOL    HW223682   0.307   4.312   0.166
 7595SOL     OW23683   1.052   3.057   6.269
 7595SOL    HW123684   1.056   2.990   6.342
 7595SOL    HW223685   0.961   3.057   6.228
 7596SOL     OW23686   3.333   1.055   5.409
 7596SOL    HW123687   3.364   0.961   5.402
 7596SOL    HW223688   3.244   1.058   5.455
 7597SOL     OW23689   1.695   4.213   2.072
 7597SOL    HW123690   1.779   4.263   2.050
 7597SOL    HW223691   1.637   4.268   2.132
 7598SOL     OW23692   6.627   0.894   2.805
 7598SOL    HW123693   6.714   0.862   2.768
 7598SOL    HW223694   6.562   0.909   2.729
 7599SOL     OW23695   3.320   3.577   0.745
 7599SOL    HW123696   3.322   3.478   0.761
 7599SOL    HW223697   3.411   3.615   0.763
 7600SOL     OW23698   1.660   6.396   4.374
 7600SOL    HW123699   1.652   6.484   4.328
 7600SOL    HW223700   1.679   6.410   4.471
 7601SOL     OW23701   3.256   6.651   1.840
 7601SOL    HW123702   3.259   6.692   1.931
 7601SOL    HW223703   3.349   6.642   1.804
 7602SOL     OW23704   0.248   2.186   0.453
 7602SOL    HW123705   0.316   2.209   0.383
 7602SOL    HW223706   0.193   2.267   0.474
 7603SOL     OW23707   3.864   6.962   6.088
 7603SOL    HW123708   3.888   6.914   6.172
 7603SOL    HW223709   3.920   0.026   6.079
 7604SOL     OW23710   0.122   2.035   5.200
 7604SOL    HW123711   0.078   1.953   5.166
 7604SOL    HW223712   0.212   2.045   5.157
 7605SOL     OW23713   2.062   6.549   0.162
 7605SOL    HW123714   1.998   6.489   0.210
 7605SOL    HW223715   2.147   6.555   0.213
 7606SOL     OW23716   6.570   1.430   3.121
 7606SOL    HW123717   6.476   1.451   3.096
 7606SOL    HW223718   6.618   1.394   3.040
 7607SOL     OW23719   1.928   6.318   5.804
 7607SOL    HW123720   2.016   6.283   5.772
 7607SOL    HW223721   1.926   6.418   5.794
 7608SOL     OW23722   5.647   2.350   6.221
 7608SOL    HW123723   5.677   2.365   6.315
 7608SOL    HW223724   5.713   2.392   6.158
 7609SOL     OW23725   1.458   1.895   5.072
 7609SOL    HW123726   1.507   1.981   5.063
 7609SOL    HW223727   1.514   1.829   5.123
 7610SOL     OW23728   4.094   5.103   4.852
 7610SOL    HW123729   4.017   5.157   4.887
 7610SOL    HW223730   4.058   5.023   4.804
 7611SOL     OW23731   4.679   3.533   6.973
 7611SOL    HW123732   4.768   3.563   6.938
 7611SOL    HW223733   4.668   3.565   0.048
 7612SOL     OW23734   3.542   1.882   3.043
 7612SOL    HW123735   3.539   1.959   3.107
 7612SOL    HW223736   3.551   1.796   3.094
 7613SOL     OW23737   0.513   1.416   1.176
 7613SOL    HW123738   0.600   1.463   1.164
 7613SOL    HW223739   0.513   1.367   1.263
 7614SOL     OW23740   4.721   4.166   0.247
 7614SOL    HW123741   4.673   4.214   0.320
 7614SOL    HW223742   4.667   4.087   0.218
 7615SOL     OW23743   5.752   3.282   4.866
 7615SOL    HW123744   5.781   3.207   4.924
 7615SOL    HW223745   5.710   3.354   4.922
 7616SOL     OW23746   6.254   0.044   3.344
 7616SOL    HW123747   6.227   0.140   3.343
 7616SOL    HW223748   6.199   7.013   3.412
 7617SOL     OW23749   6.157   4.151   3.555
 7617SOL    HW123750   6.124   4.092   3.629
 7617SOL    HW223751   6.093   4.147   3.478
 7618SOL     OW23752   2.490   2.483   0.339
 7618SOL    HW123753   2.447   2.467   0.250
 7618SOL    HW223754   2.511   2.395   0.382
 7619SOL     OW23755   1.046   1.589   4.464
 7619SOL    HW123756   1.090   1.599   4.553
 7619SOL    HW223757   1.112   1.555   4.397
 7620SOL     OW23758   4.004   4.552   1.093
 7620SOL    HW123759   4.003   4.620   1.019
 7620SOL    HW223760   3.939   4.479   1.073
 7621SOL     OW23761   6.153   4.349   6.937
 7621SOL    HW123762   6.137   4.252   6.918
 7621SOL    HW223763   6.074   4.387   6.984
 7622SOL     OW23764   3.358   3.881   1.284
 7622SOL    HW123765   3.432   3.948   1.288
 7622SOL    HW223766   3.291   3.901   1.355
 7623SOL     OW23767   4.958   4.176   1.415
 7623SOL    HW123768   4.966   4.273   1.437
 7623SOL    HW223769   4.888   4.164   1.344
 7624SOL     OW23770   0.916   3.301   2.420
 7624SOL    HW123771   0.927   3.354   2.337
 7624SOL    HW223772   0.889   3.207   2.397
 7625SOL     OW23773   5.635   0.851   1.610
 7625SOL    HW123774   5.535   0.846   1.611
 7625SOL    HW223775   5.664   0.933   1.560
 7626SOL     OW23776   4.305   0.639   6.015
 7626SOL    HW123777   4.396   0.598   6.025
 7626SOL    HW223778   4.289   0.660   5.918
 7627SOL     OW23779   4.157   2.723   6.753
 7627SOL    HW123780   4.249   2.760   6.737
 7627SOL    HW223781   4.162   2.624   6.762
 7628SOL     OW23782   3.504   2.727   0.385
 7628SOL    HW123783   3.523   2.823   0.403
 7628SOL    HW223784   3.486   2.714   0.288
 7629SOL     OW23785   6.270   2.630   3.288
 7629SOL    HW123786   6.171   2.645   3.281
 7629SOL    HW223787   6.314   2.664   3.205
 7630SOL     OW23788   0.879   6.386   5.100
 7630SOL    HW123789   0.939   6.459   5.066
 7630SOL    HW223790   0.926   6.336   5.173
 7631SOL     OW23791   0.977   0.555   5.667
 7631SOL    HW123792   0.894   0.499   5.672
 7631SOL    HW223793   0.960   0.633   5.607
 7632SOL     OW23794   4.414   5.627   0.381
 7632SOL    HW123795   4.387   5.622   0.478
 7632SOL    HW223796   4.470   5.709   0.367
 7633SOL     OW23797   6.645   0.914   1.290
 7633SOL    HW123798   6.714   0.966   1.239
 7633SOL    HW223799   6.690   0.840   1.340
 7634SOL     OW23800   0.024   2.876   0.102
 7634SOL    HW123801   0.101   2.815   0.080
 7634SOL    HW223802   6.974   2.826   0.155
 7635SOL     OW23803   2.390   3.626   5.706
 7635SOL    HW123804   2.434   3.715   5.702
 7635SOL    HW223805   2.459   3.554   5.694
 7636SOL     OW23806   6.876   3.837   4.365
 7636SOL    HW123807   6.796   3.857   4.421
 7636SOL    HW223808   6.890   3.910   4.298
 7637SOL     OW23809   1.237   5.362   4.737
 7637SOL    HW123810   1.192   5.273   4.729
 7637SOL    HW223811   1.323   5.352   4.787
 7638SOL     OW23812   0.402   6.229   1.147
 7638SOL    HW123813   0.303   6.227   1.135
 7638SOL    HW223814   0.435   6.322   1.130
 7639SOL     OW23815   1.258   1.049   6.899
 7639SOL    HW123816   1.255   1.147   6.880
 7639SOL    HW223817   1.292   1.034   6.991
 7640SOL     OW23818   3.229   1.219   0.832
 7640SOL    HW123819   3.299   1.203   0.762
 7640SOL    HW223820   3.166   1.142   0.834
 7641SOL     OW23821   0.465   4.253   3.870
 7641SOL    HW123822   0.508   4.332   3.826
 7641SOL    HW223823   0.365   4.264   3.868
 7642SOL     OW23824   5.583   1.058   3.101
 7642SOL    HW123825   5.617   0.987   3.039
 7642SOL    HW223826   5.568   1.142   3.049
 7643SOL     OW23827   5.191   3.761   3.559
 7643SOL    HW123828   5.206   3.778   3.656
 7643SOL    HW223829   5.225   3.670   3.535
 7644SOL     OW23830   5.806   3.764   1.192
 7644SOL    HW123831   5.730   3.733   1.248
 7644SOL    HW223832   5.856   3.837   1.240
 7645SOL     OW23833   3.411   4.396   6.484
 7645SOL    HW123834   3.400   4.475   6.424
 7645SOL    HW223835   3.473   4.419   6.559
 7646SOL     OW23836   6.031   1.562   0.554
 7646SOL    HW123837   5.967   1.633   0.525
 7646SOL    HW223838   6.043   1.567   0.653
 7647SOL     OW23839   6.952   2.123   4.290
 7647SOL    HW123840   6.960   2.217   4.324
 7647SOL    HW223841   6.882   2.119   4.218
 7648SOL     OW23842   2.711   1.854   1.866
 7648SOL    HW123843   2.762   1.939   1.881
 7648SOL    HW223844   2.692   1.843   1.769
 7649SOL     OW23845   3.912   1.099   6.069
 7649SOL    HW123846   3.983   1.029   6.078
 7649SOL    HW223847   3.875   1.120   6.160
 7650SOL     OW23848   3.931   2.629   0.488
 7650SOL    HW123849   3.842   2.646   0.530
 7650SOL    HW223850   3.942   2.530   0.472
 7651SOL     OW23851   3.291   4.977   6.077
 7651SOL    HW123852   3.250   4.966   5.986
 7651SOL    HW223853   3.303   5.074   6.097
 7652SOL     OW23854   1.513   1.160   4.300
 7652SOL    HW123855   1.484   1.221   4.227
 7652SOL    HW223856   1.457   1.077   4.298
 7653SOL     OW23857   1.391   1.204   6.513
 7653SOL    HW123858   1.412   1.294   6.550
 7653SOL    HW223859   1.403   1.205   6.413
 7654SOL     OW23860   5.596   1.774   6.368
 7654SOL    HW123861   5.571   1.865   6.334
 7654SOL    HW223862   5.691   1.754   6.345
 7655SOL     OW23863   3.329   1.519   3.217
 7655SOL    HW123864   3.285   1.432   3.236
 7655SOL    HW223865   3.283   1.565   3.141
 7656SOL     OW23866   6.724   3.198   6.282
 7656SOL    HW123867   6.715   3.140   6.201
 7656SOL    HW223868   6.790   3.271   6.264
 7657SOL     OW23869   1.133   4.065   4.581
 7657SOL    HW123870   1.213   4.083   4.638
 7657SOL    HW223871   1.151   4.098   4.488
 7658SOL     OW23872   2.363   0.822   1.198
 7658SOL    HW123873   2.317   0.899   1.156
 7658SOL    HW223874   2.304   0.781   1.268
 7659SOL     OW23875   4.695   4.160   5.974
 7659SOL    HW123876   4.768   4.097   6.000
 7659SOL    HW223877   4.649   4.124   5.892
 7660SOL     OW23878   6.765   5.252   5.249
 7660SOL    HW123879   6.731   5.161   5.271
 7660SOL    HW223880   6.747   5.273   5.153
 7661SOL     OW23881   3.970   1.762   5.360
 7661SOL    HW123882   4.060   1.742   5.399
 7661SOL    HW223883   3.918   1.677   5.350
 7662SOL     OW23884   6.107   6.724   1.342
 7662SOL    HW123885   6.109   6.819   1.375
 7662SOL    HW223886   6.032   6.713   1.277
 7663SOL     OW23887   0.112   5.550   5.454
 7663SOL    HW123888   0.168   5.561   5.372
 7663SOL    HW223889   0.019   5.582   5.436
 7664SOL     OW23890   3.779   1.948   1.961
 7664SOL    HW123891   3.717   2.026   1.973
 7664SOL    HW223892   3.871   1.982   1.942
 7665SOL     OW23893   3.791   0.295   5.852
 7665SOL    HW123894   3.763   0.238   5.774
 7665SOL    HW223895   3.752   0.256   5.936
 7666SOL     OW23896   5.357   4.287   3.379
 7666SOL    HW123897   5.443   4.337   3.378
 7666SOL    HW223898   5.290   4.337   3.434
 7667SOL     OW23899   3.857   5.946   2.464
 7667SOL    HW123900   3.791   6.002   2.414
 7667SOL    HW223901   3.824   5.931   2.557
 7668SOL     OW23902   2.279   5.706   0.704
 7668SOL    HW123903   2.179   5.706   0.702
 7668SOL    HW223904   2.311   5.781   0.762
 7669SOL     OW23905   2.154   1.196   6.305
 7669SOL    HW123906   2.182   1.132   6.377
 7669SOL    HW223907   2.235   1.228   6.256
 7670SOL     OW23908   0.457   0.003   0.908
 7670SOL    HW123909   0.393   0.077   0.925
 7670SOL    HW223910   0.550   0.035   0.926
 7671SOL     OW23911   3.400   0.506   0.983
 7671SOL    HW123912   3.400   0.425   0.924
 7671SOL    HW223913   3.454   0.578   0.940
 7672SOL     OW23914   4.994   4.815   2.464
 7672SOL    HW123915   5.044   4.867   2.395
 7672SOL    HW223916   5.040   4.729   2.481
 7673SOL     OW23917   1.478   6.209   4.175
 7673SOL    HW123918   1.550   6.233   4.240
 7673SOL    HW223919   1.415   6.143   4.217
 7674SOL     OW23920   4.798   5.928   4.392
 7674SOL    HW123921   4.872   5.864   4.415
 7674SOL    HW223922   4.836   6.011   4.351
 7675SOL     OW23923   4.841   6.115   3.287
 7675SOL    HW123924   4.928   6.066   3.293
 7675SOL    HW223925   4.765   6.050   3.295
 7676SOL     OW23926   3.707   3.018   5.529
 7676SOL    HW123927   3.664   3.106   5.505
 7676SOL    HW223928   3.801   3.017   5.497
 7677SOL     OW23929   6.430   4.681   0.350
 7677SOL    HW123930   6.494   4.742   0.398
 7677SOL    HW223931   6.367   4.736   0.295
 7678SOL     OW23932   1.879   1.116   5.257
 7678SOL    HW123933   1.800   1.173   5.235
 7678SOL    HW223934   1.932   1.160   5.330
 7679SOL     OW23935   3.523   5.966   5.490
 7679SOL    HW123936   3.549   6.063   5.498
 7679SOL    HW223937   3.425   5.960   5.472
 7680SOL     OW23938   1.785   6.910   4.874
 7680SOL    HW123939   1.754   6.868   4.789
 7680SOL    HW223940   1.842   6.846   4.924
 7681SOL     OW23941   2.619   3.467   6.345
 7681SOL    HW123942   2.626   3.385   6.289
 7681SOL    HW223943   2.530   3.511   6.330
 7682SOL     OW23944   3.178   0.846   2.942
 7682SOL    HW123945   3.141   0.848   3.035
 7682SOL    HW223946   3.164   0.755   2.902
 7683SOL     OW23947   0.507   5.116   4.598
 7683SOL    HW123948   0.484   5.109   4.500
 7683SOL    HW223949   0.594   5.070   4.614
 7684SOL     OW23950   4.632   3.214   1.140
 7684SOL    HW123951   4.674   3.193   1.228
 7684SOL    HW223952   4.670   3.300   1.105
 7685SOL     OW23953   2.411   0.541   0.302
 7685SOL    HW123954   2.337   0.601   0.272
 7685SOL    HW223955   2.379   0.482   0.376
 7686SOL     OW23956   6.280   6.880   5.013
 7686SOL    HW123957   6.262   6.783   5.029
 7686SOL    HW223958   6.196   6.924   4.980
 7687SOL     OW23959   5.657   4.151   6.385
 7687SOL    HW123960   5.644   4.155   6.286
 7687SOL    HW223961   5.735   4.091   6.405
 7688SOL     OW23962   0.149   4.111   6.288
 7688SOL    HW123963   0.239   4.123   6.247
 7688SOL    HW223964   0.091   4.058   6.226
 7689SOL     OW23965   4.352   0.958   1.662
 7689SOL    HW123966   4.374   0.867   1.627
 7689SOL    HW223967   4.395   1.028   1.605
 7690SOL     OW23968   5.603   5.748   1.662
 7690SOL    HW123969   5.614   5.756   1.563
 7690SOL    HW223970   5.548   5.825   1.694
 7691SOL     OW23971   4.950   3.845   3.421
 7691SOL    HW123972   5.042   3.821   3.453
 7691SOL    HW223973   4.926   3.788   3.343
 7692SOL     OW23974   3.084   0.309   2.625
 7692SOL    HW123975   3.030   0.249   2.567
 7692SOL    HW223976   3.026   0.349   2.696
 7693SOL     OW23977   2.200   0.989   1.784
 7693SOL    HW123978   2.295   1.019   1.781
 7693SOL    HW223979   2.141   1.069   1.792
 7694SOL     OW23980   4.906   1.322   5.201
 7694SOL    HW123981   4.986   1.353   5.150
 7694SOL    HW223982   4.860   1.400   5.242
 7695SOL     OW23983   4.628   0.113   3.870
 7695SOL    HW123984   4.538   0.142   3.904
 7695SOL    HW223985   4.615   0.056   3.789
 7696SOL     OW23986   1.771   2.961   5.563
 7696SOL    HW123987   1.757   2.873   5.517
 7696SOL    HW223988   1.684   2.996   5.596
 7697SOL     OW23989   4.902   6.900   2.936
 7697SOL    HW123990   4.907   6.981   2.877
 7697SOL    HW223991   4.806   6.876   2.952
 7698SOL     OW23992   6.103   3.025   0.706
 7698SOL    HW123993   6.174   2.992   0.644
 7698SOL    HW223994   6.100   3.125   0.703
 7699SOL     OW23995   4.759   5.681   5.794
 7699SOL    HW123996   4.699   5.628   5.734
 7699SOL    HW223997   4.847   5.696   5.749
 7700SOL     OW23998   4.951   6.144   2.553
 7700SOL    HW123999   5.046   6.124   2.579
 7700SOL    HW224000   4.934   6.108   2.462
 7701SOL     OW24001   1.277   2.522   5.969
 7701SOL    HW124002   1.262   2.493   5.875
 7701SOL    HW224003   1.374   2.538   5.985
 7702SOL     OW24004   4.521   6.987   4.398
 7702SOL    HW124005   4.466   6.989   4.314
 7702SOL    HW224006   4.506   0.053   4.450
 7703SOL     OW24007   6.432   0.093   5.491
 7703SOL    HW124008   6.407   0.060   5.400
 7703SOL    HW224009   6.486   0.023   5.538
 7704SOL     OW24010   0.779   1.560   4.782
 7704SOL    HW124011   0.710   1.507   4.831
 7704SOL    HW224012   0.761   1.556   4.684
 7705SOL     OW24013   1.422   5.232   6.699
 7705SOL    HW124014   1.322   5.225   6.692
 7705SOL    HW224015   1.454   5.177   6.775
 7706SOL     OW24016   3.512   2.884   2.198
 7706SOL    HW124017   3.444   2.876   2.270
 7706SOL    HW224018   3.469   2.867   2.109
 7707SOL     OW24019   6.909   3.905   6.652
 7707SOL    HW124020   7.001   3.871   6.672
 7707SOL    HW224021   6.856   3.834   6.606
 7708SOL     OW24022   2.158   0.218   4.543
 7708SOL    HW124023   2.244   0.268   4.533
 7708SOL    HW224024   2.169   0.147   4.614
 7709SOL     OW24025   0.222   4.808   1.559
 7709SOL    HW124026   0.123   4.798   1.567
 7709SOL    HW224027   0.245   4.839   1.467
 7710SOL     OW24028   0.036   3.063   1.261
 7710SOL    HW124029   0.048   2.978   1.312
 7710SOL    HW224030   0.123   3.091   1.220
 7711SOL     OW24031   6.958   4.837   4.828
 7711SOL    HW124032   6.924   4.890   4.905
 7711SOL    HW224033   7.015   4.894   4.770
 7712SOL     OW24034   0.541   5.492   5.581
 7712SOL    HW124035   0.637   5.517   5.569
 7712SOL    HW224036   0.492   5.566   5.626
 7713SOL     OW24037   1.208   4.048   6.941
 7713SOL    HW124038   1.283   4.100   6.980
 7713SOL    HW224039   1.243   3.986   6.871
 7714SOL     OW24040   6.742   1.581   4.493
 7714SOL    HW124041   6.717   1.493   4.532
 7714SOL    HW224042   6.825   1.571   4.437
 7715SOL     OW24043   3.800   3.312   5.094
 7715SOL    HW124044   3.878   3.368   5.121
 7715SOL    HW224045   3.724   3.371   5.068
 7716SOL     OW24046   1.023   6.331   6.206
 7716SOL    HW124047   1.008   6.347   6.304
 7716SOL    HW224048   1.006   6.415   6.155
 7717SOL     OW24049   0.405   2.292   6.229
 7717SOL    HW124050   0.473   2.337   6.287
 7717SOL    HW224051   0.314   2.302   6.271
 7718SOL     OW24052   0.987   3.366   3.181
 7718SOL    HW124053   0.951   3.421   3.257
 7718SOL    HW224054   1.020   3.279   3.216
 7719SOL     OW24055   1.933   5.377   4.869
 7719SOL    HW124056   1.971   5.318   4.798
 7719SOL    HW224057   2.008   5.413   4.925
 7720SOL     OW24058   4.721   1.160   6.553
 7720SOL    HW124059   4.787   1.115   6.612
 7720SOL    HW224060   4.754   1.160   6.459
 7721SOL     OW24061   0.541   0.032   2.654
 7721SOL    HW124062   0.555   6.978   2.586
 7721SOL    HW224063   0.450   0.023   2.693
 7722SOL     OW24064   0.845   5.764   3.912
 7722SOL    HW124065   0.774   5.704   3.948
 7722SOL    HW224066   0.868   5.736   3.819
 7723SOL     OW24067   4.921   4.108   6.989
 7723SOL    HW124068   4.871   4.029   6.954
 7723SOL    HW224069   4.916   4.109   0.070
 7724SOL     OW24070   2.173   3.877   1.217
 7724SOL    HW124071   2.099   3.938   1.188
 7724SOL    HW224072   2.141   3.820   1.293
 7725SOL     OW24073   5.335   3.205   3.689
 7725SOL    HW124074   5.354   3.199   3.591
 7725SOL    HW224075   5.247   3.250   3.703
 7726SOL     OW24076   1.171   3.361   5.426
 7726SOL    HW124077   1.188   3.438   5.487
 7726SOL    HW224078   1.254   3.342   5.373
 7727SOL     OW24079   4.159   0.946   2.147
 7727SOL    HW124080   4.086   0.888   2.183
 7727SOL    HW224081   4.144   0.963   2.050
 7728SOL     OW24082   1.942   3.826   4.631
 7728SOL    HW124083   1.928   3.801   4.727
 7728SOL    HW224084   2.035   3.804   4.604
 7729SOL     OW24085   6.816   1.718   3.273
 7729SOL    HW124086   6.821   1.770   3.359
 7729SOL    HW224087   6.906   1.712   3.232
 7730SOL     OW24088   6.391   4.358   4.946
 7730SOL    HW124089   6.342   4.373   5.032
 7730SOL    HW224090   6.447   4.439   4.925
 7731SOL     OW24091   6.916   6.791   6.344
 7731SOL    HW124092   7.012   6.816   6.356
 7731SOL    HW224093   6.908   6.727   6.267
 7732SOL     OW24094   3.455   6.863   6.288
 7732SOL    HW124095   3.489   6.874   6.195
 7732SOL    HW224096   3.365   6.907   6.297
 7733SOL     OW24097   6.109   5.683   1.676
 7733SOL    HW124098   6.077   5.607   1.733
 7733SOL    HW224099   6.137   5.759   1.735
 7734SOL     OW24100   3.346   3.688   4.670
 7734SOL    HW124101   3.248   3.700   4.685
 7734SOL    HW224102   3.394   3.774   4.690
 7735SOL     OW24103   0.203   6.604   0.938
 7735SOL    HW124104   0.254   6.628   0.855
 7735SOL    HW224105   0.160   6.515   0.926
 7736SOL     OW24106   1.711   2.792   6.541
 7736SOL    HW124107   1.616   2.772   6.516
 7736SOL    HW224108   1.768   2.713   6.518
 7737SOL     OW24109   4.125   4.644   0.495
 7737SOL    HW124110   4.038   4.638   0.544
 7737SOL    HW224111   4.117   4.599   0.406
 7738SOL     OW24112   2.682   0.437   5.778
 7738SOL    HW124113   2.608   0.441   5.846
 7738SOL    HW224114   2.648   0.471   5.690
 7739SOL     OW24115   1.949   1.658   0.875
 7739SOL    HW124116   1.925   1.755   0.885
 7739SOL    HW224117   2.045   1.645   0.902
 7740SOL     OW24118   1.717   0.293   5.043
 7740SOL    HW124119   1.730   0.296   5.142
 7740SOL    HW224120   1.702   0.386   5.009
 7741SOL     OW24121   1.244   4.381   6.077
 7741SOL    HW124122   1.294   4.424   6.001
 7741SOL    HW224123   1.191   4.450   6.125
 7742SOL     OW24124   4.760   1.783   4.137
 7742SOL    HW124125   4.684   1.728   4.171
 7742SOL    HW224126   4.727   1.873   4.110
 7743SOL     OW24127   4.659   1.830   5.786
 7743SOL    HW124128   4.578   1.863   5.738
 7743SOL    HW224129   4.735   1.820   5.721
 7744SOL     OW24130   1.224   6.571   4.700
 7744SOL    HW124131   1.242   6.636   4.773
 7744SOL    HW224132   1.304   6.564   4.640
 7745SOL     OW24133   2.901   6.967   0.809
 7745SOL    HW124134   3.001   6.967   0.798
 7745SOL    HW224135   2.866   6.874   0.796
 7746SOL     OW24136   0.831   6.033   0.555
 7746SOL    HW124137   0.927   6.021   0.533
 7746SOL    HW224138   0.781   5.948   0.539
 7747SOL     OW24139   0.891   5.947   0.835
 7747SOL    HW124140   0.956   6.019   0.862
 7747SOL    HW224141   0.870   5.957   0.738
 7748SOL     OW24142   4.745   2.256   6.073
 7748SOL    HW124143   4.741   2.157   6.060
 7748SOL    HW224144   4.840   2.286   6.075
 7749SOL     OW24145   3.475   3.856   4.092
 7749SOL    HW124146   3.405   3.869   4.162
 7749SOL    HW224147   3.464   3.765   4.051
 7750SOL     OW24148   5.550   3.778   5.650
 7750SOL    HW124149   5.566   3.863   5.701
 7750SOL    HW224150   5.607   3.776   5.569
 7751SOL     OW24151   6.955   1.286   4.625
 7751SOL    HW124152   6.977   1.262   4.719
 7751SOL    HW224153   6.866   1.249   4.601
 7752SOL     OW24154   6.377   5.851   5.401
 7752SOL    HW124155   6.475   5.868   5.384
 7752SOL    HW224156   6.323   5.891   5.327
 7753SOL     OW24157   2.805   1.371   4.736
 7753SOL    HW124158   2.726   1.431   4.720
 7753SOL    HW224159   2.884   1.405   4.685
 7754SOL     OW24160   6.337   0.943   1.887
 7754SOL    HW124161   6.257   0.882   1.886
 7754SOL    HW224162   6.405   0.907   1.950
 7755SOL     OW24163   1.127   5.626   4.994
 7755SOL    HW124164   1.113   5.597   4.899
 7755SOL    HW224165   1.041   5.618   5.044
 7756SOL     OW24166   3.606   5.602   2.667
 7756SOL    HW124167   3.679   5.636   2.607
 7756SOL    HW224168   3.642   5.590   2.759
 7757SOL     OW24169   4.414   6.357   6.255
 7757SOL    HW124170   4.328   6.408   6.252
 7757SOL    HW224171   4.483   6.407   6.201
 7758SOL     OW24172   2.815   2.162   5.761
 7758SOL    HW124173   2.844   2.243   5.812
 7758SOL    HW224174   2.781   2.190   5.671
 7759SOL     OW24175   2.072   0.758   5.231
 7759SOL    HW124176   2.151   0.785   5.286
 7759SOL    HW224177   2.066   0.817   5.150
 7760SOL     OW24178   4.591   2.105   3.062
 7760SOL    HW124179   4.671   2.076   3.115
 7760SOL    HW224180   4.620   2.136   2.972
 7761SOL     OW24181   3.767   6.978   6.888
 7761SOL    HW124182   3.809   6.952   6.801
 7761SOL    HW224183   3.737   6.896   6.937
 7762SOL     OW24184   2.678   2.085   0.927
 7762SOL    HW124185   2.594   2.097   0.874
 7762SOL    HW224186   2.732   2.011   0.886
 7763SOL     OW24187   2.205   1.736   0.988
 7763SOL    HW124188   2.203   1.824   1.035
 7763SOL    HW224189   2.297   1.721   0.950
 7764SOL     OW24190   3.449   2.886   3.116
 7764SOL    HW124191   3.497   2.867   3.031
 7764SOL    HW224192   3.360   2.927   3.096
 7765SOL     OW24193   6.966   2.138   2.586
 7765SOL    HW124194   6.971   2.045   2.623
 7765SOL    HW224195   6.951   2.134   2.488
 7766SOL     OW24196   6.906   3.242   6.902
 7766SOL    HW124197   6.862   3.255   6.990
 7766SOL    HW224198   6.997   3.285   6.904
 7767SOL     OW24199   5.446   4.227   5.441
 7767SOL    HW124200   5.544   4.237   5.424
 7767SOL    HW224201   5.410   4.152   5.385
 7768SOL     OW24202   3.574   5.093   2.222
 7768SOL    HW124203   3.488   5.068   2.178
 7768SOL    HW224204   3.558   5.107   2.320
 7769SOL     OW24205   6.165   1.835   2.092
 7769SOL    HW124206   6.152   1.794   2.002
 7769SOL    HW224207   6.109   1.917   2.099
 7770SOL     OW24208   3.994   5.573   1.515
 7770SOL    HW124209   4.037   5.531   1.596
 7770SOL    HW224210   4.055   5.642   1.477
 7771SOL     OW24211   2.428   1.699   5.391
 7771SOL    HW124212   2.371   1.640   5.448
 7771SOL    HW224213   2.474   1.644   5.322
 7772SOL     OW24214   5.457   1.380   4.868
 7772SOL    HW124215   5.520   1.324   4.921
 7772SOL    HW224216   5.465   1.476   4.896
 7773SOL     OW24217   3.881   4.431   5.333
 7773SOL    HW124218   3.781   4.436   5.332
 7773SOL    HW224219   3.909   4.335   5.335
 7774SOL     OW24220   4.491   1.213   6.081
 7774SOL    HW124221   4.482   1.180   6.175
 7774SOL    HW224222   4.501   1.312   6.082
 7775SOL     OW24223   3.281   0.040   2.088
 7775SOL    HW124224   3.260   0.069   1.994
 7775SOL    HW224225   3.308   0.119   2.142
 7776SOL     OW24226   3.635   3.516   0.468
 7776SOL    HW124227   3.580   3.591   0.504
 7776SOL    HW224228   3.675   3.542   0.380
 7777SOL     OW24229   1.681   0.719   6.908
 7777SOL    HW124230   1.702   0.754   6.816
 7777SOL    HW224231   1.740   0.641   6.927
 7778SOL     OW24232   5.814   0.613   0.648
 7778SOL    HW124233   5.728   0.663   0.639
 7778SOL    HW224234   5.887   0.664   0.603
 7779SOL     OW24235   3.820   3.400   6.773
 7779SOL    HW124236   3.766   3.481   6.793
 7779SOL    HW224237   3.762   3.319   6.777
 7780SOL     OW24238   1.301   0.244   4.458
 7780SOL    HW124239   1.325   0.184   4.381
 7780SOL    HW224240   1.269   0.188   4.534
 7781SOL     OW24241   1.363   4.926   5.057
 7781SOL    HW124242   1.284   4.972   5.099
 7781SOL    HW224243   1.421   4.994   5.012
 7782SOL     OW24244   3.257   4.551   6.729
 7782SOL    HW124245   3.298   4.460   6.721
 7782SOL    HW224246   3.270   4.585   6.822
 7783SOL     OW24247   3.018   5.396   5.956
 7783SOL    HW124248   2.972   5.317   5.914
 7783SOL    HW224249   3.063   5.450   5.884
 7784SOL     OW24250   0.160   2.543   6.815
 7784SOL    HW124251   0.219   2.522   6.736
 7784SOL    HW224252   0.093   2.469   6.826
 7785SOL     OW24253   2.522   5.901   4.098
 7785SOL    HW124254   2.612   5.859   4.101
 7785SOL    HW224255   2.526   5.993   4.137
 7786SOL     OW24256   3.086   4.025   4.721
 7786SOL    HW124257   3.115   3.979   4.805
 7786SOL    HW224258   2.998   4.069   4.736
 7787SOL     OW24259   2.734   2.241   5.504
 7787SOL    HW124260   2.637   2.217   5.500
 7787SOL    HW224261   2.757   2.299   5.426
 7788SOL     OW24262   0.737   1.623   0.286
 7788SOL    HW124263   0.719   1.657   0.194
 7788SOL    HW224264   0.655   1.631   0.342
 7789SOL     OW24265   1.978   6.953   1.105
 7789SOL    HW124266   1.901   6.974   1.165
 7789SOL    HW224267   2.048   0.006   1.115
 7790SOL     OW24268   6.107   3.773   2.627
 7790SOL    HW124269   6.039   3.725   2.682
 7790SOL    HW224270   6.122   3.865   2.665
 7791SOL     OW24271   1.530   4.943   4.674
 7791SOL    HW124272   1.581   5.000   4.610
 7791SOL    HW224273   1.543   4.977   4.767
 7792SOL     OW24274   2.815   5.206   5.768
 7792SOL    HW124275   2.826   5.301   5.739
 7792SOL    HW224276   2.718   5.182   5.769
 7793SOL     OW24277   0.729   1.035   6.466
 7793SOL    HW124278   0.769   1.124   6.447
 7793SOL    HW224279   0.783   0.988   6.536
 7794SOL     OW24280   5.426   5.460   3.867
 7794SOL    HW124281   5.437   5.465   3.767
 7794SOL    HW224282   5.444   5.366   3.897
 7795SOL     OW24283   1.945   5.044   5.124
 7795SOL    HW124284   1.942   5.009   5.217
 7795SOL    HW224285   1.912   5.138   5.122
 7796SOL     OW24286   3.914   3.308   3.782
 7796SOL    HW124287   3.881   3.218   3.810
 7796SOL    HW224288   3.966   3.349   3.858
 7797SOL     OW24289   1.056   0.182   2.451
 7797SOL    HW124290   1.153   0.163   2.469
 7797SOL    HW224291   1.009   0.096   2.432
 7798SOL     OW24292   4.379   5.538   6.745
 7798SOL    HW124293   4.321   5.511   6.822
 7798SOL    HW224294   4.326   5.531   6.660
 7799SOL     OW24295   6.683   5.062   1.120
 7799SOL    HW124296   6.667   5.146   1.172
 7799SOL    HW224297   6.686   4.984   1.184
 7800SOL     OW24298   0.836   5.769   2.191
 7800SOL    HW124299   0.799   5.806   2.276
 7800SOL    HW224300   0.794   5.681   2.171
 7801SOL     OW24301   3.936   2.007   6.627
 7801SOL    HW124302   3.935   1.907   6.633
 7801SOL    HW224303   3.940   2.035   6.531
 7802SOL     OW24304   5.908   2.160   1.675
 7802SOL    HW124305   5.981   2.093   1.670
 7802SOL    HW224306   5.856   2.160   1.589
 7803SOL     OW24307   3.984   4.237   5.603
 7803SOL    HW124308   3.957   4.148   5.642
 7803SOL    HW224309   3.961   4.238   5.505
 7804SOL     OW24310   4.739   1.430   6.349
 7804SOL    HW124311   4.772   1.359   6.287
 7804SOL    HW224312   4.759   1.520   6.310
 7805SOL     OW24313   4.908   3.751   2.446
 7805SOL    HW124314   4.998   3.746   2.403
 7805SOL    HW224315   4.875   3.658   2.464
 7806SOL     OW24316   4.958   2.745   0.079
 7806SOL    HW124317   4.886   2.783   0.137
 7806SOL    HW224318   5.046   2.785   0.105
 7807SOL     OW24319   0.180   3.765   6.699
 7807SOL    HW124320   0.217   3.673   6.703
 7807SOL    HW224321   0.246   3.826   6.655
 7808SOL     OW24322   0.575   1.486   4.955
 7808SOL    HW124323   0.517   1.513   5.032
 7808SOL    HW224324   0.626   1.404   4.980
 7809SOL     OW24325   1.798   5.271   5.130
 7809SOL    HW124326   1.835   5.336   5.063
 7809SOL    HW224327   1.737   5.320   5.192
 7810SOL     OW24328   2.788   1.291   0.042
 7810SOL    HW124329   2.777   1.220   6.990
 7810SOL    HW224330   2.699   1.317   0.077
 7811SOL     OW24331   0.055   4.082   4.357
 7811SOL    HW124332   0.062   4.144   4.435
 7811SOL    HW224333   0.119   4.111   4.286
 7812SOL     OW24334   1.336   1.299   3.390
 7812SOL    HW124335   1.376   1.227   3.447
 7812SOL    HW224336   1.348   1.388   3.433
 7813SOL     OW24337   6.335   2.938   0.570
 7813SOL    HW124338   6.391   2.991   0.635
 7813SOL    HW224339   6.344   2.978   0.479
 7814SOL     OW24340   0.795   3.923   3.619
 7814SOL    HW124341   0.713   3.885   3.575
 7814SOL    HW224342   0.863   3.851   3.631
 7815SOL     OW24343   6.325   1.802   6.183
 7815SOL    HW124344   6.332   1.796   6.283
 7815SOL    HW224345   6.250   1.743   6.152
 7816SOL     OW24346   1.279   4.004   4.988
 7816SOL    HW124347   1.243   3.935   5.051
 7816SOL    HW224348   1.219   4.084   4.990
 7817SOL     OW24349   5.177   3.570   4.961
 7817SOL    HW124350   5.222   3.643   4.910
 7817SOL    HW224351   5.109   3.609   5.024
 7818SOL     OW24352   5.274   5.243   2.685
 7818SOL    HW124353   5.191   5.254   2.740
 7818SOL    HW224354   5.320   5.158   2.712
 7819SOL     OW24355   6.803   1.312   1.581
 7819SOL    HW124356   6.707   1.286   1.588
 7819SOL    HW224357   6.860   1.233   1.606
 7820SOL     OW24358   1.965   0.404   6.212
 7820SOL    HW124359   1.905   0.448   6.279
 7820SOL    HW224360   2.033   0.470   6.181
 7821SOL     OW24361   2.989   5.259   1.298
 7821SOL    HW124362   3.058   5.269   1.369
 7821SOL    HW224363   2.997   5.168   1.256
 7822SOL     OW24364   1.666   5.908   5.301
 7822SOL    HW124365   1.730   5.981   5.277
 7822SOL    HW224366   1.626   5.870   5.218
 7823SOL     OW24367   1.580   4.363   4.760
 7823SOL    HW124368   1.615   4.331   4.848
 7823SOL    HW224369   1.566   4.462   4.764
 7824SOL     OW24370   0.351   3.188   5.362
 7824SOL    HW124371   0.399   3.269   5.329
 7824SOL    HW224372   0.265   3.178   5.312
 7825SOL     OW24373   3.073   1.390   6.640
 7825SOL    HW124374   3.052   1.336   6.721
 7825SOL    HW224375   3.154   1.446   6.658
 7826SOL     OW24376   0.833   3.014   6.081
 7826SOL    HW124377   0.798   2.922   6.065
 7826SOL    HW224378   0.784   3.079   6.022
 7827SOL     OW24379   6.324   5.567   5.099
 7827SOL    HW124380   6.363   5.651   5.062
 7827SOL    HW224381   6.394   5.518   5.150
 7828SOL     OW24382   0.767   5.053   0.268
 7828SOL    HW124383   0.811   4.975   0.223
 7828SOL    HW224384   0.700   5.094   0.206
 7829SOL     OW24385   3.760   3.060   0.809
 7829SOL    HW124386   3.731   3.109   0.891
 7829SOL    HW224387   3.795   3.126   0.742
 7830SOL     OW24388   2.540   5.066   3.915
 7830SOL    HW124389   2.495   5.102   3.997
 7830SOL    HW224390   2.482   5.082   3.835
 7831SOL     OW24391   1.508   0.382   6.809
 7831SOL    HW124392   1.504   0.283   6.793
 7831SOL    HW224393   1.551   0.400   6.897
 7832SOL     OW24394   6.282   1.031   4.821
 7832SOL    HW124395   6.203   1.017   4.880
 7832SOL    HW224396   6.276   0.969   4.742
 7833SOL     OW24397   1.796   0.460   3.534
 7833SOL    HW124398   1.783   0.448   3.632
 7833SOL    HW224399   1.728   0.407   3.484
 7834SOL     OW24400   6.647   3.711   5.113
 7834SOL    HW124401   6.563   3.746   5.072
 7834SOL    HW224402   6.706   3.787   5.138
 7835SOL     OW24403   4.018   2.536   5.437
 7835SOL    HW124404   4.066   2.547   5.350
 7835SOL    HW224405   4.079   2.491   5.502
 7836SOL     OW24406   3.446   3.576   3.982
 7836SOL    HW124407   3.535   3.532   3.982
 7836SOL    HW224408   3.406   3.571   3.890
 7837SOL     OW24409   0.137   5.757   0.509
 7837SOL    HW124410   0.105   5.849   0.531
 7837SOL    HW224411   0.094   5.690   0.569
 7838SOL     OW24412   4.467   5.633   2.133
 7838SOL    HW124413   4.460   5.728   2.103
 7838SOL    HW224414   4.375   5.596   2.150
 7839SOL     OW24415   5.887   3.043   4.134
 7839SOL    HW124416   5.875   2.954   4.177
 7839SOL    HW224417   5.802   3.095   4.142
 7840SOL     OW24418   1.898   3.179   4.378
 7840SOL    HW124419   1.905   3.080   4.390
 7840SOL    HW224420   1.978   3.213   4.330
 7841SOL     OW24421   4.153   1.997   6.207
 7841SOL    HW124422   4.208   1.923   6.246
 7841SOL    HW224423   4.109   1.965   6.123
 7842SOL     OW24424   1.242   0.702   1.925
 7842SOL    HW124425   1.182   0.669   1.852
 7842SOL    HW224426   1.318   0.638   1.937
 7843SOL     OW24427   0.031   6.017   3.476
 7843SOL    HW124428   0.002   6.111   3.493
 7843SOL    HW224429   0.069   5.978   3.560
 7844SOL     OW24430   4.134   1.364   2.258
 7844SOL    HW124431   4.057   1.367   2.194
 7844SOL    HW224432   4.120   1.433   2.330
 7845SOL     OW24433   6.820   2.958   1.132
 7845SOL    HW124434   6.882   3.023   1.176
 7845SOL    HW224435   6.744   2.938   1.193
 7846SOL     OW24436   1.144   1.540   0.807
 7846SOL    HW124437   1.060   1.593   0.818
 7846SOL    HW224438   1.201   1.551   0.888
 7847SOL     OW24439   5.560   3.990   5.827
 7847SOL    HW124440   5.522   4.070   5.780
 7847SOL    HW224441   5.628   4.020   5.894
 7848SOL     OW24442   3.449   4.375   1.269
 7848SOL    HW124443   3.398   4.303   1.317
 7848SOL    HW224444   3.478   4.341   1.179
 7849SOL     OW24445   4.451   4.669   7.004
 7849SOL    HW124446   4.507   4.606   6.950
 7849SOL    HW224447   4.502   4.754   0.001
 7850SOL     OW24448   6.988   1.263   3.749
 7850SOL    HW124449   7.005   1.204   3.670
 7850SOL    HW224450   6.959   1.353   3.718
 7851SOL     OW24451   6.972   5.047   1.386
 7851SOL    HW124452   0.044   5.067   1.348
 7851SOL    HW224453   6.966   4.949   1.407
 7852SOL     OW24454   0.989   3.149   6.541
 7852SOL    HW124455   1.074   3.105   6.573
 7852SOL    HW224456   0.991   3.156   6.441
 7853SOL     OW24457   3.899   2.974   1.766
 7853SOL    HW124458   3.974   2.908   1.755
 7853SOL    HW224459   3.933   3.054   1.816
 7854SOL     OW24460   4.971   2.051   6.725
 7854SOL    HW124461   4.949   1.963   6.683
 7854SOL    HW224462   5.070   2.067   6.719
 7855SOL     OW24463   5.338   0.026   4.511
 7855SOL    HW124464   5.240   0.005   4.518
 7855SOL    HW224465   5.360   0.102   4.571
 7856SOL     OW24466   2.175   6.319   4.664
 7856SOL    HW124467   2.152   6.351   4.756
 7856SOL    HW224468   2.146   6.387   4.597
 7857SOL     OW24469   6.089   4.912   1.306
 7857SOL    HW124470   6.047   4.945   1.222
 7857SOL    HW224471   6.100   4.813   1.301
 7858SOL     OW24472   0.268   4.270   6.492
 7858SOL    HW124473   0.216   4.203   6.438
 7858SOL    HW224474   0.206   4.324   6.547
 7859SOL     OW24475   5.386   2.534   0.742
 7859SOL    HW124476   5.383   2.590   0.659
 7859SOL    HW224477   5.434   2.583   0.814
 7860SOL     OW24478   2.939   1.183   4.928
 7860SOL    HW124479   2.935   1.223   5.019
 7860SOL    HW224480   2.876   1.231   4.867
 7861SOL     OW24481   2.178   6.165   0.363
 7861SOL    HW124482   2.127   6.202   0.286
 7861SOL    HW224483   2.239   6.235   0.400
 7862SOL     OW24484   2.239   5.782   6.998
 7862SOL    HW124485   2.258   5.880   6.993
 7862SOL    HW224486   2.325   5.731   6.999
 7863SOL     OW24487   0.380   3.987   3.432
 7863SOL    HW124488   0.439   3.920   3.477
 7863SOL    HW224489   0.322   3.941   3.365
 7864SOL     OW24490   2.008   5.996   5.547
 7864SOL    HW124491   1.999   5.906   5.506
 7864SOL    HW224492   2.102   6.029   5.534
 7865SOL     OW24493   5.653   4.554   3.803
 7865SOL    HW124494   5.578   4.550   3.869
 7865SOL    HW224495   5.617   4.574   3.713
 7866SOL     OW24496   0.064   0.487   6.333
 7866SOL    HW124497   0.092   0.395   6.304
 7866SOL    HW224498   0.137   0.527   6.389
 7867SOL     OW24499   4.872   4.880   3.567
 7867SOL    HW124500   4.966   4.871   3.600
 7867SOL    HW224501   4.812   4.826   3.625
 7868SOL     OW24502   3.000   6.468   1.507
 7868SOL    HW124503   3.056   6.393   1.541
 7868SOL    HW224504   2.916   6.432   1.467
 7869SOL     OW24505   5.872   4.732   6.389
 7869SOL    HW124506   5.834   4.642   6.411
 7869SOL    HW224507   5.893   4.781   6.473
 7870SOL     OW24508   5.777   5.437   4.567
 7870SOL    HW124509   5.820   5.482   4.488
 7870SOL    HW224510   5.695   5.488   4.592
 7871SOL     OW24511   5.588   1.739   1.200
 7871SOL    HW124512   5.671   1.719   1.251
 7871SOL    HW224513   5.550   1.655   1.163
 7872SOL     OW24514   1.290   5.871   3.120
 7872SOL    HW124515   1.238   5.818   3.187
 7872SOL    HW224516   1.229   5.934   3.072
 7873SOL     OW24517   5.371   2.073   0.028
 7873SOL    HW124518   5.449   2.019   0.060
 7873SOL    HW224519   5.299   2.011   7.015
 7874SOL     OW24520   5.638   2.917   0.411
 7874SOL    HW124521   5.676   2.837   0.366
 7874SOL    HW224522   5.538   2.917   0.401
 7875SOL     OW24523   6.208   4.717   6.501
 7875SOL    HW124524   6.190   4.663   6.419
 7875SOL    HW224525   6.252   4.658   6.570
 7876SOL     OW24526   1.349   6.956   3.746
 7876SOL    HW124527   1.251   6.975   3.744
 7876SOL    HW224528   1.382   6.958   3.840
 7877SOL     OW24529   0.364   2.704   3.224
 7877SOL    HW124530   0.405   2.670   3.140
 7877SOL    HW224531   0.328   2.628   3.277
 7878SOL     OW24532   4.695   4.831   3.145
 7878SOL    HW124533   4.731   4.921   3.122
 7878SOL    HW224534   4.626   4.804   3.078
 7879SOL     OW24535   3.203   4.940   2.743
 7879SOL    HW124536   3.218   5.029   2.785
 7879SOL    HW224537   3.286   4.885   2.750
 7880SOL     OW24538   1.215   4.468   2.104
 7880SOL    HW124539   1.267   4.550   2.125
 7880SOL    HW224540   1.254   4.423   2.024
 7881SOL     OW24541   4.978   4.180   3.805
 7881SOL    HW124542   4.881   4.174   3.826
 7881SOL    HW224543   4.999   4.116   3.731
 7882SOL     OW24544   1.121   3.213   7.009
 7882SOL    HW124545   1.080   3.122   7.002
 7882SOL    HW224546   1.193   3.223   6.941
 7883SOL     OW24547   1.031   0.314   5.370
 7883SOL    HW124548   0.935   0.298   5.392
 7883SOL    HW224549   1.046   0.413   5.359
 7884SOL     OW24550   0.748   2.743   4.278
 7884SOL    HW124551   0.811   2.796   4.221
 7884SOL    HW224552   0.763   2.645   4.261
 7885SOL     OW24553   6.871   6.068   6.364
 7885SOL    HW124554   6.863   5.968   6.362
 7885SOL    HW224555   6.781   6.108   6.385
 7886SOL     OW24556   5.155   4.688   0.830
 7886SOL    HW124557   5.251   4.708   0.849
 7886SOL    HW224558   5.097   4.761   0.867
 7887SOL     OW24559   4.588   2.859   5.893
 7887SOL    HW124560   4.658   2.923   5.924
 7887SOL    HW224561   4.616   2.765   5.914
 7888SOL     OW24562   5.069   0.288   4.409
 7888SOL    HW124563   5.105   0.375   4.442
 7888SOL    HW224564   4.992   0.260   4.466
 7889SOL     OW24565   0.832   5.046   2.294
 7889SOL    HW124566   0.743   5.087   2.315
 7889SOL    HW224567   0.830   5.011   2.200
 7890SOL     OW24568   1.730   2.899   2.632
 7890SOL    HW124569   1.772   2.909   2.542
 7890SOL    HW224570   1.798   2.866   2.697
 7891SOL     OW24571   1.301   4.793   3.077
 7891SOL    HW124572   1.263   4.711   3.122
 7891SOL    HW224573   1.365   4.838   3.139
 7892SOL     OW24574   2.419   2.787   5.554
 7892SOL    HW124575   2.371   2.817   5.472
 7892SOL    HW224576   2.445   2.691   5.545
 7893SOL     OW24577   5.960   6.413   1.976
 7893SOL    HW124578   5.886   6.347   1.966
 7893SOL    HW224579   6.009   6.422   1.889
 7894SOL     OW24580   2.856   0.677   1.749
 7894SOL    HW124581   2.804   0.614   1.806
 7894SOL    HW224582   2.908   0.740   1.808
 7895SOL     OW24583   6.695   1.502   3.361
 7895SOL    HW124584   6.750   1.581   3.336
 7895SOL    HW224585   6.650   1.466   3.279
 7896SOL     OW24586   4.002   1.856   6.039
 7896SOL    HW124587   3.920   1.897   6.080
 7896SOL    HW224588   3.975   1.786   5.973
 7897SOL     OW24589   2.640   3.009   6.328
 7897SOL    HW124590   2.658   3.107   6.317
 7897SOL    HW224591   2.706   2.956   6.276
 7898SOL     OW24592   4.253   2.333   3.782
 7898SOL    HW124593   4.309   2.405   3.823
 7898SOL    HW224594   4.250   2.346   3.683
 7899SOL     OW24595   4.910   0.646   2.650
 7899SOL    HW124596   4.970   0.687   2.582
 7899SOL    HW224597   4.823   0.622   2.608
 7900SOL     OW24598   1.802   5.288   0.917
 7900SOL    HW124599   1.813   5.301   1.015
 7900SOL    HW224600   1.839   5.198   0.891
 7901SOL     OW24601   5.792   5.832   0.661
 7901SOL    HW124602   5.845   5.833   0.746
 7901SOL    HW224603   5.794   5.923   0.620
 7902SOL     OW24604   5.255   4.921   6.590
 7902SOL    HW124605   5.189   4.969   6.532
 7902SOL    HW224606   5.346   4.962   6.579
 7903SOL     OW24607   0.004   2.324   6.885
 7903SOL    HW124608   6.938   2.334   6.833
 7903SOL    HW224609   7.003   2.280   6.973
 7904SOL     OW24610   6.488   1.002   2.548
 7904SOL    HW124611   6.394   0.987   2.578
 7904SOL    HW224612   6.531   0.914   2.527
 7905SOL     OW24613   3.180   2.010   1.128
 7905SOL    HW124614   3.126   1.928   1.107
 7905SOL    HW224615   3.158   2.041   1.221
 7906SOL     OW24616   6.861   5.441   0.201
 7906SOL    HW124617   6.930   5.449   0.128
 7906SOL    HW224618   6.853   5.529   0.248
 7907SOL     OW24619   5.962   2.887   2.317
 7907SOL    HW124620   5.985   2.847   2.406
 7907SOL    HW224621   5.873   2.933   2.323
 7908SOL     OW24622   6.150   1.832   3.263
 7908SOL    HW124623   6.218   1.761   3.282
 7908SOL    HW224624   6.156   1.857   3.166
 7909SOL     OW24625   4.607   5.561   5.614
 7909SOL    HW124626   4.593   5.640   5.555
 7909SOL    HW224627   4.568   5.480   5.570
 7910SOL     OW24628   5.935   4.043   6.061
 7910SOL    HW124629   6.021   3.994   6.068
 7910SOL    HW224630   5.859   3.983   6.086
 7911SOL     OW24631   6.920   5.133   0.144
 7911SOL    HW124632   6.847   5.194   0.176
 7911SOL    HW224633   6.989   5.187   0.096
 7912SOL     OW24634   0.086   5.266   5.328
 7912SOL    HW124635   0.029   5.341   5.294
 7912SOL    HW224636   0.037   5.218   5.402
 7913SOL     OW24637   0.857   6.125   6.538
 7913SOL    HW124638   0.886   6.177   6.458
 7913SOL    HW224639   0.758   6.108   6.533
 7914SOL     OW24640   0.241   3.552   2.486
 7914SOL    HW124641   0.205   3.641   2.513
 7914SOL    HW224642   0.210   3.483   2.551
 7915SOL     OW24643   4.537   1.072   2.117
 7915SOL    HW124644   4.613   1.117   2.164
 7915SOL    HW224645   4.452   1.118   2.141
 7916SOL     OW24646   4.721   3.374   5.357
 7916SOL    HW124647   4.809   3.358   5.401
 7916SOL    HW224648   4.729   3.448   5.291
 7917SOL     OW24649   3.591   4.112   3.545
 7917SOL    HW124650   3.563   4.123   3.641
 7917SOL    HW224651   3.691   4.117   3.539
 7918SOL     OW24652   6.373   2.168   2.040
 7918SOL    HW124653   6.315   2.185   2.120
 7918SOL    HW224654   6.398   2.071   2.036
 7919SOL     OW24655   5.861   4.817   1.795
 7919SOL    HW124656   5.922   4.866   1.733
 7919SOL    HW224657   5.796   4.762   1.743
 7920SOL     OW24658   0.580   6.185   2.047
 7920SOL    HW124659   0.510   6.124   2.084
 7920SOL    HW224660   0.614   6.246   2.119
 7921SOL     OW24661   3.725   6.473   1.575
 7921SOL    HW124662   3.718   6.384   1.530
 7921SOL    HW224663   3.800   6.472   1.640
 7922SOL     OW24664   0.816   5.028   6.627
 7922SOL    HW124665   0.784   4.958   6.691
 7922SOL    HW224666   0.846   5.108   6.678
 7923SOL     OW24667   1.039   1.344   3.088
 7923SOL    HW124668   1.073   1.288   3.012
 7923SOL    HW224669   0.957   1.394   3.059
 7924SOL     OW24670   2.401   0.863   4.100
 7924SOL    HW124671   2.422   0.769   4.124
 7924SOL    HW224672   2.483   0.907   4.063
 7925SOL     OW24673   0.212   0.897   6.645
 7925SOL    HW124674   0.272   0.975   6.663
 7925SOL    HW224675   0.155   0.880   6.725
 7926SOL     OW24676   3.323   0.349   1.953
 7926SOL    HW124677   3.339   0.326   2.049
 7926SOL    HW224678   3.261   0.427   1.947
 7927SOL     OW24679   4.673   4.808   4.250
 7927SOL    HW124680   4.685   4.865   4.168
 7927SOL    HW224681   4.595   4.747   4.236
 7928SOL     OW24682   1.158   4.743   0.170
 7928SOL    HW124683   1.199   4.763   0.081
 7928SOL    HW224684   1.216   4.679   0.220
 7929SOL     OW24685   3.978   3.742   4.429
 7929SOL    HW124686   4.006   3.820   4.373
 7929SOL    HW224687   3.959   3.664   4.370
 7930SOL     OW24688   5.351   5.953   4.339
 7930SOL    HW124689   5.283   5.975   4.269
 7930SOL    HW224690   5.443   5.968   4.302
 7931SOL     OW24691   1.858   3.468   0.576
 7931SOL    HW124692   1.861   3.402   0.651
 7931SOL    HW224693   1.891   3.425   0.492
 7932SOL     OW24694   2.837   6.972   1.059
 7932SOL    HW124695   2.850   6.981   0.960
 7932SOL    HW224696   2.923   6.945   1.102
 7933SOL     OW24697   1.107   0.850   6.311
 7933SOL    HW124698   1.095   0.946   6.333
 7933SOL    HW224699   1.021   0.812   6.277
 7934SOL     OW24700   4.067   3.151   5.777
 7934SOL    HW124701   4.129   3.073   5.769
 7934SOL    HW224702   4.076   3.210   5.697
 7935SOL     OW24703   4.407   6.209   1.461
 7935SOL    HW124704   4.381   6.220   1.557
 7935SOL    HW224705   4.462   6.287   1.431
 7936SOL     OW24706   4.735   5.480   3.110
 7936SOL    HW124707   4.657   5.539   3.128
 7936SOL    HW224708   4.761   5.432   3.194
 7937SOL     OW24709   6.334   6.738   5.888
 7937SOL    HW124710   6.411   6.746   5.952
 7937SOL    HW224711   6.326   6.823   5.836
 7938SOL     OW24712   5.439   4.671   4.431
 7938SOL    HW124713   5.442   4.737   4.507
 7938SOL    HW224714   5.501   4.596   4.451
 7939SOL     OW24715   0.819   6.868   4.740
 7939SOL    HW124716   0.724   6.842   4.724
 7939SOL    HW224717   0.879   6.801   4.697
 7940SOL     OW24718   1.611   5.679   0.866
 7940SOL    HW124719   1.673   5.675   0.944
 7940SOL    HW224720   1.518   5.698   0.898
 7941SOL     OW24721   0.553   0.451   0.380
 7941SOL    HW124722   0.634   0.406   0.343
 7941SOL    HW224723   0.551   0.546   0.351
 7942SOL     OW24724   1.713   1.708   1.174
 7942SOL    HW124725   1.634   1.755   1.136
 7942SOL    HW224726   1.727   1.622   1.125
 7943SOL     OW24727   5.715   2.242   0.497
 7943SOL    HW124728   5.690   2.149   0.470
 7943SOL    HW224729   5.738   2.244   0.594
 7944SOL     OW24730   0.509   4.312   1.989
 7944SOL    HW124731   0.523   4.216   1.963
 7944SOL    HW224732   0.574   4.337   2.060
 7945SOL     OW24733   5.225   6.548   1.642
 7945SOL    HW124734   5.139   6.559   1.593
 7945SOL    HW224735   5.243   6.451   1.657
 7946SOL     OW24736   1.609   1.913   5.816
 7946SOL    HW124737   1.524   1.871   5.784
 7946SOL    HW224738   1.628   1.882   5.909
 7947SOL     OW24739   4.058   4.837   6.463
 7947SOL    HW124740   4.017   4.757   6.421
 7947SOL    HW224741   4.130   4.873   6.404
 7948SOL     OW24742   1.175   5.013   6.833
 7948SOL    HW124743   1.225   5.029   6.919
 7948SOL    HW224744   1.171   5.098   6.781
 7949SOL     OW24745   6.649   4.162   4.237
 7949SOL    HW124746   6.654   4.205   4.147
 7949SOL    HW224747   6.724   4.195   4.294
 7950SOL     OW24748   3.166   4.941   4.358
 7950SOL    HW124749   3.173   5.039   4.338
 7950SOL    HW224750   3.193   4.924   4.453
 7951SOL     OW24751   2.827   3.361   0.847
 7951SOL    HW124752   2.858   3.293   0.781
 7951SOL    HW224753   2.892   3.367   0.923
 7952SOL     OW24754   4.921   4.456   0.271
 7952SOL    HW124755   4.833   4.447   0.223
 7952SOL    HW224756   4.966   4.366   0.274
 7953SOL     OW24757   2.527   2.579   3.219
 7953SOL    HW124758   2.607   2.632   3.191
 7953SOL    HW224759   2.512   2.589   3.317
 7954SOL     OW24760   5.007   5.465   5.306
 7954SOL    HW124761   5.100   5.427   5.302
 7954SOL    HW224762   5.005   5.554   5.261
 7955SOL     OW24763   1.487   6.831   6.341
 7955SOL    HW124764   1.480   6.867   6.248
 7955SOL    HW224765   1.409   6.862   6.395
 7956SOL     OW24766   6.201   6.936   4.242
 7956SOL    HW124767   6.225   7.017   4.189
 7956SOL    HW224768   6.284   6.892   4.275
 7957SOL     OW24769   0.947   2.500   1.368
 7957SOL    HW124770   0.991   2.578   1.413
 7957SOL    HW224771   0.925   2.430   1.437
 7958SOL     OW24772   2.219   5.504   2.830
 7958SOL    HW124773   2.122   5.527   2.843
 7958SOL    HW224774   2.272   5.537   2.909
 7959SOL     OW24775   4.963   5.412   0.756
 7959SOL    HW124776   5.017   5.462   0.823
 7959SOL    HW224777   5.023   5.348   0.706
 7960SOL     OW24778   2.325   2.440   0.667
 7960SOL    HW124779   2.290   2.511   0.606
 7960SOL    HW224780   2.287   2.454   0.759
 7961SOL     OW24781   1.877   5.842   6.885
 7961SOL    HW124782   1.897   5.939   6.876
 7961SOL    HW224783   1.846   5.823   6.978
 7962SOL     OW24784   1.165   0.375   1.979
 7962SOL    HW124785   1.087   0.342   1.926
 7962SOL    HW224786   1.142   0.374   2.076
 7963SOL     OW24787   1.169   6.629   4.389
 7963SOL    HW124788   1.255   6.631   4.440
 7963SOL    HW224789   1.175   6.560   4.316
 7964SOL     OW24790   6.111   5.832   3.463
 7964SOL    HW124791   6.061   5.898   3.520
 7964SOL    HW224792   6.159   5.880   3.390
 7965SOL     OW24793   5.938   1.989   0.648
 7965SOL    HW124794   5.967   1.907   0.697
 7965SOL    HW224795   5.866   2.035   0.700
 7966SOL     OW24796   6.719   6.206   3.652
 7966SOL    HW124797   6.748   6.117   3.688
 7966SOL    HW224798   6.635   6.194   3.599
 7967SOL     OW24799   3.110   6.318   2.645
 7967SOL    HW124800   3.099   6.244   2.579
 7967SOL    HW224801   3.086   6.286   2.736
 7968SOL     OW24802   1.851   1.096   1.499
 7968SOL    HW124803   1.827   1.159   1.426
 7968SOL    HW224804   1.830   1.002   1.470
 7969SOL     OW24805   3.192   2.044   3.507
 7969SOL    HW124806   3.255   2.056   3.431
 7969SOL    HW224807   3.158   1.950   3.508
 7970SOL     OW24808   0.442   5.098   3.147
 7970SOL    HW124809   0.409   5.018   3.096
 7970SOL    HW224810   0.383   5.113   3.226
 7971SOL     OW24811   2.317   1.655   2.202
 7971SOL    HW124812   2.329   1.750   2.229
 7971SOL    HW224813   2.407   1.609   2.201
 7972SOL     OW24814   0.847   4.994   2.010
 7972SOL    HW124815   0.936   4.958   1.983
 7972SOL    HW224816   0.774   4.937   1.972
 7973SOL     OW24817   4.689   2.074   2.386
 7973SOL    HW124818   4.602   2.083   2.434
 7973SOL    HW224819   4.741   1.999   2.426
 7974SOL     OW24820   5.480   6.748   4.116
 7974SOL    HW124821   5.457   6.837   4.155
 7974SOL    HW224822   5.561   6.757   4.058
 7975SOL     OW24823   2.507   0.912   3.481
 7975SOL    HW124824   2.461   0.843   3.425
 7975SOL    HW224825   2.474   1.003   3.455
 7976SOL     OW24826   0.502   6.939   6.310
 7976SOL    HW124827   0.464   6.988   6.388
 7976SOL    HW224828   0.447   6.957   6.229
 7977SOL     OW24829   4.879   6.670   1.805
 7977SOL    HW124830   4.935   6.591   1.831
 7977SOL    HW224831   4.878   6.736   1.880
 7978SOL     OW24832   3.602   2.321   6.595
 7978SOL    HW124833   3.528   2.388   6.606
 7978SOL    HW224834   3.683   2.353   6.644
 7979SOL     OW24835   4.375   7.017   4.178
 7979SOL    HW124836   4.405   0.091   4.154
 7979SOL    HW224837   4.398   6.955   4.102
 7980SOL     OW24838   2.764   0.384   2.189
 7980SOL    HW124839   2.735   0.296   2.228
 7980SOL    HW224840   2.683   0.434   2.156
 7981SOL     OW24841   1.118   6.057   3.040
 7981SOL    HW124842   1.150   6.104   3.123
 7981SOL    HW224843   1.042   6.108   3.000
 7982SOL     OW24844   0.122   2.756   0.896
 7982SOL    HW124845   0.125   2.813   0.814
 7982SOL    HW224846   0.028   2.754   0.931
 7983SOL     OW24847   4.652   2.481   1.978
 7983SOL    HW124848   4.666   2.557   2.041
 7983SOL    HW224849   4.591   2.414   2.021
 7984SOL     OW24850   0.068   0.565   0.458
 7984SOL    HW124851   0.066   0.493   0.389
 7984SOL    HW224852   0.163   0.588   0.479
 7985SOL     OW24853   0.696   1.197   0.949
 7985SOL    HW124854   0.600   1.222   0.958
 7985SOL    HW224855   0.718   1.185   0.852
 7986SOL     OW24856   4.161   2.668   0.619
 7986SOL    HW124857   4.219   2.747   0.596
 7986SOL    HW224858   4.085   2.663   0.554
 7987SOL     OW24859   0.269   2.235   4.769
 7987SOL    HW124860   0.193   2.292   4.738
 7987SOL    HW224861   0.354   2.288   4.769
 7988SOL     OW24862   2.698   1.369   5.555
 7988SOL    HW124863   2.616   1.314   5.571
 7988SOL    HW224864   2.691   1.455   5.606
 7989SOL     OW24865   3.461   3.246   5.263
 7989SOL    HW124866   3.490   3.335   5.227
 7989SOL    HW224867   3.427   3.190   5.188
 7990SOL     OW24868   2.111   2.467   4.776
 7990SOL    HW124869   2.199   2.514   4.770
 7990SOL    HW224870   2.126   2.368   4.766
 7991SOL     OW24871   0.166   3.495   4.766
 7991SOL    HW124872   0.143   3.436   4.688
 7991SOL    HW224873   0.116   3.581   4.757
 7992SOL     OW24874   2.495   0.685   0.535
 7992SOL    HW124875   2.501   0.627   0.454
 7992SOL    HW224876   2.509   0.629   0.617
 7993SOL     OW24877   2.338   6.681   6.382
 7993SOL    HW124878   2.301   6.597   6.341
 7993SOL    HW224879   2.274   6.757   6.365
 7994SOL     OW24880   6.131   0.306   3.960
 7994SOL    HW124881   6.064   0.376   3.984
 7994SOL    HW224882   6.126   0.286   3.862
 7995SOL     OW24883   4.254   5.024   3.052
 7995SOL    HW124884   4.184   5.074   3.104
 7995SOL    HW224885   4.337   5.080   3.046
 7996SOL     OW24886   3.644   0.871   5.246
 7996SOL    HW124887   3.659   0.810   5.324
 7996SOL    HW224888   3.732   0.904   5.213
 7997SOL     OW24889   5.519   2.410   2.268
 7997SOL    HW124890   5.583   2.487   2.269
 7997SOL    HW224891   5.460   2.416   2.349
 7998SOL     OW24892   6.016   5.327   6.865
 7998SOL    HW124893   5.927   5.280   6.857
 7998SOL    HW224894   6.089   5.259   6.863
 7999SOL     OW24895   1.714   0.685   5.636
 7999SOL    HW124896   1.800   0.642   5.608
 7999SOL    HW224897   1.653   0.615   5.674
 8000SOL     OW24898   5.806   0.187   5.803
 8000SOL    HW124899   5.723   0.162   5.754
 8000SOL    HW224900   5.886   0.150   5.756
 8001SOL     OW24901   2.053   6.792   1.307
 8001SOL    HW124902   2.103   6.828   1.386
 8001SOL    HW224903   2.063   6.853   1.229
 8002SOL     OW24904   5.614   3.412   5.722
 8002SOL    HW124905   5.545   3.350   5.759
 8002SOL    HW224906   5.684   3.429   5.791
 8003SOL     OW24907   3.804   4.969   3.305
 8003SOL    HW124908   3.717   4.961   3.257
 8003SOL    HW224909   3.788   4.974   3.403
 8004SOL     OW24910   1.566   3.832   2.337
 8004SOL    HW124911   1.613   3.791   2.416
 8004SOL    HW224912   1.493   3.771   2.307
 8005SOL     OW24913   2.607   1.091   1.755
 8005SOL    HW124914   2.695   1.133   1.735
 8005SOL    HW224915   2.620   1.015   1.819
 8006SOL     OW24916   3.334   6.342   1.019
 8006SOL    HW124917   3.312   6.300   1.107
 8006SOL    HW224918   3.266   6.412   0.999
 8007SOL     OW24919   0.818   0.781   4.014
 8007SOL    HW124920   0.800   0.683   4.023
 8007SOL    HW224921   0.845   0.801   3.920
 8008SOL     OW24922   6.182   5.925   0.476
 8008SOL    HW124923   6.145   5.838   0.506
 8008SOL    HW224924   6.175   5.932   0.377
 8009SOL     OW24925   6.926   6.971   3.746
 8009SOL    HW124926   6.883   6.926   3.825
 8009SOL    HW224927   7.013   6.926   3.726
 8010SOL     OW24928   2.275   2.761   6.744
 8010SOL    HW124929   2.357   2.732   6.694
 8010SOL    HW224930   2.303   2.811   6.826
 8011SOL     OW24931   2.176   2.061   0.883
 8011SOL    HW124932   2.088   2.088   0.845
 8011SOL    HW224933   2.248   2.119   0.845
 8012SOL     OW24934   3.082   6.655   3.013
 8012SOL    HW124935   2.996   6.606   3.030
 8012SOL    HW224936   3.077   6.701   2.924
 8013SOL     OW24937   6.437   4.997   5.268
 8013SOL    HW124938   6.446   5.082   5.216
 8013SOL    HW224939   6.465   5.013   5.363
 8014SOL     OW24940   1.810   0.239   6.837
 8014SOL    HW124941   1.773   0.178   6.906
 8014SOL    HW224942   1.807   0.194   6.747
 8015SOL     OW24943   1.563   2.052   6.668
 8015SOL    HW124944   1.578   2.145   6.703
 8015SOL    HW224945   1.555   2.055   6.568
 8016SOL     OW24946   3.571   6.645   1.224
 8016SOL    HW124947   3.476   6.615   1.235
 8016SOL    HW224948   3.598   6.700   1.302
 8017SOL     OW24949   5.913   4.280   4.835
 8017SOL    HW124950   5.816   4.254   4.840
 8017SOL    HW224951   5.963   4.212   4.783
 8018SOL     OW24952   5.324   2.596   4.662
 8018SOL    HW124953   5.311   2.645   4.748
 8018SOL    HW224954   5.418   2.562   4.657
 8019SOL     OW24955   2.495   5.052   1.646
 8019SOL    HW124956   2.555   5.129   1.665
 8019SOL    HW224957   2.493   4.991   1.725
 8020SOL     OW24958   5.933   6.301   6.206
 8020SOL    HW124959   5.894   6.231   6.146
 8020SOL    HW224960   5.946   6.263   6.298
 8021SOL     OW24961   0.885   0.810   1.017
 8021SOL    HW124962   0.944   0.749   0.963
 8021SOL    HW224963   0.924   0.820   1.109
 8022SOL     OW24964   4.088   5.638   3.377
 8022SOL    HW124965   4.170   5.693   3.362
 8022SOL    HW224966   4.012   5.698   3.401
 8023SOL     OW24967   5.931   6.515   3.744
 8023SOL    HW124968   5.938   6.559   3.833
 8023SOL    HW224969   5.867   6.438   3.750
 8024SOL     OW24970   4.937   5.093   4.594
 8024SOL    HW124971   4.902   5.151   4.667
 8024SOL    HW224972   4.873   5.094   4.517
 8025SOL     OW24973   3.244   5.701   0.368
 8025SOL    HW124974   3.294   5.773   0.318
 8025SOL    HW224975   3.306   5.624   0.385
 8026SOL     OW24976   1.969   2.799   0.964
 8026SOL    HW124977   1.888   2.779   0.909
 8026SOL    HW224978   1.940   2.844   1.049
 8027SOL     OW24979   5.345   3.337   5.820
 8027SOL    HW124980   5.270   3.352   5.884
 8027SOL    HW224981   5.357   3.418   5.762
 8028SOL     OW24982   5.624   4.966   0.048
 8028SOL    HW124983   5.606   5.060   0.018
 8028SOL    HW224984   5.547   4.907   0.025
 8029SOL     OW24985   2.945   4.811   0.526
 8029SOL    HW124986   2.920   4.894   0.577
 8029SOL    HW224987   2.996   4.837   0.444
 8030SOL     OW24988   6.031   4.113   6.857
 8030SOL    HW124989   6.055   4.016   6.847
 8030SOL    HW224990   5.974   4.141   6.780
 8031SOL     OW24991   4.049   6.120   1.662
 8031SOL    HW124992   3.952   6.118   1.688
 8031SOL    HW224993   4.057   6.125   1.562
 8032SOL     OW24994   5.610   5.010   6.314
 8032SOL    HW124995   5.653   4.922   6.295
 8032SOL    HW224996   5.572   5.010   6.406
 8033SOL     OW24997   5.847   2.629   0.091
 8033SOL    HW124998   5.761   2.593   0.127
 8033SOL    HW224999   5.920   2.562   0.103
 8034SOL     OW25000   6.072   1.123   5.354
 8034SOL    HW125001   6.139   1.097   5.285
 8034SOL    HW225002   6.119   1.157   5.436
 8035SOL     OW25003   5.546   6.245   6.998
 8035SOL    HW125004   5.576   6.290   0.064
 8035SOL    HW225005   5.523   6.314   6.930
 8036SOL     OW25006   1.826   4.019   1.456
 8036SOL    HW125007   1.764   4.089   1.492
 8036SOL    HW225008   1.899   4.002   1.522
 8037SOL     OW25009   1.574   3.402   0.805
 8037SOL    HW125010   1.600   3.479   0.863
 8037SOL    HW225011   1.654   3.346   0.786
 8038SOL     OW25012   6.832   1.694   4.026
 8038SOL    HW125013   6.811   1.714   4.122
 8038SOL    HW225014   6.778   1.754   3.967
 8039SOL     OW25015   2.535   6.489   4.581
 8039SOL    HW125016   2.548   6.400   4.627
 8039SOL    HW225017   2.437   6.510   4.577
 8040SOL     OW25018   6.695   5.641   1.008
 8040SOL    HW125019   6.668   5.603   1.096
 8040SOL    HW225020   6.634   5.605   0.937
 8041SOL     OW25021   3.984   1.969   0.274
 8041SOL    HW125022   3.916   1.928   0.213
 8041SOL    HW225023   3.975   1.929   0.366
 8042SOL     OW25024   2.539   3.305   1.190
 8042SOL    HW125025   2.591   3.220   1.194
 8042SOL    HW225026   2.601   3.383   1.201
 8043SOL     OW25027   2.295   0.237   1.799
 8043SOL    HW125028   2.211   0.240   1.852
 8043SOL    HW225029   2.278   0.191   1.712
 8044SOL     OW25030   3.293   4.015   1.896
 8044SOL    HW125031   3.298   3.919   1.870
 8044SOL    HW225032   3.331   4.027   1.988
 8045SOL     OW25033   6.470   2.718   3.077
 8045SOL    HW125034   6.408   2.793   3.057
 8045SOL    HW225035   6.556   2.753   3.112
 8046SOL     OW25036   0.026   5.401   6.002
 8046SOL    HW125037   7.000   5.338   5.939
 8046SOL    HW225038   0.025   5.362   6.094
 8047SOL     OW25039   3.374   5.843   3.993
 8047SOL    HW125040   3.332   5.857   3.904
 8047SOL    HW225041   3.305   5.815   4.059
 8048SOL     OW25042   6.357   0.517   5.781
 8048SOL    HW125043   6.437   0.484   5.730
 8048SOL    HW225044   6.386   0.552   5.870
 8049SOL     OW25045   1.659   5.322   0.587
 8049SOL    HW125046   1.656   5.278   0.498
 8049SOL    HW225047   1.622   5.260   0.656
 8050SOL     OW25048   1.239   2.923   1.481
 8050SOL    HW125049   1.216   2.883   1.570
 8050SOL    HW225050   1.338   2.923   1.469
 8051SOL     OW25051   3.812   1.377   3.256
 8051SOL    HW125052   3.881   1.305   3.256
 8051SOL    HW225053   3.854   1.463   3.284
 8052SOL     OW25054   3.275   2.158   3.018
 8052SOL    HW125055   3.205   2.229   3.027
 8052SOL    HW225056   3.270   2.096   3.096
 8053SOL     OW25057   3.912   3.415   2.147
 8053SOL    HW125058   3.963   3.497   2.118
 8053SOL    HW225059   3.965   3.366   2.216
 8054SOL     OW25060   3.985   6.297   4.778
 8054SOL    HW125061   4.031   6.372   4.826
 8054SOL    HW225062   4.012   6.210   4.819
 8055SOL     OW25063   1.445   0.020   5.409
 8055SOL    HW125064   1.415   6.955   5.362
 8055SOL    HW225065   1.367   0.062   5.455
 8056SOL     OW25066   4.087   1.821   2.899
 8056SOL    HW125067   4.034   1.777   2.970
 8056SOL    HW225068   4.040   1.904   2.868
 8057SOL     OW25069   4.189   6.235   3.849
 8057SOL    HW125070   4.161   6.315   3.902
 8057SOL    HW225071   4.141   6.154   3.883
 8058SOL     OW25072   2.035   0.355   3.305
 8058SOL    HW125073   1.977   0.424   3.262
 8058SOL    HW225074   1.977   0.291   3.357
 8059SOL     OW25075   2.611   1.535   3.877
 8059SOL    HW125076   2.525   1.573   3.840
 8059SOL    HW225077   2.680   1.534   3.805
 8060SOL     OW25078   0.878   1.394   5.094
 8060SOL    HW125079   0.803   1.333   5.118
 8060SOL    HW225080   0.847   1.489   5.098
 8061SOL     OW25081   0.271   5.777   1.457
 8061SOL    HW125082   0.287   5.688   1.500
 8061SOL    HW225083   0.308   5.849   1.516
 8062SOL     OW25084   2.118   3.778   2.421
 8062SOL    HW125085   2.123   3.704   2.487
 8062SOL    HW225086   2.140   3.743   2.330
 8063SOL     OW25087   3.007   2.849   6.939
 8063SOL    HW125088   2.975   2.909   6.865
 8063SOL    HW225089   3.030   2.905   0.001
 8064SOL     OW25090   6.536   3.281   6.798
 8064SOL    HW125091   6.482   3.233   6.730
 8064SOL    HW225092   6.480   3.351   6.842
 8065SOL     OW25093   4.415   0.188   6.046
 8065SOL    HW125094   4.506   0.226   6.031
 8065SOL    HW225095   4.363   0.192   5.960
 8066SOL     OW25096   1.984   0.224   1.398
 8066SOL    HW125097   1.960   0.176   1.482
 8066SOL    HW225098   1.928   0.306   1.390
 8067SOL     OW25099   5.176   2.176   1.598
 8067SOL    HW125100   5.172   2.107   1.526
 8067SOL    HW225101   5.208   2.262   1.560
 8068SOL     OW25102   0.387   4.626   4.207
 8068SOL    HW125103   0.433   4.622   4.296
 8068SOL    HW225104   0.448   4.590   4.136
 8069SOL     OW25105   1.865   6.276   2.167
 8069SOL    HW125106   1.962   6.279   2.143
 8069SOL    HW225107   1.856   6.273   2.267
 8070SOL     OW25108   3.991   0.106   2.279
 8070SOL    HW125109   4.011   0.172   2.351
 8070SOL    HW225110   4.060   0.034   2.279
 8071SOL     OW25111   3.738   6.342   0.021
 8071SOL    HW125112   3.795   6.291   6.974
 8071SOL    HW225113   3.719   6.284   0.100
 8072SOL     OW25114   5.355   0.617   1.969
 8072SOL    HW125115   5.410   0.700   1.959
 8072SOL    HW225116   5.260   0.642   1.988
 8073SOL     OW25117   3.970   6.407   5.697
 8073SOL    HW125118   3.977   6.502   5.728
 8073SOL    HW225119   3.925   6.404   5.608
 8074SOL     OW25120   3.239   3.739   0.135
 8074SOL    HW125121   3.148   3.722   0.173
 8074SOL    HW225122   3.264   3.666   0.072
 8075SOL     OW25123   6.108   1.266   2.423
 8075SOL    HW125124   6.060   1.193   2.375
 8075SOL    HW225125   6.189   1.293   2.370
 8076SOL     OW25126   5.261   2.940   6.559
 8076SOL    HW125127   5.278   3.018   6.618
 8076SOL    HW225128   5.205   2.872   6.608
 8077SOL     OW25129   1.105   1.271   0.411
 8077SOL    HW125130   1.175   1.269   0.340
 8077SOL    HW225131   1.101   1.181   0.456
 8078SOL     OW25132   6.060   3.473   0.341
 8078SOL    HW125133   6.140   3.508   0.291
 8078SOL    HW225134   6.082   3.383   0.379
 8079SOL     OW25135   6.857   1.774   1.846
 8079SOL    HW125136   6.945   1.733   1.871
 8079SOL    HW225137   6.872   1.845   1.777
 8080SOL     OW25138   3.849   4.968   0.225
 8080SOL    HW125139   3.838   5.038   0.296
 8080SOL    HW225140   3.776   4.978   0.158
 8081SOL     OW25141   5.717   0.471   5.654
 8081SOL    HW125142   5.635   0.521   5.682
 8081SOL    HW225143   5.735   0.397   5.719
 8082SOL     OW25144   6.099   3.196   4.239
 8082SOL    HW125145   6.134   3.186   4.333
 8082SOL    HW225146   6.013   3.145   4.231
 8083SOL     OW25147   5.127   2.721   4.522
 8083SOL    HW125148   5.049   2.666   4.551
 8083SOL    HW225149   5.210   2.686   4.565
 8084SOL     OW25150   6.864   0.257   1.657
 8084SOL    HW125151   6.817   0.176   1.692
 8084SOL    HW225152   6.900   0.238   1.565
 8085SOL     OW25153   6.472   2.004   0.830
 8085SOL    HW125154   6.457   2.068   0.906
 8085SOL    HW225155   6.402   2.019   0.760
 8086SOL     OW25156   3.240   6.775   5.854
 8086SOL    HW125157   3.194   6.811   5.936
 8086SOL    HW225158   3.258   6.678   5.866
 8087SOL     OW25159   2.296   3.392   1.330
 8087SOL    HW125160   2.321   3.354   1.419
 8087SOL    HW225161   2.368   3.370   1.264
 8088SOL     OW25162   4.337   0.330   2.865
 8088SOL    HW125163   4.257   0.383   2.836
 8088SOL    HW225164   4.340   0.327   2.965
 8089SOL     OW25165   5.927   2.913   0.896
 8089SOL    HW125166   5.977   2.986   0.850
 8089SOL    HW225167   5.893   2.946   0.984
 8090SOL     OW25168   4.586   2.104   4.782
 8090SOL    HW125169   4.563   2.142   4.871
 8090SOL    HW225170   4.673   2.054   4.788
 8091SOL     OW25171   3.328   5.359   5.771
 8091SOL    HW125172   3.413   5.354   5.720
 8091SOL    HW225173   3.254   5.321   5.716
 8092SOL     OW25174   0.426   1.913   4.120
 8092SOL    HW125175   0.457   2.007   4.132
 8092SOL    HW225176   0.377   1.883   4.202
 8093SOL     OW25177   5.474   5.976   1.064
 8093SOL    HW125178   5.388   5.942   1.102
 8093SOL    HW225179   5.458   6.015   0.974
 8094SOL     OW25180   1.410   3.675   4.376
 8094SOL    HW125181   1.410   3.596   4.439
 8094SOL    HW225182   1.393   3.758   4.428
 8095SOL     OW25183   5.784   3.610   4.701
 8095SOL    HW125184   5.746   3.655   4.620
 8095SOL    HW225185   5.710   3.581   4.761
 8096SOL     OW25186   3.858   6.999   1.108
 8096SOL    HW125187   3.778   0.020   1.063
 8096SOL    HW225188   3.839   6.990   1.206
 8097SOL     OW25189   4.599   0.983   4.671
 8097SOL    HW125190   4.531   1.041   4.717
 8097SOL    HW225191   4.635   1.030   4.591
 8098SOL     OW25192   2.911   7.009   4.145
 8098SOL    HW125193   2.919   6.989   4.047
 8098SOL    HW225194   3.002   7.018   4.185
 8099SOL     OW25195   5.350   6.457   5.044
 8099SOL    HW125196   5.286   6.511   5.098
 8099SOL    HW225197   5.315   6.364   5.035
 8100SOL     OW25198   1.015   6.307   1.278
 8100SOL    HW125199   0.978   6.362   1.204
 8100SOL    HW225200   1.110   6.333   1.295
 8101SOL     OW25201   0.776   5.570   2.745
 8101SOL    HW125202   0.812   5.507   2.813
 8101SOL    HW225203   0.812   5.547   2.655
 8102SOL     OW25204   0.388   0.040   6.530
 8102SOL    HW125205   0.289   0.054   6.530
 8102SOL    HW225206   0.433   0.124   6.559
 8103SOL     OW25207   2.737   1.751   2.358
 8103SOL    HW125208   2.773   1.814   2.290
 8103SOL    HW225209   2.642   1.777   2.380
 8104SOL     OW25210   2.536   6.407   5.793
 8104SOL    HW125211   2.570   6.413   5.699
 8104SOL    HW225212   2.440   6.433   5.795
 8105SOL     OW25213   1.845   2.693   2.418
 8105SOL    HW125214   1.811   2.757   2.350
 8105SOL    HW225215   1.804   2.603   2.402
 8106SOL     OW25216   0.592   4.068   4.421
 8106SOL    HW125217   0.669   4.022   4.465
 8106SOL    HW225218   0.541   4.001   4.365
 8107SOL     OW25219   1.914   6.176   6.042
 8107SOL    HW125220   1.925   6.263   5.995
 8107SOL    HW225221   1.825   6.136   6.019
 8108SOL     OW25222   2.137   3.456   4.234
 8108SOL    HW125223   2.114   3.471   4.331
 8108SOL    HW225224   2.115   3.539   4.182
 8109SOL     OW25225   0.928   5.348   5.390
 8109SOL    HW125226   0.950   5.363   5.294
 8109SOL    HW225227   1.013   5.340   5.443
 8110SOL     OW25228   1.618   4.418   0.801
 8110SOL    HW125229   1.548   4.486   0.782
 8110SOL    HW225230   1.595   4.367   0.884
 8111SOL     OW25231   2.700   5.586   4.241
 8111SOL    HW125232   2.633   5.522   4.204
 8111SOL    HW225233   2.681   5.603   4.338
 8112SOL     OW25234   4.026   0.952   4.699
 8112SOL    HW125235   4.065   1.021   4.638
 8112SOL    HW225236   4.097   0.887   4.726
 8113SOL     OW25237   3.768   2.991   6.042
 8113SOL    HW125238   3.835   2.951   6.104
 8113SOL    HW225239   3.676   2.978   6.078
 8114SOL     OW25240   2.793   4.094   1.508
 8114SOL    HW125241   2.824   4.017   1.563
 8114SOL    HW225242   2.871   4.137   1.464
 8115SOL     OW25243   3.922   2.265   1.024
 8115SOL    HW125244   3.944   2.210   1.105
 8115SOL    HW225245   3.923   2.206   0.943
 8116SOL     OW25246   5.206   0.651   5.836
 8116SOL    HW125247   5.140   0.705   5.888
 8116SOL    HW225248   5.286   0.708   5.813
 8117SOL     OW25249   2.713   1.615   5.691
 8117SOL    HW125250   2.636   1.667   5.655
 8117SOL    HW225251   2.709   1.612   5.791
 8118SOL     OW25252   1.080   2.987   4.266
 8118SOL    HW125253   1.157   2.994   4.202
 8118SOL    HW225254   0.994   2.988   4.215
 8119SOL     OW25255   1.174   5.893   2.379
 8119SOL    HW125256   1.141   5.850   2.294
 8119SOL    HW225257   1.267   5.927   2.365
 8120SOL     OW25258   4.469   4.112   1.411
 8120SOL    HW125259   4.496   4.150   1.499
 8120SOL    HW225260   4.455   4.013   1.421
 8121SOL     OW25261   6.639   6.501   3.378
 8121SOL    HW125262   6.547   6.474   3.351
 8121SOL    HW225263   6.637   6.547   3.467
 8122SOL     OW25264   0.771   6.063   1.629
 8122SOL    HW125265   0.706   6.133   1.657
 8122SOL    HW225266   0.848   6.106   1.581
 8123SOL     OW25267   0.709   5.758   0.082
 8123SOL    HW125268   0.652   5.678   0.100
 8123SOL    HW225269   0.697   5.786   7.005
 8124SOL     OW25270   0.686   5.936   2.705
 8124SOL    HW125271   0.587   5.952   2.708
 8124SOL    HW225272   0.708   5.853   2.755
 8125SOL     OW25273   5.864   5.323   2.880
 8125SOL    HW125274   5.853   5.418   2.849
 8125SOL    HW225275   5.837   5.261   2.807
 8126SOL     OW25276   6.022   4.989   2.219
 8126SOL    HW125277   5.964   4.923   2.171
 8126SOL    HW225278   6.069   5.047   2.153
 8127SOL     OW25279   3.234   4.463   1.118
 8127SOL    HW125280   3.311   4.470   1.181
 8127SOL    HW225281   3.246   4.383   1.060
 8128SOL     OW25282   3.954   2.810   5.507
 8128SOL    HW125283   4.048   2.836   5.533
 8128SOL    HW225284   3.954   2.715   5.474
 8129SOL     OW25285   4.941   6.510   0.127
 8129SOL    HW125286   4.893   6.474   0.207
 8129SOL    HW225287   4.888   6.490   0.045
 8130SOL     OW25288   1.031   6.980   0.844
 8130SOL    HW125289   1.089   6.922   0.901
 8130SOL    HW225290   1.084   7.018   0.769
 8131SOL     OW25291   1.141   1.682   6.954
 8131SOL    HW125292   1.108   1.717   0.023
 8131SOL    HW225293   1.228   1.635   6.968
 8132SOL     OW25294   6.018   4.414   3.049
 8132SOL    HW125295   6.105   4.425   3.000
 8132SOL    HW225296   6.036   4.379   3.141
 8133SOL     OW25297   1.054   5.636   1.875
 8133SOL    HW125298   0.988   5.700   1.836
 8133SOL    HW225299   1.075   5.662   1.969
 8134SOL     OW25300   2.290   2.593   1.863
 8134SOL    HW125301   2.214   2.571   1.802
 8134SOL    HW225302   2.371   2.539   1.836
 8135SOL     OW25303   3.673   6.036   2.258
 8135SOL    HW125304   3.632   6.125   2.279
 8135SOL    HW225305   3.601   5.967   2.256
 8136SOL     OW25306   3.323   5.796   1.335
 8136SOL    HW125307   3.224   5.803   1.343
 8136SOL    HW225308   3.347   5.753   1.248
 8137SOL     OW25309   2.818   3.912   5.279
 8137SOL    HW125310   2.720   3.913   5.258
 8137SOL    HW225311   2.852   3.818   5.276
 8138SOL     OW25312   5.292   0.678   3.931
 8138SOL    HW125313   5.321   0.772   3.948
 8138SOL    HW225314   5.355   0.634   3.868
 8139SOL     OW25315   1.419   2.928   4.485
 8139SOL    HW125316   1.383   3.018   4.459
 8139SOL    HW225317   1.519   2.934   4.495
 8140SOL     OW25318   4.671   0.854   1.338
 8140SOL    HW125319   4.583   0.880   1.300
 8140SOL    HW225320   4.659   0.828   1.434
 8141SOL     OW25321   5.701   0.811   5.380
 8141SOL    HW125322   5.734   0.767   5.463
 8141SOL    HW225323   5.758   0.785   5.303
 8142SOL     OW25324   2.221   5.406   1.749
 8142SOL    HW125325   2.187   5.446   1.664
 8142SOL    HW225326   2.145   5.364   1.799
 8143SOL     OW25327   5.894   5.154   0.833
 8143SOL    HW125328   5.870   5.245   0.798
 8143SOL    HW225329   5.836   5.085   0.790
 8144SOL     OW25330   0.236   5.343   0.296
 8144SOL    HW125331   0.292   5.385   0.367
 8144SOL    HW225332   0.256   5.245   0.293
 8145SOL     OW25333   5.267   5.578   0.064
 8145SOL    HW125334   5.225   5.633   7.011
 8145SOL    HW225335   5.363   5.606   0.075
 8146SOL     OW25336   6.052   0.237   4.620
 8146SOL    HW125337   6.061   0.335   4.602
 8146SOL    HW225338   6.006   0.193   4.543
 8147SOL     OW25339   1.758   0.512   6.414
 8147SOL    HW125340   1.671   0.496   6.460
 8147SOL    HW225341   1.832   0.468   6.465
 8148SOL     OW25342   4.581   4.395   0.495
 8148SOL    HW125343   4.626   4.399   0.584
 8148SOL    HW225344   4.586   4.484   0.450
 8149SOL     OW25345   0.791   0.279   4.991
 8149SOL    HW125346   0.831   0.201   4.943
 8149SOL    HW225347   0.742   0.337   4.927
 8150SOL     OW25348   0.578   3.987   0.377
 8150SOL    HW125349   0.524   3.911   0.340
 8150SOL    HW225350   0.525   4.071   0.374
 8151SOL     OW25351   6.525   6.116   3.170
 8151SOL    HW125352   6.508   6.206   3.130
 8151SOL    HW225353   6.593   6.124   3.243
 8152SOL     OW25354   4.928   1.239   2.913
 8152SOL    HW125355   4.879   1.182   2.978
 8152SOL    HW225356   4.912   1.205   2.820
 8153SOL     OW25357   0.095   1.678   1.905
 8153SOL    HW125358   0.163   1.625   1.855
 8153SOL    HW225359   0.134   1.713   1.990
 8154SOL     OW25360   2.205   0.966   2.802
 8154SOL    HW125361   2.184   0.872   2.827
 8154SOL    HW225362   2.273   1.003   2.866
 8155SOL     OW25363   1.564   5.298   3.154
 8155SOL    HW125364   1.582   5.356   3.074
 8155SOL    HW225365   1.586   5.349   3.237
 8156SOL     OW25366   0.861   4.787   0.889
 8156SOL    HW125367   0.828   4.700   0.853
 8156SOL    HW225368   0.952   4.775   0.929
 8157SOL     OW25369   6.817   4.404   4.968
 8157SOL    HW125370   6.866   4.409   4.881
 8157SOL    HW225371   6.738   4.465   4.964
 8158SOL     OW25372   6.191   5.659   6.560
 8158SOL    HW125373   6.226   5.642   6.469
 8158SOL    HW225374   6.199   5.576   6.615
 8159SOL     OW25375   2.836   6.732   4.838
 8159SOL    HW125376   2.778   6.812   4.853
 8159SOL    HW225377   2.928   6.752   4.871
 8160SOL     OW25378   5.835   1.617   1.975
 8160SOL    HW125379   5.892   1.590   2.053
 8160SOL    HW225380   5.779   1.696   2.000
 8161SOL     OW25381   5.698   3.139   1.514
 8161SOL    HW125382   5.757   3.063   1.487
 8161SOL    HW225383   5.646   3.113   1.595
 8162SOL     OW25384   0.324   5.541   5.289
 8162SOL    HW125385   0.319   5.442   5.303
 8162SOL    HW225386   0.247   5.571   5.234
 8163SOL     OW25387   4.336   4.435   5.542
 8163SOL    HW125388   4.343   4.335   5.549
 8163SOL    HW225389   4.241   4.460   5.527
 8164SOL     OW25390   5.437   1.913   1.004
 8164SOL    HW125391   5.472   1.852   1.075
 8164SOL    HW225392   5.348   1.880   0.972
 8165SOL     OW25393   0.143   1.374   0.125
 8165SOL    HW125394   0.230   1.401   0.166
 8165SOL    HW225395   0.069   1.391   0.191
 8166SOL     OW25396   1.427   1.674   5.902
 8166SOL    HW125397   1.346   1.662   5.959
 8166SOL    HW225398   1.404   1.731   5.823
 8167SOL     OW25399   1.816   3.139   3.841
 8167SOL    HW125400   1.773   3.165   3.927
 8167SOL    HW225401   1.916   3.145   3.850
 8168SOL     OW25402   1.518   0.593   2.485
 8168SOL    HW125403   1.553   0.682   2.457
 8168SOL    HW225404   1.429   0.577   2.442
 8169SOL     OW25405   5.072   3.029   0.669
 8169SOL    HW125406   5.090   3.114   0.620
 8169SOL    HW225407   5.072   3.047   0.768
 8170SOL     OW25408   6.947   4.993   2.434
 8170SOL    HW125409   6.861   5.024   2.393
 8170SOL    HW225410   6.927   4.948   2.522
 8171SOL     OW25411   2.501   1.422   0.411
 8171SOL    HW125412   2.562   1.483   0.461
 8171SOL    HW225413   2.478   1.343   0.468
 8172SOL     OW25414   1.109   2.599   0.433
 8172SOL    HW125415   1.109   2.683   0.487
 8172SOL    HW225416   1.091   2.521   0.493
 8173SOL     OW25417   5.885   1.139   1.533
 8173SOL    HW125418   5.813   1.197   1.494
 8173SOL    HW225419   5.904   1.063   1.471
 8174SOL     OW25420   2.832   6.055   3.030
 8174SOL    HW125421   2.807   5.967   2.989
 8174SOL    HW225422   2.763   6.081   3.097
 8175SOL     OW25423   0.244   1.479   5.509
 8175SOL    HW125424   0.242   1.553   5.442
 8175SOL    HW225425   0.152   1.461   5.543
 8176SOL     OW25426   2.375   4.499   0.390
 8176SOL    HW125427   2.356   4.456   0.479
 8176SOL    HW225428   2.406   4.429   0.326
 8177SOL     OW25429   3.181   1.068   4.148
 8177SOL    HW125430   3.257   1.084   4.084
 8177SOL    HW225431   3.121   1.148   4.148
 8178SOL     OW25432   2.861   6.682   1.174
 8178SOL    HW125433   2.917   6.601   1.190
 8178SOL    HW225434   2.871   6.712   1.079
 8179SOL     OW25435   5.422   0.552   3.162
 8179SOL    HW125436   5.479   0.471   3.149
 8179SOL    HW225437   5.395   0.559   3.258
 8180SOL     OW25438   4.615   6.549   0.167
 8180SOL    HW125439   4.553   6.627   0.159
 8180SOL    HW225440   4.666   6.555   0.253
 8181SOL     OW25441   7.016   0.401   0.239
 8181SOL    HW125442   0.064   0.344   0.192
 8181SOL    HW225443   6.977   0.467   0.175
 8182SOL     OW25444   3.061   3.454   4.269
 8182SOL    HW125445   3.039   3.428   4.363
 8182SOL    HW225446   3.049   3.374   4.209
 8183SOL     OW25447   6.824   0.476   5.531
 8183SOL    HW125448   6.757   0.509   5.599
 8183SOL    HW225449   6.871   0.553   5.490
 8184SOL     OW25450   0.315   5.839   6.593
 8184SOL    HW125451   0.269   5.838   6.505
 8184SOL    HW225452   0.249   5.862   6.665
 8185SOL     OW25453   0.728   6.465   6.230
 8185SOL    HW125454   0.646   6.415   6.260
 8185SOL    HW225455   0.756   6.431   6.140
 8186SOL     OW25456   2.027   5.591   6.524
 8186SOL    HW125457   2.088   5.617   6.599
 8186SOL    HW225458   1.995   5.497   6.539
 8187SOL     OW25459   1.224   0.811   5.629
 8187SOL    HW125460   1.261   0.862   5.706
 8187SOL    HW225461   1.250   0.715   5.637
 8188SOL     OW25462   1.498   3.044   2.699
 8188SOL    HW125463   1.580   2.996   2.667
 8188SOL    HW225464   1.487   3.030   2.797
 8189SOL     OW25465   5.652   5.003   3.955
 8189SOL    HW125466   5.727   5.036   4.012
 8189SOL    HW225467   5.689   4.951   3.878
 8190SOL     OW25468   6.704   4.151   3.015
 8190SOL    HW125469   6.719   4.245   3.046
 8190SOL    HW225470   6.686   4.151   2.916
 8191SOL     OW25471   4.076   5.161   0.744
 8191SOL    HW125472   4.046   5.211   0.825
 8191SOL    HW225473   3.998   5.144   0.684
 8192SOL     OW25474   0.499   6.281   3.601
 8192SOL    HW125475   0.547   6.194   3.609
 8192SOL    HW225476   0.482   6.301   3.504
 8193SOL     OW25477   0.696   4.924   4.293
 8193SOL    HW125478   0.733   4.934   4.201
 8193SOL    HW225479   0.596   4.927   4.289
 8194SOL     OW25480   4.396   6.738   1.808
 8194SOL    HW125481   4.487   6.780   1.812
 8194SOL    HW225482   4.327   6.811   1.808
 8195SOL     OW25483   5.863   6.146   3.434
 8195SOL    HW125484   5.879   6.186   3.344
 8195SOL    HW225485   5.766   6.158   3.459
 8196SOL     OW25486   5.193   1.397   1.690
 8196SOL    HW125487   5.167   1.475   1.748
 8196SOL    HW225488   5.252   1.429   1.616
 8197SOL     OW25489   3.767   2.122   2.665
 8197SOL    HW125490   3.729   2.035   2.634
 8197SOL    HW225491   3.723   2.148   2.751
 8198SOL     OW25492   1.433   6.316   1.580
 8198SOL    HW125493   1.412   6.226   1.618
 8198SOL    HW225494   1.363   6.382   1.610
 8199SOL     OW25495   5.492   2.919   0.032
 8199SOL    HW125496   5.556   2.995   0.024
 8199SOL    HW225497   5.510   2.852   6.978
 8200SOL     OW25498   4.211   3.090   0.859
 8200SOL    HW125499   4.286   3.030   0.885
 8200SOL    HW225500   4.124   3.042   0.869
 8201SOL     OW25501   5.898   6.923   5.356
 8201SOL    HW125502   5.971   6.856   5.368
 8201SOL    HW225503   5.874   6.928   5.259
 8202SOL     OW25504   0.653   6.554   1.904
 8202SOL    HW125505   0.716   6.514   1.836
 8202SOL    HW225506   0.608   6.634   1.864
 8203SOL     OW25507   1.671   3.283   1.219
 8203SOL    HW125508   1.699   3.281   1.315
 8203SOL    HW225509   1.718   3.358   1.172
 8204SOL     OW25510   3.161   2.801   1.153
 8204SOL    HW125511   3.093   2.841   1.091
 8204SOL    HW225512   3.221   2.740   1.102
 8205SOL     OW25513   1.118   3.635   6.910
 8205SOL    HW125514   1.113   3.593   6.819
 8205SOL    HW225515   1.028   3.630   6.954
 8206SOL     OW25516   2.732   0.389   0.546
 8206SOL    HW125517   2.746   0.483   0.516
 8206SOL    HW225518   2.671   0.342   0.482
 8207SOL     OW25519   3.747   4.064   4.616
 8207SOL    HW125520   3.783   3.973   4.635
 8207SOL    HW225521   3.769   4.090   4.523
 8208SOL     OW25522   2.047   0.813   0.303
 8208SOL    HW125523   1.982   0.857   0.241
 8208SOL    HW225524   2.110   0.755   0.250
 8209SOL     OW25525   6.008   1.524   4.794
 8209SOL    HW125526   6.015   1.610   4.845
 8209SOL    HW225527   5.912   1.498   4.785
 8210SOL     OW25528   2.101   2.335   6.480
 8210SOL    HW125529   2.065   2.407   6.539
 8210SOL    HW225530   2.165   2.374   6.414
 8211SOL     OW25531   3.592   4.716   1.576
 8211SOL    HW125532   3.646   4.649   1.525
 8211SOL    HW225533   3.567   4.677   1.665
 8212SOL     OW25534   1.574   2.769   3.405
 8212SOL    HW125535   1.525   2.725   3.329
 8212SOL    HW225536   1.653   2.713   3.429
 8213SOL     OW25537   6.501   5.246   1.297
 8213SOL    HW125538   6.435   5.172   1.305
 8213SOL    HW225539   6.579   5.227   1.357
 8214SOL     OW25540   5.750   3.776   3.633
 8214SOL    HW125541   5.661   3.761   3.677
 8214SOL    HW225542   5.739   3.843   3.559
 8215SOL     OW25543   3.292   5.251   3.353
 8215SOL    HW125544   3.338   5.339   3.366
 8215SOL    HW225545   3.225   5.259   3.280
 8216SOL     OW25546   5.510   3.797   3.756
 8216SOL    HW125547   5.540   3.741   3.834
 8216SOL    HW225548   5.417   3.830   3.773
 8217SOL     OW25549   2.066   6.244   0.121
 8217SOL    HW125550   2.062   6.306   0.043
 8217SOL    HW225551   1.999   6.171   0.109
 8218SOL     OW25552   6.529   2.893   0.012
 8218SOL    HW125553   6.596   2.950   6.984
 8218SOL    HW225554   6.467   2.853   6.962
 8219SOL     OW25555   5.942   1.728   6.984
 8219SOL    HW125556   5.926   1.814   0.012
 8219SOL    HW225557   5.856   1.692   6.948
 8220SOL     OW25558   3.998   3.662   2.062
 8220SOL    HW125559   4.035   3.702   2.146
 8220SOL    HW225560   4.067   3.667   1.990
 8221SOL     OW25561   5.262   6.030   3.708
 8221SOL    HW125562   5.197   5.956   3.691
 8221SOL    HW225563   5.315   6.009   3.790
 8222SOL     OW25564   6.493   2.215   1.603
 8222SOL    HW125565   6.434   2.135   1.615
 8222SOL    HW225566   6.575   2.205   1.659
 8223SOL     OW25567   0.545   5.248   5.708
 8223SOL    HW125568   0.524   5.329   5.653
 8223SOL    HW225569   0.637   5.216   5.687
 8224SOL     OW25570   1.424   3.495   3.811
 8224SOL    HW125571   1.390   3.421   3.752
 8224SOL    HW225572   1.460   3.456   3.896
 8225SOL     OW25573   5.061   1.747   0.423
 8225SOL    HW125574   5.121   1.816   0.463
 8225SOL    HW225575   4.966   1.768   0.444
 8226SOL     OW25576   5.190   0.645   0.602
 8226SOL    HW125577   5.256   0.570   0.608
 8226SOL    HW225578   5.214   0.715   0.670
 8227SOL     OW25579   6.426   3.368   2.953
 8227SOL    HW125580   6.438   3.279   2.998
 8227SOL    HW225581   6.498   3.380   2.885
 8228SOL     OW25582   6.543   2.716   5.183
 8228SOL    HW125583   6.479   2.750   5.115
 8228SOL    HW225584   6.546   2.616   5.179
 8229SOL     OW25585   3.700   5.009   0.607
 8229SOL    HW125586   3.656   4.956   0.680
 8229SOL    HW225587   3.659   4.986   0.519
 8230SOL     OW25588   5.125   0.092   4.242
 8230SOL    HW125589   5.127   0.178   4.293
 8230SOL    HW225590   5.052   0.094   4.174
 8231SOL     OW25591   4.388   6.095   0.694
 8231SOL    HW125592   4.316   6.156   0.726
 8231SOL    HW225593   4.348   6.008   0.664
 8232SOL     OW25594   3.025   2.530   6.258
 8232SOL    HW125595   2.931   2.562   6.248
 8232SOL    HW225596   3.082   2.571   6.186
 8233SOL     OW25597   0.365   5.341   0.021
 8233SOL    HW125598   0.319   5.370   0.105
 8233SOL    HW225599   0.310   5.271   6.994
 8234SOL     OW25600   3.667   1.954   6.638
 8234SOL    HW125601   3.764   1.980   6.639
 8234SOL    HW225602   3.617   2.014   6.575
 8235SOL     OW25603   4.970   2.297   0.780
 8235SOL    HW125604   4.921   2.361   0.839
 8235SOL    HW225605   4.925   2.293   0.690
 8236SOL     OW25606   5.324   3.287   0.486
 8236SOL    HW125607   5.396   3.290   0.556
 8236SOL    HW225608   5.360   3.323   0.400
 8237SOL     OW25609   4.264   6.368   5.670
 8237SOL    HW125610   4.304   6.441   5.615
 8237SOL    HW225611   4.170   6.353   5.641
 8238SOL     OW25612   1.763   1.493   6.489
 8238SOL    HW125613   1.833   1.423   6.475
 8238SOL    HW225614   1.798   1.563   6.552
 8239SOL     OW25615   6.785   1.834   6.347
 8239SOL    HW125616   6.788   1.933   6.360
 8239SOL    HW225617   6.831   1.810   6.262
 8240SOL     OW25618   3.863   3.972   3.594
 8240SOL    HW125619   3.836   3.931   3.507
 8240SOL    HW225620   3.952   3.938   3.621
 8241SOL     OW25621   4.275   6.885   0.651
 8241SOL    HW125622   4.264   6.947   0.573
 8241SOL    HW225623   4.341   6.813   0.627
 8242SOL     OW25624   0.893   4.126   5.515
 8242SOL    HW125625   0.880   4.146   5.418
 8242SOL    HW225626   0.990   4.134   5.538
 8243SOL     OW25627   0.818   3.406   4.770
 8243SOL    HW125628   0.817   3.313   4.734
 8243SOL    HW225629   0.780   3.407   4.862
 8244SOL     OW25630   0.723   6.617   4.471
 8244SOL    HW125631   0.624   6.619   4.486
 8244SOL    HW225632   0.754   6.522   4.467
 8245SOL     OW25633   3.682   2.664   0.643
 8245SOL    HW125634   3.644   2.583   0.599
 8245SOL    HW225635   3.633   2.745   0.612
 8246SOL     OW25636   5.281   3.841   5.845
 8246SOL    HW125637   5.272   3.764   5.782
 8246SOL    HW225638   5.378   3.857   5.864
 8247SOL     OW25639   1.069   0.357   1.421
 8247SOL    HW125640   0.985   0.370   1.367
 8247SOL    HW225641   1.119   0.444   1.426
 8248SOL     OW25642   6.414   4.010   3.536
 8248SOL    HW125643   6.431   3.963   3.449
 8248SOL    HW225644   6.325   4.055   3.532
 8249SOL     OW25645   2.138   5.174   3.114
 8249SOL    HW125646   2.126   5.151   3.017
 8249SOL    HW225647   2.213   5.239   3.123
 8250SOL     OW25648   3.951   3.910   2.625
 8250SOL    HW125649   3.994   3.857   2.699
 8250SOL    HW225650   3.930   3.850   2.549
 8251SOL     OW25651   5.642   1.784   4.810
 8251SOL    HW125652   5.638   1.836   4.895
 8251SOL    HW225653   5.721   1.815   4.756
 8252SOL     OW25654   1.502   3.311   4.737
 8252SOL    HW125655   1.505   3.350   4.645
 8252SOL    HW225656   1.487   3.384   4.804
 8253SOL     OW25657   3.284   3.232   5.612
 8253SOL    HW125658   3.339   3.236   5.529
 8253SOL    HW225659   3.204   3.290   5.602
 8254SOL     OW25660   3.765   5.542   3.631
 8254SOL    HW125661   3.720   5.453   3.631
 8254SOL    HW225662   3.702   5.611   3.594
 8255SOL     OW25663   4.456   4.940   3.850
 8255SOL    HW125664   4.492   5.018   3.799
 8255SOL    HW225665   4.512   4.925   3.932
 8256SOL     OW25666   0.048   1.813   3.890
 8256SOL    HW125667   0.043   1.895   3.833
 8256SOL    HW225668   6.975   1.789   3.923
 8257SOL     OW25669   6.675   4.321   4.005
 8257SOL    HW125670   6.704   4.292   3.914
 8257SOL    HW225671   6.657   4.419   4.005
 8258SOL     OW25672   4.418   1.637   6.707
 8258SOL    HW125673   4.471   1.624   6.791
 8258SOL    HW225674   4.336   1.691   6.728
 8259SOL     OW25675   3.609   1.750   1.876
 8259SOL    HW125676   3.675   1.815   1.913
 8259SOL    HW225677   3.592   1.769   1.780
 8260SOL     OW25678   2.386   5.905   0.545
 8260SOL    HW125679   2.333   5.849   0.481
 8260SOL    HW225680   2.364   5.877   0.639
 8261SOL     OW25681   6.063   1.724   1.478
 8261SOL    HW125682   5.983   1.689   1.526
 8261SOL    HW225683   6.145   1.680   1.513
 8262SOL     OW25684   1.043   2.343   1.109
 8262SOL    HW125685   1.031   2.383   1.200
 8262SOL    HW225686   0.985   2.263   1.099
 8263SOL     OW25687   6.502   1.466   0.547
 8263SOL    HW125688   6.505   1.437   0.643
 8263SOL    HW225689   6.442   1.545   0.538
 8264SOL     OW25690   1.923   5.083   2.709
 8264SOL    HW125691   1.972   5.007   2.668
 8264SOL    HW225692   1.828   5.055   2.727
 8265SOL     OW25693   1.846   0.769   1.640
 8265SOL    HW125694   1.873   0.787   1.546
 8265SOL    HW225695   1.785   0.690   1.643
 8266SOL     OW25696   3.269   0.200   3.055
 8266SOL    HW125697   3.256   0.190   2.957
 8266SOL    HW225698   3.326   0.126   3.090
 8267SOL     OW25699   0.682   3.602   1.188
 8267SOL    HW125700   0.702   3.563   1.278
 8267SOL    HW225701   0.692   3.531   1.118
 8268SOL     OW25702   2.882   6.683   5.434
 8268SOL    HW125703   2.963   6.742   5.437
 8268SOL    HW225704   2.866   6.653   5.340
 8269SOL     OW25705   6.080   1.991   1.572
 8269SOL    HW125706   6.169   1.979   1.616
 8269SOL    HW225707   6.055   1.906   1.525
 8270SOL     OW25708   3.766   6.022   3.472
 8270SOL    HW125709   3.682   6.077   3.463
 8270SOL    HW225710   3.812   6.018   3.383
 8271SOL     OW25711   6.905   2.068   2.312
 8271SOL    HW125712   6.829   2.003   2.316
 8271SOL    HW225713   6.957   2.053   2.228
 8272SOL     OW25714   3.451   1.432   3.586
 8272SOL    HW125715   3.448   1.420   3.487
 8272SOL    HW225716   3.521   1.499   3.609
 8273SOL     OW25717   2.572   6.275   0.775
 8273SOL    HW125718   2.648   6.304   0.834
 8273SOL    HW225719   2.486   6.308   0.814
 8274SOL     OW25720   5.310   5.202   3.221
 8274SOL    HW125721   5.268   5.249   3.299
 8274SOL    HW225722   5.388   5.148   3.252
 8275SOL     OW25723   4.997   2.601   5.847
 8275SOL    HW125724   5.019   2.661   5.925
 8275SOL    HW225725   4.909   2.629   5.808
 8276SOL     OW25726   1.086   1.631   3.468
 8276SOL    HW125727   1.159   1.674   3.521
 8276SOL    HW225728   1.106   1.639   3.370
 8277SOL     OW25729   6.497   0.350   6.574
 8277SOL    HW125730   6.406   0.362   6.612
 8277SOL    HW225731   6.491   0.303   6.486
 8278SOL     OW25732   2.151   2.600   0.515
 8278SOL    HW125733   2.059   2.561   0.514
 8278SOL    HW225734   2.145   2.699   0.531
 8279SOL     OW25735   6.957   6.204   3.969
 8279SOL    HW125736   6.893   6.172   3.900
 8279SOL    HW225737   6.919   6.283   4.017
 8280SOL     OW25738   2.991   2.906   5.817
 8280SOL    HW125739   3.042   2.822   5.798
 8280SOL    HW225740   2.999   2.968   5.738
 8281SOL     OW25741   6.508   5.729   2.055
 8281SOL    HW125742   6.526   5.828   2.053
 8281SOL    HW225743   6.411   5.714   2.074
 8282SOL     OW25744   5.133   2.368   5.420
 8282SOL    HW125745   5.089   2.292   5.466
 8282SOL    HW225746   5.087   2.454   5.446
 8283SOL     OW25747   1.824   4.169   5.643
 8283SOL    HW125748   1.747   4.110   5.669
 8283SOL    HW225749   1.798   4.225   5.564
 8284SOL     OW25750   6.551   4.523   2.396
 8284SOL    HW125751   6.603   4.506   2.312
 8284SOL    HW225752   6.609   4.568   2.463
 8285SOL     OW25753   3.811   3.507   4.728
 8285SOL    HW125754   3.853   3.447   4.797
 8285SOL    HW225755   3.832   3.472   4.637
 8286SOL     OW25756   6.229   1.953   5.887
 8286SOL    HW125757   6.234   1.991   5.979
 8286SOL    HW225758   6.138   1.916   5.871
 8287SOL     OW25759   1.524   5.455   4.726
 8287SOL    HW125760   1.478   5.428   4.642
 8287SOL    HW225761   1.574   5.540   4.712
 8288SOL     OW25762   2.528   2.405   2.709
 8288SOL    HW125763   2.460   2.419   2.781
 8288SOL    HW225764   2.609   2.360   2.748
 8289SOL     OW25765   0.366   6.283   6.748
 8289SOL    HW125766   0.451   6.296   6.799
 8289SOL    HW225767   0.288   6.302   6.809
 8290SOL     OW25768   6.566   2.880   1.243
 8290SOL    HW125769   6.522   2.951   1.299
 8290SOL    HW225770   6.556   2.792   1.288
 8291SOL     OW25771   4.569   0.506   0.514
 8291SOL    HW125772   4.607   0.473   0.428
 8291SOL    HW225773   4.621   0.586   0.545
 8292SOL     OW25774   3.038   0.074   6.828
 8292SOL    HW125775   3.137   0.078   6.836
 8292SOL    HW225776   2.996   0.081   6.919
 8293SOL     OW25777   5.473   6.069   5.993
 8293SOL    HW125778   5.516   6.160   5.991
 8293SOL    HW225779   5.440   6.051   6.086
 8294SOL     OW25780   5.500   2.421   0.420
 8294SOL    HW125781   5.461   2.412   0.328
 8294SOL    HW225782   5.559   2.343   0.439
 8295SOL     OW25783   4.741   3.939   1.074
 8295SOL    HW125784   4.796   3.863   1.110
 8295SOL    HW225785   4.691   3.908   0.993
 8296SOL     OW25786   1.888   5.483   6.839
 8296SOL    HW125787   1.982   5.500   6.869
 8296SOL    HW225788   1.874   5.385   6.826
 8297SOL     OW25789   0.309   2.826   2.861
 8297SOL    HW125790   0.283   2.866   2.949
 8297SOL    HW225791   0.398   2.863   2.833
 8298SOL     OW25792   4.504   1.133   1.516
 8298SOL    HW125793   4.472   1.207   1.457
 8298SOL    HW225794   4.592   1.099   1.481
 8299SOL     OW25795   6.446   2.490   1.614
 8299SOL    HW125796   6.453   2.390   1.618
 8299SOL    HW225797   6.525   2.526   1.564
 8300SOL     OW25798   0.763   4.835   3.452
 8300SOL    HW125799   0.806   4.893   3.383
 8300SOL    HW225800   0.821   4.754   3.468
 8301SOL     OW25801   3.929   2.908   6.746
 8301SOL    HW125802   4.023   2.874   6.744
 8301SOL    HW225803   3.870   2.848   6.692
 8302SOL     OW25804   5.909   6.229   6.466
 8302SOL    HW125805   5.820   6.184   6.458
 8302SOL    HW225806   5.904   6.301   6.535
 8303SOL     OW25807   0.704   0.620   5.035
 8303SOL    HW125808   0.691   0.534   4.987
 8303SOL    HW225809   0.677   0.696   4.976
 8304SOL     OW25810   1.190   3.681   6.345
 8304SOL    HW125811   1.141   3.769   6.343
 8304SOL    HW225812   1.140   3.615   6.290
 8305SOL     OW25813   3.473   5.757   3.106
 8305SOL    HW125814   3.548   5.767   3.172
 8305SOL    HW225815   3.404   5.696   3.143
 8306SOL     OW25816   0.762   3.159   4.252
 8306SOL    HW125817   0.713   3.226   4.196
 8306SOL    HW225818   0.796   3.204   4.334
 8307SOL     OW25819   3.727   5.616   1.343
 8307SOL    HW125820   3.798   5.577   1.402
 8307SOL    HW225821   3.769   5.667   1.269
 8308SOL     OW25822   3.808   6.496   2.376
 8308SOL    HW125823   3.774   6.523   2.286
 8308SOL    HW225824   3.740   6.438   2.422
 8309SOL     OW25825   5.014   6.087   1.872
 8309SOL    HW125826   4.934   6.096   1.931
 8309SOL    HW225827   4.984   6.064   1.779
 8310SOL     OW25828   0.188   4.411   0.448
 8310SOL    HW125829   0.115   4.386   0.385
 8310SOL    HW225830   0.151   4.469   0.521
 8311SOL     OW25831   6.449   0.622   0.209
 8311SOL    HW125832   6.352   0.596   0.201
 8311SOL    HW225833   6.479   0.607   0.304
 8312SOL     OW25834   5.693   6.755   1.688
 8312SOL    HW125835   5.686   6.669   1.740
 8312SOL    HW225836   5.789   6.774   1.670
 8313SOL     OW25837   3.512   1.458   2.409
 8313SOL    HW125838   3.601   1.459   2.454
 8313SOL    HW225839   3.524   1.435   2.312
 8314SOL     OW25840   6.693   0.471   2.877
 8314SOL    HW125841   6.768   0.404   2.872
 8314SOL    HW225842   6.731   0.563   2.890
 8315SOL     OW25843   5.224   3.965   6.786
 8315SOL    HW125844   5.278   3.891   6.745
 8315SOL    HW225845   5.252   3.978   6.881
 8316SOL     OW25846   2.229   4.107   6.616
 8316SOL    HW125847   2.243   4.011   6.638
 8316SOL    HW225848   2.269   4.164   6.688
 8317SOL     OW25849   2.010   4.341   2.075
 8317SOL    HW125850   2.109   4.330   2.084
 8317SOL    HW225851   1.987   4.360   1.980
 8318SOL     OW25852   3.992   1.795   5.077
 8318SOL    HW125853   3.969   1.820   5.171
 8318SOL    HW225854   3.950   1.707   5.056
 8319SOL     OW25855   3.488   1.406   5.136
 8319SOL    HW125856   3.505   1.310   5.157
 8319SOL    HW225857   3.405   1.436   5.184
 8320SOL     OW25858   3.323   4.453   1.596
 8320SOL    HW125859   3.403   4.430   1.652
 8320SOL    HW225860   3.333   4.413   1.505
 8321SOL     OW25861   0.863   0.436   1.258
 8321SOL    HW125862   0.861   0.534   1.277
 8321SOL    HW225863   0.798   0.415   1.185
 8322SOL     OW25864   6.437   6.608   6.977
 8322SOL    HW125865   6.389   6.543   0.018
 8322SOL    HW225866   6.374   6.646   6.910
 8323SOL     OW25867   0.836   1.873   2.034
 8323SOL    HW125868   0.785   1.787   2.025
 8323SOL    HW225869   0.773   1.948   2.051
 8324SOL     OW25870   6.452   1.092   2.296
 8324SOL    HW125871   6.469   1.088   2.394
 8324SOL    HW225872   6.432   1.000   2.261
 8325SOL     OW25873   3.343   3.333   3.771
 8325SOL    HW125874   3.379   3.381   3.692
 8325SOL    HW225875   3.252   3.368   3.793
 8326SOL     OW25876   3.850   3.435   5.724
 8326SOL    HW125877   3.940   3.424   5.683
 8326SOL    HW225878   3.825   3.351   5.773
 8327SOL     OW25879   5.530   2.144   5.912
 8327SOL    HW125880   5.494   2.228   5.953
 8327SOL    HW225881   5.584   2.166   5.831
 8328SOL     OW25882   2.480   2.137   5.370
 8328SOL    HW125883   2.476   2.236   5.356
 8328SOL    HW225884   2.471   2.117   5.468
 8329SOL     OW25885   6.794   3.176   5.532
 8329SOL    HW125886   6.728   3.196   5.461
 8329SOL    HW225887   6.866   3.246   5.532
 8330SOL     OW25888   2.790   6.448   0.244
 8330SOL    HW125889   2.748   6.526   0.291
 8330SOL    HW225890   2.802   6.469   0.147
 8331SOL     OW25891   2.204   6.677   0.543
 8331SOL    HW125892   2.124   6.731   0.569
 8331SOL    HW225893   2.198   6.653   0.446
 8332SOL     OW25894   5.079   5.538   2.695
 8332SOL    HW125895   5.012   5.497   2.634
 8332SOL    HW225896   5.063   5.506   2.789
 8333SOL     OW25897   0.368   5.693   6.880
 8333SOL    HW125898   0.299   5.719   6.948
 8333SOL    HW225899   0.325   5.640   6.807
 8334SOL     OW25900   6.246   1.974   3.715
 8334SOL    HW125901   6.176   1.956   3.783
 8334SOL    HW225902   6.294   2.059   3.736
 8335SOL     OW25903   5.436   6.773   6.064
 8335SOL    HW125904   5.475   6.705   6.125
 8335SOL    HW225905   5.472   6.864   6.089
 8336SOL     OW25906   0.188   1.795   2.146
 8336SOL    HW125907   0.184   1.889   2.180
 8336SOL    HW225908   0.279   1.757   2.166
 8337SOL     OW25909   0.887   6.400   2.695
 8337SOL    HW125910   0.867   6.303   2.702
 8337SOL    HW225911   0.925   6.420   2.604
 8338SOL     OW25912   1.745   4.750   1.344
 8338SOL    HW125913   1.660   4.802   1.339
 8338SOL    HW225914   1.761   4.703   1.257
 8339SOL     OW25915   5.474   1.259   2.698
 8339SOL    HW125916   5.561   1.236   2.742
 8339SOL    HW225917   5.476   1.355   2.669
 8340SOL     OW25918   4.885   3.707   1.127
 8340SOL    HW125919   4.944   3.707   1.045
 8340SOL    HW225920   4.940   3.686   1.207
 8341SOL     OW25921   2.672   5.999   0.760
 8341SOL    HW125922   2.587   6.050   0.749
 8341SOL    HW225923   2.700   5.962   0.672
 8342SOL     OW25924   4.371   0.828   0.525
 8342SOL    HW125925   4.325   0.826   0.614
 8342SOL    HW225926   4.458   0.876   0.535
 8343SOL     OW25927   1.396   5.604   6.333
 8343SOL    HW125928   1.412   5.517   6.380
 8343SOL    HW225929   1.330   5.589   6.259
 8344SOL     OW25930   4.340   6.343   5.934
 8344SOL    HW125931   4.310   6.363   5.840
 8344SOL    HW225932   4.306   6.253   5.962
 8345SOL     OW25933   6.238   1.001   2.638
 8345SOL    HW125934   6.254   1.027   2.733
 8345SOL    HW225935   6.186   1.074   2.592
 8346SOL     OW25936   3.280   5.346   1.152
 8346SOL    HW125937   3.371   5.384   1.169
 8346SOL    HW225938   3.285   5.247   1.151
 8347SOL     OW25939   3.368   6.304   5.132
 8347SOL    HW125940   3.335   6.308   5.227
 8347SOL    HW225941   3.435   6.377   5.117
 8348SOL     OW25942   1.291   0.767   0.287
 8348SOL    HW125943   1.201   0.785   0.328
 8348SOL    HW225944   1.285   0.684   0.230
 8349SOL     OW25945   5.288   5.040   1.538
 8349SOL    HW125946   5.323   5.024   1.631
 8349SOL    HW225947   5.189   5.023   1.536
 8350SOL     OW25948   5.910   0.838   4.814
 8350SOL    HW125949   6.003   0.847   4.850
 8350SOL    HW225950   5.900   0.748   4.771
 8351SOL     OW25951   3.494   6.111   3.224
 8351SOL    HW125952   3.499   6.093   3.126
 8351SOL    HW225953   3.548   6.193   3.246
 8352SOL     OW25954   6.943   5.938   2.244
 8352SOL    HW125955   6.895   6.014   2.199
 8352SOL    HW225956   6.977   5.875   2.175
 8353SOL     OW25957   0.401   3.652   2.271
 8353SOL    HW125958   0.323   3.599   2.304
 8353SOL    HW225959   0.390   3.748   2.297
 8354SOL     OW25960   2.532   1.360   6.871
 8354SOL    HW125961   2.489   1.441   6.832
 8354SOL    HW225962   2.516   1.358   6.970
 8355SOL     OW25963   2.778   0.667   0.458
 8355SOL    HW125964   2.811   0.692   0.367
 8355SOL    HW225965   2.704   0.728   0.485
 8356SOL     OW25966   2.166   5.407   6.810
 8356SOL    HW125967   2.230   5.333   6.787
 8356SOL    HW225968   2.203   5.494   6.778
 8357SOL     OW25969   4.755   5.575   4.953
 8357SOL    HW125970   4.704   5.621   4.881
 8357SOL    HW225971   4.847   5.552   4.921
 8358SOL     OW25972   2.126   3.032   5.497
 8358SOL    HW125973   2.185   2.983   5.433
 8358SOL    HW225974   2.081   2.967   5.558
 8359SOL     OW25975   4.319   5.381   4.339
 8359SOL    HW125976   4.394   5.315   4.342
 8359SOL    HW225977   4.241   5.345   4.391
 8360SOL     OW25978   5.091   0.074   3.149
 8360SOL    HW125979   5.149   0.154   3.133
 8360SOL    HW225980   4.997   0.095   3.121
 8361SOL     OW25981   1.869   0.492   2.813
 8361SOL    HW125982   1.776   0.519   2.785
 8361SOL    HW225983   1.906   0.428   2.747
 8362SOL     OW25984   2.934   2.220   0.315
 8362SOL    HW125985   2.879   2.207   0.398
 8362SOL    HW225986   2.987   2.137   0.297
 8363SOL     OW25987   0.071   3.156   0.820
 8363SOL    HW125988   0.130   3.186   0.744
 8363SOL    HW225989   7.012   3.219   0.828
 8364SOL     OW25990   6.701   3.782   3.909
 8364SOL    HW125991   6.613   3.739   3.930
 8364SOL    HW225992   6.742   3.816   3.993
 8365SOL     OW25993   2.591   3.388   5.927
 8365SOL    HW125994   2.647   3.459   5.968
 8365SOL    HW225995   2.498   3.393   5.964
 8366SOL     OW25996   2.930   6.255   2.854
 8366SOL    HW125997   2.900   6.172   2.902
 8366SOL    HW225998   2.863   6.328   2.868
 8367SOL     OW25999   5.727   5.838   3.773
 8367SOL    HW126000   5.645   5.836   3.716
 8367SOL    HW226001   5.702   5.822   3.868
 8368SOL     OW26002   3.377   5.290   6.118
 8368SOL    HW126003   3.377   5.368   6.056
 8368SOL    HW226004   3.307   5.303   6.188
 8369SOL     OW26005   1.978   1.419   0.553
 8369SOL    HW126006   1.902   1.482   0.567
 8369SOL    HW226007   1.964   1.368   0.468
 8370SOL     OW26008   1.358   1.771   6.344
 8370SOL    HW126009   1.361   1.845   6.277
 8370SOL    HW226010   1.397   1.688   6.305
 8371SOL     OW26011   2.008   3.343   0.384
 8371SOL    HW126012   2.078   3.298   0.439
 8371SOL    HW226013   2.049   3.380   0.301
 8372SOL     OW26014   6.982   1.093   2.653
 8372SOL    HW126015   6.892   1.128   2.630
 8372SOL    HW226016   0.032   1.166   2.643
 8373SOL     OW26017   1.684   6.333   5.127
 8373SOL    HW126018   1.688   6.359   5.224
 8373SOL    HW226019   1.598   6.285   5.110
 8374SOL     OW26020   6.645   6.935   6.769
 8374SOL    HW126021   6.714   6.996   6.732
 8374SOL    HW226022   6.595   6.891   6.693
 8375SOL     OW26023   3.200   0.259   6.635
 8375SOL    HW126024   3.288   0.281   6.677
 8375SOL    HW226025   3.145   0.206   6.700
 8376SOL     OW26026   3.117   0.540   4.515
 8376SOL    HW126027   3.094   0.465   4.454
 8376SOL    HW226028   3.215   0.535   4.537
 8377SOL     OW26029   5.704   4.364   1.389
 8377SOL    HW126030   5.770   4.426   1.432
 8377SOL    HW226031   5.694   4.282   1.445
 8378SOL     OW26032   4.760   2.757   2.931
 8378SOL    HW126033   4.783   2.826   3.000
 8378SOL    HW226034   4.692   2.694   2.968
 8379SOL     OW26035   6.248   2.611   2.479
 8379SOL    HW126036   6.209   2.624   2.389
 8379SOL    HW226037   6.341   2.574   2.470
 8380SOL     OW26038   4.590   1.632   3.487
 8380SOL    HW126039   4.503   1.583   3.487
 8380SOL    HW226040   4.574   1.729   3.470
 8381SOL     OW26041   1.947   5.734   4.541
 8381SOL    HW126042   2.017   5.726   4.612
 8381SOL    HW226043   1.933   5.830   4.518
 8382SOL     OW26044   1.302   2.905   2.164
 8382SOL    HW126045   1.316   2.997   2.128
 8382SOL    HW226046   1.387   2.872   2.205
 8383SOL     OW26047   2.729   2.632   6.315
 8383SOL    HW126048   2.736   2.543   6.360
 8383SOL    HW226049   2.683   2.620   6.227
 8384SOL     OW26050   0.452   0.089   2.057
 8384SOL    HW126051   0.529   0.152   2.052
 8384SOL    HW226052   0.417   0.071   1.965
 8385SOL     OW26053   4.948   1.897   1.366
 8385SOL    HW126054   5.043   1.928   1.369
 8385SOL    HW226055   4.888   1.971   1.397
 8386SOL     OW26056   1.071   4.441   2.348
 8386SOL    HW126057   1.093   4.527   2.394
 8386SOL    HW226058   1.106   4.444   2.254
 8387SOL     OW26059   0.548   2.555   1.477
 8387SOL    HW126060   0.474   2.516   1.531
 8387SOL    HW226061   0.585   2.635   1.524
 8388SOL     OW26062   1.718   0.435   2.370
 8388SOL    HW126063   1.807   0.466   2.405
 8388SOL    HW226064   1.645   0.485   2.416
 8389SOL     OW26065   5.131   2.606   2.494
 8389SOL    HW126066   5.037   2.576   2.479
 8389SOL    HW226067   5.146   2.692   2.446
 8390SOL     OW26068   5.296   1.620   5.619
 8390SOL    HW126069   5.295   1.613   5.520
 8390SOL    HW226070   5.370   1.564   5.656
 8391SOL     OW26071   6.458   6.914   1.213
 8391SOL    HW126072   6.372   6.965   1.213
 8391SOL    HW226073   6.534   6.978   1.220
 8392SOL     OW26074   5.144   3.067   4.821
 8392SOL    HW126075   5.205   3.112   4.756
 8392SOL    HW226076   5.049   3.086   4.797
 8393SOL     OW26077   5.164   0.192   1.444
 8393SOL    HW126078   5.079   0.207   1.494
 8393SOL    HW226079   5.164   0.100   1.404
 8394SOL     OW26080   5.917   3.456   1.784
 8394SOL    HW126081   5.827   3.440   1.743
 8394SOL    HW226082   5.905   3.488   1.878
 8395SOL     OW26083   1.500   1.307   4.809
 8395SOL    HW126084   1.422   1.370   4.805
 8395SOL    HW226085   1.573   1.341   4.750
 8396SOL     OW26086   4.183   5.766   4.455
 8396SOL    HW126087   4.280   5.779   4.438
 8396SOL    HW226088   4.169   5.740   4.551
 8397SOL     OW26089   6.290   1.064   2.908
 8397SOL    HW126090   6.353   1.136   2.879
 8397SOL    HW226091   6.319   1.026   2.996
 8398SOL     OW26092   4.474   2.192   5.882
 8398SOL    HW126093   4.482   2.196   5.981
 8398SOL    HW226094   4.528   2.265   5.841
 8399SOL     OW26095   6.754   5.090   0.857
 8399SOL    HW126096   6.733   5.077   0.954
 8399SOL    HW226097   6.817   5.167   0.847
 8400SOL     OW26098   1.380   2.403   4.654
 8400SOL    HW126099   1.376   2.499   4.625
 8400SOL    HW226100   1.403   2.399   4.751
 8401SOL     OW26101   2.972   0.129   6.288
 8401SOL    HW126102   3.011   0.196   6.226
 8401SOL    HW226103   2.904   0.073   6.240
 8402SOL     OW26104   3.531   0.471   6.108
 8402SOL    HW126105   3.558   0.375   6.109
 8402SOL    HW226106   3.571   0.518   6.186
 8403SOL     OW26107   5.913   4.781   4.552
 8403SOL    HW126108   5.931   4.768   4.454
 8403SOL    HW226109   5.941   4.699   4.602
 8404SOL     OW26110   1.582   2.045   6.389
 8404SOL    HW126111   1.665   2.100   6.377
 8404SOL    HW226112   1.607   1.948   6.387
 8405SOL     OW26113   3.767   0.769   5.779
 8405SOL    HW126114   3.763   0.856   5.829
 8405SOL    HW226115   3.761   0.693   5.843
 8406SOL     OW26116   5.004   0.449   5.834
 8406SOL    HW126117   4.943   0.523   5.805
 8406SOL    HW226118   5.097   0.484   5.844
 8407SOL     OW26119   3.503   6.716   4.105
 8407SOL    HW126120   3.412   6.729   4.144
 8407SOL    HW226121   3.563   6.675   4.174
 8408SOL     OW26122   3.826   1.140   1.698
 8408SOL    HW126123   3.740   1.192   1.701
 8408SOL    HW226124   3.887   1.174   1.770
 8409SOL     OW26125   4.150   2.230   2.144
 8409SOL    HW126126   4.054   2.213   2.168
 8409SOL    HW226127   4.200   2.258   2.226
 8410SOL     OW26128   6.679   1.924   1.360
 8410SOL    HW126129   6.584   1.897   1.377
 8410SOL    HW226130   6.694   1.930   1.261
 8411SOL     OW26131   1.941   5.493   0.843
 8411SOL    HW126132   1.887   5.411   0.859
 8411SOL    HW226133   1.946   5.512   0.745
 8412SOL     OW26134   2.165   2.494   6.031
 8412SOL    HW126135   2.239   2.533   6.086
 8412SOL    HW226136   2.096   2.564   6.013
 8413SOL     OW26137   4.366   5.574   4.898
 8413SOL    HW126138   4.431   5.499   4.883
 8413SOL    HW226139   4.291   5.542   4.957
 8414SOL     OW26140   1.312   1.081   1.797
 8414SOL    HW126141   1.250   1.030   1.738
 8414SOL    HW226142   1.343   1.022   1.872
 8415SOL     OW26143   2.351   0.858   5.337
 8415SOL    HW126144   2.447   0.873   5.360
 8415SOL    HW226145   2.294   0.917   5.395
 8416SOL     OW26146   6.591   1.464   5.212
 8416SOL    HW126147   6.621   1.398   5.281
 8416SOL    HW226148   6.609   1.557   5.245
 8417SOL     OW26149   1.287   3.644   5.255
 8417SOL    HW126150   1.384   3.649   5.229
 8417SOL    HW226151   1.277   3.581   5.332
 8418SOL     OW26152   0.603   6.052   2.380
 8418SOL    HW126153   0.611   6.123   2.450
 8418SOL    HW226154   0.664   5.976   2.402
 8419SOL     OW26155   4.077   1.817   4.353
 8419SOL    HW126156   4.002   1.879   4.327
 8419SOL    HW226157   4.164   1.864   4.340
 8420SOL     OW26158   3.443   0.236   2.504
 8420SOL    HW126159   3.377   0.303   2.539
 8420SOL    HW226160   3.517   0.225   2.569
 8421SOL     OW26161   4.890   6.222   6.368
 8421SOL    HW126162   4.930   6.135   6.339
 8421SOL    HW226163   4.853   6.270   6.288
 8422SOL     OW26164   4.560   2.379   3.208
 8422SOL    HW126165   4.589   2.441   3.135
 8422SOL    HW226166   4.587   2.286   3.185
 8423SOL     OW26167   6.810   5.428   6.394
 8423SOL    HW126168   6.848   5.508   6.348
 8423SOL    HW226169   6.752   5.458   6.470
 8424SOL     OW26170   2.676   6.904   3.825
 8424SOL    HW126171   2.657   6.998   3.853
 8424SOL    HW226172   2.638   6.841   3.892
 8425SOL     OW26173   3.854   4.061   2.825
 8425SOL    HW126174   3.759   4.087   2.804
 8425SOL    HW226175   3.895   4.018   2.744
 8426SOL     OW26176   3.653   2.908   1.812
 8426SOL    HW126177   3.741   2.956   1.810
 8426SOL    HW226178   3.596   2.947   1.884
 8427SOL     OW26179   3.762   4.010   3.857
 8427SOL    HW126180   3.720   3.920   3.870
 8427SOL    HW226181   3.785   4.022   3.760
 8428SOL     OW26182   6.529   6.974   0.374
 8428SOL    HW126183   6.548   7.010   0.465
 8428SOL    HW226184   6.493   0.028   0.316
 8429SOL     OW26185   2.601   5.555   5.825
 8429SOL    HW126186   2.536   5.481   5.842
 8429SOL    HW226187   2.674   5.521   5.766
 8430SOL     OW26188   4.184   6.676   5.235
 8430SOL    HW126189   4.238   6.695   5.153
 8430SOL    HW226190   4.136   6.589   5.224
 8431SOL     OW26191   2.888   3.494   6.421
 8431SOL    HW126192   2.931   3.405   6.406
 8431SOL    HW226193   2.794   3.492   6.387
 8432SOL     OW26194   6.475   5.053   6.285
 8432SOL    HW126195   6.492   5.145   6.319
 8432SOL    HW226196   6.407   5.007   6.342
 8433SOL     OW26197   5.621   2.596   1.006
 8433SOL    HW126198   5.639   2.549   0.920
 8433SOL    HW226199   5.703   2.595   1.062
 8434SOL     OW26200   2.072   6.374   5.430
 8434SOL    HW126201   2.100   6.455   5.482
 8434SOL    HW226202   2.008   6.321   5.485
 8435SOL     OW26203   4.802   1.060   3.091
 8435SOL    HW126204   4.789   1.108   3.178
 8435SOL    HW226205   4.837   0.968   3.109
 8436SOL     OW26206   2.511   6.008   2.510
 8436SOL    HW126207   2.560   5.922   2.497
 8436SOL    HW226208   2.518   6.037   2.606
 8437SOL     OW26209   1.536   4.252   1.828
 8437SOL    HW126210   1.519   4.157   1.804
 8437SOL    HW226211   1.607   4.257   1.898
 8438SOL     OW26212   0.896   4.244   2.297
 8438SOL    HW126213   0.920   4.161   2.348
 8438SOL    HW226214   0.941   4.323   2.338
 8439SOL     OW26215   5.997   5.132   3.542
 8439SOL    HW126216   5.918   5.106   3.485
 8439SOL    HW226217   6.013   5.230   3.534
 8440SOL     OW26218   1.983   1.591   3.045
 8440SOL    HW126219   2.043   1.529   3.096
 8440SOL    HW226220   1.913   1.538   2.999
 8441SOL     OW26221   6.116   1.318   4.605
 8441SOL    HW126222   6.104   1.375   4.686
 8441SOL    HW226223   6.211   1.287   4.599
 8442SOL     OW26224   3.541   1.220   6.149
 8442SOL    HW126225   3.496   1.308   6.161
 8442SOL    HW226226   3.515   1.159   6.224
 8443SOL     OW26227   0.982   3.928   3.233
 8443SOL    HW126228   0.940   3.844   3.198
 8443SOL    HW226229   1.067   3.945   3.183
 8444SOL     OW26230   5.172   5.333   4.618
 8444SOL    HW126231   5.151   5.236   4.603
 8444SOL    HW226232   5.264   5.341   4.657
 8445SOL     OW26233   4.697   5.913   6.872
 8445SOL    HW126234   4.614   5.859   6.857
 8445SOL    HW226235   4.740   5.933   6.784
 8446SOL     OW26236   6.655   5.418   4.972
 8446SOL    HW126237   6.725   5.348   4.958
 8446SOL    HW226238   6.630   5.459   4.884
 8447SOL     OW26239   3.871   1.921   3.181
 8447SOL    HW126240   3.821   1.948   3.263
 8447SOL    HW226241   3.838   1.974   3.103
 8448SOL     OW26242   3.506   6.379   3.056
 8448SOL    HW126243   3.413   6.341   3.052
 8448SOL    HW226244   3.550   6.352   3.141
 8449SOL     OW26245   2.175   2.414   3.166
 8449SOL    HW126246   2.223   2.396   3.252
 8449SOL    HW226247   2.209   2.499   3.125
 8450SOL     OW26248   0.003   0.843   0.033
 8450SOL    HW126249   6.970   0.844   6.966
 8450SOL    HW226250   6.967   0.884   0.106
 8451SOL     OW26251   4.573   2.688   1.017
 8451SOL    HW126252   4.639   2.751   1.058
 8451SOL    HW226253   4.506   2.739   0.964
 8452SOL     OW26254   5.027   2.146   5.546
 8452SOL    HW126255   4.936   2.159   5.586
 8452SOL    HW226256   5.019   2.101   5.458
 8453SOL     OW26257   0.770   6.161   1.134
 8453SOL    HW126258   0.761   6.098   1.211
 8453SOL    HW226259   0.862   6.152   1.095
 8454SOL     OW26260   6.278   4.003   0.020
 8454SOL    HW126261   6.242   3.972   6.951
 8454SOL    HW226262   6.366   4.047   0.007
 8455SOL     OW26263   0.158   1.017   3.172
 8455SOL    HW126264   0.122   1.107   3.146
 8455SOL    HW226265   0.106   0.982   3.250
 8456SOL     OW26266   6.056   0.726   3.529
 8456SOL    HW126267   5.960   0.726   3.559
 8456SOL    HW226268   6.106   0.656   3.580
 8457SOL     OW26269   6.826   6.881   5.041
 8457SOL    HW126270   6.830   6.932   4.955
 8457SOL    HW226271   6.919   6.860   5.072
 8458SOL     OW26272   6.984   6.114   0.132
 8458SOL    HW126273   6.990   6.174   0.212
 8458SOL    HW226274   6.947   6.166   0.054
 8459SOL     OW26275   1.450   5.624   3.106
 8459SOL    HW126276   1.405   5.536   3.097
 8459SOL    HW226277   1.381   5.696   3.117
 8460SOL     OW26278   3.495   4.178   3.791
 8460SOL    HW126279   3.528   4.212   3.879
 8460SOL    HW226280   3.402   4.142   3.802
 8461SOL     OW26281   6.360   3.593   3.999
 8461SOL    HW126282   6.353   3.537   4.082
 8461SOL    HW226283   6.318   3.682   4.015
 8462SOL     OW26284   2.194   2.978   2.078
 8462SOL    HW126285   2.253   2.916   2.130
 8462SOL    HW226286   2.208   3.072   2.110
 8463SOL     OW26287   5.159   1.435   2.112
 8463SOL    HW126288   5.186   1.436   2.015
 8463SOL    HW226289   5.223   1.377   2.163
 8464SOL     OW26290   6.378   2.073   4.509
 8464SOL    HW126291   6.344   2.042   4.420
 8464SOL    HW226292   6.478   2.078   4.506
 8465SOL     OW26293   1.577   2.293   0.244
 8465SOL    HW126294   1.665   2.338   0.262
 8465SOL    HW226295   1.511   2.321   0.314
 8466SOL     OW26296   0.941   6.791   3.908
 8466SOL    HW126297   0.975   6.879   3.875
 8466SOL    HW226298   0.890   6.804   3.993
 8467SOL     OW26299   2.694   5.348   0.609
 8467SOL    HW126300   2.649   5.434   0.633
 8467SOL    HW226301   2.779   5.367   0.561
 8468SOL     OW26302   4.790   1.885   0.422
 8468SOL    HW126303   4.692   1.889   0.440
 8468SOL    HW226304   4.813   1.951   0.350
 8469SOL     OW26305   3.836   2.381   6.740
 8469SOL    HW126306   3.927   2.387   6.699
 8469SOL    HW226307   3.825   2.455   6.806
 8470SOL     OW26308   2.324   2.467   6.405
 8470SOL    HW126309   2.307   2.547   6.347
 8470SOL    HW226310   2.337   2.496   6.500
 8471SOL     OW26311   4.022   0.915   3.641
 8471SOL    HW126312   3.990   1.008   3.658
 8471SOL    HW226313   4.103   0.897   3.697
 8472SOL     OW26314   1.594   5.955   3.500
 8472SOL    HW126315   1.597   5.884   3.571
 8472SOL    HW226316   1.512   5.943   3.444
 8473SOL     OW26317   6.508   5.949   0.046
 8473SOL    HW126318   6.467   5.881   7.004
 8473SOL    HW226319   6.607   5.940   0.044
 8474SOL     OW26320   4.429   4.599   0.838
 8474SOL    HW126321   4.527   4.617   0.847
 8474SOL    HW226322   4.380   4.638   0.916
 8475SOL     OW26323   4.474   1.023   3.182
 8475SOL    HW126324   4.538   0.994   3.111
 8475SOL    HW226325   4.524   1.039   3.267
 8476SOL     OW26326   4.451   0.103   2.718
 8476SOL    HW126327   4.390   0.163   2.769
 8476SOL    HW226328   4.543   0.108   2.758
 8477SOL     OW26329   2.713   1.111   2.149
 8477SOL    HW126330   2.659   1.148   2.224
 8477SOL    HW226331   2.746   1.186   2.092
 8478SOL     OW26332   2.016   0.303   5.813
 8478SOL    HW126333   2.057   0.384   5.854
 8478SOL    HW226334   2.072   0.270   5.738
 8479SOL     OW26335   4.836   0.855   1.975
 8479SOL    HW126336   4.744   0.873   1.940
 8479SOL    HW226337   4.880   0.941   2.000
 8480SOL     OW26338   1.695   1.482   1.356
 8480SOL    HW126339   1.701   1.522   1.448
 8480SOL    HW226340   1.726   1.549   1.289
 8481SOL     OW26341   3.991   6.957   4.362
 8481SOL    HW126342   3.935   6.937   4.282
 8481SOL    HW226343   4.032   0.030   4.352
 8482SOL     OW26344   0.862   0.501   2.254
 8482SOL    HW126345   0.804   0.421   2.237
 8482SOL    HW226346   0.806   0.576   2.289
 8483SOL     OW26347   4.139   6.041   2.074
 8483SOL    HW126348   4.064   6.077   2.130
 8483SOL    HW226349   4.104   6.019   1.983
 8484SOL     OW26350   0.715   4.892   4.689
 8484SOL    HW126351   0.769   4.811   4.667
 8484SOL    HW226352   0.633   4.865   4.741
 8485SOL     OW26353   3.210   3.313   6.002
 8485SOL    HW126354   3.164   3.382   5.946
 8485SOL    HW226355   3.305   3.304   5.971
 8486SOL     OW26356   4.503   0.681   2.305
 8486SOL    HW126357   4.429   0.747   2.320
 8486SOL    HW226358   4.591   0.727   2.317
 8487SOL     OW26359   4.360   6.962   0.895
 8487SOL    HW126360   4.333   6.938   0.802
 8487SOL    HW226361   4.337   6.886   0.957
 8488SOL     OW26362   4.933   3.196   4.636
 8488SOL    HW126363   4.915   3.203   4.538
 8488SOL    HW226364   4.903   3.279   4.682
 8489SOL     OW26365   4.372   4.902   2.795
 8489SOL    HW126366   4.300   4.870   2.733
 8489SOL    HW226367   4.332   4.928   2.883
 8490SOL     OW26368   3.691   5.679   2.948
 8490SOL    HW126369   3.766   5.701   3.010
 8490SOL    HW226370   3.609   5.660   3.001
 8491SOL     OW26371   2.055   0.901   2.426
 8491SOL    HW126372   2.076   0.842   2.504
 8491SOL    HW226373   2.113   0.875   2.348
 8492SOL     OW26374   5.652   3.732   4.500
 8492SOL    HW126375   5.626   3.824   4.531
 8492SOL    HW226376   5.570   3.682   4.471
 8493SOL     OW26377   3.678   2.358   1.030
 8493SOL    HW126378   3.608   2.287   1.029
 8493SOL    HW226379   3.769   2.316   1.029
 8494SOL     OW26380   3.457   5.424   0.035
 8494SOL    HW126381   3.541   5.423   6.999
 8494SOL    HW226382   3.417   5.515   0.033
 8495SOL     OW26383   0.360   2.946   0.256
 8495SOL    HW126384   0.394   3.040   0.260
 8495SOL    HW226385   0.318   2.922   0.343
 8496SOL     OW26386   0.038   3.056   3.287
 8496SOL    HW126387   0.014   3.047   3.384
 8496SOL    HW226388   0.008   2.975   3.237
 8497SOL     OW26389   6.051   5.536   3.282
 8497SOL    HW126390   6.115   5.496   3.216
 8497SOL    HW226391   6.032   5.631   3.257
 8498SOL     OW26392   0.198   1.117   0.700
 8498SOL    HW126393   0.146   1.032   0.704
 8498SOL    HW226394   0.197   1.153   0.607
 8499SOL     OW26395   3.431   4.048   6.670
 8499SOL    HW126396   3.340   4.060   6.711
 8499SOL    HW226397   3.426   3.981   6.597
 8500SOL     OW26398   2.989   0.944   6.520
 8500SOL    HW126399   3.056   0.901   6.581
 8500SOL    HW226400   3.012   1.040   6.507
 8501SOL     OW26401   2.136   4.376   5.991
 8501SOL    HW126402   2.051   4.398   6.039
 8501SOL    HW226403   2.121   4.383   5.892
 8502SOL     OW26404   0.274   0.268   2.443
 8502SOL    HW126405   0.356   0.223   2.479
 8502SOL    HW226406   0.257   0.237   2.350
 8503SOL     OW26407   2.837   5.445   3.036
 8503SOL    HW126408   2.914   5.383   3.028
 8503SOL    HW226409   2.811   5.454   3.133
 8504SOL     OW26410   0.686   5.822   3.156
 8504SOL    HW126411   0.777   5.781   3.150
 8504SOL    HW226412   0.618   5.750   3.173
 8505SOL     OW26413   4.869   2.911   3.466
 8505SOL    HW126414   4.871   2.852   3.547
 8505SOL    HW226415   4.827   2.998   3.489
 8506SOL     OW26416   1.015   6.463   0.524
 8506SOL    HW126417   1.062   6.396   0.581
 8506SOL    HW226418   1.045   6.555   0.549
 8507SOL     OW26419   2.003   0.964   5.029
 8507SOL    HW126420   1.985   1.016   5.112
 8507SOL    HW226421   1.917   0.939   4.985
 8508SOL     OW26422   1.097   2.724   6.086
 8508SOL    HW126423   1.111   2.808   6.035
 8508SOL    HW226424   1.157   2.652   6.051
 8509SOL     OW26425   6.144   1.863   4.465
 8509SOL    HW126426   6.101   1.776   4.440
 8509SOL    HW226427   6.074   1.926   4.498
 8510SOL     OW26428   4.909   0.133   2.818
 8510SOL    HW126429   4.997   0.114   2.774
 8510SOL    HW226430   4.876   0.223   2.788
 8511SOL     OW26431   6.822   4.805   1.954
 8511SOL    HW126432   6.791   4.839   2.043
 8511SOL    HW226433   6.746   4.762   1.906
 8512SOL     OW26434   4.515   1.880   0.378
 8512SOL    HW126435   4.466   1.937   0.312
 8512SOL    HW226436   4.454   1.807   0.410
 8513SOL     OW26437   6.922   4.275   0.970
 8513SOL    HW126438   6.958   4.194   1.017
 8513SOL    HW226439   6.998   4.330   0.936
 8514SOL     OW26440   2.813   2.557   5.637
 8514SOL    HW126441   2.747   2.489   5.604
 8514SOL    HW226442   2.766   2.645   5.650
 8515SOL     OW26443   1.163   0.297   1.114
 8515SOL    HW126444   1.087   0.322   1.055
 8515SOL    HW226445   1.142   0.323   1.209
 8516SOL     OW26446   5.559   2.300   3.407
 8516SOL    HW126447   5.543   2.328   3.502
 8516SOL    HW226448   5.487   2.237   3.379
 8517SOL     OW26449   2.078   1.960   5.333
 8517SOL    HW126450   2.046   1.929   5.423
 8517SOL    HW226451   2.170   1.924   5.317
 8518SOL     OW26452   5.378   4.683   0.200
 8518SOL    HW126453   5.281   4.666   0.219
 8518SOL    HW226454   5.386   4.736   0.115
 8519SOL     OW26455   1.336   3.404   0.953
 8519SOL    HW126456   1.411   3.415   0.888
 8519SOL    HW226457   1.350   3.465   1.031
 8520SOL     OW26458   4.052   4.084   5.886
 8520SOL    HW126459   4.046   3.998   5.936
 8520SOL    HW226460   4.059   4.160   5.951
 8521SOL     OW26461   1.893   6.586   5.737
 8521SOL    HW126462   1.807   6.603   5.690
 8521SOL    HW226463   1.897   6.640   5.821
 8522SOL     OW26464   0.825   6.722   0.349
 8522SOL    HW126465   0.768   6.755   0.275
 8522SOL    HW226466   0.803   6.770   0.433
 8523SOL     OW26467   2.986   1.480   0.122
 8523SOL    HW126468   3.071   1.432   0.102
 8523SOL    HW226469   2.909   1.418   0.108
 8524SOL     OW26470   2.256   5.610   4.357
 8524SOL    HW126471   2.263   5.595   4.456
 8524SOL    HW226472   2.205   5.534   4.316
 8525SOL     OW26473   6.326   5.054   1.372
 8525SOL    HW126474   6.380   5.011   1.444
 8525SOL    HW226475   6.253   4.992   1.343
 8526SOL     OW26476   0.901   5.667   0.791
 8526SOL    HW126477   0.892   5.748   0.850
 8526SOL    HW226478   0.989   5.669   0.745
 8527SOL     OW26479   2.860   0.749   5.535
 8527SOL    HW126480   2.824   0.705   5.452
 8527SOL    HW226481   2.939   0.697   5.568
 8528SOL     OW26482   5.188   1.724   0.712
 8528SOL    HW126483   5.218   1.654   0.648
 8528SOL    HW226484   5.157   1.804   0.661
 8529SOL     OW26485   1.028   6.317   6.461
 8529SOL    HW126486   0.999   6.398   6.513
 8529SOL    HW226487   1.127   6.305   6.469
 8530SOL     OW26488   3.081   3.971   4.277
 8530SOL    HW126489   3.106   4.004   4.368
 8530SOL    HW226490   3.028   3.886   4.286
 8531SOL     OW26491   6.538   5.392   4.237
 8531SOL    HW126492   6.626   5.436   4.217
 8531SOL    HW226493   6.553   5.298   4.267
 8532SOL     OW26494   2.402   5.372   5.117
 8532SOL    HW126495   2.488   5.417   5.142
 8532SOL    HW226496   2.419   5.274   5.102
 8533SOL     OW26497   2.070   5.751   5.414
 8533SOL    HW126498   1.994   5.706   5.367
 8533SOL    HW226499   2.151   5.693   5.410
 8534SOL     OW26500   2.720   2.392   4.118
 8534SOL    HW126501   2.727   2.295   4.140
 8534SOL    HW226502   2.727   2.446   4.201
 8535SOL     OW26503   6.266   0.463   2.856
 8535SOL    HW126504   6.342   0.426   2.909
 8535SOL    HW226505   6.253   0.560   2.879
 8536SOL     OW26506   0.657   1.183   4.783
 8536SOL    HW126507   0.722   1.142   4.719
 8536SOL    HW226508   0.625   1.271   4.746
 8537SOL     OW26509   6.709   1.163   2.603
 8537SOL    HW126510   6.624   1.111   2.594
 8537SOL    HW226511   6.688   1.260   2.608
 8538SOL     OW26512   1.338   2.496   0.214
 8538SOL    HW126513   1.275   2.556   0.264
 8538SOL    HW226514   1.410   2.552   0.173
 8539SOL     OW26515   5.981   2.718   3.245
 8539SOL    HW126516   5.887   2.750   3.261
 8539SOL    HW226517   6.019   2.764   3.166
 8540SOL     OW26518   3.746   0.218   0.747
 8540SOL    HW126519   3.811   0.272   0.801
 8540SOL    HW226520   3.728   0.131   0.794
 8541SOL     OW26521   1.997   2.793   4.623
 8541SOL    HW126522   1.959   2.797   4.715
 8541SOL    HW226523   2.094   2.769   4.628
 8542SOL     OW26524   3.368   4.815   0.537
 8542SOL    HW126525   3.362   4.910   0.507
 8542SOL    HW226526   3.314   4.803   0.620
 8543SOL     OW26527   2.490   2.290   6.246
 8543SOL    HW126528   2.496   2.199   6.287
 8543SOL    HW226529   2.446   2.353   6.311
 8544SOL     OW26530   6.592   3.168   3.215
 8544SOL    HW126531   6.578   3.111   3.134
 8544SOL    HW226532   6.532   3.136   3.288
 8545SOL     OW26533   4.938   6.350   4.888
 8545SOL    HW126534   5.024   6.365   4.840
 8545SOL    HW226535   4.927   6.420   4.959
 8546SOL     OW26536   4.256   1.832   5.903
 8546SOL    HW126537   4.244   1.895   5.827
 8546SOL    HW226538   4.174   1.835   5.961
 8547SOL     OW26539   0.824   4.618   3.116
 8547SOL    HW126540   0.784   4.531   3.145
 8547SOL    HW226541   0.755   4.671   3.066
 8548SOL     OW26542   6.012   1.391   5.712
 8548SOL    HW126543   6.039   1.380   5.808
 8548SOL    HW226544   5.979   1.303   5.677
 8549SOL     OW26545   5.654   3.457   5.044
 8549SOL    HW126546   5.642   3.373   5.098
 8549SOL    HW226547   5.685   3.531   5.104
 8550SOL     OW26548   1.041   4.201   6.806
 8550SOL    HW126549   1.005   4.160   6.722
 8550SOL    HW226550   1.097   4.134   6.855
 8551SOL     OW26551   3.426   3.947   0.360
 8551SOL    HW126552   3.400   3.852   0.377
 8551SOL    HW226553   3.523   3.959   0.380
 8552SOL     OW26554   3.196   6.345   3.960
 8552SOL    HW126555   3.247   6.268   3.996
 8552SOL    HW226556   3.103   6.316   3.935
 8553SOL     OW26557   5.533   6.019   0.222
 8553SOL    HW126558   5.500   6.014   0.128
 8553SOL    HW226559   5.610   6.083   0.227
 8554SOL     OW26560   6.339   4.494   0.059
 8554SOL    HW126561   6.426   4.446   0.061
 8554SOL    HW226562   6.270   4.439   0.012
 8555SOL     OW26563   1.128   0.062   4.175
 8555SOL    HW126564   1.050   0.106   4.220
 8555SOL    HW226565   1.146   6.993   4.220
 8556SOL     OW26566   6.429   0.349   3.750
 8556SOL    HW126567   6.510   0.306   3.708
 8556SOL    HW226568   6.385   0.284   3.812
 8557SOL     OW26569   0.387   0.750   0.995
 8557SOL    HW126570   0.430   0.662   0.972
 8557SOL    HW226571   0.365   0.799   0.912
 8558SOL     OW26572   1.052   5.363   1.961
 8558SOL    HW126573   0.953   5.349   1.959
 8558SOL    HW226574   1.074   5.448   1.913
 8559SOL     OW26575   0.377   1.244   6.042
 8559SOL    HW126576   0.378   1.151   6.007
 8559SOL    HW226577   0.469   1.282   6.038
 8560SOL     OW26578   6.252   2.599   6.328
 8560SOL    HW126579   6.205   2.685   6.313
 8560SOL    HW226580   6.351   2.614   6.325
 8561SOL     OW26581   4.810   6.469   4.398
 8561SOL    HW126582   4.827   6.452   4.301
 8561SOL    HW226583   4.733   6.413   4.429
 8562SOL     OW26584   3.777   6.748   4.550
 8562SOL    HW126585   3.859   6.715   4.503
 8562SOL    HW226586   3.752   6.684   4.623
 8563SOL     OW26587   2.470   2.794   5.948
 8563SOL    HW126588   2.434   2.853   5.876
 8563SOL    HW226589   2.568   2.810   5.959
 8564SOL     OW26590   0.451   0.154   3.870
 8564SOL    HW126591   0.418   0.073   3.919
 8564SOL    HW226592   0.507   0.126   3.792
 8565SOL     OW26593   4.457   0.414   1.537
 8565SOL    HW126594   4.458   0.465   1.623
 8565SOL    HW226595   4.551   0.393   1.511
 8566SOL     OW26596   2.137   3.488   3.303
 8566SOL    HW126597   2.235   3.483   3.324
 8566SOL    HW226598   2.108   3.402   3.262
 8567SOL     OW26599   5.428   6.827   0.862
 8567SOL    HW126600   5.332   6.801   0.862
 8567SOL    HW226601   5.477   6.775   0.791
 8568SOL     OW26602   5.367   1.155   0.157
 8568SOL    HW126603   5.434   1.226   0.179
 8568SOL    HW226604   5.384   1.074   0.214
 8569SOL     OW26605   4.311   1.367   4.736
 8569SOL    HW126606   4.337   1.285   4.786
 8569SOL    HW226607   4.349   1.362   4.643
 8570SOL     OW26608   0.895   4.579   6.801
 8570SOL    HW126609   0.904   4.496   6.855
 8570SOL    HW226610   0.983   4.628   6.802
 8571SOL     OW26611   0.185   4.673   4.907
 8571SOL    HW126612   0.261   4.612   4.928
 8571SOL    HW226613   0.133   4.635   4.830
 8572SOL     OW26614   3.028   5.060   5.221
 8572SOL    HW126615   2.956   4.993   5.242
 8572SOL    HW226616   3.106   5.013   5.180
 8573SOL     OW26617   3.939   5.804   4.785
 8573SOL    HW126618   3.909   5.750   4.863
 8573SOL    HW226619   3.866   5.805   4.716
 8574SOL     OW26620   0.409   3.742   4.841
 8574SOL    HW126621   0.430   3.704   4.931
 8574SOL    HW226622   0.440   3.679   4.770
 8575SOL     OW26623   3.359   3.073   6.719
 8575SOL    HW126624   3.363   3.170   6.698
 8575SOL    HW226625   3.282   3.054   6.780
 8576SOL     OW26626   1.672   0.114   1.817
 8576SOL    HW126627   1.624   0.048   1.874
 8576SOL    HW226628   1.611   0.144   1.743
 8577SOL     OW26629   6.446   5.511   3.265
 8577SOL    HW126630   6.543   5.493   3.277
 8577SOL    HW226631   6.395   5.474   3.342
 8578SOL     OW26632   4.471   6.516   3.606
 8578SOL    HW126633   4.476   6.420   3.633
 8578SOL    HW226634   4.563   6.556   3.605
 8579SOL     OW26635   0.572   6.350   3.143
 8579SOL    HW126636   0.589   6.321   3.049
 8579SOL    HW226637   0.659   6.377   3.185
 8580SOL     OW26638   2.853   4.437   6.578
 8580SOL    HW126639   2.915   4.422   6.501
 8580SOL    HW226640   2.851   4.356   6.636
 8581SOL     OW26641   3.263   2.688   1.391
 8581SOL    HW126642   3.330   2.617   1.369
 8581SOL    HW226643   3.227   2.726   1.306
 8582SOL     OW26644   4.451   4.246   1.183
 8582SOL    HW126645   4.539   4.241   1.135
 8582SOL    HW226646   4.456   4.192   1.267
 8583SOL     OW26647   5.702   0.007   6.142
 8583SOL    HW126648   5.777   6.960   6.143
 8583SOL    HW226649   5.622   6.985   6.186
 8584SOL     OW26650   7.004   5.265   6.235
 8584SOL    HW126651   0.076   5.260   6.277
 8584SOL    HW226652   6.939   5.305   6.299
 8585SOL     OW26653   0.862   1.417   0.999
 8585SOL    HW126654   0.806   1.342   0.965
 8585SOL    HW226655   0.855   1.421   1.099
 8586SOL     OW26656   4.372   5.147   4.054
 8586SOL    HW126657   4.304   5.152   4.127
 8586SOL    HW226658   4.392   5.052   4.032
 8587SOL     OW26659   0.086   1.443   1.108
 8587SOL    HW126660   7.016   1.429   1.154
 8587SOL    HW226661   0.096   1.375   1.035
 8588SOL     OW26662   4.438   1.969   0.057
 8588SOL    HW126663   4.362   1.917   0.096
 8588SOL    HW226664   4.435   2.063   0.091
 8589SOL     OW26665   2.562   1.811   4.634
 8589SOL    HW126666   2.588   1.863   4.716
 8589SOL    HW226667   2.565   1.713   4.655
 8590SOL     OW26668   6.190   5.200   5.787
 8590SOL    HW126669   6.107   5.207   5.733
 8590SOL    HW226670   6.236   5.113   5.767
 8591SOL     OW26671   1.003   2.939   6.985
 8591SOL    HW126672   0.946   2.973   6.910
 8591SOL    HW226673   1.031   2.845   6.966
 8592SOL     OW26674   6.350   5.621   6.320
 8592SOL    HW126675   6.388   5.542   6.370
 8592SOL    HW226676   6.391   5.705   6.355
 8593SOL     OW26677   0.900   0.506   3.036
 8593SOL    HW126678   0.875   0.454   2.955
 8593SOL    HW226679   0.873   0.601   3.024
 8594SOL     OW26680   3.346   3.782   3.572
 8594SOL    HW126681   3.350   3.800   3.671
 8594SOL    HW226682   3.252   3.761   3.546
 8595SOL     OW26683   1.809   2.826   1.595
 8595SOL    HW126684   1.736   2.880   1.553
 8595SOL    HW226685   1.875   2.799   1.524
 8596SOL     OW26686   6.310   4.832   2.392
 8596SOL    HW126687   6.213   4.819   2.415
 8596SOL    HW226688   6.332   4.782   2.308
 8597SOL     OW26689   1.465   1.696   0.599
 8597SOL    HW126690   1.517   1.670   0.518
 8597SOL    HW226691   1.454   1.618   0.660
 8598SOL     OW26692   5.268   4.440   0.720
 8598SOL    HW126693   5.344   4.499   0.691
 8598SOL    HW226694   5.289   4.402   0.811
 8599SOL     OW26695   1.108   3.377   2.586
 8599SOL    HW126696   1.124   3.475   2.598
 8599SOL    HW226697   1.030   3.363   2.525
 8600SOL     OW26698   6.346   3.780   6.341
 8600SOL    HW126699   6.357   3.682   6.354
 8600SOL    HW226700   6.424   3.828   6.383
 8601SOL     OW26701   0.092   0.539   4.395
 8601SOL    HW126702   0.160   0.603   4.431
 8601SOL    HW226703   0.134   0.481   4.325
 8602SOL     OW26704   3.486   6.679   2.097
 8602SOL    HW126705   3.489   6.678   2.197
 8602SOL    HW226706   3.471   6.585   2.064
 8603SOL     OW26707   4.235   3.562   1.206
 8603SOL    HW126708   4.273   3.595   1.119
 8603SOL    HW226709   4.228   3.462   1.202
 8604SOL     OW26710   5.507   2.450   2.693
 8604SOL    HW126711   5.559   2.498   2.764
 8604SOL    HW226712   5.507   2.352   2.714
 8605SOL     OW26713   2.905   6.781   1.952
 8605SOL    HW126714   2.844   6.781   2.032
 8605SOL    HW226715   2.985   6.725   1.972
 8606SOL     OW26716   4.144   4.886   5.821
 8606SOL    HW126717   4.115   4.959   5.759
 8606SOL    HW226718   4.088   4.805   5.805
 8607SOL     OW26719   3.708   6.187   1.669
 8607SOL    HW126720   3.769   6.238   1.729
 8607SOL    HW226721   3.613   6.203   1.696
 8608SOL     OW26722   4.861   6.157   2.842
 8608SOL    HW126723   4.911   6.072   2.826
 8608SOL    HW226724   4.874   6.219   2.764
 8609SOL     OW26725   4.036   0.414   5.802
 8609SOL    HW126726   4.034   0.501   5.851
 8609SOL    HW226727   3.944   0.376   5.799
 8610SOL     OW26728   6.889   6.901   4.449
 8610SOL    HW126729   6.895   6.868   4.543
 8610SOL    HW226730   6.937   6.837   4.389
 8611SOL     OW26731   1.455   1.882   3.310
 8611SOL    HW126732   1.509   1.798   3.321
 8611SOL    HW226733   1.515   1.959   3.292
 8612SOL     OW26734   4.521   2.800   5.298
 8612SOL    HW126735   4.526   2.796   5.199
 8612SOL    HW226736   4.427   2.785   5.328
 8613SOL     OW26737   1.238   1.623   0.295
 8613SOL    HW126738   1.160   1.578   0.252
 8613SOL    HW226739   1.246   1.593   0.390
 8614SOL     OW26740   1.040   1.385   3.580
 8614SOL    HW126741   1.076   1.324   3.509
 8614SOL    HW226742   1.037   1.478   3.545
 8615SOL     OW26743   4.556   2.432   5.313
 8615SOL    HW126744   4.521   2.444   5.220
 8615SOL    HW226745   4.585   2.337   5.325
 8616SOL     OW26746   1.609   3.436   6.504
 8616SOL    HW126747   1.622   3.338   6.516
 8616SOL    HW226748   1.697   3.479   6.482
 8617SOL     OW26749   5.949   3.364   1.145
 8617SOL    HW126750   5.968   3.303   1.068
 8617SOL    HW226751   5.938   3.458   1.112
 8618SOL     OW26752   4.698   0.625   3.800
 8618SOL    HW126753   4.632   0.567   3.752
 8618SOL    HW226754   4.717   0.586   3.890
 8619SOL     OW26755   4.421   5.558   0.632
 8619SOL    HW126756   4.350   5.490   0.650
 8619SOL    HW226757   4.503   5.536   0.685
 8620SOL     OW26758   5.881   6.362   3.165
 8620SOL    HW126759   5.894   6.437   3.100
 8620SOL    HW226760   5.840   6.397   3.249
 8621SOL     OW26761   5.830   0.714   3.248
 8621SOL    HW126762   5.807   0.752   3.158
 8621SOL    HW226763   5.745   0.689   3.295
 8622SOL     OW26764   5.538   5.214   7.017
 8622SOL    HW126765   5.546   5.311   0.021
 8622SOL    HW226766   5.447   5.197   6.979
 8623SOL     OW26767   6.516   2.836   2.777
 8623SOL    HW126768   6.612   2.838   2.803
 8623SOL    HW226769   6.506   2.787   2.690
 8624SOL     OW26770   0.669   5.177   3.661
 8624SOL    HW126771   0.703   5.191   3.754
 8624SOL    HW226772   0.599   5.245   3.640
 8625SOL     OW26773   3.908   0.760   5.549
 8625SOL    HW126774   3.888   0.763   5.647
 8625SOL    HW226775   3.988   0.818   5.530
 8626SOL     OW26776   2.890   3.401   2.539
 8626SOL    HW126777   2.867   3.384   2.443
 8626SOL    HW226778   2.928   3.318   2.580
 8627SOL     OW26779   2.313   0.208   6.593
 8627SOL    HW126780   2.225   0.254   6.581
 8627SOL    HW226781   2.351   0.230   6.683
 8628SOL     OW26782   5.942   1.238   0.336
 8628SOL    HW126783   5.955   1.212   0.240
 8628SOL    HW226784   6.014   1.302   0.363
 8629SOL     OW26785   1.068   5.229   3.697
 8629SOL    HW126786   1.125   5.148   3.708
 8629SOL    HW226787   1.011   5.217   3.615
 8630SOL     OW26788   5.534   4.296   4.065
 8630SOL    HW126789   5.591   4.242   4.004
 8630SOL    HW226790   5.506   4.381   4.019
 8631SOL     OW26791   3.819   5.874   4.127
 8631SOL    HW126792   3.771   5.958   4.155
 8631SOL    HW226793   3.776   5.837   4.044
 8632SOL     OW26794   4.884   0.229   3.608
 8632SOL    HW126795   4.931   0.267   3.529
 8632SOL    HW226796   4.908   0.283   3.690
 8633SOL     OW26797   6.283   0.648   3.956
 8633SOL    HW126798   6.203   0.595   3.983
 8633SOL    HW226799   6.346   0.655   4.033
 8634SOL     OW26800   6.427   5.408   1.754
 8634SOL    HW126801   6.495   5.342   1.723
 8634SOL    HW226802   6.352   5.412   1.688
 8635SOL     OW26803   6.379   4.153   5.169
 8635SOL    HW126804   6.339   4.243   5.188
 8635SOL    HW226805   6.445   4.161   5.094
 8636SOL     OW26806   5.249   5.808   0.278
 8636SOL    HW126807   5.262   5.880   0.209
 8636SOL    HW226808   5.330   5.803   0.336
 8637SOL     OW26809   1.496   0.457   1.510
 8637SOL    HW126810   1.538   0.465   1.420
 8637SOL    HW226811   1.552   0.505   1.578
 8638SOL     OW26812   4.090   5.225   0.405
 8638SOL    HW126813   3.991   5.213   0.417
 8638SOL    HW226814   4.132   5.135   0.391
 8639SOL     OW26815   0.119   3.078   2.321
 8639SOL    HW126816   0.076   3.088   2.411
 8639SOL    HW226817   0.112   2.983   2.292
 8640SOL     OW26818   5.373   6.478   1.250
 8640SOL    HW126819   5.471   6.495   1.254
 8640SOL    HW226820   5.353   6.415   1.175
 8641SOL     OW26821   5.530   4.742   3.635
 8641SOL    HW126822   5.605   4.787   3.684
 8641SOL    HW226823   5.548   4.747   3.537
 8642SOL     OW26824   4.862   1.648   1.668
 8642SOL    HW126825   4.914   1.695   1.740
 8642SOL    HW226826   4.922   1.634   1.589
 8643SOL     OW26827   4.744   1.093   6.010
 8643SOL    HW126828   4.798   1.169   6.047
 8643SOL    HW226829   4.647   1.115   6.014
 8644SOL     OW26830   6.371   3.178   5.175
 8644SOL    HW126831   6.359   3.081   5.192
 8644SOL    HW226832   6.438   3.215   5.240
 8645SOL     OW26833   5.880   4.473   1.595
 8645SOL    HW126834   5.972   4.443   1.622
 8645SOL    HW226835   5.817   4.460   1.671
 8646SOL     OW26836   5.394   0.952   0.334
 8646SOL    HW126837   5.493   0.945   0.347
 8646SOL    HW226838   5.349   0.951   0.423
 8647SOL     OW26839   4.423   5.254   1.693
 8647SOL    HW126840   4.414   5.338   1.747
 8647SOL    HW226841   4.333   5.211   1.684
 8648SOL     OW26842   5.370   1.805   4.573
 8648SOL    HW126843   5.393   1.757   4.488
 8648SOL    HW226844   5.450   1.857   4.605
 8649SOL     OW26845   0.022   4.579   5.850
 8649SOL    HW126846   0.074   4.526   5.917
 8649SOL    HW226847   0.051   4.675   5.854
 8650SOL     OW26848   1.527   4.695   2.395
 8650SOL    HW126849   1.562   4.607   2.427
 8650SOL    HW226850   1.446   4.680   2.339
 8651SOL     OW26851   3.095   1.810   1.340
 8651SOL    HW126852   3.121   1.745   1.411
 8651SOL    HW226853   3.058   1.760   1.261
 8652SOL     OW26854   1.563   3.841   3.880
 8652SOL    HW126855   1.616   3.759   3.902
 8652SOL    HW226856   1.478   3.815   3.835
 8653SOL     OW26857   6.338   3.180   6.343
 8653SOL    HW126858   6.363   3.245   6.415
 8653SOL    HW226859   6.402   3.103   6.343
 8654SOL     OW26860   0.240   6.926   3.104
 8654SOL    HW126861   0.162   6.936   3.042
 8654SOL    HW226862   0.323   6.960   3.060
 8655SOL     OW26863   5.837   6.202   4.176
 8655SOL    HW126864   5.865   6.287   4.220
 8655SOL    HW226865   5.911   6.168   4.118
 8656SOL     OW26866   6.012   2.476   1.557
 8656SOL    HW126867   5.914   2.486   1.542
 8656SOL    HW226868   6.061   2.550   1.512
 8657SOL     OW26869   3.293   4.164   0.250
 8657SOL    HW126870   3.355   4.230   0.291
 8657SOL    HW226871   3.332   4.072   0.257
 8658SOL     OW26872   6.663   5.463   0.485
 8658SOL    HW126873   6.593   5.509   0.429
 8658SOL    HW226874   6.748   5.515   0.480
 8659SOL     OW26875   5.184   0.578   4.359
 8659SOL    HW126876   5.229   0.633   4.289
 8659SOL    HW226877   5.252   0.536   4.419
 8660SOL     OW26878   5.827   4.696   1.425
 8660SOL    HW126879   5.784   4.779   1.462
 8660SOL    HW226880   5.876   4.649   1.498
 8661SOL     OW26881   6.307   3.720   1.579
 8661SOL    HW126882   6.239   3.701   1.649
 8661SOL    HW226883   6.263   3.764   1.501
 8662SOL     OW26884   0.004   0.182   0.680
 8662SOL    HW126885   6.968   0.153   0.758
 8662SOL    HW226886   0.049   0.269   0.701
 8663SOL     OW26887   2.571   5.592   0.609
 8663SOL    HW126888   2.541   5.609   0.516
 8663SOL    HW226889   2.502   5.627   0.673
 8664SOL     OW26890   4.240   5.331   1.182
 8664SOL    HW126891   4.243   5.268   1.105
 8664SOL    HW226892   4.330   5.335   1.225
 8665SOL     OW26893   5.136   5.545   5.570
 8665SOL    HW126894   5.192   5.469   5.603
 8665SOL    HW226895   5.096   5.521   5.481
 8666SOL     OW26896   5.397   3.644   4.171
 8666SOL    HW126897   5.406   3.669   4.268
 8666SOL    HW226898   5.320   3.694   4.131
 8667SOL     OW26899   5.102   1.352   3.663
 8667SOL    HW126900   5.179   1.339   3.601
 8667SOL    HW226901   5.049   1.432   3.633
 8668SOL     OW26902   3.268   1.864   4.122
 8668SOL    HW126903   3.259   1.876   4.023
 8668SOL    HW226904   3.275   1.767   4.143
 8669SOL     OW26905   4.126   0.929   6.075
 8669SOL    HW126906   4.126   0.834   6.106
 8669SOL    HW226907   4.156   0.988   6.151
 8670SOL     OW26908   3.861   4.946   4.513
 8670SOL    HW126909   3.764   4.964   4.529
 8670SOL    HW226910   3.901   4.903   4.593
 8671SOL     OW26911   5.687   6.373   2.882
 8671SOL    HW126912   5.600   6.400   2.923
 8671SOL    HW226913   5.753   6.447   2.890
 8672SOL     OW26914   3.073   4.815   5.026
 8672SOL    HW126915   3.028   4.835   4.939
 8672SOL    HW226916   3.028   4.737   5.070
 8673SOL     OW26917   5.942   1.982   1.124
 8673SOL    HW126918   6.007   2.038   1.175
 8673SOL    HW226919   5.868   2.039   1.089
 8674SOL     OW26920   0.840   0.340   2.821
 8674SOL    HW126921   0.754   0.322   2.773
 8674SOL    HW226922   0.917   0.306   2.767
 8675SOL     OW26923   2.020   1.368   2.768
 8675SOL    HW126924   2.050   1.287   2.718
 8675SOL    HW226925   2.038   1.356   2.866
 8676SOL     OW26926   4.520   7.017   3.654
 8676SOL    HW126927   4.551   6.942   3.597
 8676SOL    HW226928   4.428   6.998   3.688
 8677SOL     OW26929   2.521   4.338   5.426
 8677SOL    HW126930   2.444   4.311   5.368
 8677SOL    HW226931   2.597   4.275   5.413
 8678SOL     OW26932   1.133   0.422   6.642
 8678SOL    HW126933   1.044   0.438   6.686
 8678SOL    HW226934   1.131   0.461   6.550
 8679SOL     OW26935   6.862   2.600   4.480
 8679SOL    HW126936   6.789   2.536   4.506
 8679SOL    HW226937   6.844   2.689   4.520
 8680SOL     OW26938   1.399   3.267   0.122
 8680SOL    HW126939   1.495   3.240   0.114
 8680SOL    HW226940   1.341   3.186   0.123
 8681SOL     OW26941   4.132   3.809   0.767
 8681SOL    HW126942   4.116   3.801   0.669
 8681SOL    HW226943   4.082   3.889   0.802
 8682SOL     OW26944   2.065   6.141   2.613
 8682SOL    HW126945   2.054   6.235   2.581
 8682SOL    HW226946   2.031   6.078   2.544
 8683SOL     OW26947   6.580   3.233   6.510
 8683SOL    HW126948   6.614   3.235   6.416
 8683SOL    HW226949   6.604   3.318   6.556
 8684SOL     OW26950   6.534   2.809   3.885
 8684SOL    HW126951   6.588   2.747   3.942
 8684SOL    HW226952   6.472   2.861   3.942
 8685SOL     OW26953   0.673   2.353   5.514
 8685SOL    HW126954   0.648   2.449   5.502
 8685SOL    HW226955   0.601   2.307   5.566
 8686SOL     OW26956   6.365   2.363   3.315
 8686SOL    HW126957   6.331   2.456   3.306
 8686SOL    HW226958   6.291   2.298   3.296
 8687SOL     OW26959   3.939   0.026   3.206
 8687SOL    HW126960   3.939   6.964   3.145
 8687SOL    HW226961   3.912   0.107   3.154
 8688SOL     OW26962   1.885   0.385   2.083
 8688SOL    HW126963   1.877   0.287   2.065
 8688SOL    HW226964   1.878   0.401   2.181
 8689SOL     OW26965   4.334   5.842   0.605
 8689SOL    HW126966   4.257   5.830   0.542
 8689SOL    HW226967   4.363   5.753   0.640
 8690SOL     OW26968   0.693   1.592   2.823
 8690SOL    HW126969   0.632   1.613   2.900
 8690SOL    HW226970   0.745   1.509   2.843
 8691SOL     OW26971   5.591   1.931   0.745
 8691SOL    HW126972   5.547   1.968   0.663
 8691SOL    HW226973   5.526   1.932   0.821
 8692SOL     OW26974   2.027   1.487   4.006
 8692SOL    HW126975   1.973   1.421   4.059
 8692SOL    HW226976   2.112   1.507   4.055
 8693SOL     OW26977   5.606   2.121   1.009
 8693SOL    HW126978   5.591   2.136   0.912
 8693SOL    HW226979   5.544   2.049   1.041
 8694SOL     OW26980   4.573   6.638   6.189
 8694SOL    HW126981   4.583   6.632   6.090
 8694SOL    HW226982   4.636   6.708   6.224
 8695SOL     OW26983   3.939   4.412   5.799
 8695SOL    HW126984   3.945   4.355   5.716
 8695SOL    HW226985   3.842   4.429   5.819
 8696SOL     OW26986   2.158   5.370   1.302
 8696SOL    HW126987   2.100   5.293   1.329
 8696SOL    HW226988   2.253   5.340   1.300
 8697SOL     OW26989   6.051   4.646   1.295
 8697SOL    HW126990   5.963   4.656   1.340
 8697SOL    HW226991   6.089   4.556   1.317
 8698SOL     OW26992   5.541   5.554   4.679
 8698SOL    HW126993   5.507   5.588   4.591
 8698SOL    HW226994   5.493   5.470   4.702
 8699SOL     OW26995   1.227   1.216   5.492
 8699SOL    HW126996   1.155   1.153   5.464
 8699SOL    HW226997   1.308   1.202   5.435
 8700SOL     OW26998   2.793   0.925   5.235
 8700SOL    HW126999   2.829   1.014   5.207
 8700SOL    HW227000   2.700   0.915   5.200
 8701SOL     OW27001   1.088   1.601   4.749
 8701SOL    HW127002   0.998   1.579   4.788
 8701SOL    HW227003   1.142   1.649   4.818
 8702SOL     OW27004   4.517   6.115   6.981
 8702SOL    HW127005   4.594   6.075   6.932
 8702SOL    HW227006   4.551   6.171   0.038
 8703SOL     OW27007   2.841   5.654   0.674
 8703SOL    HW127008   2.856   5.720   0.748
 8703SOL    HW227009   2.743   5.648   0.655
 8704SOL     OW27010   0.351   4.140   1.562
 8704SOL    HW127011   0.274   4.153   1.624
 8704SOL    HW227012   0.433   4.116   1.615
 8705SOL     OW27013   4.677   0.140   5.660
 8705SOL    HW127014   4.772   0.124   5.690
 8705SOL    HW227015   4.669   0.116   5.564
 8706SOL     OW27016   5.171   1.842   0.952
 8706SOL    HW127017   5.087   1.829   1.004
 8706SOL    HW227018   5.155   1.818   0.856
 8707SOL     OW27019   4.789   3.013   5.967
 8707SOL    HW127020   4.772   3.078   6.041
 8707SOL    HW227021   4.857   3.051   5.904
 8708SOL     OW27022   4.045   1.566   1.209
 8708SOL    HW127023   3.960   1.587   1.257
 8708SOL    HW227024   4.123   1.590   1.268
 8709SOL     OW27025   0.209   3.660   0.921
 8709SOL    HW127026   0.278   3.590   0.905
 8709SOL    HW227027   0.124   3.617   0.954
 8710SOL     OW27028   1.350   3.310   2.983
 8710SOL    HW127029   1.361   3.283   3.078
 8710SOL    HW227030   1.436   3.350   2.949
 8711SOL     OW27031   0.679   1.395   4.056
 8711SOL    HW127032   0.695   1.301   4.085
 8711SOL    HW227033   0.581   1.416   4.063
 8712SOL     OW27034   3.711   1.525   5.701
 8712SOL    HW127035   3.662   1.500   5.784
 8712SOL    HW227036   3.756   1.444   5.663
 8713SOL     OW27037   6.741   4.533   3.470
 8713SOL    HW127038   6.798   4.533   3.388
 8713SOL    HW227039   6.673   4.460   3.463
 8714SOL     OW27040   1.458   1.582   4.914
 8714SOL    HW127041   1.390   1.619   4.850
 8714SOL    HW227042   1.549   1.613   4.887
 8715SOL     OW27043   6.363   1.918   1.111
 8715SOL    HW127044   6.366   1.959   1.202
 8715SOL    HW227045   6.453   1.882   1.088
 8716SOL     OW27046   1.751   2.023   1.509
 8716SOL    HW127047   1.765   2.072   1.423
 8716SOL    HW227048   1.654   2.025   1.532
 8717SOL     OW27049   3.031   3.350   1.041
 8717SOL    HW127050   2.962   3.324   1.108
 8717SOL    HW227051   3.095   3.415   1.081
 8718SOL     OW27052   6.109   3.083   5.275
 8718SOL    HW127053   6.177   3.098   5.346
 8718SOL    HW227054   6.028   3.139   5.293
 8719SOL     OW27055   6.821   0.580   6.371
 8719SOL    HW127056   6.762   0.536   6.303
 8719SOL    HW227057   6.910   0.535   6.372
 8720SOL     OW27058   4.751   4.125   6.412
 8720SOL    HW127059   4.828   4.177   6.375
 8720SOL    HW227060   4.732   4.047   6.352
 8721SOL     OW27061   0.115   2.581   4.162
 8721SOL    HW127062   0.161   2.516   4.102
 8721SOL    HW227063   0.179   2.612   4.232
 8722SOL     OW27064   3.648   2.486   0.184
 8722SOL    HW127065   3.573   2.552   0.181
 8722SOL    HW227066   3.614   2.397   0.213
 8723SOL     OW27067   6.921   4.049   1.095
 8723SOL    HW127068   6.860   4.102   1.153
 8723SOL    HW227069   6.972   3.983   1.150
 8724SOL     OW27070   4.921   6.833   6.598
 8724SOL    HW127071   4.825   6.819   6.622
 8724SOL    HW227072   4.970   6.870   6.678
 8725SOL     OW27073   2.965   5.670   0.430
 8725SOL    HW127074   3.061   5.700   0.422
 8725SOL    HW227075   2.946   5.646   0.525
 8726SOL     OW27076   5.610   0.490   1.524
 8726SOL    HW127077   5.535   0.479   1.458
 8726SOL    HW227078   5.697   0.466   1.481
 8727SOL     OW27079   6.320   6.218   1.285
 8727SOL    HW127080   6.359   6.168   1.208
 8727SOL    HW227081   6.220   6.222   1.275
 8728SOL     OW27082   2.485   0.181   4.937
 8728SOL    HW127083   2.482   0.104   5.000
 8728SOL    HW227084   2.479   0.148   4.843
 8729SOL     OW27085   5.720   6.279   4.714
 8729SOL    HW127086   5.779   6.198   4.726
 8729SOL    HW227087   5.673   6.273   4.626
 8730SOL     OW27088   0.072   6.317   1.502
 8730SOL    HW127089   7.003   6.367   1.502
 8730SOL    HW227090   0.138   6.365   1.444
 8731SOL     OW27091   0.855   1.510   2.588
 8731SOL    HW127092   0.948   1.540   2.570
 8731SOL    HW227093   0.799   1.589   2.617
 8732SOL     OW27094   5.116   4.817   1.392
 8732SOL    HW127095   5.066   4.849   1.473
 8732SOL    HW227096   5.052   4.808   1.315
 8733SOL     OW27097   0.759   6.425   1.674
 8733SOL    HW127098   0.692   6.365   1.717
 8733SOL    HW227099   0.835   6.370   1.640
 8734SOL     OW27100   6.316   5.490   1.042
 8734SOL    HW127101   6.319   5.518   1.138
 8734SOL    HW227102   6.243   5.423   1.030
 8735SOL     OW27103   6.659   2.314   6.524
 8735SOL    HW127104   6.621   2.260   6.448
 8735SOL    HW227105   6.586   2.339   6.586
 8736SOL     OW27106   0.636   4.630   6.466
 8736SOL    HW127107   0.718   4.573   6.455
 8736SOL    HW227108   0.560   4.574   6.498
 8737SOL     OW27109   3.567   5.769   6.386
 8737SOL    HW127110   3.665   5.784   6.370
 8737SOL    HW227111   3.514   5.838   6.337
 8738SOL     OW27112   1.002   3.781   4.362
 8738SOL    HW127113   0.979   3.845   4.289
 8738SOL    HW227114   1.058   3.828   4.430
 8739SOL     OW27115   1.068   3.096   5.085
 8739SOL    HW127116   1.040   3.180   5.131
 8739SOL    HW227117   1.094   3.027   5.153
 8740SOL     OW27118   1.971   6.234   1.214
 8740SOL    HW127119   1.939   6.141   1.197
 8740SOL    HW227120   1.925   6.272   1.294
 8741SOL     OW27121   1.635   3.390   2.234
 8741SOL    HW127122   1.682   3.412   2.319
 8741SOL    HW227123   1.696   3.408   2.157
 8742SOL     OW27124   4.825   6.959   1.977
 8742SOL    HW127125   4.769   6.890   2.022
 8742SOL    HW227126   4.906   6.977   2.033
 8743SOL     OW27127   2.546   4.781   2.808
 8743SOL    HW127128   2.527   4.867   2.759
 8743SOL    HW227129   2.572   4.711   2.742
 8744SOL     OW27130   3.349   2.684   5.642
 8744SOL    HW127131   3.401   2.609   5.602
 8744SOL    HW227132   3.253   2.677   5.613
 8745SOL     OW27133   6.297   2.249   6.082
 8745SOL    HW127134   6.355   2.168   6.071
 8745SOL    HW227135   6.229   2.232   6.154
 8746SOL     OW27136   5.211   4.425   5.524
 8746SOL    HW127137   5.263   4.414   5.608
 8746SOL    HW227138   5.118   4.455   5.547
 8747SOL     OW27139   1.881   2.503   4.096
 8747SOL    HW127140   1.904   2.409   4.072
 8747SOL    HW227141   1.807   2.535   4.037
 8748SOL     OW27142   2.086   0.232   6.892
 8748SOL    HW127143   2.086   0.230   6.991
 8748SOL    HW227144   1.991   0.235   6.859
 8749SOL     OW27145   4.130   0.893   3.378
 8749SOL    HW127146   4.091   0.917   3.467
 8749SOL    HW227147   4.169   0.975   3.335
 8750SOL     OW27148   2.370   1.060   5.107
 8750SOL    HW127149   2.332   1.033   5.018
 8750SOL    HW227150   2.382   0.978   5.163
 8751SOL     OW27151   2.153   0.225   2.754
 8751SOL    HW127152   2.135   0.153   2.686
 8751SOL    HW227153   2.222   0.192   2.819
 8752SOL     OW27154   1.587   2.350   5.993
 8752SOL    HW127155   1.563   2.444   5.969
 8752SOL    HW227156   1.599   2.344   6.092
 8753SOL     OW27157   5.326   1.208   5.128
 8753SOL    HW127158   5.423   1.201   5.106
 8753SOL    HW227159   5.274   1.227   5.044
 8754SOL     OW27160   1.352   1.242   5.755
 8754SOL    HW127161   1.423   1.174   5.774
 8754SOL    HW227162   1.300   1.213   5.675
 8755SOL     OW27163   2.135   1.974   1.132
 8755SOL    HW127164   2.039   1.948   1.146
 8755SOL    HW227165   2.145   2.015   1.041
 8756SOL     OW27166   2.230   3.049   4.484
 8756SOL    HW127167   2.314   3.100   4.501
 8756SOL    HW227168   2.236   2.959   4.527
 8757SOL     OW27169   4.883   5.955   4.805
 8757SOL    HW127170   4.954   6.020   4.777
 8757SOL    HW227171   4.893   5.936   4.903
 8758SOL     OW27172   6.088   6.416   2.218
 8758SOL    HW127173   6.045   6.413   2.128
 8758SOL    HW227174   6.038   6.481   2.276
 8759SOL     OW27175   5.006   0.794   5.957
 8759SOL    HW127176   4.994   0.824   6.051
 8759SOL    HW227177   4.983   0.869   5.894
 8760SOL     OW27178   2.081   2.499   3.770
 8760SOL    HW127179   2.180   2.507   3.762
 8760SOL    HW227180   2.038   2.578   3.725
 8761SOL     OW27181   4.443   6.687   0.579
 8761SOL    HW127182   4.430   6.633   0.662
 8761SOL    HW227183   4.541   6.708   0.568
 8762SOL     OW27184   0.605   4.081   1.048
 8762SOL    HW127185   0.588   4.115   1.141
 8762SOL    HW227186   0.555   4.138   0.983
 8763SOL     OW27187   0.405   6.499   6.067
 8763SOL    HW127188   0.440   6.432   6.134
 8763SOL    HW227189   0.474   6.514   5.996
 8764SOL     OW27190   3.775   2.059   4.789
 8764SOL    HW127191   3.727   2.093   4.709
 8764SOL    HW227192   3.757   1.961   4.799
 8765SOL     OW27193   6.922   0.569   4.589
 8765SOL    HW127194   6.989   0.546   4.518
 8765SOL    HW227195   6.928   0.666   4.611
 8766SOL     OW27196   2.186   4.430   2.381
 8766SOL    HW127197   2.184   4.346   2.327
 8766SOL    HW227198   2.136   4.503   2.332
 8767SOL     OW27199   4.988   1.681   4.302
 8767SOL    HW127200   4.991   1.699   4.400
 8767SOL    HW227201   4.910   1.730   4.261
 8768SOL     OW27202   1.646   3.199   6.665
 8768SOL    HW127203   1.649   3.102   6.687
 8768SOL    HW227204   1.667   3.253   6.747
 8769SOL     OW27205   2.018   0.325   5.359
 8769SOL    HW127206   2.055   0.316   5.267
 8769SOL    HW227207   2.040   0.416   5.396
 8770SOL     OW27208   5.664   2.145   2.298
 8770SOL    HW127209   5.638   2.241   2.299
 8770SOL    HW227210   5.685   2.115   2.391
 8771SOL     OW27211   1.408   2.280   6.379
 8771SOL    HW127212   1.313   2.264   6.408
 8771SOL    HW227213   1.453   2.193   6.363
 8772SOL     OW27214   5.639   0.261   0.212
 8772SOL    HW127215   5.629   0.296   0.305
 8772SOL    HW227216   5.669   0.334   0.152
 8773SOL     OW27217   2.922   2.189   3.273
 8773SOL    HW127218   2.958   2.209   3.364
 8773SOL    HW227219   2.833   2.233   3.263
 8774SOL     OW27220   1.016   0.948   6.960
 8774SOL    HW127221   0.937   0.991   6.917
 8774SOL    HW227222   1.100   0.987   6.921
 8775SOL     OW27223   6.317   0.158   4.142
 8775SOL    HW127224   6.363   0.216   4.210
 8775SOL    HW227225   6.246   0.211   4.096
 8776SOL     OW27226   3.415   3.179   4.602
 8776SOL    HW127227   3.466   3.093   4.601
 8776SOL    HW227228   3.439   3.231   4.684
 8777SOL     OW27229   6.210   5.437   1.570
 8777SOL    HW127230   6.220   5.425   1.471
 8777SOL    HW227231   6.200   5.534   1.591
 8778SOL     OW27232   1.046   2.543   3.237
 8778SOL    HW127233   1.044   2.450   3.201
 8778SOL    HW227234   0.952   2.573   3.256
 8779SOL     OW27235   1.599   4.222   0.479
 8779SOL    HW127236   1.591   4.245   0.576
 8779SOL    HW227237   1.511   4.186   0.446
 8780SOL     OW27238   1.573   5.781   4.140
 8780SOL    HW127239   1.648   5.716   4.127
 8780SOL    HW227240   1.500   5.738   4.194
 8781SOL     OW27241   0.385   2.060   2.079
 8781SOL    HW127242   0.454   2.129   2.098
 8781SOL    HW227243   0.311   2.067   2.146
 8782SOL     OW27244   4.541   1.658   2.559
 8782SOL    HW127245   4.453   1.704   2.573
 8782SOL    HW227246   4.533   1.562   2.584
 8783SOL     OW27247   5.307   3.459   5.197
 8783SOL    HW127248   5.350   3.370   5.181
 8783SOL    HW227249   5.273   3.496   5.110
 8784SOL     OW27250   5.486   3.991   5.212
 8784SOL    HW127251   5.410   4.037   5.167
 8784SOL    HW227252   5.470   3.892   5.212
 8785SOL     OW27253   5.845   4.568   0.009
 8785SOL    HW127254   5.918   4.519   0.057
 8785SOL    HW227255   5.763   4.510   0.005
 8786SOL     OW27256   1.701   6.154   0.404
 8786SOL    HW127257   1.760   6.129   0.481
 8786SOL    HW227258   1.661   6.244   0.421
 8787SOL     OW27259   0.939   2.976   0.240
 8787SOL    HW127260   0.953   2.979   0.141
 8787SOL    HW227261   0.884   2.896   0.262
 8788SOL     OW27262   1.000   2.012   5.621
 8788SOL    HW127263   1.055   1.944   5.574
 8788SOL    HW227264   1.056   2.056   5.692
 8789SOL     OW27265   0.120   0.199   6.499
 8789SOL    HW127266   0.087   0.251   6.579
 8789SOL    HW227267   0.046   0.190   6.433
 8790SOL     OW27268   5.586   1.941   0.138
 8790SOL    HW127269   5.660   1.945   0.072
 8790SOL    HW227270   5.602   1.865   0.202
 8791SOL     OW27271   4.814   6.521   5.553
 8791SOL    HW127272   4.769   6.501   5.466
 8791SOL    HW227273   4.813   6.619   5.570
 8792SOL     OW27274   4.692   0.077   2.462
 8792SOL    HW127275   4.688   0.162   2.514
 8792SOL    HW227276   4.706   7.018   2.524
 8793SOL     OW27277   1.157   5.372   4.401
 8793SOL    HW127278   1.193   5.465   4.402
 8793SOL    HW227279   1.232   5.307   4.407
 8794SOL     OW27280   2.832   6.814   2.523
 8794SOL    HW127281   2.927   6.801   2.552
 8794SOL    HW227282   2.830   6.838   2.426
 8795SOL     OW27283   1.698   6.272   5.403
 8795SOL    HW127284   1.777   6.218   5.375
 8795SOL    HW227285   1.629   6.212   5.443
 8796SOL     OW27286   5.291   2.731   4.926
 8796SOL    HW127287   5.341   2.748   5.011
 8796SOL    HW227288   5.287   2.815   4.872
 8797SOL     OW27289   0.397   6.595   0.025
 8797SOL    HW127290   0.395   6.623   6.947
 8797SOL    HW227291   0.330   6.649   0.077
 8798SOL     OW27292   4.776   3.872   5.916
 8798SOL    HW127293   4.764   3.824   5.830
 8798SOL    HW227294   4.873   3.889   5.932
 8799SOL     OW27295   3.835   6.075   2.936
 8799SOL    HW127296   3.863   6.019   2.858
 8799SOL    HW227297   3.893   6.156   2.941
 8800SOL     OW27298   4.313   4.993   6.724
 8800SOL    HW127299   4.311   5.042   6.811
 8800SOL    HW227300   4.222   4.956   6.704
 8801SOL     OW27301   2.891   0.104   5.000
 8801SOL    HW127302   2.931   0.149   4.920
 8801SOL    HW227303   2.825   0.165   5.044
 8802SOL     OW27304   3.099   0.397   2.192
 8802SOL    HW127305   3.076   0.475   2.133
 8802SOL    HW227306   3.048   0.404   2.277
 8803SOL     OW27307   3.485   5.978   0.402
 8803SOL    HW127308   3.565   5.998   0.457
 8803SOL    HW227309   3.402   5.992   0.456
 8804SOL     OW27310   4.192   0.400   0.855
 8804SOL    HW127311   4.228   0.418   0.764
 8804SOL    HW227312   4.208   0.478   0.914
 8805SOL     OW27313   0.310   0.264   2.950
 8805SOL    HW127314   0.252   0.239   3.028
 8805SOL    HW227315   0.389   0.316   2.982
 8806SOL     OW27316   2.157   4.908   6.656
 8806SOL    HW127317   2.169   4.825   6.603
 8806SOL    HW227318   2.127   4.982   6.596
 8807SOL     OW27319   1.599   6.008   6.404
 8807SOL    HW127320   1.607   6.093   6.351
 8807SOL    HW227321   1.582   5.932   6.341
 8808SOL     OW27322   6.130   1.424   0.813
 8808SOL    HW127323   6.106   1.420   0.910
 8808SOL    HW227324   6.226   1.451   0.803
 8809SOL     OW27325   6.031   3.920   1.023
 8809SOL    HW127326   6.069   3.844   1.077
 8809SOL    HW227327   6.069   3.918   0.931
 8810SOL     OW27328   4.923   1.201   3.808
 8810SOL    HW127329   4.960   1.177   3.898
 8810SOL    HW227330   4.987   1.262   3.760
 8811SOL     OW27331   1.406   1.349   3.739
 8811SOL    HW127332   1.331   1.407   3.772
 8811SOL    HW227333   1.373   1.256   3.724
 8812SOL     OW27334   1.577   0.767   0.942
 8812SOL    HW127335   1.650   0.699   0.941
 8812SOL    HW227336   1.489   0.721   0.930
 8813SOL     OW27337   1.618   5.058   1.499
 8813SOL    HW127338   1.694   5.087   1.441
 8813SOL    HW227339   1.551   5.009   1.443
 8814SOL     OW27340   5.276   0.388   0.010
 8814SOL    HW127341   5.375   0.396   7.011
 8814SOL    HW227342   5.254   0.432   0.097
 8815SOL     OW27343   0.204   5.977   2.968
 8815SOL    HW127344   0.271   5.922   3.017
 8815SOL    HW227345   0.155   6.036   3.032
 8816SOL     OW27346   1.039   5.890   1.519
 8816SOL    HW127347   0.940   5.874   1.517
 8816SOL    HW227348   1.087   5.803   1.520
 8817SOL     OW27349   2.537   5.095   5.381
 8817SOL    HW127350   2.573   5.015   5.333
 8817SOL    HW227351   2.447   5.119   5.344
 8818SOL     OW27352   6.843   5.382   4.263
 8818SOL    HW127353   6.910   5.451   4.237
 8818SOL    HW227354   6.881   5.324   4.335
 8819SOL     OW27355   5.425   0.215   4.705
 8819SOL    HW127356   5.517   0.215   4.666
 8819SOL    HW227357   5.416   0.292   4.769
 8820SOL     OW27358   1.670   2.881   3.979
 8820SOL    HW127359   1.645   2.977   3.985
 8820SOL    HW227360   1.758   2.867   4.025
 8821SOL     OW27361   1.794   0.879   6.260
 8821SOL    HW127362   1.799   0.927   6.172
 8821SOL    HW227363   1.880   0.891   6.309
 8822SOL     OW27364   0.229   2.374   3.629
 8822SOL    HW127365   0.276   2.286   3.636
 8822SOL    HW227366   0.285   2.445   3.671
 8823SOL     OW27367   2.443   5.775   2.062
 8823SOL    HW127368   2.541   5.796   2.064
 8823SOL    HW227369   2.429   5.679   2.088
 8824SOL     OW27370   4.076   3.525   0.843
 8824SOL    HW127371   4.108   3.618   0.825
 8824SOL    HW227372   4.000   3.528   0.908
 8825SOL     OW27373   1.424   1.845   1.474
 8825SOL    HW127374   1.338   1.798   1.455
 8825SOL    HW227375   1.472   1.864   1.388
 8826SOL     OW27376   5.853   1.172   0.036
 8826SOL    HW127377   5.767   1.127   0.057
 8826SOL    HW227378   5.915   1.106   7.011
 8827SOL     OW27379   1.390   1.109   3.599
 8827SOL    HW127380   1.468   1.059   3.561
 8827SOL    HW227381   1.308   1.052   3.591
 8828SOL     OW27382   2.003   6.396   2.570
 8828SOL    HW127383   2.057   6.440   2.641
 8828SOL    HW227384   1.995   6.457   2.491
 8829SOL     OW27385   0.439   1.689   0.044
 8829SOL    HW127386   0.486   1.766   0.087
 8829SOL    HW227387   0.432   1.706   6.964
 8830SOL     OW27388   0.587   2.241   0.646
 8830SOL    HW127389   0.540   2.325   0.619
 8830SOL    HW227390   0.648   2.260   0.723
 8831SOL     OW27391   6.960   0.972   2.908
 8831SOL    HW127392   6.882   1.021   2.946
 8831SOL    HW227393   6.978   1.004   2.815
 8832SOL     OW27394   0.368   0.766   2.537
 8832SOL    HW127395   0.439   0.803   2.598
 8832SOL    HW227396   0.284   0.819   2.546
 8833SOL     OW27397   1.865   4.798   3.520
 8833SOL    HW127398   1.928   4.871   3.549
 8833SOL    HW227399   1.868   4.791   3.420
 8834SOL     OW27400   5.675   4.165   4.871
 8834SOL    HW127401   5.727   4.083   4.897
 8834SOL    HW227402   5.579   4.141   4.858
 8835SOL     OW27403   0.241   6.790   6.661
 8835SOL    HW127404   0.284   6.829   6.743
 8835SOL    HW227405   0.305   6.727   6.617
 8836SOL     OW27406   4.652   2.179   0.654
 8836SOL    HW127407   4.601   2.109   0.605
 8836SOL    HW227408   4.747   2.151   0.663
 8837SOL     OW27409   0.839   1.436   2.074
 8837SOL    HW127410   0.877   1.357   2.026
 8837SOL    HW227411   0.905   1.511   2.072
 8838SOL     OW27412   2.261   5.569   3.679
 8838SOL    HW127413   2.265   5.664   3.711
 8838SOL    HW227414   2.333   5.516   3.723
 8839SOL     OW27415   6.647   6.718   4.112
 8839SOL    HW127416   6.602   6.654   4.050
 8839SOL    HW227417   6.684   6.668   4.191
 8840SOL     OW27418   5.623   1.825   2.018
 8840SOL    HW127419   5.690   1.880   2.067
 8840SOL    HW227420   5.560   1.783   2.083
 8841SOL     OW27421   1.887   0.460   4.843
 8841SOL    HW127422   1.885   0.498   4.936
 8841SOL    HW227423   1.980   0.465   4.807
 8842SOL     OW27424   2.169   3.067   2.397
 8842SOL    HW127425   2.189   2.970   2.387
 8842SOL    HW227426   2.170   3.111   2.307
 8843SOL     OW27427   0.459   3.178   4.403
 8843SOL    HW127428   0.541   3.223   4.367
 8843SOL    HW227429   0.474   3.154   4.499
 8844SOL     OW27430   6.080   1.550   6.561
 8844SOL    HW127431   6.126   1.512   6.641
 8844SOL    HW227432   5.981   1.539   6.570
 8845SOL     OW27433   5.884   3.887   0.309
 8845SOL    HW127434   5.901   3.814   0.375
 8845SOL    HW227435   5.957   3.956   0.315
 8846SOL     OW27436   2.226   4.954   2.825
 8846SOL    HW127437   2.263   4.896   2.752
 8846SOL    HW227438   2.205   5.044   2.787
 8847SOL     OW27439   2.725   0.861   2.606
 8847SOL    HW127440   2.758   0.908   2.524
 8847SOL    HW227441   2.641   0.905   2.638
 8848SOL     OW27442   1.716   0.180   2.792
 8848SOL    HW127443   1.639   0.178   2.855
 8848SOL    HW227444   1.802   0.176   2.844
 8849SOL     OW27445   2.824   6.724   1.452
 8849SOL    HW127446   2.826   6.712   1.353
 8849SOL    HW227447   2.782   6.812   1.475
 8850SOL     OW27448   3.007   2.620   6.806
 8850SOL    HW127449   3.020   2.707   6.853
 8850SOL    HW227450   3.018   2.633   6.708
 8851SOL     OW27451   1.309   3.455   2.395
 8851SOL    HW127452   1.373   3.380   2.377
 8851SOL    HW227453   1.239   3.425   2.460
 8852SOL     OW27454   0.972   2.213   5.942
 8852SOL    HW127455   1.009   2.188   5.853
 8852SOL    HW227456   0.952   2.131   5.994
 8853SOL     OW27457   5.682   1.323   1.469
 8853SOL    HW127458   5.590   1.328   1.431
 8853SOL    HW227459   5.678   1.336   1.568
 8854SOL     OW27460   0.937   1.878   4.973
 8854SOL    HW127461   0.999   1.929   4.913
 8854SOL    HW227462   0.946   1.910   5.067
 8855SOL     OW27463   5.301   5.272   0.922
 8855SOL    HW127464   5.288   5.348   0.986
 8855SOL    HW227465   5.267   5.187   0.964
 8856SOL     OW27466   6.641   0.608   5.718
 8856SOL    HW127467   6.625   0.536   5.785
 8856SOL    HW227468   6.596   0.692   5.748
 8857SOL     OW27469   6.209   2.014   6.383
 8857SOL    HW127470   6.272   1.963   6.442
 8857SOL    HW227471   6.120   2.022   6.429
 8858SOL     OW27472   6.471   6.262   4.765
 8858SOL    HW127473   6.383   6.275   4.719
 8858SOL    HW227474   6.492   6.342   4.821
 8859SOL     OW27475   0.788   6.308   3.742
 8859SOL    HW127476   0.692   6.282   3.733
 8859SOL    HW227477   0.795   6.407   3.753
 8860SOL     OW27478   0.474   4.079   2.897
 8860SOL    HW127479   0.566   4.058   2.929
 8860SOL    HW227480   0.432   3.997   2.857
 8861SOL     OW27481   3.989   2.950   0.961
 8861SOL    HW127482   3.915   2.943   0.895
 8861SOL    HW227483   3.953   2.941   1.054
 8862SOL     OW27484   4.818   4.668   4.988
 8862SOL    HW127485   4.768   4.603   4.931
 8862SOL    HW227486   4.892   4.709   4.934
 8863SOL     OW27487   2.097   3.789   3.241
 8863SOL    HW127488   2.118   3.699   3.280
 8863SOL    HW227489   2.106   3.859   3.312
 8864SOL     OW27490   6.193   1.889   5.014
 8864SOL    HW127491   6.134   1.827   4.962
 8864SOL    HW227492   6.271   1.838   5.050
 8865SOL     OW27493   2.843   1.293   0.752
 8865SOL    HW127494   2.829   1.374   0.810
 8865SOL    HW227495   2.784   1.219   0.784
 8866SOL     OW27496   5.991   6.682   2.303
 8866SOL    HW127497   5.892   6.694   2.297
 8866SOL    HW227498   6.023   6.718   2.390
 8867SOL     OW27499   6.586   3.431   2.729
 8867SOL    HW127500   6.673   3.409   2.686
 8867SOL    HW227501   6.517   3.447   2.659
 8868SOL     OW27502   6.840   3.238   3.318
 8868SOL    HW127503   6.748   3.204   3.299
 8868SOL    HW227504   6.906   3.163   3.307
 8869SOL     OW27505   3.984   6.684   3.320
 8869SOL    HW127506   4.031   6.743   3.385
 8869SOL    HW227507   3.949   6.738   3.244
 8870SOL     OW27508   1.571   0.584   3.072
 8870SOL    HW127509   1.502   0.607   3.003
 8870SOL    HW227510   1.604   0.491   3.056
 8871SOL     OW27511   6.736   0.037   2.504
 8871SOL    HW127512   6.656   0.097   2.498
 8871SOL    HW227513   6.740   6.997   2.424
 8872SOL     OW27514   6.686   3.954   3.682
 8872SOL    HW127515   6.659   3.879   3.744
 8872SOL    HW227516   6.604   3.990   3.637
 8873SOL     OW27517   2.355   2.093   2.888
 8873SOL    HW127518   2.378   2.091   2.790
 8873SOL    HW227519   2.275   2.034   2.904
 8874SOL     OW27520   2.956   6.426   0.783
 8874SOL    HW127521   2.904   6.353   0.829
 8874SOL    HW227522   3.014   6.473   0.850
 8875SOL     OW27523   6.548   3.109   4.447
 8875SOL    HW127524   6.630   3.068   4.406
 8875SOL    HW227525   6.576   3.175   4.517
 8876SOL     OW27526   4.455   0.321   6.600
 8876SOL    HW127527   4.407   0.258   6.660
 8876SOL    HW227528   4.487   0.400   6.653
 8877SOL     OW27529   0.728   4.594   1.207
 8877SOL    HW127530   0.791   4.551   1.272
 8877SOL    HW227531   0.638   4.602   1.249
 8878SOL     OW27532   4.725   4.340   1.043
 8878SOL    HW127533   4.819   4.332   1.079
 8878SOL    HW227534   4.723   4.306   0.949
 8879SOL     OW27535   6.941   4.484   2.990
 8879SOL    HW127536   0.017   4.493   2.959
 8879SOL    HW227537   6.889   4.429   2.924
 8880SOL     OW27538   4.088   1.475   3.154
 8880SOL    HW127539   4.122   1.412   3.224
 8880SOL    HW227540   4.092   1.430   3.064
 8881SOL     OW27541   4.098   4.737   4.087
 8881SOL    HW127542   4.124   4.819   4.038
 8881SOL    HW227543   4.010   4.752   4.133
 8882SOL     OW27544   4.185   1.105   0.492
 8882SOL    HW127545   4.251   1.085   0.565
 8882SOL    HW227546   4.097   1.062   0.515
 8883SOL     OW27547   0.217   6.644   4.516
 8883SOL    HW127548   0.296   6.587   4.537
 8883SOL    HW227549   0.218   6.726   4.574
 8884SOL     OW27550   4.855   3.310   5.725
 8884SOL    HW127551   4.853   3.357   5.813
 8884SOL    HW227552   4.762   3.283   5.699
 8885SOL     OW27553   5.782   6.049   1.006
 8885SOL    HW127554   5.847   5.991   0.956
 8885SOL    HW227555   5.706   5.994   1.038
 8886SOL     OW27556   3.909   5.958   6.467
 8886SOL    HW127557   3.841   5.928   6.400
 8886SOL    HW227558   3.883   6.048   6.503
 8887SOL     OW27559   4.767   0.253   1.649
 8887SOL    HW127560   4.861   0.263   1.685
 8887SOL    HW227561   4.718   0.339   1.662
 8888SOL     OW27562   3.296   2.031   2.599
 8888SOL    HW127563   3.247   1.952   2.635
 8888SOL    HW227564   3.368   2.058   2.663
 8889SOL     OW27565   1.419   5.352   6.431
 8889SOL    HW127566   1.447   5.299   6.510
 8889SOL    HW227567   1.331   5.318   6.397
 8890SOL     OW27568   0.763   6.378   0.395
 8890SOL    HW127569   0.752   6.455   0.333
 8890SOL    HW227570   0.858   6.376   0.428
 8891SOL     OW27571   6.410   4.189   5.633
 8891SOL    HW127572   6.330   4.137   5.603
 8891SOL    HW227573   6.380   4.280   5.664
 8892SOL     OW27574   2.864   5.219   4.576
 8892SOL    HW127575   2.903   5.214   4.484
 8892SOL    HW227576   2.896   5.141   4.630
 8893SOL     OW27577   1.093   5.196   5.180
 8893SOL    HW127578   1.185   5.201   5.219
 8893SOL    HW227579   1.082   5.268   5.112
 8894SOL     OW27580   4.579   1.998   1.037
 8894SOL    HW127581   4.554   1.951   1.122
 8894SOL    HW227582   4.499   2.046   1.001
 8895SOL     OW27583   6.709   3.482   0.583
 8895SOL    HW127584   6.794   3.530   0.604
 8895SOL    HW227585   6.651   3.480   0.664
 8896SOL     OW27586   0.505   2.226   3.896
 8896SOL    HW127587   0.477   2.204   3.989
 8896SOL    HW227588   0.504   2.144   3.840
 8897SOL     OW27589   1.768   4.877   3.862
 8897SOL    HW127590   1.778   4.884   3.962
 8897SOL    HW227591   1.859   4.868   3.821
 8898SOL     OW27592   4.755   4.078   2.434
 8898SOL    HW127593   4.745   4.137   2.513
 8898SOL    HW227594   4.805   3.995   2.460
 8899SOL     OW27595   1.743   3.666   3.377
 8899SOL    HW127596   1.771   3.761   3.366
 8899SOL    HW227597   1.721   3.649   3.473
 8900SOL     OW27598   4.995   2.049   4.192
 8900SOL    HW127599   5.044   1.972   4.152
 8900SOL    HW227600   5.057   2.128   4.196
 8901SOL     OW27601   1.405   4.385   4.254
 8901SOL    HW127602   1.337   4.342   4.314
 8901SOL    HW227603   1.451   4.459   4.304
 8902SOL     OW27604   0.653   4.408   0.513
 8902SOL    HW127605   0.589   4.332   0.523
 8902SOL    HW227606   0.742   4.372   0.486
 8903SOL     OW27607   0.997   0.111   5.146
 8903SOL    HW127608   0.994   0.191   5.206
 8903SOL    HW227609   0.940   0.128   5.066
 8904SOL     OW27610   0.324   1.158   3.451
 8904SOL    HW127611   0.354   1.220   3.523
 8904SOL    HW227612   0.235   1.119   3.475
 8905SOL     OW27613   1.173   3.735   2.853
 8905SOL    HW127614   1.251   3.785   2.891
 8905SOL    HW227615   1.148   3.661   2.915
 8906SOL     OW27616   5.772   6.961   7.008
 8906SOL    HW127617   5.833   6.888   6.977
 8906SOL    HW227618   5.779   6.971   0.089
 8907SOL     OW27619   2.853   3.414   5.176
 8907SOL    HW127620   2.816   3.322   5.188
 8907SOL    HW227621   2.857   3.435   5.078
 8908SOL     OW27622   1.666   4.296   6.919
 8908SOL    HW127623   1.717   4.212   6.934
 8908SOL    HW227624   1.724   4.374   6.942
 8909SOL     OW27625   1.513   6.543   1.414
 8909SOL    HW127626   1.583   6.613   1.427
 8909SOL    HW227627   1.464   6.528   1.500
 8910SOL     OW27628   2.009   0.258   3.757
 8910SOL    HW127629   2.002   0.320   3.835
 8910SOL    HW227630   2.070   0.297   3.689
 8911SOL     OW27631   4.242   2.328   4.757
 8911SOL    HW127632   4.240   2.381   4.841
 8911SOL    HW227633   4.163   2.267   4.753
 8912SOL     OW27634   3.739   3.529   3.865
 8912SOL    HW127635   3.755   3.520   3.767
 8912SOL    HW227636   3.746   3.626   3.891
 8913SOL     OW27637   5.221   6.361   6.889
 8913SOL    HW127638   5.194   6.280   6.940
 8913SOL    HW227639   5.266   6.426   6.950
 8914SOL     OW27640   5.055   5.025   6.474
 8914SOL    HW127641   5.065   5.047   6.377
 8914SOL    HW227642   4.974   5.069   6.511
 8915SOL     OW27643   1.374   0.921   3.359
 8915SOL    HW127644   1.429   0.887   3.435
 8915SOL    HW227645   1.309   0.851   3.331
 8916SOL     OW27646   5.116   0.908   1.089
 8916SOL    HW127647   5.186   0.901   1.159
 8916SOL    HW227648   5.085   1.002   1.081
 8917SOL     OW27649   5.824   2.232   0.239
 8917SOL    HW127650   5.923   2.248   0.245
 8917SOL    HW227651   5.783   2.244   0.329
 8918SOL     OW27652   0.577   3.631   2.854
 8918SOL    HW127653   0.673   3.611   2.871
 8918SOL    HW227654   0.542   3.571   2.782
 8919SOL     OW27655   6.244   3.382   1.379
 8919SOL    HW127656   6.303   3.323   1.432
 8919SOL    HW227657   6.246   3.355   1.283
 8920SOL     OW27658   6.378   0.973   0.126
 8920SOL    HW127659   6.460   0.923   0.153
 8920SOL    HW227660   6.350   0.943   0.035
 8921SOL     OW27661   2.051   3.293   2.562
 8921SOL    HW127662   2.102   3.241   2.493
 8921SOL    HW227663   2.091   3.276   2.652
 8922SOL     OW27664   4.182   5.541   4.171
 8922SOL    HW127665   4.084   5.530   4.188
 8922SOL    HW227666   4.233   5.480   4.232
 8923SOL     OW27667   1.952   1.316   4.495
 8923SOL    HW127668   1.959   1.241   4.561
 8923SOL    HW227669   1.881   1.295   4.428
 8924SOL     OW27670   6.533   5.160   5.539
 8924SOL    HW127671   6.551   5.117   5.628
 8924SOL    HW227672   6.483   5.245   5.554
 8925SOL     OW27673   1.006   6.489   2.424
 8925SOL    HW127674   1.053   6.410   2.384
 8925SOL    HW227675   1.058   6.572   2.406
 8926SOL     OW27676   5.764   1.327   6.171
 8926SOL    HW127677   5.682   1.281   6.203
 8926SOL    HW227678   5.739   1.416   6.132
 8927SOL     OW27679   1.471   0.978   5.716
 8927SOL    HW127680   1.515   0.957   5.629
 8927SOL    HW227681   1.530   0.949   5.792
 8928SOL     OW27682   0.660   6.677   5.241
 8928SOL    HW127683   0.661   6.698   5.143
 8928SOL    HW227684   0.566   6.687   5.276
 8929SOL     OW27685   0.519   1.788   3.674
 8929SOL    HW127686   0.541   1.715   3.609
 8929SOL    HW227687   0.491   1.747   3.761
 8930SOL     OW27688   2.176   4.925   3.235
 8930SOL    HW127689   2.151   5.012   3.194
 8930SOL    HW227690   2.188   4.937   3.334
 8931SOL     OW27691   4.220   2.848   0.338
 8931SOL    HW127692   4.265   2.847   0.427
 8931SOL    HW227693   4.283   2.813   0.269
 8932SOL     OW27694   0.663   3.518   3.590
 8932SOL    HW127695   0.623   3.561   3.671
 8932SOL    HW227696   0.591   3.472   3.538
 8933SOL     OW27697   3.817   2.135   5.072
 8933SOL    HW127698   3.769   2.106   4.990
 8933SOL    HW227699   3.915   2.142   5.054
 8934SOL     OW27700   2.556   5.754   2.894
 8934SOL    HW127701   2.457   5.757   2.882
 8934SOL    HW227702   2.595   5.842   2.866
 8935SOL     OW27703   0.121   4.424   0.933
 8935SOL    HW127704   0.182   4.502   0.919
 8935SOL    HW227705   0.171   4.349   0.976
 8936SOL     OW27706   3.171   2.945   0.802
 8936SOL    HW127707   3.110   2.929   0.880
 8936SOL    HW227708   3.217   2.860   0.778
 8937SOL     OW27709   0.494   6.310   6.255
 8937SOL    HW127710   0.442   6.321   6.340
 8937SOL    HW227711   0.527   6.215   6.249
 8938SOL     OW27712   5.207   6.289   1.855
 8938SOL    HW127713   5.139   6.215   1.846
 8938SOL    HW227714   5.270   6.286   1.777
 8939SOL     OW27715   4.325   2.020   4.643
 8939SOL    HW127716   4.406   2.013   4.701
 8939SOL    HW227717   4.273   2.102   4.668
 8940SOL     OW27718   5.921   0.799   2.579
 8940SOL    HW127719   5.927   0.705   2.613
 8940SOL    HW227720   5.836   0.841   2.611
 8941SOL     OW27721   4.980   1.832   5.972
 8941SOL    HW127722   5.035   1.815   5.890
 8941SOL    HW227723   4.940   1.746   6.003
 8942SOL     OW27724   0.967   3.296   5.232
 8942SOL    HW127725   1.042   3.344   5.277
 8942SOL    HW227726   0.880   3.340   5.255
 8943SOL     OW27727   5.264   3.561   0.882
 8943SOL    HW127728   5.341   3.539   0.823
 8943SOL    HW227729   5.293   3.623   0.954
 8944SOL     OW27730   4.283   5.332   0.779
 8944SOL    HW127731   4.351   5.301   0.845
 8944SOL    HW227732   4.213   5.261   0.768
 8945SOL     OW27733   2.184   1.224   4.379
 8945SOL    HW127734   2.164   1.126   4.375
 8945SOL    HW227735   2.108   1.272   4.423
 8946SOL     OW27736   3.926   1.402   4.277
 8946SOL    HW127737   3.867   1.363   4.347
 8946SOL    HW227738   3.872   1.421   4.195
 8947SOL     OW27739   4.008   3.989   5.102
 8947SOL    HW127740   3.941   4.056   5.071
 8947SOL    HW227741   4.041   3.937   5.023
 8948SOL     OW27742   6.559   4.992   2.773
 8948SOL    HW127743   6.587   4.997   2.677
 8948SOL    HW227744   6.568   5.083   2.814
 8949SOL     OW27745   2.262   5.842   0.298
 8949SOL    HW127746   2.313   5.846   0.212
 8949SOL    HW227747   2.242   5.935   0.329
 8950SOL     OW27748   4.519   2.580   4.492
 8950SOL    HW127749   4.484   2.487   4.504
 8950SOL    HW227750   4.600   2.577   4.433
 8951SOL     OW27751   2.544   2.475   5.834
 8951SOL    HW127752   2.604   2.418   5.891
 8951SOL    HW227753   2.474   2.518   5.891
 8952SOL     OW27754   6.849   0.593   3.206
 8952SOL    HW127755   6.907   0.634   3.136
 8952SOL    HW227756   6.893   0.602   3.296
 8953SOL     OW27757   1.924   4.162   6.702
 8953SOL    HW127758   1.888   4.139   6.792
 8953SOL    HW227759   2.024   4.164   6.705
 8954SOL     OW27760   1.619   5.890   5.727
 8954SOL    HW127761   1.588   5.887   5.632
 8954SOL    HW227762   1.675   5.971   5.741
 8955SOL     OW27763   5.951   3.736   3.354
 8955SOL    HW127764   6.035   3.787   3.370
 8955SOL    HW227765   5.936   3.671   3.429
 8956SOL     OW27766   1.008   0.779   5.499
 8956SOL    HW127767   0.959   0.866   5.491
 8956SOL    HW227768   1.082   0.788   5.566
 8957SOL     OW27769   2.789   5.004   1.978
 8957SOL    HW127770   2.820   4.980   2.070
 8957SOL    HW227771   2.827   5.093   1.952
 8958SOL     OW27772   2.418   0.264   4.199
 8958SOL    HW127773   2.324   0.229   4.196
 8958SOL    HW227774   2.461   0.251   4.110
 8959SOL     OW27775   2.504   4.587   1.422
 8959SOL    HW127776   2.457   4.668   1.458
 8959SOL    HW227777   2.602   4.604   1.419
 8960SOL     OW27778   4.066   6.122   1.390
 8960SOL    HW127779   3.997   6.055   1.365
 8960SOL    HW227780   4.093   6.173   1.308
 8961SOL     OW27781   1.479   2.069   3.715
 8961SOL    HW127782   1.393   2.118   3.700
 8961SOL    HW227783   1.553   2.136   3.731
 8962SOL     OW27784   5.111   6.968   3.867
 8962SOL    HW127785   5.017   6.998   3.884
 8962SOL    HW227786   5.146   6.921   3.948
 8963SOL     OW27787   0.090   0.761   3.825
 8963SOL    HW127788   0.068   0.797   3.916
 8963SOL    HW227789   0.062   0.665   3.819
 8964SOL     OW27790   6.192   4.704   3.023
 8964SOL    HW127791   6.249   4.761   2.964
 8964SOL    HW227792   6.237   4.693   3.112
 8965SOL     OW27793   1.182   5.375   1.205
 8965SOL    HW127794   1.168   5.463   1.250
 8965SOL    HW227795   1.207   5.391   1.109
 8966SOL     OW27796   2.835   2.891   5.360
 8966SOL    HW127797   2.840   2.957   5.285
 8966SOL    HW227798   2.918   2.836   5.363
 8967SOL     OW27799   4.309   0.497   0.604
 8967SOL    HW127800   4.255   0.556   0.544
 8967SOL    HW227801   4.406   0.521   0.596
 8968SOL     OW27802   5.494   5.384   2.603
 8968SOL    HW127803   5.514   5.448   2.677
 8968SOL    HW227804   5.425   5.319   2.633
 8969SOL     OW27805   6.069   0.934   4.393
 8969SOL    HW127806   6.022   0.857   4.350
 8969SOL    HW227807   6.020   1.018   4.374
 8970SOL     OW27808   3.792   2.257   1.509
 8970SOL    HW127809   3.786   2.356   1.494
 8970SOL    HW227810   3.859   2.238   1.580
 8971SOL     OW27811   3.995   5.623   2.704
 8971SOL    HW127812   4.071   5.650   2.643
 8971SOL    HW227813   4.031   5.569   2.779
 8972SOL     OW27814   5.481   0.721   4.554
 8972SOL    HW127815   5.496   0.735   4.652
 8972SOL    HW227816   5.531   0.790   4.502
 8973SOL     OW27817   1.280   5.032   0.064
 8973SOL    HW127818   1.299   4.947   0.113
 8973SOL    HW227819   1.252   5.103   0.129
 8974SOL     OW27820   0.321   3.032   4.233
 8974SOL    HW127821   0.368   3.085   4.304
 8974SOL    HW227822   0.388   2.973   4.187
 8975SOL     OW27823   2.298   6.924   0.599
 8975SOL    HW127824   2.223   6.977   0.561
 8975SOL    HW227825   2.300   6.833   0.556
 8976SOL     OW27826   0.253   5.457   4.636
 8976SOL    HW127827   0.305   5.515   4.697
 8976SOL    HW227828   0.236   5.504   4.550
 8977SOL     OW27829   6.024   1.359   6.001
 8977SOL    HW127830   6.094   1.311   6.054
 8977SOL    HW227831   5.941   1.369   6.057
 8978SOL     OW27832   5.518   6.159   0.764
 8978SOL    HW127833   5.578   6.109   0.701
 8978SOL    HW227834   5.567   6.238   0.801
 8979SOL     OW27835   1.760   5.082   4.562
 8979SOL    HW127836   1.807   4.994   4.568
 8979SOL    HW227837   1.782   5.137   4.643
 8980SOL     OW27838   3.913   3.036   4.128
 8980SOL    HW127839   3.970   3.001   4.202
 8980SOL    HW227840   3.819   3.047   4.160
 8981SOL     OW27841   3.491   1.820   5.397
 8981SOL    HW127842   3.525   1.729   5.421
 8981SOL    HW227843   3.393   1.814   5.375
 8982SOL     OW27844   3.453   4.640   0.849
 8982SOL    HW127845   3.525   4.599   0.907
 8982SOL    HW227846   3.366   4.596   0.870
 8983SOL     OW27847   4.928   5.127   0.483
 8983SOL    HW127848   4.960   5.078   0.402
 8983SOL    HW227849   5.007   5.167   0.531
 8984SOL     OW27850   1.886   5.385   3.131
 8984SOL    HW127851   1.980   5.376   3.098
 8984SOL    HW227852   1.887   5.418   3.226
 8985SOL     OW27853   3.529   3.030   6.195
 8985SOL    HW127854   3.547   3.116   6.244
 8985SOL    HW227855   3.432   3.025   6.172
 8986SOL     OW27856   3.704   6.261   2.546
 8986SOL    HW127857   3.700   6.284   2.449
 8986SOL    HW227858   3.611   6.247   2.581
 8987SOL     OW27859   5.472   6.358   1.959
 8987SOL    HW127860   5.513   6.311   1.881
 8987SOL    HW227861   5.373   6.366   1.944
 8988SOL     OW27862   0.376   5.614   4.839
 8988SOL    HW127863   0.279   5.629   4.859
 8988SOL    HW227864   0.406   5.529   4.883
 8989SOL     OW27865   3.593   2.938   6.716
 8989SOL    HW127866   3.641   2.948   6.629
 8989SOL    HW227867   3.504   2.983   6.710
 8990SOL     OW27868   0.448   6.055   4.151
 8990SOL    HW127869   0.399   6.122   4.095
 8990SOL    HW227870   0.512   6.103   4.211
 8991SOL     OW27871   0.890   2.205   5.445
 8991SOL    HW127872   0.821   2.265   5.487
 8991SOL    HW227873   0.925   2.142   5.514
 8992SOL     OW27874   5.967   2.387   6.813
 8992SOL    HW127875   6.056   2.406   6.853
 8992SOL    HW227876   5.901   2.366   6.885
 8993SOL     OW27877   4.795   2.327   6.928
 8993SOL    HW127878   4.852   2.255   6.967
 8993SOL    HW227879   4.720   2.286   6.877
 8994SOL     OW27880   1.977   5.771   3.841
 8994SOL    HW127881   1.938   5.858   3.871
 8994SOL    HW227882   1.991   5.712   3.921
 8995SOL     OW27883   6.960   1.551   0.537
 8995SOL    HW127884   0.022   1.564   0.479
 8995SOL    HW227885   6.988   1.510   0.624
 8996SOL     OW27886   4.572   5.081   5.985
 8996SOL    HW127887   4.587   5.173   6.020
 8996SOL    HW227888   4.618   5.071   5.897
 8997SOL     OW27889   6.026   0.592   5.050
 8997SOL    HW127890   5.963   0.546   4.987
 8997SOL    HW227891   6.120   0.573   5.023
 8998SOL     OW27892   6.110   3.171   4.514
 8998SOL    HW127893   6.128   3.214   4.603
 8998SOL    HW227894   6.014   3.183   4.490
 8999SOL     OW27895   4.045   0.172   6.090
 8999SOL    HW127896   4.110   0.099   6.110
 8999SOL    HW227897   4.088   0.240   6.030
 9000SOL     OW27898   1.459   3.977   1.323
 9000SOL    HW127899   1.416   3.977   1.412
 9000SOL    HW227900   1.475   4.072   1.293
 9001SOL     OW27901   1.151   5.243   2.512
 9001SOL    HW127902   1.089   5.298   2.567
 9001SOL    HW227903   1.185   5.298   2.435
 9002SOL     OW27904   0.815   4.460   0.042
 9002SOL    HW127905   0.910   4.446   0.070
 9002SOL    HW227906   0.769   4.519   0.108
 9003SOL     OW27907   5.587   0.647   1.144
 9003SOL    HW127908   5.613   0.633   1.049
 9003SOL    HW227909   5.545   0.737   1.154
 9004SOL     OW27910   3.897   4.549   0.643
 9004SOL    HW127911   3.799   4.538   0.654
 9004SOL    HW227912   3.945   4.499   0.715
 9005SOL     OW27913   4.987   1.401   4.949
 9005SOL    HW127914   5.079   1.362   4.943
 9005SOL    HW227915   4.987   1.491   4.905
 9006SOL     OW27916   3.297   5.932   0.627
 9006SOL    HW127917   3.223   5.969   0.684
 9006SOL    HW227918   3.262   5.857   0.571
 9007SOL     OW27919   2.975   0.822   2.663
 9007SOL    HW127920   3.000   0.916   2.685
 9007SOL    HW227921   2.876   0.817   2.646
 9008SOL     OW27922   0.205   5.620   2.993
 9008SOL    HW127923   0.139   5.688   2.961
 9008SOL    HW227924   0.281   5.666   3.039
 9009SOL     OW27925   3.868   5.740   1.161
 9009SOL    HW127926   3.960   5.702   1.173
 9009SOL    HW227927   3.830   5.709   1.074
 9010SOL     OW27928   1.875   6.192   4.305
 9010SOL    HW127929   1.854   6.290   4.295
 9010SOL    HW227930   1.792   6.139   4.293
 9011SOL     OW27931   3.075   1.658   2.081
 9011SOL    HW127932   3.140   1.731   2.104
 9011SOL    HW227933   3.073   1.591   2.154
 9012SOL     OW27934   1.442   6.414   6.701
 9012SOL    HW127935   1.538   6.389   6.714
 9012SOL    HW227936   1.429   6.451   6.609
 9013SOL     OW27937   1.800   6.499   3.999
 9013SOL    HW127938   1.756   6.571   3.945
 9013SOL    HW227939   1.870   6.454   3.943
 9014SOL     OW27940   5.422   2.884   3.264
 9014SOL    HW127941   5.447   2.798   3.218
 9014SOL    HW227942   5.327   2.879   3.293
 9015SOL     OW27943   5.463   1.641   6.910
 9015SOL    HW127944   5.553   1.645   6.866
 9015SOL    HW227945   5.403   1.710   6.870
 9016SOL     OW27946   5.889   5.644   6.593
 9016SOL    HW127947   5.963   5.624   6.529
 9016SOL    HW227948   5.872   5.743   6.593
 9017SOL     OW27949   4.062   0.650   4.460
 9017SOL    HW127950   3.996   0.725   4.459
 9017SOL    HW227951   4.040   0.587   4.535
 9018SOL     OW27952   4.206   3.967   6.241
 9018SOL    HW127953   4.209   4.045   6.303
 9018SOL    HW227954   4.116   3.961   6.199
 9019SOL     OW27955   0.529   3.628   3.827
 9019SOL    HW127956   0.515   3.534   3.858
 9019SOL    HW227957   0.534   3.689   3.906
 9020SOL     OW27958   5.692   6.642   2.294
 9020SOL    HW127959   5.662   6.625   2.200
 9020SOL    HW227960   5.688   6.556   2.346
 9021SOL     OW27961   0.477   0.633   4.276
 9021SOL    HW127962   0.400   0.662   4.218
 9021SOL    HW227963   0.549   0.703   4.271
 9022SOL     OW27964   4.171   2.792   6.317
 9022SOL    HW127965   4.251   2.770   6.261
 9022SOL    HW227966   4.145   2.713   6.371
 9023SOL     OW27967   5.577   4.180   0.722
 9023SOL    HW127968   5.668   4.138   0.727
 9023SOL    HW227969   5.516   4.120   0.670
 9024SOL     OW27970   1.625   5.201   6.215
 9024SOL    HW127971   1.544   5.235   6.263
 9024SOL    HW227972   1.681   5.278   6.184
 9025SOL     OW27973   0.902   5.540   1.125
 9025SOL    HW127974   0.886   5.638   1.114
 9025SOL    HW227975   0.973   5.525   1.194
 9026SOL     OW27976   4.499   1.509   0.163
 9026SOL    HW127977   4.561   1.558   0.224
 9026SOL    HW227978   4.541   1.422   0.135
 9027SOL     OW27979   0.593   4.077   3.275
 9027SOL    HW127980   0.505   4.074   3.322
 9027SOL    HW227981   0.597   4.002   3.208
 9028SOL     OW27982   3.473   4.307   5.690
 9028SOL    HW127983   3.396   4.336   5.634
 9028SOL    HW227984   3.504   4.217   5.661
 9029SOL     OW27985   4.097   6.546   4.874
 9029SOL    HW127986   4.178   6.573   4.925
 9029SOL    HW227987   4.016   6.552   4.933
 9030SOL     OW27988   2.444   1.695   2.749
 9030SOL    HW127989   2.387   1.643   2.685
 9030SOL    HW227990   2.386   1.740   2.816
 9031SOL     OW27991   4.584   6.813   4.606
 9031SOL    HW127992   4.541   6.875   4.541
 9031SOL    HW227993   4.664   6.857   4.647
 9032SOL     OW27994   4.840   4.090   1.719
 9032SOL    HW127995   4.933   4.107   1.685
 9032SOL    HW227996   4.844   4.069   1.817
 9033SOL     OW27997   0.822   6.438   3.268
 9033SOL    HW127998   0.835   6.452   3.170
 9033SOL    HW227999   0.910   6.444   3.314
 9034SOL     OW28000   4.062   6.065   4.067
 9034SOL    HW128001   4.107   5.976   4.051
 9034SOL    HW228002   4.063   6.086   4.164
 9035SOL     OW28003   1.517   4.767   6.575
 9035SOL    HW128004   1.432   4.783   6.625
 9035SOL    HW228005   1.532   4.668   6.566
 9036SOL     OW28006   1.394   3.924   5.336
 9036SOL    HW128007   1.421   4.005   5.283
 9036SOL    HW228008   1.297   3.904   5.318
 9037SOL     OW28009   1.090   1.836   2.710
 9037SOL    HW128010   1.090   1.893   2.791
 9037SOL    HW228011   0.996   1.816   2.682
 9038SOL     OW28012   4.184   3.661   5.128
 9038SOL    HW128013   4.149   3.705   5.045
 9038SOL    HW228014   4.194   3.729   5.200
 9039SOL     OW28015   4.137   5.639   6.466
 9039SOL    HW128016   4.214   5.702   6.467
 9039SOL    HW228017   4.171   5.544   6.466
 9040SOL     OW28018   2.487   1.697   0.906
 9040SOL    HW128019   2.551   1.688   0.983
 9040SOL    HW228020   2.519   1.769   0.845
 9041SOL     OW28021   6.752   2.305   1.722
 9041SOL    HW128022   6.735   2.326   1.625
 9041SOL    HW228023   6.836   2.351   1.752
 9042SOL     OW28024   3.602   5.960   6.965
 9042SOL    HW128025   3.524   5.923   7.015
 9042SOL    HW228026   3.673   5.890   6.956
 9043SOL     OW28027   3.048   1.976   0.227
 9043SOL    HW128028   3.024   1.894   0.175
 9043SOL    HW228029   3.024   1.963   0.323
 9044SOL     OW28030   0.817   1.148   0.287
 9044SOL    HW128031   0.896   1.092   0.261
 9044SOL    HW228032   0.849   1.239   0.313
 9045SOL     OW28033   4.053   1.436   3.720
 9045SOL    HW128034   4.126   1.411   3.784
 9045SOL    HW228035   4.010   1.353   3.685
 9046SOL     OW28036   3.352   3.906   2.728
 9046SOL    HW128037   3.266   3.871   2.692
 9046SOL    HW228038   3.392   3.838   2.790
 9047SOL     OW28039   1.468   3.526   5.826
 9047SOL    HW128040   1.460   3.548   5.923
 9047SOL    HW228041   1.494   3.607   5.775
 9048SOL     OW28042   6.461   2.045   6.084
 9048SOL    HW128043   6.434   1.951   6.104
 9048SOL    HW228044   6.546   2.045   6.031
 9049SOL     OW28045   3.200   6.996   6.342
 9049SOL    HW128046   3.108   0.018   6.336
 9049SOL    HW228047   3.242   0.004   6.429
 9050SOL     OW28048   0.521   5.264   0.345
 9050SOL    HW128049   0.557   5.220   0.427
 9050SOL    HW228050   0.568   5.227   0.264
 9051SOL     OW28051   2.354   1.119   1.111
 9051SOL    HW128052   2.357   1.172   1.027
 9051SOL    HW228053   2.426   1.150   1.174
 9052SOL     OW28054   1.728   2.324   5.475
 9052SOL    HW128055   1.698   2.299   5.567
 9052SOL    HW228056   1.793   2.400   5.481
 9053SOL     OW28057   1.830   0.910   0.173
 9053SOL    HW128058   1.770   0.832   0.186
 9053SOL    HW228059   1.786   0.976   0.113
 9054SOL     OW28060   2.319   5.643   3.043
 9054SOL    HW128061   2.359   5.614   3.130
 9054SOL    HW228062   2.273   5.731   3.056
 9055SOL     OW28063   0.141   3.821   4.394
 9055SOL    HW128064   0.099   3.912   4.392
 9055SOL    HW228065   0.154   3.789   4.300
 9056SOL     OW28066   6.159   2.617   2.805
 9056SOL    HW128067   6.207   2.694   2.849
 9056SOL    HW228068   6.067   2.645   2.780
 9057SOL     OW28069   3.718   1.923   4.098
 9057SOL    HW128070   3.649   1.984   4.060
 9057SOL    HW228071   3.677   1.867   4.170
 9058SOL     OW28072   2.193   0.969   5.525
 9058SOL    HW128073   2.102   0.929   5.524
 9058SOL    HW228074   2.238   0.947   5.611
 9059SOL     OW28075   1.052   1.912   3.023
 9059SOL    HW128076   1.110   1.871   3.094
 9059SOL    HW228077   1.038   2.009   3.043
 9060SOL     OW28078   5.449   2.590   5.324
 9060SOL    HW128079   5.483   2.501   5.353
 9060SOL    HW228080   5.373   2.618   5.383
 9061SOL     OW28081   3.551   5.994   2.964
 9061SOL    HW128082   3.539   5.912   3.019
 9061SOL    HW228083   3.649   6.015   2.956
 9062SOL     OW28084   1.883   5.342   1.179
 9062SOL    HW128085   1.957   5.392   1.133
 9062SOL    HW228086   1.847   5.396   1.255
 9063SOL     OW28087   3.082   1.322   2.383
 9063SOL    HW128088   3.050   1.408   2.342
 9063SOL    HW228089   3.011   1.284   2.442
 9064SOL     OW28090   5.491   3.396   0.290
 9064SOL    HW128091   5.587   3.371   0.297
 9064SOL    HW228092   5.483   3.494   0.273
 9065SOL     OW28093   2.507   1.355   0.118
 9065SOL    HW128094   2.491   1.287   0.189
 9065SOL    HW228095   2.540   1.440   0.160
 9066SOL     OW28096   4.980   6.757   0.519
 9066SOL    HW128097   4.977   6.740   0.421
 9066SOL    HW228098   5.033   6.840   0.537
 9067SOL     OW28099   1.475   6.482   2.743
 9067SOL    HW128100   1.376   6.470   2.731
 9067SOL    HW228101   1.494   6.513   2.835
 9068SOL     OW28102   1.807   6.150   6.907
 9068SOL    HW128103   1.757   6.111   6.829
 9068SOL    HW228104   1.744   6.201   6.965
 9069SOL     OW28105   1.452   2.485   6.575
 9069SOL    HW128106   1.419   2.435   6.496
 9069SOL    HW228107   1.454   2.583   6.555
 9070SOL     OW28108   1.347   4.069   3.335
 9070SOL    HW128109   1.301   4.132   3.397
 9070SOL    HW228110   1.446   4.075   3.348
 9071SOL     OW28111   4.797   6.466   0.387
 9071SOL    HW128112   4.883   6.509   0.416
 9071SOL    HW228113   4.800   6.368   0.408
 9072SOL     OW28114   5.263   5.463   6.775
 9072SOL    HW128115   5.196   5.529   6.809
 9072SOL    HW228116   5.248   5.375   6.818
 9073SOL     OW28117   1.951   0.401   1.670
 9073SOL    HW128118   1.947   0.452   1.584
 9073SOL    HW228119   1.864   0.413   1.718
 9074SOL     OW28120   1.073   0.025   3.188
 9074SOL    HW128121   1.052   0.122   3.195
 9074SOL    HW228122   1.149   0.003   3.249
 9075SOL     OW28123   0.911   0.873   2.509
 9075SOL    HW128124   0.963   0.795   2.546
 9075SOL    HW228125   0.826   0.840   2.468
 9076SOL     OW28126   6.633   1.713   5.333
 9076SOL    HW128127   6.702   1.782   5.312
 9076SOL    HW228128   6.622   1.704   5.432
 9077SOL     OW28129   5.574   6.643   2.052
 9077SOL    HW128130   5.542   6.701   1.977
 9077SOL    HW228131   5.575   6.548   2.023
 9078SOL     OW28132   3.374   2.885   4.983
 9078SOL    HW128133   3.467   2.912   5.007
 9078SOL    HW228134   3.372   2.787   4.961
 9079SOL     OW28135   3.532   0.781   5.968
 9079SOL    HW128136   3.571   0.870   5.993
 9079SOL    HW228137   3.594   0.733   5.907
 9080SOL     OW28138   5.067   1.481   0.993
 9080SOL    HW128139   5.007   1.537   0.935
 9080SOL    HW228140   5.160   1.520   0.992
 9081SOL     OW28141   5.287   7.011   2.331
 9081SOL    HW128142   5.358   6.978   2.268
 9081SOL    HW228143   5.197   6.994   2.292
 9082SOL     OW28144   3.221   0.924   3.254
 9082SOL    HW128145   3.248   0.998   3.316
 9082SOL    HW228146   3.301   0.897   3.200
 9083SOL     OW28147   4.491   4.929   4.638
 9083SOL    HW128148   4.452   4.847   4.680
 9083SOL    HW228149   4.589   4.932   4.655
 9084SOL     OW28150   3.754   3.243   2.770
 9084SOL    HW128151   3.760   3.146   2.745
 9084SOL    HW228152   3.741   3.298   2.688
 9085SOL     OW28153   1.441   2.129   0.651
 9085SOL    HW128154   1.396   2.073   0.582
 9085SOL    HW228155   1.447   2.223   0.619
 9086SOL     OW28156   0.404   3.751   0.222
 9086SOL    HW128157   0.466   3.803   0.162
 9086SOL    HW228158   0.318   3.801   0.231
 9087SOL     OW28159   4.991   3.746   1.998
 9087SOL    HW128160   4.935   3.795   2.064
 9087SOL    HW228161   4.949   3.750   1.907
 9088SOL     OW28162   5.095   6.645   0.976
 9088SOL    HW128163   5.009   6.603   1.003
 9088SOL    HW228164   5.077   6.720   0.913
 9089SOL     OW28165   4.271   0.223   5.822
 9089SOL    HW128166   4.282   0.207   5.724
 9089SOL    HW228167   4.215   0.305   5.835
 9090SOL     OW28168   5.627   1.434   3.243
 9090SOL    HW128169   5.696   1.388   3.300
 9090SOL    HW228170   5.570   1.492   3.301
 9091SOL     OW28171   2.868   2.788   6.480
 9091SOL    HW128172   2.841   2.735   6.399
 9091SOL    HW228173   2.787   2.812   6.533
 9092SOL     OW28174   0.061   2.985   6.269
 9092SOL    HW128175   0.065   2.894   6.310
 9092SOL    HW228176   0.142   3.000   6.213
 9093SOL     OW28177   1.877   6.112   5.284
 9093SOL    HW128178   1.889   6.041   5.215
 9093SOL    HW228179   1.963   6.161   5.296
 9094SOL     OW28180   0.815   3.720   1.582
 9094SOL    HW128181   0.865   3.780   1.520
 9094SOL    HW228182   0.719   3.745   1.583
 9095SOL     OW28183   6.689   6.573   5.512
 9095SOL    HW128184   6.684   6.492   5.453
 9095SOL    HW228185   6.713   6.653   5.456
 9096SOL     OW28186   6.701   5.271   4.000
 9096SOL    HW128187   6.751   5.284   4.086
 9096SOL    HW228188   6.644   5.190   4.007
 9097SOL     OW28189   1.141   2.317   6.186
 9097SOL    HW128190   1.122   2.293   6.281
 9097SOL    HW228191   1.074   2.273   6.126
 9098SOL     OW28192   2.150   4.411   3.889
 9098SOL    HW128193   2.196   4.344   3.946
 9098SOL    HW228194   2.210   4.437   3.813
 9099SOL     OW28195   2.219   2.225   0.103
 9099SOL    HW128196   2.239   2.200   0.009
 9099SOL    HW228197   2.297   2.274   0.142
 9100SOL     OW28198   1.295   4.416   3.482
 9100SOL    HW128199   1.240   4.348   3.531
 9100SOL    HW228200   1.350   4.468   3.548
 9101SOL     OW28201   0.882   2.664   0.258
 9101SOL    HW128202   0.913   2.650   0.164
 9101SOL    HW228203   0.959   2.652   0.321
 9102SOL     OW28204   4.069   6.700   2.844
 9102SOL    HW128205   4.120   6.625   2.887
 9102SOL    HW228206   4.128   6.780   2.838
 9103SOL     OW28207   6.417   0.830   1.180
 9103SOL    HW128208   6.417   0.837   1.081
 9103SOL    HW228209   6.509   0.848   1.215
 9104SOL     OW28210   5.859   1.755   6.312
 9104SOL    HW128211   5.910   1.811   6.247
 9104SOL    HW228212   5.886   1.660   6.302
 9105SOL     OW28213   2.067   1.215   5.439
 9105SOL    HW128214   2.125   1.143   5.478
 9105SOL    HW228215   2.020   1.264   5.512
 9106SOL     OW28216   1.398   3.507   6.717
 9106SOL    HW128217   1.318   3.521   6.660
 9106SOL    HW228218   1.478   3.488   6.660
 9107SOL     OW28219   3.020   2.015   0.538
 9107SOL    HW128220   3.100   1.993   0.594
 9107SOL    HW228221   2.991   2.109   0.557
 9108SOL     OW28222   6.224   5.633   6.097
 9108SOL    HW128223   6.278   5.631   6.181
 9108SOL    HW228224   6.218   5.726   6.063
 9109SOL     OW28225   5.813   3.852   2.554
 9109SOL    HW128226   5.893   3.883   2.605
 9109SOL    HW228227   5.769   3.777   2.603
 9110SOL     OW28228   1.853   6.042   3.335
 9110SOL    HW128229   1.766   6.039   3.385
 9110SOL    HW228230   1.928   6.051   3.400
 9111SOL     OW28231   4.237   2.263   6.252
 9111SOL    HW128232   4.191   2.175   6.241
 9111SOL    HW228233   4.336   2.248   6.259
 9112SOL     OW28234   0.943   5.068   1.444
 9112SOL    HW128235   0.956   5.157   1.487
 9112SOL    HW228236   0.969   4.995   1.508
 9113SOL     OW28237   5.645   0.907   4.426
 9113SOL    HW128238   5.653   1.004   4.449
 9113SOL    HW228239   5.718   0.882   4.363
 9114SOL     OW28240   1.305   6.353   6.119
 9114SOL    HW128241   1.222   6.304   6.145
 9114SOL    HW228242   1.286   6.411   6.039
 9115SOL     OW28243   4.771   4.363   4.836
 9115SOL    HW128244   4.777   4.270   4.801
 9115SOL    HW228245   4.678   4.383   4.865
 9116SOL     OW28246   1.836   0.530   3.211
 9116SOL    HW128247   1.777   0.583   3.272
 9116SOL    HW228248   1.788   0.512   3.125
 9117SOL     OW28249   2.490   6.227   0.159
 9117SOL    HW128250   2.489   6.309   0.102
 9117SOL    HW228251   2.510   6.254   0.254
 9118SOL     OW28252   6.478   3.824   2.479
 9118SOL    HW128253   6.426   3.869   2.551
 9118SOL    HW228254   6.550   3.768   2.519
 9119SOL     OW28255   3.116   0.543   0.314
 9119SOL    HW128256   3.080   0.450   0.307
 9119SOL    HW228257   3.123   0.569   0.410
 9120SOL     OW28258   6.427   3.767   4.952
 9120SOL    HW128259   6.447   3.704   4.877
 9120SOL    HW228260   6.452   3.860   4.925
 9121SOL     OW28261   4.007   0.431   4.623
 9121SOL    HW128262   3.908   0.426   4.630
 9121SOL    HW228263   4.045   0.340   4.609
 9122SOL     OW28264   1.108   3.432   1.528
 9122SOL    HW128265   1.157   3.501   1.579
 9122SOL    HW228266   1.161   3.347   1.527
 9123SOL     OW28267   6.760   6.569   4.312
 9123SOL    HW128268   6.823   6.607   4.380
 9123SOL    HW228269   6.790   6.477   4.286
 9124SOL     OW28270   2.878   5.135   0.206
 9124SOL    HW128271   2.855   5.145   0.110
 9124SOL    HW228272   2.800   5.163   0.263
 9125SOL     OW28273   5.735   6.499   1.740
 9125SOL    HW128274   5.737   6.416   1.796
 9125SOL    HW228275   5.662   6.491   1.673
 9126SOL     OW28276   4.275   4.771   0.682
 9126SOL    HW128277   4.330   4.709   0.738
 9126SOL    HW228278   4.227   4.719   0.612
 9127SOL     OW28279   6.738   5.025   5.471
 9127SOL    HW128280   6.669   5.094   5.494
 9127SOL    HW228281   6.710   4.937   5.509
 9128SOL     OW28282   5.768   4.167   5.653
 9128SOL    HW128283   5.763   4.246   5.714
 9128SOL    HW228284   5.847   4.111   5.677
 9129SOL     OW28285   1.056   2.690   0.794
 9129SOL    HW128286   1.104   2.719   0.877
 9129SOL    HW228287   1.116   2.705   0.715
 9130SOL     OW28288   2.906   3.444   4.894
 9130SOL    HW128289   2.885   3.495   4.810
 9130SOL    HW228290   2.944   3.355   4.870
 9131SOL     OW28291   4.885   3.021   0.395
 9131SOL    HW128292   4.840   2.935   0.373
 9131SOL    HW228293   4.872   3.041   0.492
 9132SOL     OW28294   0.763   3.831   3.927
 9132SOL    HW128295   0.718   3.909   3.885
 9132SOL    HW228296   0.701   3.787   3.992
 9133SOL     OW28297   5.864   0.119   1.168
 9133SOL    HW128298   5.921   0.199   1.148
 9133SOL    HW228299   5.768   0.141   1.148
 9134SOL     OW28300   4.737   4.963   0.859
 9134SOL    HW128301   4.731   5.062   0.853
 9134SOL    HW228302   4.829   4.937   0.890
 9135SOL     OW28303   6.188   6.269   3.225
 9135SOL    HW128304   6.098   6.308   3.207
 9135SOL    HW228305   6.250   6.289   3.149
 9136SOL     OW28306   6.816   4.683   0.418
 9136SOL    HW128307   6.760   4.728   0.487
 9136SOL    HW228308   6.911   4.712   0.426
 9137SOL     OW28309   5.201   6.633   5.201
 9137SOL    HW128310   5.196   6.708   5.135
 9137SOL    HW228311   5.203   6.669   5.294
 9138SOL     OW28312   1.985   3.762   6.569
 9138SOL    HW128313   2.046   3.777   6.647
 9138SOL    HW228314   1.914   3.832   6.568
 9139SOL     OW28315   6.580   6.946   1.510
 9139SOL    HW128316   6.573   7.009   1.432
 9139SOL    HW228317   6.489   6.926   1.545
 9140SOL     OW28318   2.088   3.600   2.668
 9140SOL    HW128319   1.991   3.591   2.688
 9140SOL    HW228320   2.133   3.512   2.681
 9141SOL     OW28321   0.029   5.611   4.806
 9141SOL    HW128322   6.991   5.580   4.729
 9141SOL    HW228323   7.014   5.700   4.838
 9142SOL     OW28324   0.813   4.933   4.030
 9142SOL    HW128325   0.886   4.968   4.088
 9142SOL    HW228326   0.852   4.897   3.945
 9143SOL     OW28327   6.393   4.032   3.041
 9143SOL    HW128328   6.483   4.001   3.070
 9143SOL    HW228329   6.375   4.124   3.078
 9144SOL     OW28330   3.157   4.312   5.278
 9144SOL    HW128331   3.086   4.374   5.247
 9144SOL    HW228332   3.132   4.218   5.255
 9145SOL     OW28333   1.347   5.796   5.743
 9145SOL    HW128334   1.441   5.828   5.738
 9145SOL    HW228335   1.345   5.696   5.732
 9146SOL     OW28336   5.746   2.848   3.262
 9146SOL    HW128337   5.686   2.893   3.196
 9146SOL    HW228338   5.702   2.848   3.352
 9147SOL     OW28339   4.109   0.273   5.560
 9147SOL    HW128340   4.068   0.287   5.650
 9147SOL    HW228341   4.045   0.222   5.502
 9148SOL     OW28342   5.163   5.867   1.372
 9148SOL    HW128343   5.102   5.824   1.439
 9148SOL    HW228344   5.214   5.796   1.323
 9149SOL     OW28345   0.259   3.829   0.697
 9149SOL    HW128346   0.307   3.789   0.619
 9149SOL    HW228347   0.265   3.767   0.775
 9150SOL     OW28348   2.666   3.097   0.083
 9150SOL    HW128349   2.634   3.054   0.167
 9150SOL    HW228350   2.592   3.095   0.015
 9151SOL     OW28351   1.704   2.963   3.658
 9151SOL    HW128352   1.697   2.870   3.693
 9151SOL    HW228353   1.749   3.022   3.725
 9152SOL     OW28354   2.171   4.006   2.513
 9152SOL    HW128355   2.081   4.044   2.531
 9152SOL    HW228356   2.163   3.927   2.452
 9153SOL     OW28357   0.321   2.837   5.933
 9153SOL    HW128358   0.244   2.778   5.911
 9153SOL    HW228359   0.290   2.914   5.989
 9154SOL     OW28360   5.504   5.033   3.313
 9154SOL    HW128361   5.600   5.027   3.341
 9154SOL    HW228362   5.447   5.051   3.392
 9155SOL     OW28363   1.097   6.082   2.585
 9155SOL    HW128364   1.129   6.047   2.497
 9155SOL    HW228365   1.173   6.124   2.633
 9156SOL     OW28366   6.837   3.917   5.697
 9156SOL    HW128367   6.744   3.921   5.733
 9156SOL    HW228368   6.853   3.998   5.640
 9157SOL     OW28369   1.526   4.731   5.680
 9157SOL    HW128370   1.619   4.767   5.665
 9157SOL    HW228371   1.532   4.636   5.712
 9158SOL     OW28372   6.642   3.629   4.622
 9158SOL    HW128373   6.626   3.682   4.539
 9158SOL    HW228374   6.555   3.598   4.660
 9159SOL     OW28375   2.349   1.397   3.705
 9159SOL    HW128376   2.299   1.342   3.772
 9159SOL    HW228377   2.370   1.487   3.745
 9160SOL     OW28378   1.324   3.270   6.842
 9160SOL    HW128379   1.406   3.243   6.893
 9160SOL    HW228380   1.334   3.364   6.809
 9161SOL     OW28381   6.364   3.540   2.576
 9161SOL    HW128382   6.345   3.518   2.480
 9161SOL    HW228383   6.350   3.637   2.591
 9162SOL     OW28384   3.941   2.264   1.772
 9162SOL    HW128385   3.982   2.183   1.814
 9162SOL    HW228386   3.856   2.287   1.818
 9163SOL     OW28387   2.510   2.279   4.269
 9163SOL    HW128388   2.549   2.250   4.181
 9163SOL    HW228389   2.463   2.202   4.312
 9164SOL     OW28390   2.100   0.176   6.265
 9164SOL    HW128391   2.053   0.109   6.207
 9164SOL    HW228392   2.040   0.255   6.279
 9165SOL     OW28393   5.451   1.679   5.982
 9165SOL    HW128394   5.471   1.732   5.899
 9165SOL    HW228395   5.532   1.629   6.010
 9166SOL     OW28396   4.356   6.208   1.729
 9166SOL    HW128397   4.434   6.187   1.787
 9166SOL    HW228398   4.319   6.297   1.754
 9167SOL     OW28399   1.664   1.567   4.268
 9167SOL    HW128400   1.669   1.559   4.168
 9167SOL    HW228401   1.661   1.664   4.292
 9168SOL     OW28402   6.839   6.380   4.971
 9168SOL    HW128403   6.854   6.451   4.902
 9168SOL    HW228404   6.741   6.360   4.977
 9169SOL     OW28405   6.774   5.851   0.863
 9169SOL    HW128406   6.732   5.942   0.857
 9169SOL    HW228407   6.723   5.795   0.928
 9170SOL     OW28408   1.794   1.162   5.618
 9170SOL    HW128409   1.856   1.233   5.651
 9170SOL    HW228410   1.754   1.191   5.532
 9171SOL     OW28411   3.404   5.289   6.657
 9171SOL    HW128412   3.402   5.379   6.615
 9171SOL    HW228413   3.468   5.230   6.607
 9172SOL     OW28414   4.635   1.744   5.415
 9172SOL    HW128415   4.583   1.696   5.486
 9172SOL    HW228416   4.593   1.729   5.326
 9173SOL     OW28417   5.607   3.740   4.941
 9173SOL    HW128418   5.567   3.776   5.026
 9173SOL    HW228419   5.582   3.644   4.930
 9174SOL     OW28420   6.491   4.708   1.493
 9174SOL    HW128421   6.456   4.800   1.505
 9174SOL    HW228422   6.477   4.678   1.399
 9175SOL     OW28423   2.095   6.798   0.901
 9175SOL    HW128424   2.160   6.832   0.833
 9175SOL    HW228425   2.064   6.874   0.958
 9176SOL     OW28426   1.503   0.605   2.048
 9176SOL    HW128427   1.460   0.609   2.138
 9176SOL    HW228428   1.597   0.639   2.055
 9177SOL     OW28429   0.350   6.942   3.954
 9177SOL    HW128430   0.380   6.879   4.025
 9177SOL    HW228431   0.293   6.894   3.888
 9178SOL     OW28432   1.237   4.526   1.194
 9178SOL    HW128433   1.219   4.428   1.199
 9178SOL    HW228434   1.284   4.556   1.276
 9179SOL     OW28435   3.837   5.188   3.845
 9179SOL    HW128436   3.833   5.127   3.924
 9179SOL    HW228437   3.929   5.228   3.838
 9180SOL     OW28438   0.078   1.244   5.515
 9180SOL    HW128439   0.175   1.260   5.495
 9180SOL    HW228440   0.023   1.316   5.472
 9181SOL     OW28441   2.707   2.461   3.826
 9181SOL    HW128442   2.723   2.553   3.861
 9181SOL    HW228443   2.713   2.394   3.900
 9182SOL     OW28444   0.466   2.112   2.599
 9182SOL    HW128445   0.454   2.180   2.671
 9182SOL    HW228446   0.378   2.070   2.578
 9183SOL     OW28447   1.837   1.638   6.239
 9183SOL    HW128448   1.844   1.596   6.329
 9183SOL    HW228449   1.896   1.588   6.175
 9184SOL     OW28450   3.282   3.758   1.053
 9184SOL    HW128451   3.309   3.814   1.132
 9184SOL    HW228452   3.208   3.803   1.004
 9185SOL     OW28453   1.557   0.436   6.022
 9185SOL    HW128454   1.488   0.374   6.060
 9185SOL    HW228455   1.600   0.487   6.096
 9186SOL     OW28456   4.556   0.029   6.776
 9186SOL    HW128457   4.469   0.077   6.775
 9186SOL    HW228458   4.628   0.091   6.807
 9187SOL     OW28459   5.704   2.530   0.763
 9187SOL    HW128460   5.757   2.601   0.716
 9187SOL    HW228461   5.618   2.515   0.714
 9188SOL     OW28462   1.755   7.010   1.281
 9188SOL    HW128463   1.666   6.998   1.324
 9188SOL    HW228464   1.805   0.065   1.327
 9189SOL     OW28465   3.382   0.421   5.744
 9189SOL    HW128466   3.345   0.457   5.830
 9189SOL    HW228467   3.432   0.337   5.762
 9190SOL     OW28468   4.434   1.151   4.874
 9190SOL    HW128469   4.371   1.086   4.915
 9190SOL    HW228470   4.492   1.191   4.944
 9191SOL     OW28471   5.632   7.017   1.826
 9191SOL    HW128472   5.597   0.079   1.875
 9191SOL    HW228473   5.697   6.969   1.884
 9192SOL     OW28474   4.913   3.662   4.308
 9192SOL    HW128475   4.881   3.653   4.402
 9192SOL    HW228476   5.008   3.633   4.303
 9193SOL     OW28477   4.147   3.338   3.117
 9193SOL    HW128478   4.158   3.421   3.062
 9193SOL    HW228479   4.090   3.273   3.067
 9194SOL     OW28480   3.704   4.903   2.938
 9194SOL    HW128481   3.638   4.865   2.873
 9194SOL    HW228482   3.678   4.876   3.031
 9195SOL     OW28483   0.584   2.681   2.877
 9195SOL    HW128484   0.583   2.690   2.777
 9195SOL    HW228485   0.549   2.592   2.903
 9196SOL     OW28486   5.115   6.575   4.444
 9196SOL    HW128487   5.206   6.560   4.484
 9196SOL    HW228488   5.051   6.601   4.515
 9197SOL     OW28489   4.500   1.487   6.185
 9197SOL    HW128490   4.507   1.576   6.140
 9197SOL    HW228491   4.525   1.496   6.281
 9198SOL     OW28492   6.085   2.380   5.208
 9198SOL    HW128493   6.159   2.312   5.206
 9198SOL    HW228494   6.038   2.374   5.297
 9199SOL     OW28495   1.217   3.280   5.795
 9199SOL    HW128496   1.254   3.337   5.721
 9199SOL    HW228497   1.249   3.315   5.883
 9200SOL     OW28498   4.835   6.066   0.745
 9200SOL    HW128499   4.871   6.159   0.748
 9200SOL    HW228500   4.891   6.012   0.681
 9201SOL     OW28501   0.558   4.004   2.489
 9201SOL    HW128502   0.497   3.944   2.438
 9201SOL    HW228503   0.640   3.954   2.517
 9202SOL     OW28504   2.284   5.830   3.728
 9202SOL    HW128505   2.356   5.896   3.750
 9202SOL    HW228506   2.248   5.849   3.637
 9203SOL     OW28507   5.047   0.996   0.341
 9203SOL    HW128508   5.021   0.932   0.413
 9203SOL    HW228509   5.135   1.036   0.363
 9204SOL     OW28510   5.298   4.404   2.746
 9204SOL    HW128511   5.332   4.330   2.804
 9204SOL    HW228512   5.330   4.390   2.653
 9205SOL     OW28513   4.540   2.465   1.564
 9205SOL    HW128514   4.472   2.534   1.587
 9205SOL    HW228515   4.590   2.494   1.482
 9206SOL     OW28516   6.303   6.235   4.392
 9206SOL    HW128517   6.388   6.282   4.415
 9206SOL    HW228518   6.323   6.145   4.354
 9207SOL     OW28519   3.879   6.236   6.821
 9207SOL    HW128520   3.803   6.205   6.765
 9207SOL    HW228521   3.965   6.200   6.784
 9208SOL     OW28522   4.220   4.005   1.741
 9208SOL    HW128523   4.285   4.048   1.803
 9208SOL    HW228524   4.152   4.072   1.712
 9209SOL     OW28525   3.894   0.266   2.858
 9209SOL    HW128526   3.914   0.172   2.830
 9209SOL    HW228527   3.980   0.314   2.878
 9210SOL     OW28528   1.106   6.747   0.546
 9210SOL    HW128529   1.024   6.782   0.501
 9210SOL    HW228530   1.183   6.808   0.527
 9211SOL     OW28531   4.905   1.309   6.115
 9211SOL    HW128532   4.870   1.384   6.058
 9211SOL    HW228533   5.005   1.316   6.120
 9212SOL     OW28534   5.717   4.315   5.392
 9212SOL    HW128535   5.761   4.404   5.378
 9212SOL    HW228536   5.757   4.270   5.472
 9213SOL     OW28537   6.745   6.158   2.180
 9213SOL    HW128538   6.727   6.254   2.157
 9213SOL    HW228539   6.659   6.112   2.202
 9214SOL     OW28540   2.233   1.791   5.662
 9214SOL    HW128541   2.171   1.851   5.713
 9214SOL    HW228542   2.328   1.810   5.689
 9215SOL     OW28543   0.482   3.595   3.373
 9215SOL    HW128544   0.456   3.644   3.289
 9215SOL    HW228545   0.490   3.497   3.354
 9216SOL     OW28546   2.380   6.009   3.213
 9216SOL    HW128547   2.317   5.973   3.143
 9216SOL    HW228548   2.361   5.963   3.300
 9217SOL     OW28549   4.190   1.401   6.902
 9217SOL    HW128550   4.158   1.492   6.875
 9217SOL    HW228551   4.111   1.342   6.918
 9218SOL     OW28552   5.456   5.444   6.582
 9218SOL    HW128553   5.393   5.454   6.659
 9218SOL    HW228554   5.550   5.465   6.612
 9219SOL     OW28555   3.071   2.664   5.585
 9219SOL    HW128556   3.072   2.719   5.502
 9219SOL    HW228557   2.977   2.643   5.610
 9220SOL     OW28558   0.432   6.547   3.384
 9220SOL    HW128559   0.454   6.501   3.298
 9220SOL    HW228560   0.517   6.566   3.434
 9221SOL     OW28561   2.899   1.560   1.156
 9221SOL    HW128562   2.907   1.520   1.248
 9221SOL    HW228563   2.942   1.499   1.090
 9222SOL     OW28564   1.308   5.009   4.193
 9222SOL    HW128565   1.305   4.984   4.097
 9222SOL    HW228566   1.380   4.956   4.239
 9223SOL     OW28567   6.578   3.330   4.677
 9223SOL    HW128568   6.553   3.395   4.605
 9223SOL    HW228569   6.591   3.379   4.763
 9224SOL     OW28570   2.019   4.817   2.601
 9224SOL    HW128571   2.111   4.796   2.632
 9224SOL    HW228572   1.971   4.732   2.580
 9225SOL     OW28573   6.343   5.345   5.949
 9225SOL    HW128574   6.278   5.294   5.892
 9225SOL    HW228575   6.319   5.442   5.948
 9226SOL     OW28576   1.357   0.268   6.095
 9226SOL    HW128577   1.302   0.244   6.176
 9226SOL    HW228578   1.329   0.211   6.018
 9227SOL     OW28579   3.076   4.260   0.647
 9227SOL    HW128580   3.008   4.187   0.646
 9227SOL    HW228581   3.165   4.223   0.619
 9228SOL     OW28582   3.681   2.848   4.764
 9228SOL    HW128583   3.664   2.852   4.862
 9228SOL    HW228584   3.673   2.754   4.732
 9229SOL     OW28585   6.954   5.282   0.877
 9229SOL    HW128586   6.982   5.366   0.924
 9229SOL    HW228587   0.009   5.252   0.816
 9230SOL     OW28588   4.561   0.853   5.256
 9230SOL    HW128589   4.661   0.852   5.269
 9230SOL    HW228590   4.537   0.793   5.180
 9231SOL     OW28591   6.140   5.878   1.861
 9231SOL    HW128592   6.051   5.860   1.901
 9231SOL    HW228593   6.174   5.966   1.894
 9232SOL     OW28594   0.959   5.089   1.770
 9232SOL    HW128595   0.871   5.060   1.732
 9232SOL    HW228596   0.951   5.098   1.870
 9233SOL     OW28597   1.313   6.558   5.880
 9233SOL    HW128598   1.264   6.634   5.922
 9233SOL    HW228599   1.412   6.574   5.887
 9234SOL     OW28600   2.727   4.141   5.870
 9234SOL    HW128601   2.688   4.062   5.823
 9234SOL    HW228602   2.679   4.155   5.957
 9235SOL     OW28603   2.219   1.762   2.891
 9235SOL    HW128604   2.181   1.715   2.811
 9235SOL    HW228605   2.161   1.743   2.971
 9236SOL     OW28606   1.424   3.343   5.630
 9236SOL    HW128607   1.482   3.362   5.550
 9236SOL    HW228608   1.430   3.418   5.695
 9237SOL     OW28609   6.395   5.277   2.895
 9237SOL    HW128610   6.380   5.273   2.797
 9237SOL    HW228611   6.457   5.352   2.917
 9238SOL     OW28612   1.673   2.604   4.624
 9238SOL    HW128613   1.738   2.542   4.668
 9238SOL    HW228614   1.624   2.555   4.552
 9239SOL     OW28615   0.918   4.820   5.899
 9239SOL    HW128616   0.912   4.720   5.903
 9239SOL    HW228617   0.859   4.860   5.969
 9240SOL     OW28618   4.064   1.744   3.532
 9240SOL    HW128619   4.031   1.838   3.545
 9240SOL    HW228620   4.119   1.740   3.449
 9241SOL     OW28621   5.685   6.456   0.139
 9241SOL    HW128622   5.623   6.526   0.104
 9241SOL    HW228623   5.780   6.482   0.118
 9242SOL     OW28624   1.789   2.366   0.843
 9242SOL    HW128625   1.793   2.300   0.918
 9242SOL    HW228626   1.862   2.434   0.854
 9243SOL     OW28627   1.461   0.154   0.010
 9243SOL    HW128628   1.507   0.095   6.962
 9243SOL    HW228629   1.513   0.239   0.021
 9244SOL     OW28630   2.646   6.245   6.397
 9244SOL    HW128631   2.683   6.327   6.440
 9244SOL    HW228632   2.579   6.271   6.328
 9245SOL     OW28633   1.232   5.065   2.928
 9245SOL    HW128634   1.248   5.126   2.850
 9245SOL    HW228635   1.315   5.058   2.983
 9246SOL     OW28636   4.876   6.424   6.539
 9246SOL    HW128637   4.959   6.436   6.594
 9246SOL    HW228638   4.894   6.357   6.467
 9247SOL     OW28639   3.760   6.404   2.904
 9247SOL    HW128640   3.702   6.429   2.981
 9247SOL    HW228641   3.746   6.308   2.881
 9248SOL     OW28642   2.457   0.731   6.769
 9248SOL    HW128643   2.492   0.806   6.714
 9248SOL    HW228644   2.517   0.717   6.848
 9249SOL     OW28645   2.463   6.945   0.114
 9249SOL    HW128646   2.474   6.847   0.099
 9249SOL    HW228647   2.383   6.978   0.063
 9250SOL     OW28648   0.491   3.131   3.366
 9250SOL    HW128649   0.477   3.218   3.320
 9250SOL    HW228650   0.407   3.076   3.361
 9251SOL     OW28651   3.426   1.872   1.379
 9251SOL    HW128652   3.342   1.898   1.427
 9251SOL    HW228653   3.478   1.954   1.354
 9252SOL     OW28654   5.848   1.287   4.617
 9252SOL    HW128655   5.940   1.276   4.579
 9252SOL    HW228656   5.833   1.218   4.688
 9253SOL     OW28657   1.670   5.720   4.767
 9253SOL    HW128658   1.698   5.703   4.862
 9253SOL    HW228659   1.738   5.778   4.722
 9254SOL     OW28660   0.365   5.293   2.433
 9254SOL    HW128661   0.294   5.331   2.374
 9254SOL    HW228662   0.420   5.367   2.471
 9255SOL     OW28663   6.699   4.174   0.839
 9255SOL    HW128664   6.618   4.218   0.880
 9255SOL    HW228665   6.780   4.200   0.890
 9256SOL     OW28666   2.828   6.670   0.877
 9256SOL    HW128667   2.838   6.580   0.835
 9256SOL    HW228668   2.788   6.733   0.810
 9257SOL     OW28669   5.882   5.819   4.750
 9257SOL    HW128670   5.963   5.778   4.791
 9257SOL    HW228671   5.800   5.788   4.799
 9258SOL     OW28672   4.123   5.459   1.749
 9258SOL    HW128673   4.092   5.381   1.803
 9258SOL    HW228674   4.117   5.542   1.805
 9259SOL     OW28675   0.625   2.354   6.401
 9259SOL    HW128676   0.635   2.431   6.463
 9259SOL    HW228677   0.650   2.269   6.448
 9260SOL     OW28678   4.907   3.976   4.721
 9260SOL    HW128679   4.848   3.936   4.651
 9260SOL    HW228680   4.932   3.905   4.788
 9261SOL     OW28681   1.964   2.271   1.813
 9261SOL    HW128682   1.899   2.196   1.796
 9261SOL    HW228683   2.039   2.237   1.869
 9262SOL     OW28684   6.523   6.708   6.083
 9262SOL    HW128685   6.612   6.663   6.073
 9262SOL    HW228686   6.457   6.643   6.122
 9263SOL     OW28687   2.167   4.764   2.995
 9263SOL    HW128688   2.167   4.832   2.921
 9263SOL    HW228689   2.152   4.811   3.082
 9264SOL     OW28690   5.773   3.795   6.393
 9264SOL    HW128691   5.815   3.705   6.405
 9264SOL    HW228692   5.679   3.793   6.427
 9265SOL     OW28693   4.962   0.835   1.418
 9265SOL    HW128694   4.993   0.887   1.498
 9265SOL    HW228695   4.868   0.860   1.397
 9266SOL     OW28696   1.825   4.075   0.471
 9266SOL    HW128697   1.807   3.979   0.496
 9266SOL    HW228698   1.741   4.128   0.479
 9267SOL     OW28699   0.748   1.136   4.026
 9267SOL    HW128700   0.739   1.042   4.058
 9267SOL    HW228701   0.664   1.163   3.978
 9268SOL     OW28702   0.409   1.009   1.669
 9268SOL    HW128703   0.417   0.956   1.753
 9268SOL    HW228704   0.485   0.985   1.608
 9269SOL     OW28705   4.426   1.068   0.326
 9269SOL    HW128706   4.394   1.101   0.237
 9269SOL    HW228707   4.352   1.019   0.372
 9270SOL     OW28708   2.864   0.829   6.311
 9270SOL    HW128709   2.925   0.859   6.384
 9270SOL    HW228710   2.784   0.888   6.308
 9271SOL     OW28711   1.255   4.573   5.657
 9271SOL    HW128712   1.228   4.656   5.607
 9271SOL    HW228713   1.332   4.529   5.610
 9272SOL     OW28714   6.401   6.313   5.980
 9272SOL    HW128715   6.379   6.374   5.903
 9272SOL    HW228716   6.402   6.219   5.948
 9273SOL     OW28717   6.038   3.383   3.711
 9273SOL    HW128718   6.011   3.477   3.733
 9273SOL    HW228719   6.000   3.321   3.779
 9274SOL     OW28720   0.681   3.431   0.992
 9274SOL    HW128721   0.742   3.434   0.913
 9274SOL    HW228722   0.669   3.336   1.021
 9275SOL     OW28723   5.605   0.890   0.865
 9275SOL    HW128724   5.657   0.971   0.893
 9275SOL    HW228725   5.647   0.808   0.904
 9276SOL     OW28726   2.651   4.994   6.906
 9276SOL    HW128727   2.640   4.949   6.817
 9276SOL    HW228728   2.717   5.068   6.897
 9277SOL     OW28729   4.832   5.043   2.208
 9277SOL    HW128730   4.854   4.952   2.241
 9277SOL    HW228731   4.748   5.040   2.154
 9278SOL     OW28732   0.290   0.072   5.906
 9278SOL    HW128733   0.226   0.025   5.846
 9278SOL    HW228734   0.305   0.166   5.872
 9279SOL     OW28735   3.044   6.495   1.807
 9279SOL    HW128736   3.126   6.551   1.813
 9279SOL    HW228737   3.012   6.493   1.712
 9280SOL     OW28738   1.276   5.496   2.781
 9280SOL    HW128739   1.316   5.544   2.858
 9280SOL    HW228740   1.325   5.520   2.697
 9281SOL     OW28741   1.553   5.096   0.688
 9281SOL    HW128742   1.495   5.065   0.613
 9281SOL    HW228743   1.515   5.063   0.775
 9282SOL     OW28744   2.829   6.476   4.768
 9282SOL    HW128745   2.767   6.472   4.690
 9282SOL    HW228746   2.836   6.570   4.801
 9283SOL     OW28747   4.381   6.363   1.061
 9283SOL    HW128748   4.471   6.333   1.092
 9283SOL    HW228749   4.312   6.297   1.092
 9284SOL     OW28750   4.032   4.942   6.708
 9284SOL    HW128751   4.012   4.860   6.763
 9284SOL    HW228752   4.040   4.916   6.612
 9285SOL     OW28753   0.358   6.291   3.317
 9285SOL    HW128754   0.299   6.223   3.273
 9285SOL    HW228755   0.439   6.306   3.261
 9286SOL     OW28756   4.581   0.071   1.898
 9286SOL    HW128757   4.632   0.017   1.964
 9286SOL    HW228758   4.606   0.042   1.805
 9287SOL     OW28759   4.520   3.872   6.018
 9287SOL    HW128760   4.616   3.889   5.999
 9287SOL    HW228761   4.493   3.784   5.978
 9288SOL     OW28762   3.406   1.795   2.267
 9288SOL    HW128763   3.433   1.721   2.205
 9288SOL    HW228764   3.452   1.879   2.240
 9289SOL     OW28765   4.869   6.502   1.017
 9289SOL    HW128766   4.792   6.528   0.959
 9289SOL    HW228767   4.866   6.403   1.033
 9290SOL     OW28768   6.181   1.093   3.610
 9290SOL    HW128769   6.229   1.012   3.644
 9290SOL    HW228770   6.208   1.110   3.515
 9291SOL     OW28771   0.570   3.788   5.659
 9291SOL    HW128772   0.604   3.880   5.638
 9291SOL    HW228773   0.597   3.763   5.752
 9292SOL     OW28774   0.300   1.425   6.600
 9292SOL    HW128775   0.247   1.345   6.627
 9292SOL    HW228776   0.379   1.434   6.661
 9293SOL     OW28777   4.727   1.732   4.794
 9293SOL    HW128778   4.710   1.652   4.737
 9293SOL    HW228779   4.641   1.777   4.816
 9294SOL     OW28780   4.552   7.008   6.508
 9294SOL    HW128781   4.562   0.021   6.602
 9294SOL    HW228782   4.456   6.992   6.488
 9295SOL     OW28783   5.961   1.212   4.251
 9295SOL    HW128784   5.997   1.301   4.278
 9295SOL    HW228785   6.006   1.182   4.167
 9296SOL     OW28786   2.206   4.726   5.785
 9296SOL    HW128787   2.259   4.749   5.704
 9296SOL    HW228788   2.173   4.810   5.828
 9297SOL     OW28789   6.724   5.145   2.350
 9297SOL    HW128790   6.689   5.106   2.434
 9297SOL    HW228791   6.736   5.244   2.361
 9298SOL     OW28792   1.341   3.835   6.131
 9298SOL    HW128793   1.244   3.830   6.107
 9298SOL    HW228794   1.372   3.746   6.165
 9299SOL     OW28795   2.756   2.236   4.770
 9299SOL    HW128796   2.748   2.192   4.860
 9299SOL    HW228797   2.711   2.326   4.773
 9300SOL     OW28798   2.147   6.400   4.382
 9300SOL    HW128799   2.181   6.307   4.367
 9300SOL    HW228800   2.217   6.466   4.357
 9301SOL     OW28801   0.700   4.543   4.349
 9301SOL    HW128802   0.761   4.590   4.413
 9301SOL    HW228803   0.709   4.584   4.258
 9302SOL     OW28804   1.976   4.848   4.312
 9302SOL    HW128805   2.042   4.898   4.369
 9302SOL    HW228806   2.026   4.786   4.251
 9303SOL     OW28807   2.282   4.463   0.037
 9303SOL    HW128808   2.309   4.440   6.962
 9303SOL    HW228809   2.200   4.411   0.061
 9304SOL     OW28810   5.277   5.260   6.443
 9304SOL    HW128811   5.338   5.284   6.519
 9304SOL    HW228812   5.234   5.342   6.407
 9305SOL     OW28813   1.863   1.794   1.434
 9305SOL    HW128814   1.856   1.802   1.335
 9305SOL    HW228815   1.813   1.869   1.477
 9306SOL     OW28816   0.013   6.481   4.793
 9306SOL    HW128817   0.027   6.407   4.859
 9306SOL    HW228818   0.072   6.558   4.817
 9307SOL     OW28819   1.606   3.813   1.151
 9307SOL    HW128820   1.664   3.883   1.111
 9307SOL    HW228821   1.550   3.854   1.224
 9308SOL     OW28822   2.174   3.193   1.820
 9308SOL    HW128823   2.227   3.273   1.848
 9308SOL    HW228824   2.202   3.113   1.874
 9309SOL     OW28825   5.017   5.463   6.547
 9309SOL    HW128826   5.049   5.475   6.453
 9309SOL    HW228827   5.094   5.434   6.605
 9310SOL     OW28828   5.834   5.865   5.895
 9310SOL    HW128829   5.800   5.788   5.948
 9310SOL    HW228830   5.910   5.835   5.838
 9311SOL     OW28831   4.867   4.140   0.615
 9311SOL    HW128832   4.939   4.122   0.682
 9311SOL    HW228833   4.877   4.079   0.537
 9312SOL     OW28834   0.337   2.812   3.486
 9312SOL    HW128835   0.413   2.810   3.552
 9312SOL    HW228836   0.370   2.784   3.396
 9313SOL     OW28837   0.760   0.620   2.670
 9313SOL    HW128838   0.853   0.587   2.687
 9313SOL    HW228839   0.729   0.674   2.748
 9314SOL     OW28840   5.193   5.058   1.051
 9314SOL    HW128841   5.258   4.983   1.063
 9314SOL    HW228842   5.162   5.090   1.141
 9315SOL     OW28843   5.637   6.248   6.311
 9315SOL    HW128844   5.689   6.330   6.336
 9315SOL    HW228845   5.555   6.275   6.260
 9316SOL     OW28846   4.909   0.083   0.445
 9316SOL    HW128847   4.954   0.166   0.479
 9316SOL    HW228848   4.927   0.074   0.347
 9317SOL     OW28849   2.906   5.916   3.419
 9317SOL    HW128850   2.892   5.860   3.501
 9317SOL    HW228851   2.823   5.913   3.363
 9318SOL     OW28852   3.736   6.924   1.913
 9318SOL    HW128853   3.645   6.885   1.900
 9318SOL    HW228854   3.728   0.002   1.938
 9319SOL     OW28855   4.598   1.662   6.976
 9319SOL    HW128856   4.544   1.603   0.019
 9319SOL    HW228857   4.641   1.735   0.011
 9320SOL     OW28858   6.805   6.686   6.868
 9320SOL    HW128859   6.900   6.678   6.898
 9320SOL    HW228860   6.773   6.780   6.884
 9321SOL     OW28861   0.718   3.544   4.244
 9321SOL    HW128862   0.683   3.451   4.233
 9321SOL    HW228863   0.740   3.561   4.340
 9322SOL     OW28864   5.109   3.795   0.033
 9322SOL    HW128865   5.053   3.804   6.969
 9322SOL    HW228866   5.196   3.750   0.009
 9323SOL     OW28867   0.746   2.401   5.943
 9323SOL    HW128868   0.749   2.446   6.032
 9323SOL    HW228869   0.830   2.348   5.930
 9324SOL     OW28870   0.271   4.472   1.592
 9324SOL    HW128871   0.263   4.479   1.493
 9324SOL    HW228872   0.341   4.535   1.625
 9325SOL     OW28873   0.721   4.261   3.146
 9325SOL    HW128874   0.663   4.188   3.183
 9325SOL    HW228875   0.807   4.263   3.197
 9326SOL     OW28876   4.611   4.202   0.763
 9326SOL    HW128877   4.526   4.151   0.751
 9326SOL    HW228878   4.685   4.157   0.714
 9327SOL     OW28879   3.030   1.376   3.440
 9327SOL    HW128880   2.989   1.308   3.379
 9327SOL    HW228881   3.071   1.329   3.518
 9328SOL     OW28882   1.917   0.701   3.502
 9328SOL    HW128883   2.009   0.667   3.523
 9328SOL    HW228884   1.852   0.625   3.504
 9329SOL     OW28885   0.775   5.455   6.704
 9329SOL    HW128886   0.855   5.438   6.647
 9329SOL    HW228887   0.781   5.546   6.744
 9330SOL     OW28888   0.447   6.739   0.330
 9330SOL    HW128889   0.359   6.755   0.375
 9330SOL    HW228890   0.456   6.642   0.308
 9331SOL     OW28891   2.185   3.880   3.938
 9331SOL    HW128892   2.242   3.950   3.894
 9331SOL    HW228893   2.141   3.825   3.868
 9332SOL     OW28894   6.279   5.210   0.691
 9332SOL    HW128895   6.368   5.171   0.715
 9332SOL    HW228896   6.277   5.230   0.593
 9333SOL     OW28897   3.160   3.932   1.472
 9333SOL    HW128898   3.077   3.896   1.515
 9333SOL    HW228899   3.235   3.929   1.537
 9334SOL     OW28900   6.606   5.781   6.232
 9334SOL    HW128901   6.578   5.698   6.183
 9334SOL    HW228902   6.538   5.803   6.302
 9335SOL     OW28903   0.563   3.811   1.570
 9335SOL    HW128904   0.481   3.811   1.628
 9335SOL    HW228905   0.537   3.839   1.477
 9336SOL     OW28906   5.221   6.985   6.483
 9336SOL    HW128907   5.173   0.028   6.420
 9336SOL    HW228908   5.193   6.891   6.465
 9337SOL     OW28909   2.480   1.187   5.542
 9337SOL    HW128910   2.533   1.110   5.505
 9337SOL    HW228911   2.407   1.211   5.478
 9338SOL     OW28912   5.406   6.300   0.327
 9338SOL    HW128913   5.350   6.372   0.286
 9338SOL    HW228914   5.423   6.228   0.259
 9339SOL     OW28915   0.218   4.218   5.288
 9339SOL    HW128916   0.230   4.123   5.261
 9339SOL    HW228917   0.122   4.244   5.280
 9340SOL     OW28918   2.538   4.914   1.880
 9340SOL    HW128919   2.623   4.955   1.911
 9340SOL    HW228920   2.471   4.915   1.954
 9341SOL     OW28921   5.723   5.205   6.560
 9341SOL    HW128922   5.742   5.135   6.491
 9341SOL    HW228923   5.783   5.284   6.546
 9342SOL     OW28924   3.427   0.227   4.726
 9342SOL    HW128925   3.511   0.278   4.744
 9342SOL    HW228926   3.412   0.221   4.627
 9343SOL     OW28927   4.684   3.554   0.248
 9343SOL    HW128928   4.684   3.651   0.274
 9343SOL    HW228929   4.599   3.511   0.277
 9344SOL     OW28930   5.432   0.860   5.352
 9344SOL    HW128931   5.420   0.952   5.388
 9344SOL    HW228932   5.529   0.835   5.355
 9345SOL     OW28933   0.485   4.613   0.424
 9345SOL    HW128934   0.560   4.555   0.455
 9345SOL    HW228935   0.398   4.570   0.445
 9346SOL     OW28936   5.272   0.076   1.986
 9346SOL    HW128937   5.354   0.066   2.042
 9346SOL    HW228938   5.294   0.061   1.890
 9347SOL     OW28939   3.937   6.374   0.944
 9347SOL    HW128940   3.866   6.304   0.948
 9347SOL    HW228941   3.951   6.403   0.850
 9348SOL     OW28942   2.149   5.529   1.540
 9348SOL    HW128943   2.108   5.474   1.467
 9348SOL    HW228944   2.241   5.558   1.511
 9349SOL     OW28945   6.870   6.480   1.517
 9349SOL    HW128946   6.864   6.571   1.476
 9349SOL    HW228947   6.780   6.437   1.515
 9350SOL     OW28948   6.612   0.521   6.989
 9350SOL    HW128949   6.548   0.553   0.040
 9350SOL    HW228950   6.614   0.421   6.989
 9351SOL     OW28951   4.295   2.978   5.747
 9351SOL    HW128952   4.383   2.970   5.700
 9351SOL    HW228953   4.242   2.894   5.734
 9352SOL     OW28954   3.088   2.622   6.532
 9352SOL    HW128955   3.110   2.593   6.439
 9352SOL    HW228956   3.002   2.673   6.531
 9353SOL     OW28957   0.501   3.289   1.638
 9353SOL    HW128958   0.589   3.293   1.686
 9353SOL    HW228959   0.465   3.381   1.627
 9354SOL     OW28960   5.371   1.611   1.862
 9354SOL    HW128961   5.394   1.544   1.932
 9354SOL    HW228962   5.432   1.690   1.870
 9355SOL     OW28963   6.297   1.340   2.268
 9355SOL    HW128964   6.353   1.258   2.259
 9355SOL    HW228965   6.336   1.414   2.213
 9356SOL     OW28966   5.245   3.386   2.579
 9356SOL    HW128967   5.175   3.419   2.643
 9356SOL    HW228968   5.209   3.392   2.485
 9357SOL     OW28969   3.266   3.843   0.750
 9357SOL    HW128970   3.341   3.899   0.783
 9357SOL    HW228971   3.298   3.749   0.735
 9358SOL     OW28972   5.000   4.210   2.035
 9358SOL    HW128973   4.910   4.166   2.027
 9358SOL    HW228974   4.997   4.300   1.990
 9359SOL     OW28975   5.559   4.543   6.148
 9359SOL    HW128976   5.504   4.489   6.212
 9359SOL    HW228977   5.509   4.553   6.061
 9360SOL     OW28978   1.209   0.548   5.064
 9360SOL    HW128979   1.282   0.480   5.063
 9360SOL    HW228980   1.125   0.508   5.027
 9361SOL     OW28981   2.118   1.467   2.208
 9361SOL    HW128982   2.179   1.544   2.192
 9361SOL    HW228983   2.150   1.415   2.287
 9362SOL     OW28984   1.347   1.615   2.919
 9362SOL    HW128985   1.384   1.541   2.975
 9362SOL    HW228986   1.344   1.699   2.972
 9363SOL     OW28987   1.978   6.597   1.705
 9363SOL    HW128988   2.033   6.582   1.788
 9363SOL    HW228989   1.882   6.577   1.725
 9364SOL     OW28990   5.673   5.007   1.210
 9364SOL    HW128991   5.599   5.033   1.272
 9364SOL    HW228992   5.740   5.081   1.207
 9365SOL     OW28993   2.179   1.474   5.306
 9365SOL    HW128994   2.123   1.405   5.353
 9365SOL    HW228995   2.125   1.514   5.232
 9366SOL     OW28996   3.082   1.252   1.839
 9366SOL    HW128997   3.061   1.248   1.936
 9366SOL    HW228998   3.179   1.233   1.825
 9367SOL     OW28999   6.555   6.398   4.126
 9367SOL    HW129000   6.495   6.449   4.064
 9367SOL    HW229001   6.517   6.397   4.218
 9368SOL     OW29002   4.733   2.843   1.379
 9368SOL    HW129003   4.722   2.747   1.354
 9368SOL    HW229004   4.680   2.862   1.461
 9369SOL     OW29005   6.488   2.096   5.530
 9369SOL    HW129006   6.496   2.174   5.468
 9369SOL    HW229007   6.489   2.011   5.476
 9370SOL     OW29008   5.946   6.920   3.431
 9370SOL    HW129009   5.953   6.995   3.365
 9370SOL    HW229010   6.037   6.893   3.461
 9371SOL     OW29011   1.089   6.758   0.237
 9371SOL    HW129012   1.004   6.771   0.288
 9371SOL    HW229013   1.140   6.844   0.234
 9372SOL     OW29014   6.243   6.446   6.619
 9372SOL    HW129015   6.237   6.346   6.621
 9372SOL    HW229016   6.152   6.485   6.613
 9373SOL     OW29017   4.398   2.330   4.211
 9373SOL    HW129018   4.428   2.403   4.149
 9373SOL    HW229019   4.393   2.366   4.304
 9374SOL     OW29020   5.331   4.352   0.467
 9374SOL    HW129021   5.241   4.332   0.430
 9374SOL    HW229022   5.324   4.364   0.566
 9375SOL     OW29023   0.897   1.475   3.942
 9375SOL    HW129024   0.805   1.451   3.973
 9375SOL    HW229025   0.893   1.555   3.882
 9376SOL     OW29026   1.824   2.981   2.355
 9376SOL    HW129027   1.780   3.063   2.393
 9376SOL    HW229028   1.917   3.004   2.326
 9377SOL     OW29029   5.991   4.962   2.763
 9377SOL    HW129030   6.022   5.035   2.824
 9377SOL    HW229031   6.068   4.931   2.707
 9378SOL     OW29032   3.791   6.144   0.926
 9378SOL    HW129033   3.732   6.174   0.851
 9378SOL    HW229034   3.735   6.101   0.997
 9379SOL     OW29035   5.074   4.829   5.560
 9379SOL    HW129036   5.127   4.853   5.479
 9379SOL    HW229037   5.019   4.748   5.542
 9380SOL     OW29038   6.336   6.081   6.340
 9380SOL    HW129039   6.266   6.054   6.273
 9380SOL    HW229040   6.295   6.142   6.408
 9381SOL     OW29041   2.442   0.898   0.122
 9381SOL    HW129042   2.390   0.936   0.045
 9381SOL    HW229043   2.487   0.813   0.093
 9382SOL     OW29044   5.720   2.107   2.545
 9382SOL    HW129045   5.661   2.150   2.612
 9382SOL    HW229046   5.815   2.111   2.577
 9383SOL     OW29047   5.621   5.839   5.591
 9383SOL    HW129048   5.633   5.925   5.542
 9383SOL    HW229049   5.542   5.846   5.652
 9384SOL     OW29050   4.307   6.250   2.176
 9384SOL    HW129051   4.266   6.338   2.152
 9384SOL    HW229052   4.246   6.176   2.146
 9385SOL     OW29053   3.942   1.150   3.967
 9385SOL    HW129054   4.034   1.178   3.941
 9385SOL    HW229055   3.896   1.226   4.014
 9386SOL     OW29056   4.134   0.202   4.632
 9386SOL    HW129057   4.092   0.111   4.640
 9386SOL    HW229058   4.177   0.210   4.542
 9387SOL     OW29059   3.882   6.707   0.478
 9387SOL    HW129060   3.815   6.641   0.513
 9387SOL    HW229061   3.956   6.657   0.432
 9388SOL     OW29062   6.868   6.868   2.702
 9388SOL    HW129063   6.814   6.826   2.630
 9388SOL    HW229064   6.919   6.946   2.665
 9389SOL     OW29065   3.181   1.316   0.040
 9389SOL    HW129066   3.262   1.371   0.021
 9389SOL    HW229067   3.200   1.254   0.116
 9390SOL     OW29068   2.842   7.000   1.777
 9390SOL    HW129069   2.885   7.002   1.686
 9390SOL    HW229070   2.858   6.911   1.819
 9391SOL     OW29071   0.571   1.012   5.488
 9391SOL    HW129072   0.665   0.985   5.506
 9391SOL    HW229073   0.511   0.933   5.502
 9392SOL     OW29074   1.604   6.305   3.968
 9392SOL    HW129075   1.678   6.357   4.012
 9392SOL    HW229076   1.537   6.277   4.037
 9393SOL     OW29077   3.794   2.398   5.517
 9393SOL    HW129078   3.765   2.336   5.444
 9393SOL    HW229079   3.875   2.448   5.489
 9394SOL     OW29080   5.803   1.939   2.209
 9394SOL    HW129081   5.757   2.021   2.243
 9394SOL    HW229082   5.838   1.886   2.286
 9395SOL     OW29083   1.629   2.308   6.723
 9395SOL    HW129084   1.669   2.362   6.797
 9395SOL    HW229085   1.599   2.370   6.650
 9396SOL     OW29086   6.238   0.208   6.746
 9396SOL    HW129087   6.206   0.289   6.698
 9396SOL    HW229088   6.301   0.157   6.687
 9397SOL     OW29089   2.667   1.119   0.893
 9397SOL    HW129090   2.637   1.208   0.927
 9397SOL    HW229091   2.590   1.073   0.849
 9398SOL     OW29092   1.952   1.682   0.073
 9398SOL    HW129093   1.893   1.758   0.045
 9398SOL    HW229094   1.937   1.604   0.011
 9399SOL     OW29095   6.693   0.887   5.306
 9399SOL    HW129096   6.754   0.956   5.266
 9399SOL    HW229097   6.748   0.812   5.342
 9400SOL     OW29098   4.340   2.047   3.464
 9400SOL    HW129099   4.257   2.002   3.433
 9400SOL    HW229100   4.332   2.068   3.562
 9401SOL     OW29101   3.751   0.183   3.077
 9401SOL    HW129102   3.786   0.219   2.990
 9401SOL    HW229103   3.653   0.163   3.067
 9402SOL     OW29104   2.192   5.260   0.033
 9402SOL    HW129105   2.161   5.295   6.963
 9402SOL    HW229106   2.148   5.172   0.051
 9403SOL     OW29107   5.728   1.578   4.568
 9403SOL    HW129108   5.679   1.596   4.653
 9403SOL    HW229109   5.775   1.490   4.574
 9404SOL     OW29110   0.651   4.029   5.594
 9404SOL    HW129111   0.742   4.063   5.570
 9404SOL    HW229112   0.585   4.103   5.591
 9405SOL     OW29113   6.421   0.050   0.740
 9405SOL    HW129114   6.373   0.105   0.672
 9405SOL    HW229115   6.359   6.999   0.776
 9406SOL     OW29116   7.005   1.082   5.963
 9406SOL    HW129117   0.050   1.037   5.901
 9406SOL    HW229118   6.932   1.125   5.911
 9407SOL     OW29119   3.406   5.740   2.807
 9407SOL    HW129120   3.473   5.706   2.741
 9407SOL    HW229121   3.449   5.753   2.896
 9408SOL     OW29122   3.710   1.773   6.355
 9408SOL    HW129123   3.705   1.678   6.385
 9408SOL    HW229124   3.685   1.833   6.431
 9409SOL     OW29125   5.548   3.676   3.254
 9409SOL    HW129126   5.565   3.603   3.321
 9409SOL    HW229127   5.469   3.730   3.284
 9410SOL     OW29128   4.736   6.622   2.476
 9410SOL    HW129129   4.647   6.668   2.471
 9410SOL    HW229130   4.803   6.682   2.518
 9411SOL     OW29131   4.651   5.770   1.095
 9411SOL    HW129132   4.619   5.678   1.071
 9411SOL    HW229133   4.579   5.836   1.076
 9412SOL     OW29134   6.452   3.175   1.489
 9412SOL    HW129135   6.414   3.106   1.428
 9412SOL    HW229136   6.534   3.139   1.534
 9413SOL     OW29137   3.556   5.761   5.077
 9413SOL    HW129138   3.555   5.724   5.170
 9413SOL    HW229139   3.519   5.854   5.078
 9414SOL     OW29140   2.574   1.546   2.173
 9414SOL    HW129141   2.557   1.488   2.093
 9414SOL    HW229142   2.651   1.606   2.154
 9415SOL     OW29143   3.139   0.974   1.998
 9415SOL    HW129144   3.143   0.948   1.902
 9415SOL    HW229145   3.232   0.973   2.036
 9416SOL     OW29146   0.711   2.123   1.317
 9416SOL    HW129147   0.661   2.210   1.323
 9416SOL    HW229148   0.728   2.088   1.408
 9417SOL     OW29149   2.306   6.650   4.594
 9417SOL    HW129150   2.294   6.674   4.498
 9417SOL    HW229151   2.223   6.673   4.645
 9418SOL     OW29152   3.763   4.412   1.061
 9418SOL    HW129153   3.692   4.479   1.082
 9418SOL    HW229154   3.726   4.320   1.070
 9419SOL     OW29155   3.874   5.981   5.154
 9419SOL    HW129156   3.906   5.890   5.130
 9419SOL    HW229157   3.888   5.997   5.252
 9420SOL     OW29158   0.805   1.450   4.509
 9420SOL    HW129159   0.901   1.474   4.502
 9420SOL    HW229160   0.751   1.505   4.445
 9421SOL     OW29161   1.875   4.829   4.560
 9421SOL    HW129162   1.797   4.768   4.577
 9421SOL    HW229163   1.906   4.817   4.465
 9422SOL     OW29164   3.965   1.724   1.793
 9422SOL    HW129165   3.957   1.627   1.817
 9422SOL    HW229166   3.874   1.763   1.778
 9423SOL     OW29167   4.641   0.742   4.550
 9423SOL    HW129168   4.650   0.660   4.606
 9423SOL    HW229169   4.626   0.822   4.609
 9424SOL     OW29170   3.023   6.260   4.420
 9424SOL    HW129171   2.937   6.215   4.442
 9424SOL    HW229172   3.099   6.202   4.449
 9425SOL     OW29173   1.373   4.331   3.880
 9425SOL    HW129174   1.372   4.237   3.914
 9425SOL    HW229175   1.465   4.354   3.848
 9426SOL     OW29176   3.286   6.427   0.198
 9426SOL    HW129177   3.292   6.448   0.100
 9426SOL    HW229178   3.233   6.344   0.211
 9427SOL     OW29179   3.039   4.824   4.138
 9427SOL    HW129180   2.959   4.777   4.175
 9427SOL    HW229181   3.100   4.850   4.212
 9428SOL     OW29182   4.399   6.161   2.539
 9428SOL    HW129183   4.454   6.159   2.623
 9428SOL    HW229184   4.415   6.078   2.486
 9429SOL     OW29185   0.198   3.832   2.596
 9429SOL    HW129186   0.105   3.804   2.620
 9429SOL    HW229187   0.252   3.843   2.680
 9430SOL     OW29188   6.319   6.900   2.261
 9430SOL    HW129189   6.276   6.866   2.177
 9430SOL    HW229190   6.296   6.997   2.273
 9431SOL     OW29191   6.380   4.655   2.185
 9431SOL    HW129192   6.385   4.601   2.101
 9431SOL    HW229193   6.440   4.614   2.254
 9432SOL     OW29194   6.615   6.933   4.402
 9432SOL    HW129195   6.580   6.868   4.470
 9432SOL    HW229196   6.713   6.946   4.416
 9433SOL     OW29197   2.542   4.600   5.113
 9433SOL    HW129198   2.508   4.583   5.205
 9433SOL    HW229199   2.637   4.566   5.106
 9434SOL     OW29200   5.627   5.230   3.015
 9434SOL    HW129201   5.554   5.296   2.999
 9434SOL    HW229202   5.714   5.269   2.986
 9435SOL     OW29203   1.416   0.950   4.502
 9435SOL    HW129204   1.470   0.867   4.490
 9435SOL    HW229205   1.329   0.941   4.453
 9436SOL     OW29206   1.781   2.564   6.423
 9436SOL    HW129207   1.765   2.489   6.359
 9436SOL    HW229208   1.846   2.536   6.493
 9437SOL     OW29209   0.602   5.278   4.035
 9437SOL    HW129210   0.602   5.346   4.108
 9437SOL    HW229211   0.669   5.304   3.966
 9438SOL     OW29212   1.403   6.343   2.270
 9438SOL    HW129213   1.459   6.408   2.218
 9438SOL    HW229214   1.369   6.387   2.353
 9439SOL     OW29215   0.697   2.719   1.643
 9439SOL    HW129216   0.698   2.732   1.742
 9439SOL    HW229217   0.747   2.794   1.599
 9440SOL     OW29218   4.655   6.031   5.507
 9440SOL    HW129219   4.564   6.007   5.541
 9440SOL    HW229220   4.647   6.065   5.413
 9441SOL     OW29221   1.600   4.674   4.709
 9441SOL    HW129222   1.587   4.772   4.717
 9441SOL    HW229223   1.567   4.643   4.620
 9442SOL     OW29224   0.687   3.479   1.442
 9442SOL    HW129225   0.730   3.539   1.509
 9442SOL    HW229226   0.727   3.388   1.449
 9443SOL     OW29227   1.740   3.285   1.480
 9443SOL    HW129228   1.658   3.271   1.535
 9443SOL    HW229229   1.808   3.214   1.502
 9444SOL     OW29230   0.038   3.514   6.113
 9444SOL    HW129231   0.076   3.455   6.183
 9444SOL    HW229232   0.077   3.606   6.121
 9445SOL     OW29233   6.343   3.655   1.188
 9445SOL    HW129234   6.277   3.706   1.242
 9445SOL    HW229235   6.435   3.670   1.225
 9446SOL     OW29236   5.846   5.207   1.272
 9446SOL    HW129237   5.859   5.199   1.371
 9446SOL    HW229238   5.905   5.279   1.237
 9447SOL     OW29239   6.253   2.786   1.683
 9447SOL    HW129240   6.292   2.730   1.756
 9447SOL    HW229241   6.263   2.883   1.707
 9448SOL     OW29242   6.362   6.288   0.450
 9448SOL    HW129243   6.421   6.235   0.389
 9448SOL    HW229244   6.416   6.360   0.495
 9449SOL     OW29245   6.878   5.497   5.320
 9449SOL    HW129246   6.904   5.498   5.224
 9449SOL    HW229247   6.835   5.410   5.343
 9450SOL     OW29248   2.692   4.935   4.374
 9450SOL    HW129249   2.761   4.878   4.330
 9450SOL    HW229250   2.714   5.032   4.360
 9451SOL     OW29251   4.088   4.350   6.041
 9451SOL    HW129252   4.024   4.347   6.118
 9451SOL    HW229253   4.040   4.383   5.959
 9452SOL     OW29254   2.996   4.245   1.346
 9452SOL    HW129255   2.965   4.194   1.266
 9452SOL    HW229256   3.028   4.335   1.319
 9453SOL     OW29257   3.373   4.896   2.142
 9453SOL    HW129258   3.294   4.912   2.083
 9453SOL    HW229259   3.447   4.854   2.089
 9454SOL     OW29260   2.526   2.592   5.039
 9454SOL    HW129261   2.537   2.644   5.124
 9454SOL    HW229262   2.445   2.533   5.047
 9455SOL     OW29263   3.466   1.722   2.532
 9455SOL    HW129264   3.438   1.766   2.447
 9455SOL    HW229265   3.481   1.624   2.517
 9456SOL     OW29266   1.687   3.004   1.083
 9456SOL    HW129267   1.690   3.100   1.055
 9456SOL    HW229268   1.598   2.964   1.058
 9457SOL     OW29269   0.185   3.308   0.586
 9457SOL    HW129270   0.150   3.390   0.541
 9457SOL    HW229271   0.271   3.330   0.632
 9458SOL     OW29272   0.278   5.965   4.724
 9458SOL    HW129273   0.230   6.028   4.663
 9458SOL    HW229274   0.334   5.903   4.669
 9459SOL     OW29275   4.615   6.034   1.755
 9459SOL    HW129276   4.668   6.117   1.739
 9459SOL    HW229277   4.606   6.019   1.854
 9460SOL     OW29278   0.468   2.227   5.352
 9460SOL    HW129279   0.390   2.288   5.365
 9460SOL    HW229280   0.542   2.256   5.413
 9461SOL     OW29281   1.522   0.367   3.427
 9461SOL    HW129282   1.455   0.312   3.378
 9461SOL    HW229283   1.510   0.355   3.525
 9462SOL     OW29284   0.571   3.258   2.810
 9462SOL    HW129285   0.623   3.260   2.895
 9462SOL    HW229286   0.631   3.281   2.734
 9463SOL     OW29287   5.262   1.485   0.566
 9463SOL    HW129288   5.276   1.418   0.493
 9463SOL    HW229289   5.166   1.484   0.594
 9464SOL     OW29290   4.812   0.196   6.159
 9464SOL    HW129291   4.759   0.206   6.243
 9464SOL    HW229292   4.873   0.117   6.167
 9465SOL     OW29293   5.766   0.642   4.627
 9465SOL    HW129294   5.710   0.618   4.706
 9465SOL    HW229295   5.706   0.668   4.551
 9466SOL     OW29296   2.690   2.268   6.823
 9466SOL    HW129297   2.651   2.226   6.906
 9466SOL    HW229298   2.753   2.341   6.850
 9467SOL     OW29299   2.006   3.434   2.037
 9467SOL    HW129300   2.067   3.463   1.963
 9467SOL    HW229301   2.003   3.505   2.108
 9468SOL     OW29302   6.874   2.518   5.858
 9468SOL    HW129303   6.797   2.526   5.795
 9468SOL    HW229304   6.864   2.435   5.912
 9469SOL     OW29305   6.286   4.189   2.167
 9469SOL    HW129306   6.232   4.265   2.134
 9469SOL    HW229307   6.249   4.156   2.254
 9470SOL     OW29308   5.076   4.054   1.116
 9470SOL    HW129309   5.108   3.989   1.047
 9470SOL    HW229310   5.082   4.012   1.206
 9471SOL     OW29311   6.608   2.218   6.259
 9471SOL    HW129312   6.566   2.149   6.200
 9471SOL    HW229313   6.588   2.310   6.223
 9472SOL     OW29314   6.880   3.536   4.532
 9472SOL    HW129315   6.951   3.597   4.565
 9472SOL    HW229316   6.790   3.572   4.558
 9473SOL     OW29317   3.674   5.331   4.872
 9473SOL    HW129318   3.589   5.277   4.867
 9473SOL    HW229319   3.707   5.349   4.780
 9474SOL     OW29320   4.060   5.397   2.465
 9474SOL    HW129321   4.051   5.346   2.380
 9474SOL    HW229322   3.974   5.392   2.516
 9475SOL     OW29323   1.451   3.673   1.405
 9475SOL    HW129324   1.448   3.772   1.419
 9475SOL    HW229325   1.540   3.638   1.436
 9476SOL     OW29326   3.660   3.581   5.539
 9476SOL    HW129327   3.717   3.520   5.594
 9476SOL    HW229328   3.719   3.641   5.485
 9477SOL     OW29329   1.110   3.247   0.934
 9477SOL    HW129330   1.115   3.177   1.006
 9477SOL    HW229331   1.194   3.302   0.935
 9478SOL     OW29332   5.224   4.904   5.337
 9478SOL    HW129333   5.303   4.960   5.313
 9478SOL    HW229334   5.207   4.836   5.265
 9479SOL     OW29335   6.863   6.032   5.692
 9479SOL    HW129336   6.887   5.937   5.676
 9479SOL    HW229337   6.908   6.064   5.776
 9480SOL     OW29338   6.254   4.872   0.269
 9480SOL    HW129339   6.161   4.861   0.235
 9480SOL    HW229340   6.313   4.904   0.195
 9481SOL     OW29341   6.829   3.400   2.077
 9481SOL    HW129342   6.777   3.333   2.130
 9481SOL    HW229343   6.875   3.463   2.139
 9482SOL     OW29344   3.800   0.460   2.679
 9482SOL    HW129345   3.835   0.392   2.744
 9482SOL    HW229346   3.876   0.499   2.628
 9483SOL     OW29347   1.573   1.810   6.778
 9483SOL    HW129348   1.508   1.757   6.723
 9483SOL    HW229349   1.587   1.899   6.736
 9484SOL     OW29350   6.444   1.279   2.866
 9484SOL    HW129351   6.541   1.263   2.881
 9484SOL    HW229352   6.416   1.363   2.912
 9485SOL     OW29353   1.256   0.490   3.323
 9485SOL    HW129354   1.314   0.468   3.245
 9485SOL    HW229355   1.199   0.570   3.302
 9486SOL     OW29356   3.237   6.127   1.851
 9486SOL    HW129357   3.271   6.048   1.799
 9486SOL    HW229358   3.287   6.134   1.937
 9487SOL     OW29359   3.056   3.192   3.729
 9487SOL    HW129360   3.015   3.120   3.673
 9487SOL    HW229361   3.145   3.162   3.763
 9488SOL     OW29362   1.429   0.269   1.128
 9488SOL    HW129363   1.330   0.270   1.120
 9488SOL    HW229364   1.461   0.174   1.135
 9489SOL     OW29365   3.691   3.920   0.424
 9489SOL    HW129366   3.746   3.902   0.343
 9489SOL    HW229367   3.718   3.857   0.497
 9490SOL     OW29368   5.242   1.042   0.552
 9490SOL    HW129369   5.254   1.133   0.512
 9490SOL    HW229370   5.200   1.050   0.642
 9491SOL     OW29371   6.173   5.207   6.474
 9491SOL    HW129372   6.086   5.193   6.428
 9491SOL    HW229373   6.216   5.119   6.493
 9492SOL     OW29374   2.983   3.876   2.035
 9492SOL    HW129375   2.997   3.937   1.957
 9492SOL    HW229376   3.051   3.896   2.106
 9493SOL     OW29377   5.094   6.008   3.303
 9493SOL    HW129378   5.118   5.991   3.207
 9493SOL    HW229379   5.167   6.061   3.346
 9494SOL     OW29380   4.188   3.342   5.335
 9494SOL    HW129381   4.271   3.397   5.324
 9494SOL    HW229382   4.212   3.245   5.329
 9495SOL     OW29383   5.749   2.684   5.446
 9495SOL    HW129384   5.829   2.702   5.390
 9495SOL    HW229385   5.676   2.645   5.389
 9496SOL     OW29386   5.629   3.983   0.335
 9496SOL    HW129387   5.634   4.078   0.303
 9496SOL    HW229388   5.720   3.942   0.329
 9497SOL     OW29389   0.222   6.257   5.956
 9497SOL    HW129390   0.290   6.197   5.915
 9497SOL    HW229391   0.264   6.311   6.029
 9498SOL     OW29392   4.440   0.437   5.439
 9498SOL    HW129393   4.536   0.460   5.454
 9498SOL    HW229394   4.384   0.477   5.512
 9499SOL     OW29395   4.336   4.364   5.915
 9499SOL    HW129396   4.254   4.374   5.971
 9499SOL    HW229397   4.331   4.279   5.864
 9500SOL     OW29398   5.206   5.850   1.930
 9500SOL    HW129399   5.239   5.876   2.021
 9500SOL    HW229400   5.147   5.922   1.894
 9501SOL     OW29401   3.158   1.875   4.581
 9501SOL    HW129402   3.068   1.871   4.624
 9501SOL    HW229403   3.221   1.927   4.640
 9502SOL     OW29404   5.610   3.438   5.463
 9502SOL    HW129405   5.560   3.353   5.444
 9502SOL    HW229406   5.613   3.454   5.562
 9503SOL     OW29407   1.619   6.328   0.871
 9503SOL    HW129408   1.552   6.261   0.903
 9503SOL    HW229409   1.644   6.388   0.946
 9504SOL     OW29410   0.734   2.976   6.528
 9504SOL    HW129411   0.686   3.054   6.488
 9504SOL    HW229412   0.818   2.959   6.478
 9505SOL     OW29413   5.714   3.356   2.693
 9505SOL    HW129414   5.636   3.320   2.643
 9505SOL    HW229415   5.799   3.329   2.648
 9506SOL     OW29416   6.337   3.544   0.282
 9506SOL    HW129417   6.429   3.505   0.288
 9506SOL    HW229418   6.342   3.633   0.237
 9507SOL     OW29419   1.066   1.923   3.719
 9507SOL    HW129420   1.164   1.932   3.734
 9507SOL    HW229421   1.039   1.978   3.639
 9508SOL     OW29422   5.196   1.962   0.536
 9508SOL    HW129423   5.230   2.011   0.456
 9508SOL    HW229424   5.172   2.027   0.608
 9509SOL     OW29425   2.434   6.726   5.332
 9509SOL    HW129426   2.470   6.688   5.417
 9509SOL    HW229427   2.390   6.814   5.351
 9510SOL     OW29428   6.019   4.549   3.356
 9510SOL    HW129429   5.970   4.478   3.407
 9510SOL    HW229430   6.074   4.505   3.285
 9511SOL     OW29431   1.106   1.256   0.802
 9511SOL    HW129432   1.093   1.355   0.802
 9511SOL    HW229433   1.204   1.235   0.806
 9512SOL     OW29434   1.441   2.411   4.058
 9512SOL    HW129435   1.406   2.479   4.122
 9512SOL    HW229436   1.367   2.379   3.999
 9513SOL     OW29437   2.400   4.388   3.694
 9513SOL    HW129438   2.394   4.426   3.602
 9513SOL    HW229439   2.376   4.291   3.692
 9514SOL     OW29440   2.397   2.859   6.336
 9514SOL    HW129441   2.319   2.880   6.394
 9514SOL    HW229442   2.462   2.935   6.339
 9515SOL     OW29443   2.524   5.923   6.027
 9515SOL    HW129444   2.431   5.887   6.027
 9515SOL    HW229445   2.523   6.019   5.999
 9516SOL     OW29446   5.099   3.454   4.544
 9516SOL    HW129447   5.011   3.499   4.562
 9516SOL    HW229448   5.116   3.452   4.446
 9517SOL     OW29449   0.392   5.681   2.378
 9517SOL    HW129450   0.300   5.691   2.340
 9517SOL    HW229451   0.459   5.722   2.315
 9518SOL     OW29452   0.575   2.620   5.519
 9518SOL    HW129453   0.586   2.634   5.420
 9518SOL    HW229454   0.659   2.644   5.566
 9519SOL     OW29455   3.470   3.304   3.190
 9519SOL    HW129456   3.438   3.212   3.213
 9519SOL    HW229457   3.569   3.310   3.204
 9520SOL     OW29458   5.431   0.202   6.419
 9520SOL    HW129459   5.434   0.196   6.519
 9520SOL    HW229460   5.337   0.211   6.388
 9521SOL     OW29461   3.506   0.729   0.878
 9521SOL    HW129462   3.465   0.802   0.933
 9521SOL    HW229463   3.538   0.767   0.791
 9522SOL     OW29464   3.492   6.702   2.370
 9522SOL    HW129465   3.508   6.652   2.455
 9522SOL    HW229466   3.533   6.793   2.377
 9523SOL     OW29467   2.795   4.946   3.856
 9523SOL    HW129468   2.799   4.854   3.896
 9523SOL    HW229469   2.727   5.001   3.905
 9524SOL     OW29470   2.805   4.073   1.198
 9524SOL    HW129471   2.796   4.009   1.274
 9524SOL    HW229472   2.724   4.132   1.195
 9525SOL     OW29473   2.249   3.239   5.199
 9525SOL    HW129474   2.286   3.146   5.197
 9525SOL    HW229475   2.313   3.299   5.248
 9526SOL     OW29476   5.280   5.157   6.916
 9526SOL    HW129477   5.226   5.123   6.993
 9526SOL    HW229478   5.219   5.177   6.839
 9527SOL     OW29479   4.159   0.049   3.370
 9527SOL    HW129480   4.078   0.044   3.312
 9527SOL    HW229481   4.152   0.129   3.430
 9528SOL     OW29482   5.798   2.269   1.158
 9528SOL    HW129483   5.742   2.218   1.093
 9528SOL    HW229484   5.895   2.259   1.133
 9529SOL     OW29485   6.288   1.113   1.437
 9529SOL    HW129486   6.379   1.135   1.403
 9529SOL    HW229487   6.293   1.034   1.498
 9530SOL     OW29488   1.109   5.648   3.981
 9530SOL    HW129489   1.021   5.688   3.957
 9530SOL    HW229490   1.112   5.553   3.952
 9531SOL     OW29491   3.425   5.155   2.444
 9531SOL    HW129492   3.334   5.177   2.409
 9531SOL    HW229493   3.418   5.076   2.505
 9532SOL     OW29494   6.587   5.196   3.121
 9532SOL    HW129495   6.533   5.127   3.169
 9532SOL    HW229496   6.529   5.243   3.054
 9533SOL     OW29497   1.846   3.948   3.334
 9533SOL    HW129498   1.941   3.974   3.312
 9533SOL    HW229499   1.793   3.944   3.250
 9534SOL     OW29500   5.641   4.923   4.424
 9534SOL    HW129501   5.578   4.986   4.469
 9534SOL    HW229502   5.733   4.963   4.422
 9535SOL     OW29503   0.933   1.241   5.605
 9535SOL    HW129504   1.005   1.309   5.591
 9535SOL    HW229505   0.844   1.282   5.587
 9536SOL     OW29506   3.712   4.167   5.115
 9536SOL    HW129507   3.737   4.173   5.018
 9536SOL    HW229508   3.612   4.175   5.124
 9537SOL     OW29509   0.595   1.560   3.497
 9537SOL    HW129510   0.659   1.626   3.459
 9537SOL    HW229511   0.645   1.488   3.546
 9538SOL     OW29512   4.487   0.847   5.670
 9538SOL    HW129513   4.547   0.924   5.645
 9538SOL    HW229514   4.535   0.761   5.654
 9539SOL     OW29515   3.451   3.522   2.338
 9539SOL    HW129516   3.404   3.516   2.426
 9539SOL    HW229517   3.395   3.479   2.267
 9540SOL     OW29518   4.460   4.503   3.549
 9540SOL    HW129519   4.364   4.479   3.536
 9540SOL    HW229520   4.492   4.554   3.469
 9541SOL     OW29521   2.186   5.275   5.910
 9541SOL    HW129522   2.187   5.327   5.996
 9541SOL    HW229523   2.150   5.332   5.837
 9542SOL     OW29524   6.321   3.868   4.336
 9542SOL    HW129525   6.245   3.804   4.343
 9542SOL    HW229526   6.292   3.951   4.289
 9543SOL     OW29527   2.844   0.189   5.344
 9543SOL    HW129528   2.785   0.109   5.351
 9543SOL    HW229529   2.937   0.160   5.322
 9544SOL     OW29530   5.803   3.451   4.008
 9544SOL    HW129531   5.836   3.361   4.039
 9544SOL    HW229532   5.800   3.452   3.908
 9545SOL     OW29533   0.881   4.576   1.578
 9545SOL    HW129534   0.791   4.533   1.580
 9545SOL    HW229535   0.910   4.596   1.672
 9546SOL     OW29536   2.563   2.708   6.969
 9546SOL    HW129537   2.564   2.637   6.898
 9546SOL    HW229538   2.647   2.702   0.004
 9547SOL     OW29539   4.080   6.448   3.999
 9547SOL    HW129540   4.041   6.421   4.087
 9547SOL    HW229541   4.125   6.537   4.009
 9548SOL     OW29542   1.174   4.752   6.895
 9548SOL    HW129543   1.166   4.834   6.837
 9548SOL    HW229544   1.206   4.675   6.839
 9549SOL     OW29545   5.085   3.010   0.943
 9549SOL    HW129546   5.085   2.910   0.944
 9549SOL    HW229547   4.998   3.044   0.981
 9550SOL     OW29548   5.421   3.133   1.457
 9550SOL    HW129549   5.520   3.140   1.455
 9550SOL    HW229550   5.382   3.199   1.393
 9551SOL     OW29551   6.513   2.979   6.350
 9551SOL    HW129552   6.490   2.929   6.267
 9551SOL    HW229553   6.610   2.966   6.371
 9552SOL     OW29554   2.971   2.142   6.817
 9552SOL    HW129555   2.877   2.133   6.851
 9552SOL    HW229556   2.974   2.213   6.746
 9553SOL     OW29557   5.312   1.367   6.523
 9553SOL    HW129558   5.356   1.452   6.550
 9553SOL    HW229559   5.213   1.381   6.518
 9554SOL     OW29560   2.609   6.560   3.797
 9554SOL    HW129561   2.654   6.611   3.723
 9554SOL    HW229562   2.513   6.588   3.802
 9555SOL     OW29563   6.461   0.556   3.544
 9555SOL    HW129564   6.484   0.530   3.637
 9555SOL    HW229565   6.494   0.487   3.480
 9556SOL     OW29566   2.025   4.337   0.077
 9556SOL    HW129567   1.985   4.420   0.039
 9556SOL    HW229568   1.962   4.260   0.064
 9557SOL     OW29569   5.038   0.951   1.668
 9557SOL    HW129570   5.035   0.865   1.719
 9557SOL    HW229571   5.037   1.028   1.732
 9558SOL     OW29572   4.623   6.649   6.718
 9558SOL    HW129573   4.660   6.586   6.650
 9558SOL    HW229574   4.537   6.688   6.684
 9559SOL     OW29575   1.333   3.959   0.152
 9559SOL    HW129576   1.332   3.861   0.132
 9559SOL    HW229577   1.242   3.997   0.136
 9560SOL     OW29578   3.454   6.905   1.934
 9560SOL    HW129579   3.492   6.829   1.987
 9560SOL    HW229580   3.403   6.965   1.996
 9561SOL     OW29581   0.814   0.521   0.591
 9561SOL    HW129582   0.782   0.499   0.683
 9561SOL    HW229583   0.840   0.437   0.544
 9562SOL     OW29584   3.157   5.903   3.347
 9562SOL    HW129585   3.063   5.924   3.376
 9562SOL    HW229586   3.157   5.880   3.250
 9563SOL     OW29587   0.627   6.377   1.289
 9563SOL    HW129588   0.662   6.467   1.263
 9563SOL    HW229589   0.659   6.309   1.224
 9564SOL     OW29590   0.959   0.707   0.065
 9564SOL    HW129591   1.022   0.649   0.013
 9564SOL    HW229592   0.968   0.802   0.035
 9565SOL     OW29593   3.160   1.569   3.626
 9565SOL    HW129594   3.205   1.494   3.673
 9565SOL    HW229595   3.151   1.547   3.529
 9566SOL     OW29596   3.351   0.776   0.265
 9566SOL    HW129597   3.291   0.773   0.185
 9566SOL    HW229598   3.313   0.717   0.337
 9567SOL     OW29599   6.567   3.943   1.132
 9567SOL    HW129600   6.599   3.849   1.142
 9567SOL    HW229601   6.533   3.958   1.039
 9568SOL     OW29602   4.817   1.478   6.938
 9568SOL    HW129603   4.730   1.525   6.944
 9568SOL    HW229604   4.830   1.422   0.002
 9569SOL     OW29605   5.681   0.899   2.203
 9569SOL    HW129606   5.702   0.819   2.259
 9569SOL    HW229607   5.757   0.964   2.207
 9570SOL     OW29608   0.581   3.172   1.383
 9570SOL    HW129609   0.543   3.082   1.402
 9570SOL    HW229610   0.567   3.232   1.462
 9571SOL     OW29611   2.211   2.163   6.869
 9571SOL    HW129612   2.151   2.092   6.832
 9571SOL    HW229613   2.263   2.205   6.795
 9572SOL     OW29614   2.287   4.090   3.809
 9572SOL    HW129615   2.303   4.128   3.899
 9572SOL    HW229616   2.194   4.112   3.779
 9573SOL     OW29617   6.242   0.874   4.601
 9573SOL    HW129618   6.166   0.897   4.541
 9573SOL    HW229619   6.322   0.850   4.546
 9574SOL     OW29620   3.411   3.332   1.323
 9574SOL    HW129621   3.500   3.287   1.329
 9574SOL    HW229622   3.339   3.263   1.319
 9575SOL     OW29623   6.097   6.468   1.479
 9575SOL    HW129624   6.123   6.561   1.451
 9575SOL    HW229625   6.048   6.472   1.566
 9576SOL     OW29626   0.682   6.540   0.083
 9576SOL    HW129627   0.588   6.534   0.051
 9576SOL    HW229628   0.726   6.451   0.072
 9577SOL     OW29629   6.173   5.375   2.160
 9577SOL    HW129630   6.205   5.468   2.143
 9577SOL    HW229631   6.104   5.377   2.233
 9578SOL     OW29632   2.021   2.842   3.085
 9578SOL    HW129633   1.962   2.859   3.164
 9578SOL    HW229634   2.032   2.926   3.032
 9579SOL     OW29635   5.850   6.002   1.988
 9579SOL    HW129636   5.871   6.023   2.083
 9579SOL    HW229637   5.860   5.903   1.973
 9580SOL     OW29638   5.324   4.766   2.724
 9580SOL    HW129639   5.263   4.723   2.658
 9580SOL    HW229640   5.396   4.701   2.750
 9581SOL     OW29641   6.410   1.252   0.106
 9581SOL    HW129642   6.420   1.152   0.112
 9581SOL    HW229643   6.497   1.292   0.076
 9582SOL     OW29644   4.864   6.181   4.280
 9582SOL    HW129645   4.801   6.240   4.230
 9582SOL    HW229646   4.932   6.238   4.328
 9583SOL     OW29647   3.537   4.380   1.762
 9583SOL    HW129648   3.543   4.471   1.803
 9583SOL    HW229649   3.533   4.311   1.834
 9584SOL     OW29650   2.279   5.674   4.903
 9584SOL    HW129651   2.371   5.641   4.885
 9584SOL    HW229652   2.218   5.597   4.918
 9585SOL     OW29653   4.140   5.625   1.166
 9585SOL    HW129654   4.133   5.530   1.198
 9585SOL    HW229655   4.198   5.629   1.085
 9586SOL     OW29656   4.461   5.012   2.102
 9586SOL    HW129657   4.367   4.998   2.070
 9586SOL    HW229658   4.504   4.924   2.121
 9587SOL     OW29659   2.848   6.003   1.737
 9587SOL    HW129660   2.832   6.061   1.657
 9587SOL    HW229661   2.829   6.055   1.820
 9588SOL     OW29662   6.279   5.286   0.428
 9588SOL    HW129663   6.328   5.261   0.345
 9588SOL    HW229664   6.266   5.385   0.430
 9589SOL     OW29665   1.758   3.638   6.137
 9589SOL    HW129666   1.805   3.552   6.116
 9589SOL    HW229667   1.749   3.692   6.053
 9590SOL     OW29668   5.670   1.909   1.735
 9590SOL    HW129669   5.733   1.974   1.692
 9590SOL    HW229670   5.637   1.947   1.821
 9591SOL     OW29671   3.640   0.643   6.677
 9591SOL    HW129672   3.683   0.559   6.710
 9591SOL    HW229673   3.587   0.623   6.595
 9592SOL     OW29674   2.423   5.337   5.810
 9592SOL    HW129675   2.329   5.323   5.839
 9592SOL    HW229676   2.475   5.252   5.822
 9593SOL     OW29677   1.977   1.663   4.764
 9593SOL    HW129678   2.053   1.727   4.775
 9593SOL    HW229679   1.983   1.619   4.674
 9594SOL     OW29680   0.395   6.303   3.999
 9594SOL    HW129681   0.365   6.395   3.976
 9594SOL    HW229682   0.470   6.308   4.065
 9595SOL     OW29683   0.430   3.323   3.555
 9595SOL    HW129684   0.496   3.254   3.527
 9595SOL    HW229685   0.337   3.286   3.545
 9596SOL     OW29686   0.380   6.778   1.079
 9596SOL    HW129687   0.428   6.842   1.019
 9596SOL    HW229688   0.309   6.731   1.026
 9597SOL     OW29689   0.700   3.795   2.621
 9597SOL    HW129690   0.732   3.729   2.553
 9597SOL    HW229691   0.642   3.749   2.688
 9598SOL     OW29692   1.146   4.187   3.504
 9598SOL    HW129693   1.174   4.144   3.590
 9598SOL    HW229694   1.066   4.140   3.467
 9599SOL     OW29695   4.032   6.930   4.023
 9599SOL    HW129696   4.003   6.938   3.928
 9599SOL    HW229697   3.952   6.920   4.082
 9600SOL     OW29698   3.310   0.768   1.344
 9600SOL    HW129699   3.376   0.813   1.404
 9600SOL    HW229700   3.343   0.676   1.322
 9601SOL     OW29701   7.016   4.172   1.533
 9601SOL    HW129702   6.989   4.266   1.556
 9601SOL    HW229703   6.935   4.119   1.511
 9602SOL     OW29704   4.877   4.438   5.873
 9602SOL    HW129705   4.951   4.502   5.856
 9602SOL    HW229706   4.791   4.488   5.886
 9603SOL     OW29707   5.585   6.129   5.527
 9603SOL    HW129708   5.641   6.148   5.608
 9603SOL    HW229709   5.491   6.157   5.544
 9604SOL     OW29710   5.237   6.894   0.322
 9604SOL    HW129711   5.307   6.950   0.278
 9604SOL    HW229712   5.236   6.913   0.420
 9605SOL     OW29713   6.476   6.175   3.495
 9605SOL    HW129714   6.444   6.267   3.473
 9605SOL    HW229715   6.399   6.120   3.528
 9606SOL     OW29716   1.388   1.722   6.612
 9606SOL    HW129717   1.362   1.734   6.516
 9606SOL    HW229718   1.319   1.764   6.671
 9607SOL     OW29719   3.222   2.624   6.089
 9607SOL    HW129720   3.237   2.686   6.012
 9607SOL    HW229721   3.276   2.654   6.168
 9608SOL     OW29722   6.785   3.803   3.416
 9608SOL    HW129723   6.762   3.841   3.505
 9608SOL    HW229724   6.734   3.718   3.401
 9609SOL     OW29725   4.010   2.481   5.947
 9609SOL    HW129726   3.990   2.454   6.042
 9609SOL    HW229727   4.084   2.424   5.911
 9610SOL     OW29728   1.368   4.111   2.693
 9610SOL    HW129729   1.346   4.174   2.619
 9610SOL    HW229730   1.312   4.131   2.773
 9611SOL     OW29731   1.285   0.378   0.638
 9611SOL    HW129732   1.191   0.403   0.612
 9611SOL    HW229733   1.348   0.448   0.605
 9612SOL     OW29734   0.591   2.872   3.099
 9612SOL    HW129735   0.595   2.802   3.028
 9612SOL    HW229736   0.517   2.851   3.162
 9613SOL     OW29737   5.714   5.578   3.332
 9613SOL    HW129738   5.730   5.529   3.417
 9613SOL    HW229739   5.616   5.583   3.313
 9614SOL     OW29740   5.212   2.237   3.073
 9614SOL    HW129741   5.144   2.177   3.030
 9614SOL    HW229742   5.196   2.241   3.171
 9615SOL     OW29743   2.231   3.021   1.239
 9615SOL    HW129744   2.286   2.991   1.317
 9615SOL    HW229745   2.257   2.968   1.158
 9616SOL     OW29746   3.839   2.829   6.963
 9616SOL    HW129747   3.862   2.878   6.879
 9616SOL    HW229748   3.912   2.842   0.011
 9617SOL     OW29749   2.277   2.259   4.081
 9617SOL    HW129750   2.259   2.274   4.178
 9617SOL    HW229751   2.321   2.170   4.069
 9618SOL     OW29752   2.800   0.940   0.676
 9618SOL    HW129753   2.750   0.979   0.753
 9618SOL    HW229754   2.757   0.969   0.590
 9619SOL     OW29755   2.532   1.075   4.634
 9619SOL    HW129756   2.631   1.085   4.644
 9619SOL    HW229757   2.501   0.996   4.687
 9620SOL     OW29758   5.605   0.133   5.605
 9620SOL    HW129759   5.609   0.220   5.556
 9620SOL    HW229760   5.543   0.070   5.557
 9621SOL     OW29761   1.660   2.564   3.113
 9621SOL    HW129762   1.712   2.523   3.188
 9621SOL    HW229763   1.722   2.583   3.036
 9622SOL     OW29764   5.817   0.336   1.417
 9622SOL    HW129765   5.807   0.243   1.381
 9622SOL    HW229766   5.866   0.393   1.351
 9623SOL     OW29767   3.308   3.635   6.574
 9623SOL    HW129768   3.290   3.550   6.524
 9623SOL    HW229769   3.360   3.613   6.658
 9624SOL     OW29770   6.005   3.199   3.093
 9624SOL    HW129771   6.068   3.206   3.171
 9624SOL    HW229772   5.932   3.266   3.103
 9625SOL     OW29773   5.948   5.924   0.016
 9625SOL    HW129774   5.964   5.872   6.951
 9625SOL    HW229775   5.919   6.017   7.011
 9626SOL     OW29776   3.869   6.818   6.339
 9626SOL    HW129777   3.815   6.883   6.392
 9626SOL    HW229778   3.895   6.741   6.398
 9627SOL     OW29779   1.126   6.462   6.929
 9627SOL    HW129780   1.067   6.407   6.870
 9627SOL    HW229781   1.117   6.559   6.904
 9628SOL     OW29782   4.020   5.894   1.827
 9628SOL    HW129783   4.051   5.957   1.756
 9628SOL    HW229784   3.920   5.894   1.830
 9629SOL     OW29785   2.639   6.463   1.035
 9629SOL    HW129786   2.720   6.520   1.027
 9629SOL    HW229787   2.561   6.519   1.064
 9630SOL     OW29788   6.164   1.015   5.842
 9630SOL    HW129789   6.105   1.079   5.793
 9630SOL    HW229790   6.120   0.926   5.847
 9631SOL     OW29791   6.013   5.732   6.845
 9631SOL    HW129792   5.999   5.670   6.768
 9631SOL    HW229793   6.036   5.678   6.927
 9632SOL     OW29794   1.837   6.108   1.804
 9632SOL    HW129795   1.852   6.017   1.842
 9632SOL    HW229796   1.908   6.127   1.737
 9633SOL     OW29797   6.424   5.466   6.524
 9633SOL    HW129798   6.496   5.495   6.587
 9633SOL    HW229799   6.341   5.444   6.575
 9634SOL     OW29800   1.125   6.312   4.674
 9634SOL    HW129801   1.181   6.323   4.592
 9634SOL    HW229802   1.124   6.398   4.725
 9635SOL     OW29803   2.101   5.161   5.557
 9635SOL    HW129804   2.046   5.224   5.611
 9635SOL    HW229805   2.162   5.212   5.498
 9636SOL     OW29806   3.996   1.534   6.216
 9636SOL    HW129807   3.935   1.463   6.181
 9636SOL    HW229808   3.987   1.616   6.160
 9637SOL     OW29809   2.097   1.597   6.733
 9637SOL    HW129810   2.092   1.498   6.724
 9637SOL    HW229811   2.013   1.638   6.697
 9638SOL     OW29812   6.519   2.116   5.204
 9638SOL    HW129813   6.436   2.061   5.212
 9638SOL    HW229814   6.495   2.206   5.167
 9639SOL     OW29815   4.332   1.090   2.487
 9639SOL    HW129816   4.315   1.157   2.414
 9639SOL    HW229817   4.391   1.132   2.557
 9640SOL     OW29818   2.133   2.140   1.999
 9640SOL    HW129819   2.211   2.143   2.062
 9640SOL    HW229820   2.151   2.073   1.927
 9641SOL     OW29821   6.130   5.964   0.206
 9641SOL    HW129822   6.073   5.915   0.140
 9641SOL    HW229823   6.116   6.063   0.196
 9642SOL     OW29824   3.237   0.317   4.126
 9642SOL    HW129825   3.274   0.407   4.103
 9642SOL    HW229826   3.291   0.246   4.082
 9643SOL     OW29827   4.545   4.476   3.824
 9643SOL    HW129828   4.464   4.484   3.882
 9643SOL    HW229829   4.516   4.464   3.729
 9644SOL     OW29830   2.260   1.798   6.147
 9644SOL    HW129831   2.209   1.870   6.100
 9644SOL    HW229832   2.250   1.809   6.246
 9645SOL     OW29833   3.014   5.348   5.173
 9645SOL    HW129834   2.918   5.340   5.147
 9645SOL    HW229835   3.043   5.265   5.220
 9646SOL     OW29836   4.498   4.751   2.992
 9646SOL    HW129837   4.423   4.755   3.059
 9646SOL    HW229838   4.463   4.775   2.902
 9647SOL     OW29839   6.560   3.177   0.216
 9647SOL    HW129840   6.529   3.085   0.240
 9647SOL    HW229841   6.552   3.236   0.296
 9648SOL     OW29842   4.836   2.779   1.060
 9648SOL    HW129843   4.827   2.872   1.024
 9648SOL    HW229844   4.872   2.783   1.153
 9649SOL     OW29845   2.003   5.770   0.716
 9649SOL    HW129846   1.910   5.745   0.688
 9649SOL    HW229847   2.029   5.856   0.671
 9650SOL     OW29848   6.814   6.617   1.824
 9650SOL    HW129849   6.770   6.647   1.740
 9650SOL    HW229850   6.844   6.522   1.815
 9651SOL     OW29851   0.189   1.723   5.701
 9651SOL    HW129852   0.136   1.638   5.696
 9651SOL    HW229853   0.140   1.789   5.758
 9652SOL     OW29854   0.727   6.091   3.129
 9652SOL    HW129855   0.641   6.139   3.144
 9652SOL    HW229856   0.714   5.993   3.141
 9653SOL     OW29857   6.110   4.979   4.492
 9653SOL    HW129858   6.073   4.890   4.518
 9653SOL    HW229859   6.035   5.043   4.477
 9654SOL     OW29860   2.243   2.813   2.339
 9654SOL    HW129861   2.285   2.781   2.254
 9654SOL    HW229862   2.219   2.734   2.396
 9655SOL     OW29863   6.377   2.787   6.774
 9655SOL    HW129864   6.462   2.776   6.724
 9655SOL    HW229865   6.307   2.726   6.736
 9656SOL     OW29866   3.587   1.012   2.767
 9656SOL    HW129867   3.506   0.954   2.778
 9656SOL    HW229868   3.558   1.106   2.748
 9657SOL     OW29869   0.027   0.567   4.853
 9657SOL    HW129870   6.966   0.572   4.913
 9657SOL    HW229871   7.016   0.580   4.758
 9658SOL     OW29872   6.393   2.124   2.809
 9658SOL    HW129873   6.474   2.159   2.761
 9658SOL    HW229874   6.325   2.196   2.818
 9659SOL     OW29875   0.555   4.892   7.001
 9659SOL    HW129876   0.543   4.793   7.008
 9659SOL    HW229877   0.646   4.911   6.964
 9660SOL     OW29878   0.620   5.489   0.199
 9660SOL    HW129879   0.568   5.443   0.271
 9660SOL    HW229880   0.588   5.459   0.110
 9661SOL     OW29881   4.390   6.647   1.139
 9661SOL    HW129882   4.348   6.563   1.107
 9661SOL    HW229883   4.319   6.711   1.169
 9662SOL     OW29884   5.364   0.922   4.324
 9662SOL    HW129885   5.464   0.926   4.323
 9662SOL    HW229886   5.333   0.898   4.416
 9663SOL     OW29887   2.478   5.542   2.371
 9663SOL    HW129888   2.440   5.538   2.279
 9663SOL    HW229889   2.409   5.513   2.437
 9664SOL     OW29890   2.579   6.391   1.704
 9664SOL    HW129891   2.632   6.476   1.701
 9664SOL    HW229892   2.525   6.388   1.788
 9665SOL     OW29893   5.080   4.158   4.632
 9665SOL    HW129894   5.029   4.233   4.590
 9665SOL    HW229895   5.016   4.087   4.662
 9666SOL     OW29896   5.975   4.741   4.288
 9666SOL    HW129897   5.888   4.703   4.256
 9666SOL    HW229898   6.049   4.680   4.263
 9667SOL     OW29899   4.134   3.483   3.650
 9667SOL    HW129900   4.172   3.472   3.558
 9667SOL    HW229901   4.034   3.481   3.645
 9668SOL     OW29902   0.690   0.965   5.149
 9668SOL    HW129903   0.774   0.915   5.130
 9668SOL    HW229904   0.642   0.922   5.226
 9669SOL     OW29905   1.742   5.697   0.609
 9669SOL    HW129906   1.787   5.626   0.554
 9669SOL    HW229907   1.715   5.660   0.698
 9670SOL     OW29908   5.648   4.852   0.453
 9670SOL    HW129909   5.558   4.808   0.455
 9670SOL    HW229910   5.704   4.811   0.382
 9671SOL     OW29911   0.011   6.981   6.089
 9671SOL    HW129912   6.936   7.007   6.113
 9671SOL    HW229913   0.017   6.881   6.082
 9672SOL     OW29914   0.947   6.759   5.079
 9672SOL    HW129915   0.913   6.737   5.171
 9672SOL    HW229916   1.037   6.802   5.087
 9673SOL     OW29917   2.686   3.248   6.194
 9673SOL    HW129918   2.628   3.224   6.115
 9673SOL    HW229919   2.772   3.286   6.161
 9674SOL     OW29920   3.122   6.862   2.200
 9674SOL    HW129921   3.187   6.924   2.157
 9674SOL    HW229922   3.033   6.907   2.206
 9675SOL     OW29923   0.053   2.541   2.404
 9675SOL    HW129924   0.098   2.453   2.385
 9675SOL    HW229925   0.005   2.572   2.322
 9676SOL     OW29926   0.294   3.562   4.470
 9676SOL    HW129927   0.259   3.472   4.494
 9676SOL    HW229928   0.218   3.621   4.443
 9677SOL     OW29929   2.117   3.543   4.774
 9677SOL    HW129930   2.122   3.458   4.826
 9677SOL    HW229931   2.157   3.617   4.827
 9678SOL     OW29932   2.875   3.317   2.915
 9678SOL    HW129933   2.871   3.264   2.999
 9678SOL    HW229934   2.830   3.267   2.841
 9679SOL     OW29935   0.866   3.297   1.495
 9679SOL    HW129936   0.875   3.219   1.432
 9679SOL    HW229937   0.955   3.343   1.503
 9680SOL     OW29938   5.947   5.202   3.832
 9680SOL    HW129939   5.996   5.161   3.755
 9680SOL    HW229940   5.978   5.159   3.918
 9681SOL     OW29941   1.612   1.016   3.227
 9681SOL    HW129942   1.540   0.969   3.279
 9681SOL    HW229943   1.690   0.954   3.214
 9682SOL     OW29944   6.229   4.432   2.871
 9682SOL    HW129945   6.312   4.378   2.887
 9682SOL    HW229946   6.255   4.522   2.836
 9683SOL     OW29947   4.690   6.220   6.616
 9683SOL    HW129948   4.774   6.250   6.572
 9683SOL    HW229949   4.656   6.291   6.677
 9684SOL     OW29950   1.471   4.085   3.974
 9684SOL    HW129951   1.509   4.118   4.061
 9684SOL    HW229952   1.533   4.017   3.935
 9685SOL     OW29953   1.757   2.061   0.074
 9685SOL    HW129954   1.684   2.129   0.067
 9685SOL    HW229955   1.831   2.097   0.131
 9686SOL     OW29956   5.872   0.855   1.765
 9686SOL    HW129957   5.928   0.914   1.706
 9686SOL    HW229958   5.786   0.834   1.718
 9687SOL     OW29959   3.366   6.894   3.884
 9687SOL    HW129960   3.439   6.838   3.925
 9687SOL    HW229961   3.379   6.898   3.785
 9688SOL     OW29962   0.413   1.813   3.241
 9688SOL    HW129963   0.394   1.860   3.154
 9688SOL    HW229964   0.365   1.861   3.315
 9689SOL     OW29965   2.075   5.906   6.148
 9689SOL    HW129966   2.079   5.980   6.082
 9689SOL    HW229967   1.985   5.862   6.145
 9690SOL     OW29968   6.438   4.348   1.250
 9690SOL    HW129969   6.507   4.329   1.320
 9690SOL    HW229970   6.402   4.261   1.215
 9691SOL     OW29971   1.261   4.434   1.596
 9691SOL    HW129972   1.280   4.530   1.572
 9691SOL    HW229973   1.181   4.403   1.546
 9692SOL     OW29974   2.735   5.826   1.185
 9692SOL    HW129975   2.639   5.802   1.168
 9692SOL    HW229976   2.767   5.779   1.267
 9693SOL     OW29977   5.337   6.039   1.483
 9693SOL    HW129978   5.279   5.975   1.433
 9693SOL    HW229979   5.364   5.999   1.570
 9694SOL     OW29980   1.978   2.149   0.221
 9694SOL    HW129981   2.071   2.167   0.188
 9694SOL    HW229982   1.982   2.125   0.319
 9695SOL     OW29983   6.337   4.087   1.178
 9695SOL    HW129984   6.315   4.106   1.082
 9695SOL    HW229985   6.421   4.032   1.182
 9696SOL     OW29986   4.386   3.125   1.322
 9696SOL    HW129987   4.384   3.178   1.407
 9696SOL    HW229988   4.414   3.031   1.343
 9697SOL     OW29989   0.852   6.063   0.208
 9697SOL    HW129990   0.869   6.130   0.280
 9697SOL    HW229991   0.904   5.979   0.227
 9698SOL     OW29992   5.609   1.950   5.020
 9698SOL    HW129993   5.679   2.021   5.028
 9698SOL    HW229994   5.528   1.976   5.072
 9699SOL     OW29995   1.754   3.176   0.326
 9699SOL    HW129996   1.688   3.196   0.254
 9699SOL    HW229997   1.839   3.226   0.308
 9700SOL     OW29998   3.483   4.163   4.434
 9700SOL    HW129999   3.562   4.154   4.374
 9700SOL    HW230000   3.513   4.193   4.525
 9701SOL     OW30001   5.485   4.582   4.867
 9701SOL    HW130002   5.556   4.642   4.903
 9701SOL    HW230003   5.430   4.632   4.799
 9702SOL     OW30004   4.305   0.873   0.967
 9702SOL    HW130005   4.261   0.960   0.993
 9702SOL    HW230006   4.281   0.851   0.873
 9703SOL     OW30007   3.007   6.309   3.728
 9703SOL    HW130008   3.031   6.345   3.638
 9703SOL    HW230009   3.026   6.211   3.732
 9704SOL     OW30010   3.004   0.549   3.274
 9704SOL    HW130011   2.961   0.634   3.246
 9704SOL    HW230012   3.009   0.545   3.373
 9705SOL     OW30013   3.482   3.995   0.771
 9705SOL    HW130014   3.548   3.948   0.713
 9705SOL    HW230015   3.517   3.999   0.865
 9706SOL     OW30016   5.442   2.795   2.952
 9706SOL    HW130017   5.358   2.839   2.921
 9706SOL    HW230018   5.420   2.709   2.999
 9707SOL     OW30019   2.618   5.325   2.622
 9707SOL    HW130020   2.567   5.272   2.555
 9707SOL    HW230021   2.572   5.319   2.711
 9708SOL     OW30022   2.733   1.724   2.705
 9708SOL    HW130023   2.634   1.710   2.706
 9708SOL    HW230024   2.759   1.770   2.620
 9709SOL     OW30025   1.962   5.306   2.521
 9709SOL    HW130026   2.054   5.293   2.484
 9709SOL    HW230027   1.933   5.223   2.569
 9710SOL     OW30028   0.233   0.546   3.375
 9710SOL    HW130029   0.217   0.567   3.279
 9710SOL    HW230030   0.267   0.627   3.422
 9711SOL     OW30031   0.849   4.189   5.015
 9711SOL    HW130032   0.820   4.106   4.967
 9711SOL    HW230033   0.949   4.191   5.021
 9712SOL     OW30034   4.424   2.046   4.174
 9712SOL    HW130035   4.442   2.143   4.185
 9712SOL    HW230036   4.384   2.009   4.257
 9713SOL     OW30037   6.644   4.685   2.598
 9713SOL    HW130038   6.601   4.691   2.688
 9713SOL    HW230039   6.739   4.715   2.604
 9714SOL     OW30040   1.824   2.047   1.768
 9714SOL    HW130041   1.785   2.072   1.680
 9714SOL    HW230042   1.849   1.950   1.768
 9715SOL     OW30043   5.290   5.404   5.050
 9715SOL    HW130044   5.389   5.413   5.044
 9715SOL    HW230045   5.265   5.360   5.136
 9716SOL     OW30046   4.177   1.704   6.439
 9716SOL    HW130047   4.100   1.671   6.384
 9716SOL    HW230048   4.252   1.639   6.434
 9717SOL     OW30049   5.800   4.745   3.977
 9717SOL    HW130050   5.762   4.696   3.898
 9717SOL    HW230051   5.749   4.721   4.059
 9718SOL     OW30052   4.703   3.438   1.485
 9718SOL    HW130053   4.742   3.351   1.517
 9718SOL    HW230054   4.715   3.446   1.387
 9719SOL     OW30055   0.341   1.511   0.261
 9719SOL    HW130056   0.367   1.543   0.352
 9719SOL    HW230057   0.338   1.589   0.198
 9720SOL     OW30058   0.032   0.025   2.003
 9720SOL    HW130059   0.042   6.955   2.048
 9720SOL    HW230060   0.015   0.011   1.905
 9721SOL     OW30061   6.946   3.837   2.516
 9721SOL    HW130062   6.871   3.784   2.556
 9721SOL    HW230063   6.909   3.904   2.452
 9722SOL     OW30064   0.648   0.253   4.054
 9722SOL    HW130065   0.559   0.249   4.009
 9722SOL    HW230066   0.679   0.160   4.076
 9723SOL     OW30067   0.164   1.315   3.931
 9723SOL    HW130068   0.155   1.237   3.993
 9723SOL    HW230069   0.101   1.304   3.855
 9724SOL     OW30070   3.870   2.754   1.388
 9724SOL    HW130071   3.962   2.790   1.403
 9724SOL    HW230072   3.826   2.737   1.477
 9725SOL     OW30073   4.267   3.051   5.341
 9725SOL    HW130074   4.363   3.077   5.356
 9725SOL    HW230075   4.260   2.952   5.339
 9726SOL     OW30076   5.835   6.538   5.117
 9726SOL    HW130077   5.768   6.586   5.174
 9726SOL    HW230078   5.794   6.455   5.081
 9727SOL     OW30079   1.735   2.341   5.768
 9727SOL    HW130080   1.661   2.327   5.835
 9727SOL    HW230081   1.756   2.439   5.762
 9728SOL     OW30082   3.190   5.040   6.812
 9728SOL    HW130083   3.098   5.000   6.807
 9728SOL    HW230084   3.183   5.138   6.827
 9729SOL     OW30085   3.150   5.191   2.352
 9729SOL    HW130086   3.109   5.282   2.348
 9729SOL    HW230087   3.089   5.125   2.308
 9730SOL     OW30088   6.656   3.525   3.076
 9730SOL    HW130089   6.574   3.482   3.038
 9730SOL    HW230090   6.632   3.575   3.159
 9731SOL     OW30091   4.519   5.215   0.904
 9731SOL    HW130092   4.614   5.229   0.934
 9731SOL    HW230093   4.518   5.192   0.807
 9732SOL     OW30094   6.347   5.929   3.345
 9732SOL    HW130095   6.417   5.887   3.403
 9732SOL    HW230096   6.387   6.005   3.294
 9733SOL     OW30097   5.436   4.345   6.402
 9733SOL    HW130098   5.517   4.289   6.384
 9733SOL    HW230099   5.462   4.442   6.402
 9734SOL     OW30100   5.058   2.606   4.915
 9734SOL    HW130101   5.065   2.543   4.993
 9734SOL    HW230102   5.143   2.658   4.906
 9735SOL     OW30103   1.209   4.042   0.840
 9735SOL    HW130104   1.211   4.056   0.939
 9735SOL    HW230105   1.152   3.962   0.819
 9736SOL     OW30106   3.298   1.524   0.832
 9736SOL    HW130107   3.260   1.434   0.853
 9736SOL    HW230108   3.358   1.553   0.907
 9737SOL     OW30109   4.092   2.162   5.081
 9737SOL    HW130110   4.150   2.157   5.163
 9737SOL    HW230111   4.090   2.257   5.048
 9738SOL     OW30112   1.940   0.386   2.529
 9738SOL    HW130113   1.922   0.295   2.490
 9738SOL    HW230114   2.036   0.410   2.515
 9739SOL     OW30115   5.354   4.990   1.798
 9739SOL    HW130116   5.264   4.952   1.822
 9739SOL    HW230117   5.423   4.956   1.862
 9740SOL     OW30118   6.831   4.184   3.377
 9740SOL    HW130119   6.886   4.110   3.337
 9740SOL    HW230120   6.873   4.214   3.463
 9741SOL     OW30121   4.346   2.297   1.443
 9741SOL    HW130122   4.416   2.368   1.450
 9741SOL    HW230123   4.349   2.240   1.526
 9742SOL     OW30124   4.754   2.075   4.112
 9742SOL    HW130125   4.839   2.072   4.164
 9742SOL    HW230126   4.677   2.062   4.174
 9743SOL     OW30127   1.910   2.526   5.525
 9743SOL    HW130128   1.872   2.614   5.496
 9743SOL    HW230129   2.008   2.537   5.544
 9744SOL     OW30130   1.647   0.586   1.683
 9744SOL    HW130131   1.591   0.666   1.707
 9744SOL    HW230132   1.657   0.527   1.763
 9745SOL     OW30133   0.334   2.060   4.555
 9745SOL    HW130134   0.360   1.965   4.572
 9745SOL    HW230135   0.321   2.108   4.642
 9746SOL     OW30136   6.011   1.622   4.403
 9746SOL    HW130137   6.073   1.548   4.378
 9746SOL    HW230138   5.955   1.594   4.481
 9747SOL     OW30139   0.507   0.176   6.922
 9747SOL    HW130140   0.598   0.169   6.880
 9747SOL    HW230141   0.473   0.270   6.910
 9748SOL     OW30142   6.882   6.008   4.176
 9748SOL    HW130143   6.908   6.090   4.125
 9748SOL    HW230144   6.799   6.027   4.229
 9749SOL     OW30145   0.962   4.320   4.582
 9749SOL    HW130146   0.950   4.347   4.487
 9749SOL    HW230147   0.998   4.227   4.586
 9750SOL     OW30148   4.173   4.793   3.364
 9750SOL    HW130149   4.167   4.737   3.281
 9750SOL    HW230150   4.188   4.889   3.339
 9751SOL     OW30151   1.910   2.518   0.484
 9751SOL    HW130152   1.929   2.548   0.390
 9751SOL    HW230153   1.811   2.505   0.495
 9752SOL     OW30154   3.573   1.420   5.910
 9752SOL    HW130155   3.490   1.444   5.962
 9752SOL    HW230156   3.550   1.354   5.839
 9753SOL     OW30157   6.526   6.146   5.397
 9753SOL    HW130158   6.438   6.120   5.358
 9753SOL    HW230159   6.586   6.066   5.398
 9754SOL     OW30160   0.120   2.306   6.289
 9754SOL    HW130161   0.036   2.356   6.313
 9754SOL    HW230162   0.097   2.212   6.266
 9755SOL     OW30163   4.218   4.817   5.145
 9755SOL    HW130164   4.142   4.832   5.208
 9755SOL    HW230165   4.291   4.768   5.191
 9756SOL     OW30166   6.088   2.390   5.841
 9756SOL    HW130167   6.181   2.401   5.875
 9756SOL    HW230168   6.044   2.480   5.833
 9757SOL     OW30169   6.169   2.570   3.608
 9757SOL    HW130170   6.099   2.633   3.639
 9757SOL    HW230171   6.250   2.578   3.665
 9758SOL     OW30172   2.665   0.523   0.185
 9758SOL    HW130173   2.580   0.532   0.237
 9758SOL    HW230174   2.736   0.579   0.228
 9759SOL     OW30175   3.488   6.069   1.322
 9759SOL    HW130176   3.453   5.976   1.312
 9759SOL    HW230177   3.576   6.077   1.276
 9760SOL     OW30178   5.463   4.095   6.598
 9760SOL    HW130179   5.533   4.089   6.670
 9760SOL    HW230180   5.508   4.091   6.508
 9761SOL     OW30181   5.886   5.523   2.689
 9761SOL    HW130182   5.832   5.460   2.634
 9761SOL    HW230183   5.856   5.617   2.672
 9762SOL     OW30184   2.232   1.861   3.918
 9762SOL    HW130185   2.294   1.930   3.880
 9762SOL    HW230186   2.137   1.891   3.905
 9763SOL     OW30187   2.309   1.620   1.509
 9763SOL    HW130188   2.261   1.699   1.472
 9763SOL    HW230189   2.245   1.543   1.517
 9764SOL     OW30190   1.419   2.399   1.899
 9764SOL    HW130191   1.518   2.406   1.913
 9764SOL    HW230192   1.398   2.315   1.849
 9765SOL     OW30193   6.921   1.417   5.385
 9765SOL    HW130194   6.831   1.380   5.407
 9765SOL    HW230195   6.922   1.515   5.406
 9766SOL     OW30196   2.941   0.785   2.042
 9766SOL    HW130197   2.977   0.750   2.128
 9766SOL    HW230198   2.982   0.875   2.023
 9767SOL     OW30199   4.770   0.601   5.231
 9767SOL    HW130200   4.849   0.541   5.218
 9767SOL    HW230201   4.795   0.675   5.294
 9768SOL     OW30202   4.567   2.547   2.912
 9768SOL    HW130203   4.600   2.535   2.818
 9768SOL    HW230204   4.478   2.503   2.921
 9769SOL     OW30205   0.283   1.966   1.818
 9769SOL    HW130206   0.356   1.936   1.880
 9769SOL    HW230207   0.195   1.936   1.854
 9770SOL     OW30208   6.076   4.379   6.553
 9770SOL    HW130209   6.139   4.324   6.498
 9770SOL    HW230210   6.129   4.441   6.612
 9771SOL     OW30211   3.866   5.708   5.362
 9771SOL    HW130212   3.891   5.804   5.373
 9771SOL    HW230213   3.849   5.668   5.452
 9772SOL     OW30214   6.649   0.227   1.998
 9772SOL    HW130215   6.677   0.308   1.947
 9772SOL    HW230216   6.632   0.151   1.935
 9773SOL     OW30217   5.415   5.482   3.342
 9773SOL    HW130218   5.416   5.489   3.442
 9773SOL    HW230219   5.352   5.549   3.304
 9774SOL     OW30220   6.950   4.825   3.270
 9774SOL    HW130221   6.935   4.813   3.368
 9774SOL    HW230222   6.909   4.912   3.241
 9775SOL     OW30223   2.811   2.173   5.017
 9775SOL    HW130224   2.819   2.082   5.058
 9775SOL    HW230225   2.900   2.219   5.023
 9776SOL     OW30226   0.264   5.065   4.734
 9776SOL    HW130227   0.277   5.019   4.821
 9776SOL    HW230228   0.353   5.087   4.694
 9777SOL     OW30229   5.864   4.931   6.915
 9777SOL    HW130230   5.766   4.951   6.922
 9777SOL    HW230231   5.913   5.014   6.891
 9778SOL     OW30232   4.051   0.608   3.736
 9778SOL    HW130233   4.089   0.609   3.644
 9778SOL    HW230234   3.962   0.654   3.736
 9779SOL     OW30235   2.945   2.244   6.218
 9779SOL    HW130236   2.986   2.156   6.243
 9779SOL    HW230237   3.017   2.314   6.215
 9780SOL     OW30238   3.432   4.325   0.438
 9780SOL    HW130239   3.516   4.326   0.384
 9780SOL    HW230240   3.448   4.278   0.524
 9781SOL     OW30241   1.728   5.571   4.079
 9781SOL    HW130242   1.673   5.488   4.090
 9781SOL    HW230243   1.825   5.547   4.085
 9782SOL     OW30244   6.693   0.560   1.570
 9782SOL    HW130245   6.755   0.630   1.533
 9782SOL    HW230246   6.599   0.592   1.563
 9783SOL     OW30247   5.181   1.510   2.731
 9783SOL    HW130248   5.227   1.589   2.690
 9783SOL    HW230249   5.235   1.476   2.808
 9784SOL     OW30250   5.213   1.138   4.190
 9784SOL    HW130251   5.268   1.058   4.211
 9784SOL    HW230252   5.175   1.176   4.275
 9785SOL     OW30253   0.910   2.847   1.033
 9785SOL    HW130254   1.006   2.816   1.031
 9785SOL    HW230255   0.857   2.785   1.091
 9786SOL     OW30256   2.716   6.975   4.859
 9786SOL    HW130257   2.618   6.985   4.878
 9786SOL    HW230258   2.768   0.014   4.922
 9787SOL     OW30259   5.649   4.682   2.011
 9787SOL    HW130260   5.743   4.665   2.040
 9787SOL    HW230261   5.646   4.687   1.911
 9788SOL     OW30262   0.374   1.200   5.446
 9788SOL    HW130263   0.391   1.258   5.366
 9788SOL    HW230264   0.451   1.138   5.460
 9789SOL     OW30265   1.521   5.896   4.542
 9789SOL    HW130266   1.612   5.918   4.577
 9789SOL    HW230267   1.463   5.867   4.618
 9790SOL     OW30268   6.525   1.663   4.331
 9790SOL    HW130269   6.554   1.738   4.272
 9790SOL    HW230270   6.600   1.639   4.392
 9791SOL     OW30271   1.093   2.686   1.491
 9791SOL    HW130272   1.113   2.757   1.423
 9791SOL    HW230273   1.111   2.722   1.583
 9792SOL     OW30274   4.129   5.668   1.945
 9792SOL    HW130275   4.067   5.735   1.903
 9792SOL    HW230276   4.223   5.700   1.937
 9793SOL     OW30277   4.978   5.905   2.723
 9793SOL    HW130278   4.949   5.868   2.635
 9793SOL    HW230279   4.930   5.857   2.797
 9794SOL     OW30280   3.803   3.307   6.477
 9794SOL    HW130281   3.816   3.353   6.565
 9794SOL    HW230282   3.877   3.243   6.462
 9795SOL     OW30283   2.507   4.507   4.126
 9795SOL    HW130284   2.584   4.473   4.180
 9795SOL    HW230285   2.465   4.584   4.173
 9796SOL     OW30286   3.350   4.895   0.200
 9796SOL    HW130287   3.257   4.875   0.232
 9796SOL    HW230288   3.350   4.982   0.151
 9797SOL     OW30289   4.673   2.678   4.705
 9797SOL    HW130290   4.622   2.626   4.637
 9797SOL    HW230291   4.690   2.770   4.670
 9798SOL     OW30292   2.248   1.969   1.805
 9798SOL    HW130293   2.278   1.875   1.821
 9798SOL    HW230294   2.304   2.009   1.732
 9799SOL     OW30295   3.147   4.055   2.222
 9799SOL    HW130296   3.064   4.111   2.212
 9799SOL    HW230297   3.174   4.053   2.318
 9800SOL     OW30298   3.684   4.979   7.015
 9800SOL    HW130299   3.687   4.886   6.978
 9800SOL    HW230300   3.618   5.034   6.964
 9801SOL     OW30301   4.615   5.317   6.841
 9801SOL    HW130302   4.628   5.227   6.883
 9801SOL    HW230303   4.591   5.384   6.912
 9802SOL     OW30304   0.492   4.649   1.325
 9802SOL    HW130305   0.513   4.675   1.419
 9802SOL    HW230306   0.421   4.578   1.325
 9803SOL     OW30307   5.503   0.500   6.878
 9803SOL    HW130308   5.491   0.444   6.796
 9803SOL    HW230309   5.456   0.587   6.865
 9804SOL     OW30310   5.966   5.218   4.379
 9804SOL    HW130311   5.907   5.244   4.455
 9804SOL    HW230312   6.003   5.300   4.335
 9805SOL     OW30313   3.258   4.253   0.949
 9805SOL    HW130314   3.269   4.287   0.855
 9805SOL    HW230315   3.195   4.175   0.950
 9806SOL     OW30316   6.624   2.228   2.704
 9806SOL    HW130317   6.682   2.304   2.734
 9806SOL    HW230318   6.621   2.226   2.604
 9807SOL     OW30319   3.407   2.790   0.837
 9807SOL    HW130320   3.452   2.708   0.873
 9807SOL    HW230321   3.425   2.867   0.899
 9808SOL     OW30322   1.294   1.833   5.280
 9808SOL    HW130323   1.326   1.740   5.298
 9808SOL    HW230324   1.322   1.860   5.187
 9809SOL     OW30325   0.779   0.706   4.366
 9809SOL    HW130326   0.854   0.734   4.306
 9809SOL    HW230327   0.761   0.608   4.354
 9810SOL     OW30328   3.921   1.230   3.592
 9810SOL    HW130329   3.925   1.165   3.517
 9810SOL    HW230330   3.826   1.241   3.623
 9811SOL     OW30331   1.360   6.955   2.586
 9811SOL    HW130332   1.349   0.035   2.594
 9811SOL    HW230333   1.433   6.934   2.521
 9812SOL     OW30334   5.046   2.918   5.024
 9812SOL    HW130335   5.062   2.990   4.956
 9812SOL    HW230336   5.081   2.831   4.989
 9813SOL     OW30337   6.861   4.722   0.912
 9813SOL    HW130338   6.950   4.755   0.944
 9813SOL    HW230339   6.831   4.777   0.834
 9814SOL     OW30340   6.584   1.075   5.534
 9814SOL    HW130341   6.515   1.038   5.597
 9814SOL    HW230342   6.624   1.000   5.481
 9815SOL     OW30343   6.970   4.014   3.037
 9815SOL    HW130344   6.908   4.084   3.002
 9815SOL    HW230345   6.919   3.945   3.087
 9816SOL     OW30346   6.434   0.600   6.027
 9816SOL    HW130347   6.489   0.529   6.070
 9816SOL    HW230348   6.361   0.628   6.089
 9817SOL     OW30349   2.177   0.643   0.121
 9817SOL    HW130350   2.224   0.615   0.037
 9817SOL    HW230351   2.092   0.592   0.129
 9818SOL     OW30352   0.931   6.807   3.133
 9818SOL    HW130353   0.948   6.767   3.043
 9818SOL    HW230354   0.974   6.897   3.138
 9819SOL     OW30355   6.601   2.739   4.296
 9819SOL    HW130356   6.535   2.783   4.357
 9819SOL    HW230357   6.684   2.795   4.291
 9820SOL     OW30358   3.601   2.510   5.958
 9820SOL    HW130359   3.565   2.591   5.912
 9820SOL    HW230360   3.632   2.444   5.889
 9821SOL     OW30361   3.474   3.014   1.566
 9821SOL    HW130362   3.496   2.917   1.555
 9821SOL    HW230363   3.496   3.042   1.660
 9822SOL     OW30364   3.350   6.388   4.640
 9822SOL    HW130365   3.267   6.436   4.670
 9822SOL    HW230366   3.418   6.391   4.713
 9823SOL     OW30367   3.637   6.779   3.383
 9823SOL    HW130368   3.628   6.728   3.298
 9823SOL    HW230369   3.650   6.715   3.459
 9824SOL     OW30370   1.113   5.963   5.676
 9824SOL    HW130371   1.184   5.894   5.694
 9824SOL    HW230372   1.025   5.917   5.665
 9825SOL     OW30373   0.034   6.718   5.122
 9825SOL    HW130374   0.127   6.712   5.160
 9825SOL    HW230375   6.995   6.649   5.165
 9826SOL     OW30376   2.305   5.618   5.349
 9826SOL    HW130377   2.335   5.567   5.429
 9826SOL    HW230378   2.384   5.636   5.290
 9827SOL     OW30379   1.737   4.868   1.677
 9827SOL    HW130380   1.720   4.936   1.605
 9827SOL    HW230381   1.823   4.820   1.657
 9828SOL     OW30382   4.478   1.814   4.868
 9828SOL    HW130383   4.471   1.732   4.926
 9828SOL    HW230384   4.389   1.858   4.863
 9829SOL     OW30385   4.890   5.204   5.604
 9829SOL    HW130386   4.977   5.164   5.633
 9829SOL    HW230387   4.871   5.179   5.509
 9830SOL     OW30388   5.432   1.576   3.735
 9830SOL    HW130389   5.451   1.478   3.745
 9830SOL    HW230390   5.333   1.591   3.737
 9831SOL     OW30391   0.541   4.428   2.522
 9831SOL    HW130392   0.614   4.475   2.471
 9831SOL    HW230393   0.571   4.335   2.544
 9832SOL     OW30394   4.452   5.814   4.639
 9832SOL    HW130395   4.360   5.797   4.673
 9832SOL    HW230396   4.470   5.755   4.560
 9833SOL     OW30397   3.904   3.713   3.487
 9833SOL    HW130398   3.866   3.622   3.506
 9833SOL    HW230399   3.960   3.709   3.405
 9834SOL     OW30400   2.801   6.216   5.591
 9834SOL    HW130401   2.761   6.307   5.576
 9834SOL    HW230402   2.828   6.207   5.686
 9835SOL     OW30403   4.065   3.626   4.035
 9835SOL    HW130404   4.026   3.704   3.987
 9835SOL    HW230405   4.090   3.653   4.128
 9836SOL     OW30406   6.961   3.463   5.843
 9836SOL    HW130407   6.999   3.482   5.933
 9836SOL    HW230408   0.008   3.409   5.789
 9837SOL     OW30409   5.841   1.915   3.609
 9837SOL    HW130410   5.929   1.918   3.562
 9837SOL    HW230411   5.821   1.822   3.638
 9838SOL     OW30412   1.269   6.398   1.340
 9838SOL    HW130413   1.279   6.491   1.374
 9838SOL    HW230414   1.359   6.358   1.324
 9839SOL     OW30415   5.103   6.575   3.916
 9839SOL    HW130416   5.137   6.583   3.822
 9839SOL    HW230417   5.147   6.644   3.973
 9840SOL     OW30418   6.409   1.878   6.543
 9840SOL    HW130419   6.473   1.814   6.501
 9840SOL    HW230420   6.452   1.921   6.622
 9841SOL     OW30421   6.799   5.902   3.393
 9841SOL    HW130422   6.810   5.970   3.321
 9841SOL    HW230423   6.865   5.920   3.467
 9842SOL     OW30424   3.498   0.468   6.998
 9842SOL    HW130425   3.523   0.536   0.047
 9842SOL    HW230426   3.524   0.377   0.013
 9843SOL     OW30427   6.981   0.480   1.763
 9843SOL    HW130428   6.928   0.397   1.748
 9843SOL    HW230429   6.943   0.530   1.840
 9844SOL     OW30430   4.483   0.220   4.539
 9844SOL    HW130431   4.482   0.293   4.470
 9844SOL    HW230432   4.406   0.232   4.601
 9845SOL     OW30433   1.127   3.716   2.014
 9845SOL    HW130434   1.215   3.692   2.054
 9845SOL    HW230435   1.084   3.788   2.068
 9846SOL     OW30436   6.297   2.403   1.151
 9846SOL    HW130437   6.326   2.494   1.120
 9846SOL    HW230438   6.285   2.404   1.250
 9847SOL     OW30439   4.239   3.853   6.656
 9847SOL    HW130440   4.260   3.791   6.581
 9847SOL    HW230441   4.200   3.802   6.732
 9848SOL     OW30442   3.355   3.789   5.765
 9848SOL    HW130443   3.309   3.865   5.810
 9848SOL    HW230444   3.449   3.814   5.744
 9849SOL     OW30445   1.058   2.376   4.634
 9849SOL    HW130446   1.124   2.329   4.694
 9849SOL    HW230447   1.094   2.378   4.541
 9850SOL     OW30448   1.743   6.949   4.037
 9850SOL    HW130449   1.834   6.976   4.008
 9850SOL    HW230450   1.749   6.871   4.099
 9851SOL     OW30451   3.604   5.333   3.897
 9851SOL    HW130452   3.631   5.394   3.971
 9851SOL    HW230453   3.682   5.278   3.868
 9852SOL     OW30454   1.669   6.916   0.458
 9852SOL    HW130455   1.604   6.868   0.518
 9852SOL    HW230456   1.621   6.988   0.407
 9853SOL     OW30457   0.133   4.557   3.486
 9853SOL    HW130458   0.194   4.584   3.560
 9853SOL    HW230459   0.144   4.459   3.468
 9854SOL     OW30460   0.372   3.874   6.265
 9854SOL    HW130461   0.306   3.828   6.325
 9854SOL    HW230462   0.328   3.894   6.177
 9855SOL     OW30463   0.923   5.468   0.249
 9855SOL    HW130464   0.834   5.450   0.208
 9855SOL    HW230465   0.920   5.554   0.299
 9856SOL     OW30466   5.401   3.325   3.172
 9856SOL    HW130467   5.307   3.300   3.149
 9856SOL    HW230468   5.465   3.269   3.120
 9857SOL     OW30469   4.674   0.327   5.198
 9857SOL    HW130470   4.741   0.400   5.216
 9857SOL    HW230471   4.587   0.368   5.171
 9858SOL     OW30472   6.308   6.079   1.954
 9858SOL    HW130473   6.345   6.067   2.046
 9858SOL    HW230474   6.376   6.049   1.886
 9859SOL     OW30475   0.216   5.559   3.319
 9859SOL    HW130476   0.191   5.648   3.357
 9859SOL    HW230477   0.197   5.557   3.221
 9860SOL     OW30478   1.720   3.163   4.080
 9860SOL    HW130479   1.756   3.129   4.166
 9860SOL    HW230480   1.713   3.263   4.083
 9861SOL     OW30481   3.783   2.080   2.992
 9861SOL    HW130482   3.856   2.129   2.945
 9861SOL    HW230483   3.753   2.002   2.936
 9862SOL     OW30484   1.374   3.856   6.543
 9862SOL    HW130485   1.333   3.833   6.455
 9862SOL    HW230486   1.467   3.890   6.529
 9863SOL     OW30487   3.705   0.004   1.628
 9863SOL    HW130488   3.733   6.975   1.545
 9863SOL    HW230489   3.608   7.005   1.645
 9864SOL     OW30490   2.314   5.809   5.774
 9864SOL    HW130491   2.243   5.768   5.717
 9864SOL    HW230492   2.392   5.834   5.716
 9865SOL     OW30493   1.630   5.158   5.569
 9865SOL    HW130494   1.628   5.104   5.485
 9865SOL    HW230495   1.719   5.146   5.614
 9866SOL     OW30496   6.926   5.254   5.803
 9866SOL    HW130497   6.913   5.162   5.839
 9866SOL    HW230498   6.846   5.310   5.824
 9867SOL     OW30499   4.021   1.226   1.911
 9867SOL    HW130500   4.066   1.313   1.929
 9867SOL    HW230501   4.090   1.155   1.893
 9868SOL     OW30502   2.355   4.497   3.450
 9868SOL    HW130503   2.275   4.548   3.483
 9868SOL    HW230504   2.414   4.558   3.397
 9869SOL     OW30505   0.347   2.206   1.104
 9869SOL    HW130506   0.437   2.164   1.098
 9869SOL    HW230507   0.300   2.171   1.185
 9870SOL     OW30508   2.282   2.468   2.305
 9870SOL    HW130509   2.357   2.468   2.371
 9870SOL    HW230510   2.197   2.494   2.350
 9871SOL     OW30511   5.629   5.320   3.279
 9871SOL    HW130512   5.562   5.377   3.327
 9871SOL    HW230513   5.618   5.332   3.180
 9872SOL     OW30514   0.821   5.072   5.805
 9872SOL    HW130515   0.873   4.988   5.824
 9872SOL    HW230516   0.811   5.083   5.706
 9873SOL     OW30517   1.067   1.039   5.320
 9873SOL    HW130518   1.076   1.115   5.255
 9873SOL    HW230519   1.082   0.953   5.272
 9874SOL     OW30520   0.540   1.857   4.466
 9874SOL    HW130521   0.635   1.828   4.460
 9874SOL    HW230522   0.534   1.956   4.451
 9875SOL     OW30523   6.655   6.090   0.652
 9875SOL    HW130524   6.627   6.115   0.745
 9875SOL    HW230525   6.579   6.044   0.606
 9876SOL     OW30526   0.505   6.937   3.528
 9876SOL    HW130527   0.508   6.877   3.608
 9876SOL    HW230528   0.450   6.893   3.456
 9877SOL     OW30529   1.124   6.216   5.594
 9877SOL    HW130530   1.147   6.222   5.497
 9877SOL    HW230531   1.155   6.128   5.631
 9878SOL     OW30532   3.339   2.670   6.622
 9878SOL    HW130533   3.246   2.650   6.592
 9878SOL    HW230534   3.336   2.732   6.701
 9879SOL     OW30535   6.816   5.650   5.838
 9879SOL    HW130536   6.898   5.692   5.799
 9879SOL    HW230537   6.842   5.567   5.887
 9880SOL     OW30538   2.750   1.003   1.175
 9880SOL    HW130539   2.665   0.971   1.216
 9880SOL    HW230540   2.735   1.026   1.079
 9881SOL     OW30541   5.812   1.303   3.376
 9881SOL    HW130542   5.843   1.213   3.346
 9881SOL    HW230543   5.785   1.299   3.472
 9882SOL     OW30544   3.651   3.188   4.428
 9882SOL    HW130545   3.733   3.177   4.485
 9882SOL    HW230546   3.571   3.198   4.487
 9883SOL     OW30547   2.096   6.745   2.445
 9883SOL    HW130548   2.157   6.816   2.409
 9883SOL    HW230549   2.148   6.686   2.507
 9884SOL     OW30550   3.030   3.102   5.589
 9884SOL    HW130551   3.112   3.143   5.629
 9884SOL    HW230552   2.985   3.168   5.530
 9885SOL     OW30553   4.791   2.600   5.250
 9885SOL    HW130554   4.805   2.502   5.244
 9885SOL    HW230555   4.696   2.619   5.274
 9886SOL     OW30556   3.657   5.978   1.109
 9886SOL    HW130557   3.602   5.950   1.031
 9886SOL    HW230558   3.727   5.908   1.127
 9887SOL     OW30559   3.159   2.156   7.015
 9887SOL    HW130560   3.104   2.126   0.074
 9887SOL    HW230561   3.104   2.151   6.932
 9888SOL     OW30562   6.347   6.415   3.414
 9888SOL    HW130563   6.293   6.367   3.345
 9888SOL    HW230564   6.303   6.407   3.503
 9889SOL     OW30565   6.568   5.466   2.903
 9889SOL    HW130566   6.636   5.515   2.959
 9889SOL    HW230567   6.502   5.532   2.866
 9890SOL     OW30568   0.754   3.374   2.647
 9890SOL    HW130569   0.675   3.435   2.652
 9890SOL    HW230570   0.799   3.383   2.558
 9891SOL     OW30571   4.845   6.320   1.981
 9891SOL    HW130572   4.927   6.377   1.979
 9891SOL    HW230573   4.790   6.342   2.062
 9892SOL     OW30574   1.288   5.591   3.747
 9892SOL    HW130575   1.211   5.579   3.809
 9892SOL    HW230576   1.374   5.583   3.798
 9893SOL     OW30577   5.678   4.776   4.940
 9893SOL    HW130578   5.756   4.749   4.996
 9893SOL    HW230579   5.647   4.867   4.968
 9894SOL     OW30580   4.387   3.533   5.274
 9894SOL    HW130581   4.318   3.577   5.216
 9894SOL    HW230582   4.477   3.569   5.253
 9895SOL     OW30583   5.551   1.861   6.659
 9895SOL    HW130584   5.453   1.843   6.670
 9895SOL    HW230585   5.598   1.778   6.631
 9896SOL     OW30586   3.898   3.446   0.143
 9896SOL    HW130587   3.800   3.460   0.153
 9896SOL    HW230588   3.916   3.354   0.109
 9897SOL     OW30589   6.896   1.303   3.431
 9897SOL    HW130590   6.813   1.352   3.407
 9897SOL    HW230591   6.974   1.366   3.428
 9898SOL     OW30592   1.875   4.662   6.771
 9898SOL    HW130593   1.970   4.686   6.793
 9898SOL    HW230594   1.831   4.739   6.724
 9899SOL     OW30595   4.913   4.992   2.856
 9899SOL    HW130596   4.895   5.055   2.780
 9899SOL    HW230597   5.011   4.976   2.864
 9900SOL     OW30598   1.922   4.084   4.019
 9900SOL    HW130599   1.855   4.020   4.057
 9900SOL    HW230600   2.013   4.058   4.052
 9901SOL     OW30601   2.575   1.687   6.382
 9901SOL    HW130602   2.533   1.619   6.322
 9901SOL    HW230603   2.652   1.731   6.335
 9902SOL     OW30604   4.746   3.941   6.637
 9902SOL    HW130605   4.782   3.990   6.558
 9902SOL    HW230606   4.722   3.847   6.610
 9903SOL     OW30607   3.392   1.209   1.810
 9903SOL    HW130608   3.353   1.134   1.756
 9903SOL    HW230609   3.383   1.295   1.759
 9904SOL     OW30610   0.686   0.515   1.774
 9904SOL    HW130611   0.755   0.586   1.760
 9904SOL    HW230612   0.703   0.439   1.710
 9905SOL     OW30613   1.961   6.562   6.372
 9905SOL    HW130614   1.870   6.523   6.365
 9905SOL    HW230615   1.955   6.662   6.375
 9906SOL     OW30616   3.855   3.631   5.947
 9906SOL    HW130617   3.936   3.688   5.932
 9906SOL    HW230618   3.843   3.569   5.870
 9907SOL     OW30619   1.320   6.805   2.800
 9907SOL    HW130620   1.227   6.773   2.780
 9907SOL    HW230621   1.348   6.872   2.731
 9908SOL     OW30622   0.007   3.343   4.979
 9908SOL    HW130623   6.957   3.411   5.008
 9908SOL    HW230624   0.079   3.390   4.928
 9909SOL     OW30625   3.575   6.973   2.293
 9909SOL    HW130626   3.492   6.976   2.236
 9909SOL    HW230627   3.635   0.031   2.269
 9910SOL     OW30628   0.811   4.521   0.754
 9910SOL    HW130629   0.886   4.455   0.754
 9910SOL    HW230630   0.754   4.506   0.673
 9911SOL     OW30631   3.779   5.180   2.902
 9911SOL    HW130632   3.842   5.176   2.979
 9911SOL    HW230633   3.731   5.093   2.892
 9912SOL     OW30634   4.081   6.872   0.994
 9912SOL    HW130635   4.048   6.832   0.909
 9912SOL    HW230636   4.015   6.940   1.027
 9913SOL     OW30637   4.277   2.336   2.629
 9913SOL    HW130638   4.187   2.294   2.622
 9913SOL    HW230639   4.292   2.368   2.722
 9914SOL     OW30640   2.192   5.346   5.334
 9914SOL    HW130641   2.189   5.279   5.260
 9914SOL    HW230642   2.266   5.411   5.316
 9915SOL     OW30643   5.974   3.786   4.023
 9915SOL    HW130644   5.957   3.717   4.094
 9915SOL    HW230645   6.070   3.812   4.025
 9916SOL     OW30646   2.744   3.062   0.586
 9916SOL    HW130647   2.832   3.094   0.622
 9916SOL    HW230648   2.757   2.971   0.544
 9917SOL     OW30649   2.328   2.760   4.849
 9917SOL    HW130650   2.340   2.847   4.897
 9917SOL    HW230651   2.362   2.685   4.907
 9918SOL     OW30652   2.323   0.557   4.964
 9918SOL    HW130653   2.277   0.478   4.925
 9918SOL    HW230654   2.407   0.575   4.913
 9919SOL     OW30655   0.600   5.518   2.484
 9919SOL    HW130656   0.626   5.554   2.574
 9919SOL    HW230657   0.554   5.590   2.432
 9920SOL     OW30658   3.828   6.613   2.747
 9920SOL    HW130659   3.920   6.636   2.779
 9920SOL    HW230660   3.801   6.525   2.784
 9921SOL     OW30661   5.031   6.741   3.384
 9921SOL    HW130662   4.948   6.690   3.359
 9921SOL    HW230663   5.007   6.815   3.447
 9922SOL     OW30664   5.151   3.174   1.960
 9922SOL    HW130665   5.074   3.113   1.941
 9922SOL    HW230666   5.167   3.233   1.881
 9923SOL     OW30667   6.403   0.850   6.287
 9923SOL    HW130668   6.350   0.769   6.259
 9923SOL    HW230669   6.498   0.839   6.258
 9924SOL     OW30670   4.385   0.742   3.163
 9924SOL    HW130671   4.393   0.837   3.192
 9924SOL    HW230672   4.465   0.717   3.108
 9925SOL     OW30673   3.313   2.015   4.831
 9925SOL    HW130674   3.227   2.064   4.821
 9925SOL    HW230675   3.319   1.975   4.923
 9926SOL     OW30676   1.720   0.626   6.172
 9926SOL    HW130677   1.766   0.714   6.173
 9926SOL    HW230678   1.719   0.588   6.265
 9927SOL     OW30679   1.187   2.485   1.974
 9927SOL    HW130680   1.136   2.486   1.888
 9927SOL    HW230681   1.284   2.494   1.955
 9928SOL     OW30682   0.088   3.337   2.563
 9928SOL    HW130683   0.070   3.260   2.623
 9928SOL    HW230684   0.022   3.337   2.488
 9929SOL     OW30685   1.156   4.230   5.585
 9929SOL    HW130686   1.156   4.301   5.514
 9929SOL    HW230687   1.248   4.191   5.593
 9930SOL     OW30688   0.067   5.440   0.020
 9930SOL    HW130689   0.116   5.512   0.068
 9930SOL    HW230690   0.132   5.370   7.008
 9931SOL     OW30691   3.068   4.867   6.549
 9931SOL    HW130692   3.155   4.818   6.542
 9931SOL    HW230693   3.043   4.876   6.646
 9932SOL     OW30694   2.153   2.504   1.218
 9932SOL    HW130695   2.230   2.560   1.251
 9932SOL    HW230696   2.175   2.407   1.230
 9933SOL     OW30697   0.670   1.437   2.280
 9933SOL    HW130698   0.744   1.444   2.213
 9933SOL    HW230699   0.675   1.515   2.343
 9934SOL     OW30700   4.960   0.785   6.539
 9934SOL    HW130701   4.992   0.692   6.525
 9934SOL    HW230702   4.958   0.806   6.637
 9935SOL     OW30703   2.569   2.352   0.601
 9935SOL    HW130704   2.478   2.387   0.578
 9935SOL    HW230705   2.615   2.416   0.663
 9936SOL     OW30706   5.229   6.351   6.209
 9936SOL    HW130707   5.140   6.380   6.174
 9936SOL    HW230708   5.229   6.252   6.223
 9937SOL     OW30709   1.903   6.526   3.378
 9937SOL    HW130710   1.803   6.529   3.376
 9937SOL    HW230711   1.938   6.549   3.287
 9938SOL     OW30712   6.768   1.070   3.430
 9938SOL    HW130713   6.816   1.157   3.419
 9938SOL    HW230714   6.678   1.076   3.386
 9939SOL     OW30715   2.544   4.185   1.569
 9939SOL    HW130716   2.619   4.166   1.507
 9939SOL    HW230717   2.576   4.245   1.642
 9940SOL     OW30718   6.628   1.074   3.686
 9940SOL    HW130719   6.684   1.100   3.607
 9940SOL    HW230720   6.547   1.025   3.654
 9941SOL     OW30721   5.615   4.262   1.112
 9941SOL    HW130722   5.708   4.243   1.079
 9941SOL    HW230723   5.620   4.289   1.208
 9942SOL     OW30724   5.880   5.795   3.105
 9942SOL    HW130725   5.900   5.891   3.087
 9942SOL    HW230726   5.859   5.782   3.202
 9943SOL     OW30727   1.810   3.476   5.201
 9943SOL    HW130728   1.875   3.511   5.268
 9943SOL    HW230729   1.794   3.379   5.217
 9944SOL     OW30730   1.823   5.780   6.127
 9944SOL    HW130731   1.737   5.826   6.150
 9944SOL    HW230732   1.817   5.743   6.034
 9945SOL     OW30733   6.766   3.426   6.737
 9945SOL    HW130734   6.681   3.376   6.755
 9945SOL    HW230735   6.841   3.382   6.785
 9946SOL     OW30736   4.752   2.343   1.768
 9946SOL    HW130737   4.725   2.396   1.688
 9946SOL    HW230738   4.714   2.384   1.850
 9947SOL     OW30739   0.846   1.363   2.808
 9947SOL    HW130740   0.838   1.264   2.802
 9947SOL    HW230741   0.871   1.400   2.718
 9948SOL     OW30742   5.912   0.746   5.241
 9948SOL    HW130743   5.958   0.725   5.328
 9948SOL    HW230744   5.960   0.699   5.167
 9949SOL     OW30745   0.023   3.933   3.438
 9949SOL    HW130746   6.955   3.886   3.425
 9949SOL    HW230747   0.077   3.887   3.509
 9950SOL     OW30748   4.497   3.842   5.410
 9950SOL    HW130749   4.553   3.763   5.435
 9950SOL    HW230750   4.555   3.911   5.367
 9951SOL     OW30751   0.025   1.960   3.133
 9951SOL    HW130752   0.066   2.011   3.057
 9951SOL    HW230753   6.966   2.010   3.170
 9952SOL     OW30754   1.415   4.689   1.549
 9952SOL    HW130755   1.500   4.675   1.599
 9952SOL    HW230756   1.430   4.751   1.473
 9953SOL     OW30757   6.252   3.835   4.039
 9953SOL    HW130758   6.298   3.872   3.958
 9953SOL    HW230759   6.219   3.910   4.096
 9954SOL     OW30760   3.477   1.023   1.425
 9954SOL    HW130761   3.484   1.122   1.411
 9954SOL    HW230762   3.522   0.975   1.350
 9955SOL     OW30763   5.231   5.485   1.662
 9955SOL    HW130764   5.260   5.512   1.754
 9955SOL    HW230765   5.298   5.424   1.622
 9956SOL     OW30766   2.004   2.930   3.559
 9956SOL    HW130767   2.062   2.932   3.641
 9956SOL    HW230768   1.910   2.953   3.585
 9957SOL     OW30769   5.555   0.537   0.405
 9957SOL    HW130770   5.643   0.529   0.359
 9957SOL    HW230771   5.565   0.595   0.486
 9958SOL     OW30772   6.063   5.541   7.018
 9958SOL    HW130773   6.050   5.460   6.961
 9958SOL    HW230774   6.154   5.538   0.041
 9959SOL     OW30775   5.855   4.927   0.700
 9959SOL    HW130776   5.776   4.919   0.640
 9959SOL    HW230777   5.848   4.860   0.775
 9960SOL     OW30778   6.239   6.964   0.067
 9960SOL    HW130779   6.335   6.938   0.054
 9960SOL    HW230780   6.195   6.978   6.996
 9961SOL     OW30781   3.494   5.627   0.865
 9961SOL    HW130782   3.436   5.679   0.928
 9961SOL    HW230783   3.438   5.588   0.792
 9962SOL     OW30784   3.151   0.287   1.173
 9962SOL    HW130785   3.154   0.385   1.195
 9962SOL    HW230786   3.084   0.271   1.101
 9963SOL     OW30787   0.759   0.446   6.028
 9963SOL    HW130788   0.740   0.392   6.110
 9963SOL    HW230789   0.858   0.453   6.015
 9964SOL     OW30790   4.560   4.530   5.811
 9964SOL    HW130791   4.468   4.494   5.826
 9964SOL    HW230792   4.558   4.630   5.819
 9965SOL     OW30793   2.956   5.085   4.040
 9965SOL    HW130794   2.924   5.087   3.945
 9965SOL    HW230795   2.987   4.992   4.062
 9966SOL     OW30796   3.536   5.140   3.279
 9966SOL    HW130797   3.622   5.172   3.319
 9966SOL    HW230798   3.461   5.201   3.307
 9967SOL     OW30799   0.183   0.578   3.077
 9967SOL    HW130800   0.273   0.558   3.039
 9967SOL    HW230801   0.165   0.676   3.069
 9968SOL     OW30802   4.472   0.150   0.162
 9968SOL    HW130803   4.524   0.186   0.084
 9968SOL    HW230804   4.459   0.221   0.230
 9969SOL     OW30805   0.074   5.927   3.768
 9969SOL    HW130806   0.105   5.988   3.840
 9969SOL    HW230807   0.119   5.838   3.778
 9970SOL     OW30808   6.684   3.174   2.123
 9970SOL    HW130809   6.617   3.174   2.197
 9970SOL    HW230810   6.637   3.158   2.036
 9971SOL     OW30811   6.909   5.536   4.561
 9971SOL    HW130812   6.895   5.449   4.514
 9971SOL    HW230813   6.988   5.583   4.522
 9972SOL     OW30814   3.348   4.062   6.035
 9972SOL    HW130815   3.339   3.966   6.062
 9972SOL    HW230816   3.318   4.074   5.941
 9973SOL     OW30817   2.502   1.912   3.655
 9973SOL    HW130818   2.465   1.921   3.562
 9973SOL    HW230819   2.600   1.893   3.649
 9974SOL     OW30820   1.604   2.365   3.445
 9974SOL    HW130821   1.574   2.419   3.523
 9974SOL    HW230822   1.680   2.412   3.400
 9975SOL     OW30823   2.846   4.704   6.559
 9975SOL    HW130824   2.938   4.740   6.542
 9975SOL    HW230825   2.850   4.604   6.560
 9976SOL     OW30826   4.243   5.758   5.845
 9976SOL    HW130827   4.175   5.698   5.886
 9976SOL    HW230828   4.302   5.704   5.784
 9977SOL     OW30829   4.369   0.153   5.557
 9977SOL    HW130830   4.306   0.209   5.502
 9977SOL    HW230831   4.457   0.200   5.564
 9978SOL     OW30832   0.823   2.604   6.998
 9978SOL    HW130833   0.831   2.513   0.021
 9978SOL    HW230834   0.748   2.654   0.024
 9979SOL     OW30835   3.398   4.196   5.181
 9979SOL    HW130836   3.356   4.105   5.184
 9979SOL    HW230837   3.327   4.266   5.196
 9980SOL     OW30838   1.846   1.228   1.260
 9980SOL    HW130839   1.937   1.213   1.220
 9980SOL    HW230840   1.826   1.326   1.260
 9981SOL     OW30841   5.654   1.260   0.486
 9981SOL    HW130842   5.667   1.331   0.555
 9981SOL    HW230843   5.738   1.249   0.434
 9982SOL     OW30844   1.795   2.176   4.594
 9982SOL    HW130845   1.707   2.164   4.641
 9982SOL    HW230846   1.863   2.116   4.635
 9983SOL     OW30847   1.116   3.896   2.275
 9983SOL    HW130848   1.020   3.892   2.303
 9983SOL    HW230849   1.173   3.924   2.353
 9984SOL     OW30850   0.413   5.274   0.761
 9984SOL    HW130851   0.330   5.221   0.780
 9984SOL    HW230852   0.490   5.233   0.810
 9985SOL     OW30853   5.162   4.597   6.877
 9985SOL    HW130854   5.111   4.681   6.893
 9985SOL    HW230855   5.115   4.542   6.808
 9986SOL     OW30856   5.863   5.454   0.391
 9986SOL    HW130857   5.818   5.544   0.391
 9986SOL    HW230858   5.821   5.396   0.322
 9987SOL     OW30859   5.722   2.261   1.425
 9987SOL    HW130860   5.713   2.360   1.436
 9987SOL    HW230861   5.769   2.241   1.339
 9988SOL     OW30862   6.119   0.237   3.682
 9988SOL    HW130863   6.159   0.248   3.591
 9988SOL    HW230864   6.030   0.192   3.674
 9989SOL     OW30865   6.784   5.970   2.628
 9989SOL    HW130866   6.860   5.970   2.563
 9989SOL    HW230867   6.732   5.885   2.619
 9990SOL     OW30868   6.762   0.222   3.387
 9990SOL    HW130869   6.762   0.285   3.309
 9990SOL    HW230870   6.841   0.161   3.380
 9991SOL     OW30871   1.915   4.126   2.567
 9991SOL    HW130872   1.897   4.162   2.475
 9991SOL    HW230873   1.831   4.130   2.621
 9992SOL     OW30874   2.385   5.116   0.355
 9992SOL    HW130875   2.338   5.185   0.410
 9992SOL    HW230876   2.337   5.029   0.362
 9993SOL     OW30877   4.187   0.430   4.947
 9993SOL    HW130878   4.110   0.444   4.886
 9993SOL    HW230879   4.252   0.367   4.905
 9994SOL     OW30880   5.956   5.283   5.193
 9994SOL    HW130881   6.026   5.220   5.159
 9994SOL    HW230882   5.982   5.377   5.171
 9995SOL     OW30883   3.615   1.492   6.384
 9995SOL    HW130884   3.687   1.478   6.315
 9995SOL    HW230885   3.528   1.460   6.348
 9996SOL     OW30886   2.853   4.117   0.730
 9996SOL    HW130887   2.808   4.028   0.730
 9996SOL    HW230888   2.784   4.189   0.725
 9997SOL     OW30889   6.566   2.025   3.527
 9997SOL    HW130890   6.564   1.980   3.437
 9997SOL    HW230891   6.477   2.065   3.546
 9998SOL     OW30892   5.006   3.986   2.564
 9998SOL    HW130893   4.961   4.050   2.627
 9998SOL    HW230894   4.944   3.910   2.544
 9999SOL     OW30895   0.663   6.756   4.045
 9999SOL    HW130896   0.720   6.675   4.032
 9999SOL    HW230897   0.571   6.727   4.071
10000SOL     OW30898   4.438   2.413   1.049
10000SOL    HW130899   4.480   2.492   1.005
10000SOL    HW230900   4.338   2.419   1.039
10001SOL     OW30901   3.831   6.496   1.175
10001SOL    HW130902   3.884   6.475   1.093
10001SOL    HW230903   3.733   6.496   1.153
10002SOL     OW30904   2.761   0.459   1.902
10002SOL    HW130905   2.779   0.422   1.993
10002SOL    HW230906   2.663   0.454   1.884
10003SOL     OW30907   1.041   0.981   2.729
10003SOL    HW130908   0.976   0.955   2.658
10003SOL    HW230909   1.124   1.018   2.687
10004SOL     OW30910   0.105   4.670   4.464
10004SOL    HW130911   0.007   4.665   4.485
10004SOL    HW230912   0.125   4.610   4.387
10005SOL     OW30913   2.798   5.102   3.378
10005SOL    HW130914   2.788   5.044   3.297
10005SOL    HW230915   2.827   5.046   3.456
10006SOL     OW30916   5.620   1.244   5.124
10006SOL    HW130917   5.705   1.274   5.167
10006SOL    HW230918   5.622   1.144   5.113
10007SOL     OW30919   1.075   5.394   3.935
10007SOL    HW130920   1.127   5.335   3.996
10007SOL    HW230921   1.064   5.349   3.846
10008SOL     OW30922   3.751   1.424   6.123
10008SOL    HW130923   3.712   1.475   6.046
10008SOL    HW230924   3.702   1.337   6.134
10009SOL     OW30925   0.926   4.194   2.024
10009SOL    HW130926   0.929   4.248   1.940
10009SOL    HW230927   0.942   4.254   2.103
10010SOL     OW30928   2.268   4.277   1.081
10010SOL    HW130929   2.338   4.219   1.040
10010SOL    HW230930   2.305   4.320   1.163
10011SOL     OW30931   2.284   3.067   6.808
10011SOL    HW130932   2.367   3.058   6.753
10011SOL    HW230933   2.298   3.023   6.896
10012SOL     OW30934   5.595   2.105   3.186
10012SOL    HW130935   5.612   2.142   3.277
10012SOL    HW230936   5.664   2.036   3.164
10013SOL     OW30937   0.577   6.210   4.540
10013SOL    HW130938   0.669   6.250   4.537
10013SOL    HW230939   0.509   6.283   4.545
10014SOL     OW30940   0.534   0.894   2.715
10014SOL    HW130941   0.627   0.873   2.747
10014SOL    HW230942   0.468   0.862   2.782
10015SOL     OW30943   4.136   6.172   6.264
10015SOL    HW130944   4.233   6.164   6.287
10015SOL    HW230945   4.126   6.230   6.183
10016SOL     OW30946   2.535   0.649   4.185
10016SOL    HW130947   2.600   0.715   4.221
10016SOL    HW230948   2.474   0.619   4.258
10017SOL     OW30949   2.781   2.250   2.799
10017SOL    HW130950   2.833   2.238   2.715
10017SOL    HW230951   2.843   2.275   2.873
10018SOL     OW30952   6.882   3.929   5.316
10018SOL    HW130953   6.819   4.004   5.335
10018SOL    HW230954   6.915   3.890   5.402
10019SOL     OW30955   0.389   2.398   1.619
10019SOL    HW130956   0.310   2.459   1.631
10019SOL    HW230957   0.361   2.304   1.639
10020SOL     OW30958   6.449   1.506   1.860
10020SOL    HW130959   6.421   1.411   1.841
10020SOL    HW230960   6.541   1.521   1.826
10021SOL     OW30961   0.899   3.012   2.327
10021SOL    HW130962   0.808   3.022   2.368
10021SOL    HW230963   0.889   2.976   2.234
10022SOL     OW30964   1.566   5.004   6.010
10022SOL    HW130965   1.582   5.069   6.084
10022SOL    HW230966   1.489   4.945   6.034
10023SOL     OW30967   1.256   0.881   6.045
10023SOL    HW130968   1.224   0.881   6.140
10023SOL    HW230969   1.294   0.792   6.022
10024SOL     OW30970   1.378   4.739   2.757
10024SOL    HW130971   1.387   4.643   2.786
10024SOL    HW230972   1.466   4.771   2.722
10025SOL     OW30973   1.222   3.578   0.621
10025SOL    HW130974   1.257   3.564   0.529
10025SOL    HW230975   1.295   3.615   0.679
10026SOL     OW30976   5.422   1.655   4.881
10026SOL    HW130977   5.504   1.711   4.863
10026SOL    HW230978   5.363   1.655   4.801
10027SOL     OW30979   2.905   1.963   5.172
10027SOL    HW130980   2.913   1.982   5.270
10027SOL    HW230981   2.880   1.867   5.159
10028SOL     OW30982   4.459   6.977   1.318
10028SOL    HW130983   4.365   6.951   1.343
10028SOL    HW230984   4.457   0.044   1.266
10029SOL     OW30985   0.297   4.570   4.631
10029SOL    HW130986   0.217   4.595   4.576
10029SOL    HW230987   0.354   4.507   4.579
10030SOL     OW30988   2.419   6.865   4.315
10030SOL    HW130989   2.489   6.904   4.375
10030SOL    HW230990   2.459   6.845   4.226
10031SOL     OW30991   3.013   5.486   2.633
10031SOL    HW130992   3.078   5.545   2.681
10031SOL    HW230993   2.920   5.520   2.647
10032SOL     OW30994   3.163   6.328   4.939
10032SOL    HW130995   3.252   6.313   4.981
10032SOL    HW230996   3.175   6.368   4.848
10033SOL     OW30997   3.039   1.477   4.620
10033SOL    HW130998   3.062   1.382   4.596
10033SOL    HW230999   3.093   1.540   4.565
10034SOL     OW31000   2.380   1.142   3.562
10034SOL    HW131001   2.399   1.071   3.630
10034SOL    HW231002   2.353   1.226   3.607
10035SOL     OW31003   6.666   2.579   2.632
10035SOL    HW131004   6.735   2.648   2.657
10035SOL    HW231005   6.623   2.543   2.715
10036SOL     OW31006   0.578   1.076   0.119
10036SOL    HW131007   0.576   1.007   0.046
10036SOL    HW231008   0.661   1.067   0.172
10037SOL     OW31009   5.978   6.502   6.660
10037SOL    HW131010   5.965   6.588   6.709
10037SOL    HW231011   5.908   6.436   6.690
10038SOL     OW31012   4.183   6.515   6.287
10038SOL    HW131013   4.104   6.460   6.259
10038SOL    HW231014   4.157   6.573   6.364
10039SOL     OW31015   6.970   5.576   2.352
10039SOL    HW131016   6.970   5.605   2.447
10039SOL    HW231017   6.904   5.502   2.340
10040SOL     OW31018   2.776   6.996   1.367
10040SOL    HW131019   2.689   0.011   1.330
10040SOL    HW231020   2.833   6.963   1.291
10041SOL     OW31021   6.633   5.668   5.112
10041SOL    HW131022   6.690   5.746   5.088
10041SOL    HW231023   6.646   5.595   5.045
10042SOL     OW31024   0.191   0.562   5.039
10042SOL    HW131025   0.124   0.568   4.965
10042SOL    HW231026   0.188   0.471   5.080
10043SOL     OW31027   0.531   0.861   3.815
10043SOL    HW131028   0.563   0.826   3.903
10043SOL    HW231029   0.604   0.914   3.772
10044SOL     OW31030   3.015   1.665   6.451
10044SOL    HW131031   3.054   1.575   6.467
10044SOL    HW231032   3.088   1.729   6.425
10045SOL     OW31033   3.974   6.866   5.305
10045SOL    HW131034   4.051   6.803   5.291
10045SOL    HW231035   3.946   6.904   5.218
10046SOL     OW31036   0.330   2.691   1.810
10046SOL    HW131037   0.285   2.770   1.851
10046SOL    HW231038   0.429   2.700   1.821
10047SOL     OW31039   0.352   1.562   3.351
10047SOL    HW131040   0.425   1.530   3.411
10047SOL    HW231041   0.365   1.659   3.330
10048SOL     OW31042   3.574   2.492   1.670
10048SOL    HW131043   3.627   2.575   1.653
10048SOL    HW231044   3.618   2.438   1.742
10049SOL     OW31045   1.720   6.852   4.616
10049SOL    HW131046   1.709   6.852   4.516
10049SOL    HW231047   1.631   6.865   4.660
10050SOL     OW31048   5.132   2.442   4.004
10050SOL    HW131049   5.172   2.516   3.949
10050SOL    HW231050   5.095   2.372   3.943
10051SOL     OW31051   5.939   2.641   5.828
10051SOL    HW131052   5.879   2.700   5.774
10051SOL    HW231053   5.909   2.640   5.923
10052SOL     OW31054   1.173   3.857   1.312
10052SOL    HW131055   1.248   3.902   1.361
10052SOL    HW231056   1.201   3.765   1.285
10053SOL     OW31057   3.234   6.204   3.414
10053SOL    HW131058   3.218   6.302   3.428
10053SOL    HW231059   3.275   6.190   3.324
10054SOL     OW31060   3.928   5.468   4.186
10054SOL    HW131061   3.871   5.468   4.104
10054SOL    HW231062   3.906   5.388   4.242
10055SOL     OW31063   6.768   3.268   5.963
10055SOL    HW131064   6.831   3.210   6.015
10055SOL    HW231065   6.821   3.327   5.901
10056SOL     OW31066   6.578   5.161   1.661
10056SOL    HW131067   6.641   5.163   1.583
10056SOL    HW231068   6.624   5.195   1.743
10057SOL     OW31069   2.706   2.107   3.829
10057SOL    HW131070   2.684   2.192   3.780
10057SOL    HW231071   2.704   2.031   3.765
10058SOL     OW31072   0.507   5.381   3.613
10058SOL    HW131073   0.519   5.464   3.558
10058SOL    HW231074   0.423   5.335   3.586
10059SOL     OW31075   5.607   0.011   0.882
10059SOL    HW131076   5.516   6.991   0.894
10059SOL    HW231077   5.676   6.961   0.904
10060SOL     OW31078   2.131   2.799   1.653
10060SOL    HW131079   2.058   2.859   1.621
10060SOL    HW231080   2.192   2.851   1.714
10061SOL     OW31081   5.859   1.944   4.746
10061SOL    HW131082   5.886   2.027   4.795
10061SOL    HW231083   5.876   1.956   4.648
10062SOL     OW31084   6.078   6.107   2.868
10062SOL    HW131085   6.120   6.197   2.878
10062SOL    HW231086   6.149   6.038   2.861
10063SOL     OW31087   0.789   2.894   2.688
10063SOL    HW131088   0.868   2.936   2.643
10063SOL    HW231089   0.810   2.799   2.711
10064SOL     OW31090   5.775   6.567   4.703
10064SOL    HW131091   5.762   6.468   4.691
10064SOL    HW231092   5.704   6.602   4.763
10065SOL     OW31093   1.247   6.201   3.245
10065SOL    HW131094   1.240   6.205   3.344
10065SOL    HW231095   1.328   6.252   3.216
10066SOL     OW31096   0.813   0.458   3.819
10066SOL    HW131097   0.728   0.462   3.766
10066SOL    HW231098   0.860   0.372   3.799
10067SOL     OW31099   3.812   5.293   3.408
10067SOL    HW131100   3.907   5.262   3.409
10067SOL    HW231101   3.778   5.299   3.502
10068SOL     OW31102   4.982   3.575   5.448
10068SOL    HW131103   5.036   3.494   5.471
10068SOL    HW231104   5.019   3.655   5.493
10069SOL     OW31105   3.464   0.891   3.494
10069SOL    HW131106   3.404   0.824   3.538
10069SOL    HW231107   3.470   0.871   3.396
10070SOL     OW31108   0.947   6.578   4.895
10070SOL    HW131109   0.952   6.642   4.972
10070SOL    HW231110   0.943   6.629   4.809
10071SOL     OW31111   5.207   5.826   5.031
10071SOL    HW131112   5.187   5.875   5.115
10071SOL    HW231113   5.157   5.739   5.030
10072SOL     OW31114   1.205   0.034   2.928
10072SOL    HW131115   1.154   0.018   3.012
10072SOL    HW231116   1.221   6.964   2.882
10073SOL     OW31117   0.309   5.150   6.056
10073SOL    HW131118   0.401   5.112   6.051
10073SOL    HW231119   0.304   5.235   6.004
10074SOL     OW31120   2.480   6.896   5.692
10074SOL    HW131121   2.418   6.869   5.766
10074SOL    HW231122   2.500   6.994   5.699
10075SOL     OW31123   1.087   2.555   4.140
10075SOL    HW131124   1.093   2.617   4.063
10075SOL    HW231125   1.118   2.601   4.223
10076SOL     OW31126   5.252   0.489   4.729
10076SOL    HW131127   5.261   0.577   4.775
10076SOL    HW231128   5.320   0.482   4.656
10077SOL     OW31129   3.787   1.460   6.587
10077SOL    HW131130   3.702   1.479   6.537
10077SOL    HW231131   3.821   1.369   6.563
10078SOL     OW31132   5.765   6.641   6.025
10078SOL    HW131133   5.726   6.693   5.949
10078SOL    HW231134   5.819   6.565   5.990
10079SOL     OW31135   0.253   4.059   6.969
10079SOL    HW131136   0.190   4.014   0.014
10079SOL    HW231137   0.292   4.140   7.013
10080SOL     OW31138   1.632   3.050   5.931
10080SOL    HW131139   1.728   3.049   5.902
10080SOL    HW231140   1.618   3.120   6.000
10081SOL     OW31141   0.211   0.636   6.521
10081SOL    HW131142   0.263   0.717   6.496
10081SOL    HW231143   0.138   0.662   6.584
10082SOL     OW31144   6.564   1.154   1.380
10082SOL    HW131145   6.603   1.062   1.384
10082SOL    HW231146   6.571   1.196   1.471
10083SOL     OW31147   4.926   1.053   4.254
10083SOL    HW131148   4.987   1.111   4.308
10083SOL    HW231149   4.923   0.961   4.294
10084SOL     OW31150   2.372   1.237   6.185
10084SOL    HW131151   2.471   1.228   6.197
10084SOL    HW231152   2.354   1.297   6.107
10085SOL     OW31153   0.441   5.250   2.780
10085SOL    HW131154   0.409   5.156   2.792
10085SOL    HW231155   0.363   5.312   2.781
10086SOL     OW31156   6.298   3.575   2.039
10086SOL    HW131157   6.353   3.650   2.075
10086SOL    HW231158   6.252   3.603   1.955
10087SOL     OW31159   1.336   6.829   4.172
10087SOL    HW131160   1.302   6.766   4.103
10087SOL    HW231161   1.273   6.832   4.249
10088SOL     OW31162   0.582   0.247   4.610
10088SOL    HW131163   0.520   0.288   4.544
10088SOL    HW231164   0.629   0.169   4.568
10089SOL     OW31165   1.412   3.410   2.069
10089SOL    HW131166   1.435   3.397   1.973
10089SOL    HW231167   1.494   3.401   2.125
10090SOL     OW31168   0.468   4.846   0.585
10090SOL    HW131169   0.519   4.932   0.582
10090SOL    HW231170   0.508   4.781   0.521
10091SOL     OW31171   0.722   2.460   4.512
10091SOL    HW131172   0.770   2.457   4.424
10091SOL    HW231173   0.628   2.430   4.499
10092SOL     OW31174   1.914   4.141   5.248
10092SOL    HW131175   1.960   4.101   5.169
10092SOL    HW231176   1.892   4.069   5.314
10093SOL     OW31177   6.930   4.620   6.577
10093SOL    HW131178   6.902   4.651   6.486
10093SOL    HW231179   6.860   4.558   6.613
10094SOL     OW31180   1.361   1.349   1.818
10094SOL    HW131181   1.349   1.249   1.817
10094SOL    HW231182   1.458   1.371   1.808
10095SOL     OW31183   6.809   0.663   5.938
10095SOL    HW131184   6.848   0.725   5.870
10095SOL    HW231185   6.852   0.680   6.027
10096SOL     OW31186   0.297   5.027   2.457
10096SOL    HW131187   0.340   5.117   2.457
10096SOL    HW231188   0.198   5.037   2.467
10097SOL     OW31189   0.907   1.575   6.827
10097SOL    HW131190   0.835   1.570   6.896
10097SOL    HW231191   0.984   1.627   6.863
10098SOL     OW31192   2.890   5.061   6.433
10098SOL    HW131193   2.946   4.978   6.442
10098SOL    HW231194   2.925   5.117   6.358
10099SOL     OW31195   6.973   4.583   4.763
10099SOL    HW131196   6.918   4.591   4.680
10099SOL    HW231197   6.988   4.673   4.803
10100SOL     OW31198   5.575   1.458   5.285
10100SOL    HW131199   5.638   1.427   5.356
10100SOL    HW231200   5.562   1.385   5.217
10101SOL     OW31201   0.282   4.683   2.164
10101SOL    HW131202   0.337   4.741   2.104
10101SOL    HW231203   0.213   4.740   2.210
10102SOL     OW31204   2.890   1.469   2.770
10102SOL    HW131205   2.867   1.464   2.867
10102SOL    HW231206   2.839   1.544   2.728
10103SOL     OW31207   2.833   2.463   6.937
10103SOL    HW131208   2.890   2.537   6.901
10103SOL    HW231209   2.844   2.456   0.017
10104SOL     OW31210   1.386   6.148   5.139
10104SOL    HW131211   1.364   6.052   5.157
10104SOL    HW231212   1.345   6.205   5.209
10105SOL     OW31213   2.127   0.629   6.519
10105SOL    HW131214   2.139   0.652   6.616
10105SOL    HW231215   2.063   0.553   6.510
10106SOL     OW31216   5.510   5.654   0.330
10106SOL    HW131217   5.603   5.685   0.345
10106SOL    HW231218   5.473   5.696   0.247
10107SOL     OW31219   5.679   1.360   5.739
10107SOL    HW131220   5.597   1.416   5.746
10107SOL    HW231221   5.748   1.394   5.803
10108SOL     OW31222   6.504   6.724   0.228
10108SOL    HW131223   6.476   6.726   0.132
10108SOL    HW231224   6.539   6.814   0.254
10109SOL     OW31225   5.044   5.131   3.177
10109SOL    HW131226   5.041   5.031   3.183
10109SOL    HW231227   5.140   5.161   3.173
10110SOL     OW31228   2.909   0.778   5.854
10110SOL    HW131229   2.850   0.859   5.845
10110SOL    HW231230   2.933   0.745   5.763
10111SOL     OW31231   0.746   2.356   2.975
10111SOL    HW131232   0.833   2.340   3.022
10111SOL    HW231233   0.674   2.302   3.017
10112SOL     OW31234   4.588   4.069   5.737
10112SOL    HW131235   4.490   4.081   5.719
10112SOL    HW231236   4.617   3.979   5.704
10113SOL     OW31237   3.668   6.492   6.765
10113SOL    HW131238   3.697   6.460   6.855
10113SOL    HW231239   3.636   6.415   6.710
10114SOL     OW31240   4.072   1.041   1.011
10114SOL    HW131241   4.097   1.003   1.100
10114SOL    HW231242   4.102   1.136   1.006
10115SOL     OW31243   1.546   1.807   3.758
10115SOL    HW131244   1.480   1.773   3.825
10115SOL    HW231245   1.524   1.902   3.735
10116SOL     OW31246   1.425   1.237   1.070
10116SOL    HW131247   1.411   1.323   1.119
10116SOL    HW231248   1.471   1.171   1.129
10117SOL     OW31249   4.885   0.800   5.594
10117SOL    HW131250   4.807   0.740   5.613
10117SOL    HW231251   4.886   0.875   5.660
10118SOL     OW31252   6.695   5.320   1.851
10118SOL    HW131253   6.659   5.391   1.913
10118SOL    HW231254   6.722   5.240   1.905
10119SOL     OW31255   2.418   0.977   6.103
10119SOL    HW131256   2.412   1.073   6.128
10119SOL    HW231257   2.326   0.937   6.103
10120SOL     OW31258   6.902   2.984   3.566
10120SOL    HW131259   6.875   2.952   3.656
10120SOL    HW231260   6.825   2.977   3.503
10121SOL     OW31261   6.523   4.627   5.023
10121SOL    HW131262   6.577   4.710   5.018
10121SOL    HW231263   6.487   4.615   5.116
10122SOL     OW31264   5.182   3.631   0.456
10122SOL    HW131265   5.210   3.703   0.393
10122SOL    HW231266   5.261   3.573   0.478
10123SOL     OW31267   0.170   6.630   0.151
10123SOL    HW131268   0.203   6.541   0.184
10123SOL    HW231269   0.082   6.650   0.193
10124SOL     OW31270   3.147   4.536   0.681
10124SOL    HW131271   3.173   4.535   0.584
10124SOL    HW231272   3.102   4.449   0.704
10125SOL     OW31273   1.439   0.212   1.632
10125SOL    HW131274   1.428   0.230   1.729
10125SOL    HW231275   1.477   0.293   1.587
10126SOL     OW31276   6.499   5.490   0.833
10126SOL    HW131277   6.509   5.396   0.800
10126SOL    HW231278   6.428   5.494   0.902
10127SOL     OW31279   3.655   5.185   5.271
10127SOL    HW131280   3.719   5.213   5.342
10127SOL    HW231281   3.598   5.263   5.245
10128SOL     OW31282   0.175   2.212   0.867
10128SOL    HW131283   0.205   2.291   0.814
10128SOL    HW231284   0.229   2.206   0.951
10129SOL     OW31285   5.890   2.478   3.131
10129SOL    HW131286   5.945   2.561   3.138
10129SOL    HW231287   5.825   2.475   3.207
10130SOL     OW31288   6.184   5.139   1.633
10130SOL    HW131289   6.209   5.236   1.635
10130SOL    HW231290   6.262   5.084   1.605
10131SOL     OW31291   0.451   1.315   0.914
10131SOL    HW131292   0.358   1.305   0.876
10131SOL    HW231293   0.446   1.351   1.007
10132SOL     OW31294   3.138   6.979   2.460
10132SOL    HW131295   3.079   0.040   2.468
10132SOL    HW231296   3.130   6.941   2.368
10133SOL     OW31297   5.164   5.370   3.422
10133SOL    HW131298   5.068   5.363   3.448
10133SOL    HW231299   5.182   5.461   3.385
10134SOL     OW31300   0.002   1.409   2.901
10134SOL    HW131301   0.079   1.391   2.841
10134SOL    HW231302   6.992   1.504   2.891
10135SOL     OW31303   4.570   4.761   3.373
10135SOL    HW131304   4.633   4.793   3.303
10135SOL    HW231305   4.543   4.837   3.432
10136SOL     OW31306   5.660   6.683   3.106
10136SOL    HW131307   5.583   6.737   3.142
10136SOL    HW231308   5.624   6.609   3.049
10137SOL     OW31309   6.274   5.005   4.263
10137SOL    HW131310   6.284   4.909   4.238
10137SOL    HW231311   6.219   5.012   4.347
10138SOL     OW31312   5.435   2.528   6.447
10138SOL    HW131313   5.468   2.464   6.378
10138SOL    HW231314   5.484   2.615   6.438
10139SOL     OW31315   4.011   3.123   2.990
10139SOL    HW131316   3.939   3.085   3.048
10139SOL    HW231317   4.047   3.051   2.930
10140SOL     OW31318   0.793   4.868   6.135
10140SOL    HW131319   0.715   4.806   6.135
10140SOL    HW231320   0.863   4.835   6.199
10141SOL     OW31321   1.714   0.728   3.792
10141SOL    HW131322   1.814   0.719   3.792
10141SOL    HW231323   1.688   0.813   3.839
10142SOL     OW31324   4.397   6.065   4.765
10142SOL    HW131325   4.433   6.132   4.700
10142SOL    HW231326   4.430   5.974   4.741
10143SOL     OW31327   4.638   6.926   0.995
10143SOL    HW131328   4.548   6.947   0.956
10143SOL    HW231329   4.627   6.870   1.077
10144SOL     OW31330   3.110   5.440   3.900
10144SOL    HW131331   3.075   5.351   3.928
10144SOL    HW231332   3.190   5.428   3.842
10145SOL     OW31333   2.854   6.461   5.858
10145SOL    HW131334   2.788   6.388   5.875
10145SOL    HW231335   2.841   6.497   5.765
10146SOL     OW31336   4.762   5.072   4.368
10146SOL    HW131337   4.768   5.111   4.276
10146SOL    HW231338   4.729   4.978   4.363
10147SOL     OW31339   4.685   4.867   5.137
10147SOL    HW131340   4.755   4.930   5.170
10147SOL    HW231341   4.726   4.804   5.071
10148SOL     OW31342   5.476   5.761   0.643
10148SOL    HW131343   5.541   5.692   0.675
10148SOL    HW231344   5.391   5.754   0.695
10149SOL     OW31345   4.322   2.797   0.896
10149SOL    HW131346   4.245   2.801   0.960
10149SOL    HW231347   4.288   2.792   0.803
10150SOL     OW31348   4.481   4.577   1.345
10150SOL    HW131349   4.563   4.537   1.387
10150SOL    HW231350   4.400   4.528   1.377
10151SOL     OW31351   2.082   0.119   5.533
10151SOL    HW131352   2.007   0.080   5.585
10151SOL    HW231353   2.047   0.187   5.469
10152SOL     OW31354   0.164   5.659   3.718
10152SOL    HW131355   0.088   5.612   3.672
10152SOL    HW231356   0.216   5.594   3.773
10153SOL     OW31357   5.388   6.344   4.461
10153SOL    HW131358   5.375   6.435   4.500
10153SOL    HW231359   5.357   6.275   4.526
10154SOL     OW31360   6.919   5.062   6.089
10154SOL    HW131361   6.832   5.053   6.138
10154SOL    HW231362   6.977   5.129   6.136
10155SOL     OW31363   3.682   1.000   5.934
10155SOL    HW131364   3.596   1.050   5.937
10155SOL    HW231365   3.752   1.052   5.984
10156SOL     OW31366   5.734   0.680   2.358
10156SOL    HW131367   5.667   0.695   2.431
10156SOL    HW231368   5.826   0.677   2.397
10157SOL     OW31369   5.637   0.916   6.168
10157SOL    HW131370   5.730   0.890   6.143
10157SOL    HW231371   5.614   0.875   6.257
10158SOL     OW31372   4.091   3.717   6.846
10158SOL    HW131373   4.025   3.727   6.920
10158SOL    HW231374   4.106   3.619   6.829
10159SOL     OW31375   1.261   1.489   6.190
10159SOL    HW131376   1.264   1.439   6.104
10159SOL    HW231377   1.350   1.531   6.207
10160SOL     OW31378   0.466   5.855   3.866
10160SOL    HW131379   0.526   5.886   3.939
10160SOL    HW231380   0.377   5.901   3.873
10161SOL     OW31381   3.322   5.625   5.845
10161SOL    HW131382   3.366   5.696   5.790
10161SOL    HW231383   3.363   5.536   5.823
10162SOL     OW31384   3.090   1.965   6.591
10162SOL    HW131385   3.060   2.040   6.649
10162SOL    HW231386   3.188   1.972   6.575
10163SOL     OW31387   5.991   3.590   5.661
10163SOL    HW131388   5.921   3.647   5.705
10163SOL    HW231389   6.030   3.639   5.584
10164SOL     OW31390   0.050   2.620   4.862
10164SOL    HW131391   7.014   2.704   4.863
10164SOL    HW231392   7.013   2.544   4.896
10165SOL     OW31393   0.166   2.147   4.050
10165SOL    HW131394   0.096   2.175   4.115
10165SOL    HW231395   0.203   2.058   4.077
10166SOL     OW31396   2.453   0.967   2.380
10166SOL    HW131397   2.454   1.009   2.289
10166SOL    HW231398   2.452   0.868   2.370
10167SOL     OW31399   5.013   0.418   0.371
10167SOL    HW131400   4.999   0.476   0.451
10167SOL    HW231401   5.111   0.402   0.358
10168SOL     OW31402   6.984   4.194   3.990
10168SOL    HW131403   0.028   4.119   3.972
10168SOL    HW231404   6.914   4.196   3.919
10169SOL     OW31405   6.549   3.893   4.163
10169SOL    HW131406   6.539   3.986   4.198
10169SOL    HW231407   6.477   3.835   4.199
10170SOL     OW31408   1.944   4.365   5.099
10170SOL    HW131409   1.858   4.362   5.049
10170SOL    HW231410   1.941   4.300   5.175
10171SOL     OW31411   6.422   4.121   6.252
10171SOL    HW131412   6.499   4.145   6.312
10171SOL    HW231413   6.446   4.041   6.197
10172SOL     OW31414   5.398   0.651   2.405
10172SOL    HW131415   5.404   0.561   2.362
10172SOL    HW231416   5.350   0.714   2.345
10173SOL     OW31417   2.055   1.785   2.151
10173SOL    HW131418   1.982   1.853   2.164
10173SOL    HW231419   2.144   1.827   2.166
10174SOL     OW31420   6.902   4.740   2.627
10174SOL    HW131421   6.909   4.644   2.655
10174SOL    HW231422   6.953   4.797   2.692
10175SOL     OW31423   6.002   2.351   5.474
10175SOL    HW131424   5.940   2.378   5.548
10175SOL    HW231425   6.057   2.273   5.504
10176SOL     OW31426   1.999   3.691   6.897
10176SOL    HW131427   2.084   3.743   6.890
10176SOL    HW231428   1.935   3.739   6.956
10177SOL     OW31429   2.774   6.499   6.996
10177SOL    HW131430   2.814   6.564   6.930
10177SOL    HW231431   2.768   6.408   6.953
10178SOL     OW31432   5.881   2.809   4.264
10178SOL    HW131433   5.913   2.753   4.340
10178SOL    HW231434   5.833   2.750   4.198
10179SOL     OW31435   1.272   2.817   6.332
10179SOL    HW131436   1.280   2.721   6.305
10179SOL    HW231437   1.183   2.853   6.302
10180SOL     OW31438   2.533   5.758   5.632
10180SOL    HW131439   2.527   5.702   5.715
10180SOL    HW231440   2.624   5.799   5.626
10181SOL     OW31441   5.542   3.530   1.373
10181SOL    HW131442   5.575   3.619   1.404
10181SOL    HW231443   5.619   3.470   1.355
10182SOL     OW31444   5.835   1.755   1.291
10182SOL    HW131445   5.839   1.824   1.218
10182SOL    HW231446   5.916   1.762   1.348
10183SOL     OW31447   1.654   1.786   6.410
10183SOL    HW131448   1.651   1.709   6.346
10183SOL    HW231449   1.650   1.751   6.504
10184SOL     OW31450   4.151   0.988   5.804
10184SOL    HW131451   4.197   0.907   5.768
10184SOL    HW231452   4.151   0.984   5.904
10185SOL     OW31453   4.870   7.010   0.862
10185SOL    HW131454   4.810   6.980   0.936
10185SOL    HW231455   4.819   7.011   0.776
10186SOL     OW31456   4.702   2.191   2.805
10186SOL    HW131457   4.651   2.243   2.737
10186SOL    HW231458   4.766   2.129   2.758
10187SOL     OW31459   0.572   2.452   1.862
10187SOL    HW131460   0.543   2.515   1.790
10187SOL    HW231461   0.529   2.363   1.848
10188SOL     OW31462   4.028   5.972   0.601
10188SOL    HW131463   4.081   6.038   0.548
10188SOL    HW231464   4.052   5.879   0.572
10189SOL     OW31465   1.463   6.582   5.086
10189SOL    HW131466   1.531   6.545   5.022
10189SOL    HW231467   1.465   6.529   5.171
10190SOL     OW31468   4.873   2.392   0.200
10190SOL    HW131469   4.819   2.391   0.116
10190SOL    HW231470   4.861   2.481   0.246
10191SOL     OW31471   6.412   4.373   0.363
10191SOL    HW131472   6.371   4.449   0.311
10191SOL    HW231473   6.420   4.399   0.459
10192SOL     OW31474   3.274   0.756   5.810
10192SOL    HW131475   3.297   0.818   5.885
10192SOL    HW231476   3.326   0.782   5.728
10193SOL     OW31477   5.050   3.968   0.718
10193SOL    HW131478   5.021   3.874   0.699
10193SOL    HW231479   5.087   3.973   0.811
10194SOL     OW31480   5.680   3.816   5.436
10194SOL    HW131481   5.709   3.750   5.366
10194SOL    HW231482   5.698   3.909   5.404
10195SOL     OW31483   6.762   4.560   1.800
10195SOL    HW131484   6.763   4.541   1.702
10195SOL    HW231485   6.849   4.531   1.840
10196SOL     OW31486   0.159   1.955   4.314
10196SOL    HW131487   0.082   2.018   4.301
10196SOL    HW231488   0.172   1.939   4.412
10197SOL     OW31489   5.966   0.529   5.913
10197SOL    HW131490   6.006   0.447   5.872
10197SOL    HW231491   5.876   0.507   5.951
10198SOL     OW31492   3.915   6.803   3.055
10198SOL    HW131493   3.957   6.753   2.979
10198SOL    HW231494   3.821   6.771   3.069
10199SOL     OW31495   1.484   2.763   5.349
10199SOL    HW131496   1.425   2.720   5.280
10199SOL    HW231497   1.443   2.753   5.439
10200SOL     OW31498   5.984   3.587   1.414
10200SOL    HW131499   5.907   3.527   1.393
10200SOL    HW231500   6.069   3.537   1.403
10201SOL     OW31501   1.323   3.183   0.497
10201SOL    HW131502   1.357   3.258   0.440
10201SOL    HW231503   1.227   3.166   0.476
10202SOL     OW31504   3.527   0.463   5.500
10202SOL    HW131505   3.479   0.467   5.588
10202SOL    HW231506   3.470   0.418   5.432
10203SOL     OW31507   6.485   2.705   4.666
10203SOL    HW131508   6.584   2.712   4.650
10203SOL    HW231509   6.436   2.752   4.592
10204SOL     OW31510   5.126   6.464   6.638
10204SOL    HW131511   5.147   6.407   6.717
10204SOL    HW231512   5.200   6.457   6.571
10205SOL     OW31513   1.028   0.508   6.018
10205SOL    HW131514   1.046   0.604   6.037
10205SOL    HW231515   1.103   0.470   5.964
10206SOL     OW31516   1.199   0.804   5.148
10206SOL    HW131517   1.178   0.706   5.146
10206SOL    HW231518   1.278   0.821   5.089
10207SOL     OW31519   1.172   1.788   5.529
10207SOL    HW131520   1.133   1.696   5.521
10207SOL    HW231521   1.219   1.811   5.443
10208SOL     OW31522   6.602   5.029   5.766
10208SOL    HW131523   6.696   5.014   5.796
10208SOL    HW231524   6.542   5.033   5.845
10209SOL     OW31525   6.784   6.986   6.421
10209SOL    HW131526   6.843   6.907   6.407
10209SOL    HW231527   6.702   6.976   6.364
10210SOL     OW31528   3.974   6.339   2.039
10210SOL    HW131529   4.028   6.329   2.122
10210SOL    HW231530   3.884   6.375   2.062
10211SOL     OW31531   4.283   5.992   5.266
10211SOL    HW131532   4.370   5.988   5.217
10211SOL    HW231533   4.283   5.923   5.338
10212SOL     OW31534   0.683   0.581   6.279
10212SOL    HW131535   0.628   0.571   6.363
10212SOL    HW231536   0.622   0.604   6.203
10213SOL     OW31537   5.696   1.653   0.784
10213SOL    HW131538   5.617   1.608   0.825
10213SOL    HW231539   5.676   1.749   0.768
10214SOL     OW31540   0.826   2.545   0.848
10214SOL    HW131541   0.908   2.597   0.823
10214SOL    HW231542   0.760   2.550   0.773
10215SOL     OW31543   3.147   3.512   2.041
10215SOL    HW131544   3.247   3.509   2.041
10215SOL    HW231545   3.115   3.564   2.120
10216SOL     OW31546   6.535   6.711   2.926
10216SOL    HW131547   6.525   6.808   2.949
10216SOL    HW231548   6.589   6.665   2.997
10217SOL     OW31549   3.354   0.824   3.920
10217SOL    HW131550   3.255   0.809   3.911
10217SOL    HW231551   3.381   0.901   3.863
10218SOL     OW31552   1.512   2.582   2.283
10218SOL    HW131553   1.474   2.650   2.346
10218SOL    HW231554   1.461   2.583   2.197
10219SOL     OW31555   0.272   0.081   2.744
10219SOL    HW131556   0.203   0.129   2.690
10219SOL    HW231557   0.309   0.142   2.814
10220SOL     OW31558   3.294   2.551   1.729
10220SOL    HW131559   3.390   2.522   1.731
10220SOL    HW231560   3.235   2.471   1.730
10221SOL     OW31561   0.661   6.060   3.539
10221SOL    HW131562   0.679   5.962   3.537
10221SOL    HW231563   0.744   6.110   3.516
10222SOL     OW31564   2.967   3.730   4.276
10222SOL    HW131565   3.020   3.654   4.239
10222SOL    HW231566   2.911   3.697   4.352
10223SOL     OW31567   0.525   5.750   1.760
10223SOL    HW131568   0.477   5.697   1.690
10223SOL    HW231569   0.490   5.844   1.760
10224SOL     OW31570   5.699   4.094   3.256
10224SOL    HW131571   5.611   4.048   3.263
10224SOL    HW231572   5.744   4.095   3.345
10225SOL     OW31573   2.356   3.860   5.942
10225SOL    HW131574   2.322   3.949   5.910
10225SOL    HW231575   2.278   3.803   5.968
10226SOL     OW31576   4.793   2.606   6.958
10226SOL    HW131577   4.796   2.506   6.952
10226SOL    HW231578   4.875   2.639   7.004
10227SOL     OW31579   5.508   3.926   1.140
10227SOL    HW131580   5.441   3.998   1.120
10227SOL    HW231581   5.595   3.969   1.167
10228SOL     OW31582   5.198   0.672   1.416
10228SOL    HW131583   5.113   0.725   1.423
10228SOL    HW231584   5.181   0.591   1.360
10229SOL     OW31585   6.821   3.324   4.357
10229SOL    HW131586   6.907   3.305   4.310
10229SOL    HW231587   6.833   3.401   4.420
10230SOL     OW31588   0.410   6.250   2.550
10230SOL    HW131589   0.352   6.182   2.594
10230SOL    HW231590   0.364   6.283   2.467
10231SOL     OW31591   1.327   5.215   2.727
10231SOL    HW131592   1.278   5.225   2.641
10231SOL    HW231593   1.315   5.298   2.782
10232SOL     OW31594   4.939   4.893   3.945
10232SOL    HW131595   4.963   4.968   3.883
10232SOL    HW231596   5.022   4.851   3.981
10233SOL     OW31597   3.723   3.995   6.037
10233SOL    HW131598   3.685   3.903   6.049
10233SOL    HW231599   3.650   4.062   6.047
10234SOL     OW31600   0.555   1.318   1.749
10234SOL    HW131601   0.555   1.341   1.846
10234SOL    HW231602   0.465   1.283   1.722
10235SOL     OW31603   1.398   0.922   2.789
10235SOL    HW131604   1.385   1.020   2.805
10235SOL    HW231605   1.479   0.908   2.732
10236SOL     OW31606   2.457   6.843   1.681
10236SOL    HW131607   2.441   6.839   1.583
10236SOL    HW231608   2.529   6.910   1.700
10237SOL     OW31609   0.521   3.216   5.747
10237SOL    HW131610   0.502   3.123   5.717
10237SOL    HW231611   0.604   3.217   5.802
10238SOL     OW31612   3.323   6.708   1.411
10238SOL    HW131613   3.229   6.712   1.446
10238SOL    HW231614   3.387   6.695   1.487
10239SOL     OW31615   1.120   2.701   4.356
10239SOL    HW131616   1.073   2.787   4.337
10239SOL    HW231617   1.138   2.693   4.454
10240SOL     OW31618   2.360   6.641   0.865
10240SOL    HW131619   2.336   6.646   0.962
10240SOL    HW231620   2.276   6.630   0.811
10241SOL     OW31621   3.975   2.510   1.633
10241SOL    HW131622   3.902   2.575   1.615
10241SOL    HW231623   3.943   2.440   1.697
10242SOL     OW31624   6.767   2.885   6.685
10242SOL    HW131625   6.864   2.862   6.684
10242SOL    HW231626   6.751   2.962   6.747
10243SOL     OW31627   2.624   5.382   1.131
10243SOL    HW131628   2.707   5.438   1.125
10243SOL    HW231629   2.617   5.325   1.049
10244SOL     OW31630   2.783   4.446   1.479
10244SOL    HW131631   2.882   4.441   1.467
10244SOL    HW231632   2.749   4.359   1.514
10245SOL     OW31633   4.515   3.812   0.648
10245SOL    HW131634   4.538   3.783   0.741
10245SOL    HW231635   4.462   3.897   0.652
10246SOL     OW31636   2.987   3.212   4.135
10246SOL    HW131637   2.964   3.180   4.226
10246SOL    HW231638   3.060   3.154   4.097
10247SOL     OW31639   0.536   2.734   4.462
10247SOL    HW131640   0.602   2.762   4.392
10247SOL    HW231641   0.555   2.640   4.490
10248SOL     OW31642   1.462   0.361   3.702
10248SOL    HW131643   1.546   0.405   3.734
10248SOL    HW231644   1.478   0.262   3.692
10249SOL     OW31645   2.749   5.594   6.363
10249SOL    HW131646   2.723   5.541   6.282
10249SOL    HW231647   2.841   5.568   6.392
10250SOL     OW31648   4.157   2.406   1.006
10250SOL    HW131649   4.158   2.493   1.056
10250SOL    HW231650   4.084   2.348   1.042
10251SOL     OW31651   1.692   0.308   4.444
10251SOL    HW131652   1.609   0.339   4.491
10251SOL    HW231653   1.759   0.278   4.511
10252SOL     OW31654   5.935   4.263   6.248
10252SOL    HW131655   6.026   4.261   6.291
10252SOL    HW231656   5.934   4.198   6.171
10253SOL     OW31657   3.489   6.298   6.137
10253SOL    HW131658   3.390   6.292   6.130
10253SOL    HW231659   3.516   6.293   6.233
10254SOL     OW31660   5.829   1.046   5.446
10254SOL    HW131661   5.916   1.057   5.398
10254SOL    HW231662   5.780   0.967   5.409
10255SOL     OW31663   3.942   4.964   1.902
10255SOL    HW131664   4.027   4.913   1.913
10255SOL    HW231665   3.917   5.007   1.989
10256SOL     OW31666   3.909   1.416   2.915
10256SOL    HW131667   3.911   1.328   2.868
10256SOL    HW231668   3.824   1.424   2.966
10257SOL     OW31669   3.411   5.155   2.754
10257SOL    HW131670   3.323   5.198   2.735
10257SOL    HW231671   3.483   5.204   2.706
10258SOL     OW31672   1.615   0.937   2.112
10258SOL    HW131673   1.668   0.891   2.040
10258SOL    HW231674   1.524   0.960   2.077
10259SOL     OW31675   1.609   4.449   3.798
10259SOL    HW131676   1.643   4.519   3.734
10259SOL    HW231677   1.686   4.396   3.833
10260SOL     OW31678   1.037   0.587   3.589
10260SOL    HW131679   1.083   0.499   3.580
10260SOL    HW231680   1.104   0.661   3.582
10261SOL     OW31681   6.821   3.583   0.946
10261SOL    HW131682   6.888   3.546   1.010
10261SOL    HW231683   6.830   3.683   0.943
10262SOL     OW31684   4.448   1.175   0.758
10262SOL    HW131685   4.495   1.159   0.845
10262SOL    HW231686   4.513   1.213   0.692
10263SOL     OW31687   6.119   0.779   1.885
10263SOL    HW131688   6.163   0.706   1.833
10263SOL    HW231689   6.025   0.792   1.853
10264SOL     OW31690   0.113   6.084   6.428
10264SOL    HW131691   0.018   6.098   6.397
10264SOL    HW231692   0.113   6.039   6.517
10265SOL     OW31693   2.093   1.711   0.631
10265SOL    HW131694   2.071   1.666   0.545
10265SOL    HW231695   2.019   1.696   0.697
10266SOL     OW31696   2.720   3.656   1.746
10266SOL    HW131697   2.633   3.609   1.733
10266SOL    HW231698   2.706   3.755   1.740
10267SOL     OW31699   5.935   0.935   1.342
10267SOL    HW131700   6.008   0.980   1.290
10267SOL    HW231701   5.903   0.855   1.292
10268SOL     OW31702   4.128   0.160   1.314
10268SOL    HW131703   4.101   0.125   1.225
10268SOL    HW231704   4.174   0.248   1.302
10269SOL     OW31705   2.734   2.582   0.338
10269SOL    HW131706   2.763   2.634   0.418
10269SOL    HW231707   2.635   2.570   0.339
10270SOL     OW31708   2.859   6.968   2.251
10270SOL    HW131709   2.831   0.033   2.204
10270SOL    HW231710   2.797   6.893   2.226
10271SOL     OW31711   1.378   2.040   6.867
10271SOL    HW131712   1.407   2.005   6.777
10271SOL    HW231713   1.453   2.092   6.907
10272SOL     OW31714   6.334   0.407   4.687
10272SOL    HW131715   6.368   0.314   4.676
10272SOL    HW231716   6.403   0.472   4.655
10273SOL     OW31717   2.391   5.345   3.124
10273SOL    HW131718   2.377   5.407   3.201
10273SOL    HW231719   2.470   5.376   3.070
10274SOL     OW31720   0.757   5.151   5.550
10274SOL    HW131721   0.797   5.201   5.473
10274SOL    HW231722   0.669   5.112   5.523
10275SOL     OW31723   0.054   0.188   2.583
10275SOL    HW131724   6.987   0.229   2.554
10275SOL    HW231725   0.130   0.230   2.534
10276SOL     OW31726   3.504   5.730   5.646
10276SOL    HW131727   3.564   5.656   5.614
10276SOL    HW231728   3.519   5.811   5.589
10277SOL     OW31729   0.538   6.343   4.215
10277SOL    HW131730   0.487   6.358   4.300
10277SOL    HW231731   0.629   6.309   4.237
10278SOL     OW31732   6.826   0.652   4.995
10278SOL    HW131733   6.857   0.725   5.055
10278SOL    HW231734   6.728   0.662   4.978
10279SOL     OW31735   2.284   5.840   4.212
10279SOL    HW131736   2.273   5.767   4.280
10279SOL    HW231737   2.379   5.843   4.182
10280SOL     OW31738   6.028   4.053   0.564
10280SOL    HW131739   6.065   3.970   0.606
10280SOL    HW231740   6.099   4.098   0.510
10281SOL     OW31741   6.909   1.868   3.488
10281SOL    HW131742   6.865   1.816   3.562
10281SOL    HW231743   6.868   1.959   3.483
10282SOL     OW31744   4.958   3.461   3.549
10282SOL    HW131745   4.915   3.537   3.599
10282SOL    HW231746   5.029   3.421   3.606
10283SOL     OW31747   0.676   3.188   1.110
10283SOL    HW131748   0.651   3.173   1.205
10283SOL    HW231749   0.619   3.130   1.051
10284SOL     OW31750   0.257   2.913   3.782
10284SOL    HW131751   0.195   2.835   3.793
10284SOL    HW231752   0.252   2.946   3.688
10285SOL     OW31753   5.460   5.771   5.091
10285SOL    HW131754   5.500   5.854   5.131
10285SOL    HW231755   5.362   5.786   5.075
10286SOL     OW31756   2.879   1.303   3.921
10286SOL    HW131757   2.797   1.284   3.975
10286SOL    HW231758   2.862   1.379   3.859
10287SOL     OW31759   2.744   5.589   2.640
10287SOL    HW131760   2.710   5.494   2.635
10287SOL    HW231761   2.720   5.637   2.555
10288SOL     OW31762   3.557   6.967   5.563
10288SOL    HW131763   3.508   7.001   5.482
10288SOL    HW231764   3.625   6.899   5.534
10289SOL     OW31765   2.988   5.464   6.430
10289SOL    HW131766   3.059   5.402   6.395
10289SOL    HW231767   3.009   5.488   6.524
10290SOL     OW31768   3.177   3.055   2.130
10290SOL    HW131769   3.197   3.037   2.033
10290SOL    HW231770   3.093   3.108   2.137
10291SOL     OW31771   1.905   1.483   2.533
10291SOL    HW131772   1.934   1.563   2.480
10291SOL    HW231773   1.979   1.457   2.596
10292SOL     OW31774   6.279   6.695   6.707
10292SOL    HW131775   6.344   6.747   6.652
10292SOL    HW231776   6.262   6.606   6.665
10293SOL     OW31777   1.215   3.982   4.013
10293SOL    HW131778   1.307   4.021   4.005
10293SOL    HW231779   1.220   3.883   4.000
10294SOL     OW31780   3.770   1.630   2.076
10294SOL    HW131781   3.759   1.635   2.175
10294SOL    HW231782   3.691   1.671   2.031
10295SOL     OW31783   0.877   2.254   6.701
10295SOL    HW131784   0.870   2.333   6.640
10295SOL    HW231785   0.932   2.182   6.657
10296SOL     OW31786   5.743   1.348   5.490
10296SOL    HW131787   5.794   1.263   5.479
10296SOL    HW231788   5.718   1.359   5.586
10297SOL     OW31789   3.420   1.481   0.040
10297SOL    HW131790   3.448   1.497   6.963
10297SOL    HW231791   3.383   1.566   0.078
10298SOL     OW31792   0.774   2.387   2.699
10298SOL    HW131793   0.778   2.360   2.795
10298SOL    HW231794   0.834   2.328   2.645
10299SOL     OW31795   4.188   6.198   3.156
10299SOL    HW131796   4.161   6.253   3.077
10299SOL    HW231797   4.168   6.249   3.240
10300SOL     OW31798   0.849   3.840   1.853
10300SOL    HW131799   0.801   3.752   1.847
10300SOL    HW231800   0.866   3.862   1.949
10301SOL     OW31801   4.303   0.230   6.364
10301SOL    HW131802   4.362   0.274   6.433
10301SOL    HW231803   4.354   0.220   6.279
10302SOL     OW31804   2.676   6.062   4.824
10302SOL    HW131805   2.619   6.016   4.892
10302SOL    HW231806   2.756   6.102   4.868
10303SOL     OW31807   0.884   6.007   4.821
10303SOL    HW131808   0.800   6.015   4.876
10303SOL    HW231809   0.879   6.070   4.744
10304SOL     OW31810   6.137   6.459   0.450
10304SOL    HW131811   6.177   6.369   0.463
10304SOL    HW231812   6.162   6.519   0.526
10305SOL     OW31813   2.441   4.423   5.877
10305SOL    HW131814   2.378   4.403   5.952
10305SOL    HW231815   2.457   4.522   5.872
10306SOL     OW31816   4.535   0.572   1.280
10306SOL    HW131817   4.515   0.543   1.186
10306SOL    HW231818   4.596   0.652   1.277
10307SOL     OW31819   2.432   0.054   4.711
10307SOL    HW131820   2.349   0.002   4.694
10307SOL    HW231821   2.498   0.037   4.637
10308SOL     OW31822   2.787   5.133   2.260
10308SOL    HW131823   2.819   5.221   2.295
10308SOL    HW231824   2.855   5.062   2.282
10309SOL     OW31825   6.622   1.374   4.708
10309SOL    HW131826   6.538   1.323   4.728
10309SOL    HW231827   6.680   1.374   4.789
10310SOL     OW31828   2.475   3.958   5.612
10310SOL    HW131829   2.377   3.967   5.597
10310SOL    HW231830   2.515   4.048   5.629
10311SOL     OW31831   5.133   5.743   0.673
10311SOL    HW131832   5.157   5.683   0.597
10311SOL    HW231833   5.041   5.722   0.705
10312SOL     OW31834   4.354   0.782   1.969
10312SOL    HW131835   4.277   0.728   2.001
10312SOL    HW231836   4.326   0.876   1.954
10313SOL     OW31837   4.596   6.616   3.295
10313SOL    HW131838   4.675   6.635   3.237
10313SOL    HW231839   4.516   6.599   3.238
10314SOL     OW31840   0.435   0.572   1.387
10314SOL    HW131841   0.424   0.648   1.451
10314SOL    HW231842   0.421   0.604   1.294
10315SOL     OW31843   5.747   5.469   3.572
10315SOL    HW131844   5.836   5.438   3.538
10315SOL    HW231845   5.741   5.450   3.670
10316SOL     OW31846   0.408   2.027   6.546
10316SOL    HW131847   0.456   2.030   6.458
10316SOL    HW231848   0.310   2.013   6.530
10317SOL     OW31849   4.070   5.579   5.955
10317SOL    HW131850   3.995   5.645   5.947
10317SOL    HW231851   4.094   5.568   6.052
10318SOL     OW31852   6.074   6.820   0.239
10318SOL    HW131853   6.125   6.880   0.177
10318SOL    HW231854   6.136   6.782   0.308
10319SOL     OW31855   0.393   4.917   4.257
10319SOL    HW131856   0.438   4.940   4.171
10319SOL    HW231857   0.375   4.818   4.260
10320SOL     OW31858   0.744   0.002   4.104
10320SOL    HW131859   0.787   6.998   4.191
10320SOL    HW231860   0.698   6.939   4.067
10321SOL     OW31861   5.370   2.501   2.044
10321SOL    HW131862   5.435   2.549   2.102
10321SOL    HW231863   5.342   2.415   2.087
10322SOL     OW31864   4.565   4.556   4.835
10322SOL    HW131865   4.485   4.549   4.895
10322SOL    HW231866   4.535   4.577   4.742
10323SOL     OW31867   0.681   4.293   5.255
10323SOL    HW131868   0.726   4.349   5.324
10323SOL    HW231869   0.749   4.247   5.198
10324SOL     OW31870   3.345   3.288   2.151
10324SOL    HW131871   3.442   3.272   2.165
10324SOL    HW231872   3.297   3.201   2.140
10325SOL     OW31873   6.954   5.708   3.211
10325SOL    HW131874   6.892   5.780   3.241
10325SOL    HW231875   0.030   5.736   3.226
10326SOL     OW31876   5.438   3.362   6.775
10326SOL    HW131877   5.535   3.380   6.759
10326SOL    HW231878   5.419   3.366   6.873
10327SOL     OW31879   2.341   4.401   1.332
10327SOL    HW131880   2.284   4.384   1.413
10327SOL    HW231881   2.402   4.478   1.351
10328SOL     OW31882   6.382   2.623   1.884
10328SOL    HW131883   6.364   2.573   1.968
10328SOL    HW231884   6.417   2.559   1.815
10329SOL     OW31885   3.946   1.610   2.727
10329SOL    HW131886   3.937   1.530   2.787
10329SOL    HW231887   3.998   1.681   2.774
10330SOL     OW31888   4.114   0.879   1.220
10330SOL    HW131889   4.119   0.792   1.172
10330SOL    HW231890   4.083   0.864   1.314
10331SOL     OW31891   6.389   5.749   6.900
10331SOL    HW131892   6.334   5.749   6.983
10331SOL    HW231893   6.421   5.656   6.881
10332SOL     OW31894   1.020   1.125   6.714
10332SOL    HW131895   1.040   1.089   6.623
10332SOL    HW231896   1.073   1.209   6.728
10333SOL     OW31897   0.962   5.312   4.605
10333SOL    HW131898   1.032   5.345   4.541
10333SOL    HW231899   0.905   5.243   4.560
10334SOL     OW31900   2.976   0.185   3.696
10334SOL    HW131901   2.963   0.241   3.778
10334SOL    HW231902   3.057   0.218   3.646
10335SOL     OW31903   0.265   2.543   5.608
10335SOL    HW131904   0.206   2.593   5.671
10335SOL    HW231905   0.355   2.530   5.649
10336SOL     OW31906   5.258   6.962   3.472
10336SOL    HW131907   5.280   6.955   3.374
10336SOL    HW231908   5.176   6.909   3.492
10337SOL     OW31909   6.165   5.409   6.659
10337SOL    HW131910   6.117   5.385   6.743
10337SOL    HW231911   6.167   5.329   6.598
10338SOL     OW31912   1.648   6.264   1.930
10338SOL    HW131913   1.725   6.202   1.917
10338SOL    HW231914   1.655   6.308   2.019
10339SOL     OW31915   6.156   2.090   5.548
10339SOL    HW131916   6.126   2.005   5.590
10339SOL    HW231917   6.221   2.070   5.475
10340SOL     OW31918   2.609   3.820   6.343
10340SOL    HW131919   2.681   3.790   6.279
10340SOL    HW231920   2.534   3.754   6.342
10341SOL     OW31921   2.181   2.572   2.745
10341SOL    HW131922   2.136   2.487   2.719
10341SOL    HW231923   2.242   2.556   2.822
10342SOL     OW31924   1.068   1.249   3.349
10342SOL    HW131925   1.029   1.278   3.261
10342SOL    HW231926   1.168   1.251   3.344
10343SOL     OW31927   2.467   5.325   1.332
10343SOL    HW131928   2.479   5.400   1.396
10343SOL    HW231929   2.533   5.333   1.257
10344SOL     OW31930   4.354   5.161   5.727
10344SOL    HW131931   4.268   5.122   5.759
10344SOL    HW231932   4.356   5.259   5.747
10345SOL     OW31933   1.657   3.540   4.338
10345SOL    HW131934   1.563   3.574   4.330
10345SOL    HW231935   1.704   3.591   4.409
10346SOL     OW31936   0.244   5.736   1.176
10346SOL    HW131937   0.207   5.822   1.140
10346SOL    HW231938   0.232   5.734   1.275
10347SOL     OW31939   4.913   1.559   3.600
10347SOL    HW131940   4.904   1.632   3.668
10347SOL    HW231941   4.903   1.598   3.508
10348SOL     OW31942   6.561   3.876   0.623
10348SOL    HW131943   6.476   3.840   0.586
10348SOL    HW231944   6.639   3.837   0.574
10349SOL     OW31945   0.980   6.882   6.626
10349SOL    HW131946   0.910   6.847   6.564
10349SOL    HW231947   0.987   6.981   6.616
10350SOL     OW31948   3.125   6.883   6.101
10350SOL    HW131949   3.029   6.912   6.100
10350SOL    HW231950   3.173   6.928   6.176
10351SOL     OW31951   4.866   5.088   5.899
10351SOL    HW131952   4.812   5.171   5.883
10351SOL    HW231953   4.931   5.075   5.825
10352SOL     OW31954   3.579   3.268   6.337
10352SOL    HW131955   3.641   3.277   6.414
10352SOL    HW231956   3.568   3.357   6.292
10353SOL     OW31957   7.011   2.035   4.660
10353SOL    HW131958   0.089   2.015   4.671
10353SOL    HW231959   6.963   1.954   4.625
10354SOL     OW31960   5.854   1.656   1.620
10354SOL    HW131961   5.757   1.671   1.601
10354SOL    HW231962   5.869   1.654   1.718
10355SOL     OW31963   2.129   5.557   2.123
10355SOL    HW131964   2.140   5.640   2.178
10355SOL    HW231965   2.080   5.580   2.039
10356SOL     OW31966   0.025   3.722   4.651
10356SOL    HW131967   6.964   3.762   4.697
10356SOL    HW231968   0.049   3.778   4.571
10357SOL     OW31969   2.467   1.811   0.331
10357SOL    HW131970   2.488   1.728   0.279
10357SOL    HW231971   2.398   1.865   0.283
10358SOL     OW31972   0.670   1.638   2.028
10358SOL    HW131973   0.694   1.657   1.933
10358SOL    HW231974   0.707   1.549   2.056
10359SOL     OW31975   0.248   1.234   1.272
10359SOL    HW131976   0.227   1.328   1.248
10359SOL    HW231977   0.183   1.172   1.228
10360SOL     OW31978   5.940   5.991   3.682
10360SOL    HW131979   5.915   6.040   3.599
10360SOL    HW231980   5.863   5.936   3.713
10361SOL     OW31981   1.981   4.760   1.141
10361SOL    HW131982   1.900   4.820   1.140
10361SOL    HW231983   2.052   4.801   1.198
10362SOL     OW31984   1.546   4.831   4.207
10362SOL    HW131985   1.625   4.891   4.218
10362SOL    HW231986   1.544   4.796   4.113
10363SOL     OW31987   5.448   0.960   3.875
10363SOL    HW131988   5.374   1.003   3.822
10363SOL    HW231989   5.466   1.014   3.956
10364SOL     OW31990   1.178   4.288   1.329
10364SOL    HW131991   1.167   4.244   1.418
10364SOL    HW231992   1.092   4.280   1.277
10365SOL     OW31993   4.461   5.780   6.814
10365SOL    HW131994   4.438   5.684   6.800
10365SOL    HW231995   4.414   5.815   6.894
10366SOL     OW31996   3.349   6.483   3.777
10366SOL    HW131997   3.295   6.532   3.708
10366SOL    HW231998   3.289   6.458   3.854
10367SOL     OW31999   6.815   2.128   3.535
10367SOL    HW132000   6.809   2.196   3.462
10367SOL    HW232001   6.723   2.104   3.566
10368SOL     OW32002   1.840   0.456   1.404
10368SOL    HW132003   1.751   0.444   1.359
10368SOL    HW232004   1.890   0.531   1.360
10369SOL     OW32005   3.946   2.898   0.293
10369SOL    HW132006   3.896   2.812   0.297
10369SOL    HW232007   4.041   2.883   0.320
10370SOL     OW32008   3.586   0.519   4.924
10370SOL    HW132009   3.571   0.590   4.994
10370SOL    HW232010   3.635   0.559   4.847
10371SOL     OW32011   5.012   6.596   6.046
10371SOL    HW132012   4.959   6.593   6.131
10371SOL    HW232013   4.972   6.532   5.980
10372SOL     OW32014   1.148   0.536   2.952
10372SOL    HW132015   1.125   0.626   2.915
10372SOL    HW232016   1.068   0.499   2.999
10373SOL     OW32017   1.293   5.861   5.024
10373SOL    HW132018   1.242   5.776   5.040
10373SOL    HW232019   1.244   5.916   4.956
10374SOL     OW32020   3.064   2.190   3.981
10374SOL    HW132021   2.988   2.248   4.009
10374SOL    HW232022   3.112   2.155   4.061
10375SOL     OW32023   6.213   2.354   0.051
10375SOL    HW132024   6.247   2.445   0.073
10375SOL    HW232025   6.290   2.292   0.034
10376SOL     OW32026   0.200   1.656   3.726
10376SOL    HW132027   0.286   1.607   3.744
10376SOL    HW232028   0.164   1.692   3.812
10377SOL     OW32029   1.041   6.806   4.246
10377SOL    HW132030   0.998   6.747   4.177
10377SOL    HW232031   1.076   6.750   4.320
10378SOL     OW32032   6.963   7.009   6.992
10378SOL    HW132033   6.951   6.974   6.899
10378SOL    HW232034   6.998   0.084   6.988
10379SOL     OW32035   5.414   1.684   4.343
10379SOL    HW132036   5.501   1.716   4.306
10379SOL    HW232037   5.364   1.632   4.273
10380SOL     OW32038   4.554   0.737   2.595
10380SOL    HW132039   4.524   0.653   2.550
10380SOL    HW232040   4.505   0.747   2.682
10381SOL     OW32041   4.542   5.105   5.021
10381SOL    HW132042   4.588   5.023   5.056
10381SOL    HW232043   4.451   5.080   4.989
10382SOL     OW32044   2.271   5.456   0.827
10382SOL    HW132045   2.172   5.446   0.841
10382SOL    HW232046   2.290   5.546   0.786
10383SOL     OW32047   6.769   2.860   6.408
10383SOL    HW132048   6.849   2.802   6.391
10383SOL    HW232049   6.783   2.911   6.493
10384SOL     OW32050   6.042   0.161   0.152
10384SOL    HW132051   5.986   0.089   0.193
10384SOL    HW232052   6.117   0.120   0.101
10385SOL     OW32053   5.608   2.260   6.701
10385SOL    HW132054   5.645   2.182   6.751
10385SOL    HW232055   5.509   2.267   6.718
10386SOL     OW32056   5.887   2.735   6.089
10386SOL    HW132057   5.856   2.738   6.184
10386SOL    HW232058   5.961   2.801   6.075
10387SOL     OW32059   2.190   3.088   3.423
10387SOL    HW132060   2.282   3.048   3.431
10387SOL    HW232061   2.122   3.019   3.446
10388SOL     OW32062   1.420   4.464   2.888
10388SOL    HW132063   1.471   4.378   2.877
10388SOL    HW232064   1.405   4.481   2.986
10389SOL     OW32065   0.413   5.820   3.086
10389SOL    HW132066   0.492   5.800   3.027
10389SOL    HW232067   0.444   5.859   3.172
10390SOL     OW32068   1.634   3.065   3.397
10390SOL    HW132069   1.582   2.987   3.363
10390SOL    HW232070   1.670   3.043   3.488
10391SOL     OW32071   3.234   6.541   5.410
10391SOL    HW132072   3.275   6.453   5.386
10391SOL    HW232073   3.237   6.553   5.509
10392SOL     OW32074   6.867   4.912   6.695
10392SOL    HW132075   6.908   4.897   6.785
10392SOL    HW232076   6.840   4.824   6.656
10393SOL     OW32077   1.488   0.841   3.950
10393SOL    HW132078   1.390   0.848   3.969
10393SOL    HW232079   1.517   0.921   3.897
10394SOL     OW32080   2.463   6.729   6.646
10394SOL    HW132081   2.557   6.758   6.661
10394SOL    HW232082   2.426   6.775   6.565
10395SOL     OW32083   1.339   1.451   5.159
10395SOL    HW132084   1.384   1.514   5.096
10395SOL    HW232085   1.375   1.359   5.145
10396SOL     OW32086   0.305   0.309   5.157
10396SOL    HW132087   0.405   0.319   5.153
10396SOL    HW232088   0.275   0.309   5.252
10397SOL     OW32089   4.236   1.779   2.593
10397SOL    HW132090   4.257   1.828   2.678
10397SOL    HW232091   4.238   1.842   2.516
10398SOL     OW32092   6.752   2.807   2.858
10398SOL    HW132093   6.764   2.711   2.883
10398SOL    HW232094   6.841   2.847   2.836
10399SOL     OW32095   6.347   1.913   5.284
10399SOL    HW132096   6.297   1.835   5.322
10399SOL    HW232097   6.412   1.881   5.215
10400SOL     OW32098   2.190   4.715   1.655
10400SOL    HW132099   2.178   4.691   1.558
10400SOL    HW232100   2.237   4.640   1.702
10401SOL     OW32101   0.991   6.021   1.281
10401SOL    HW132102   1.007   5.998   1.377
10401SOL    HW232103   0.960   6.116   1.274
10402SOL     OW32104   0.280   2.652   4.371
10402SOL    HW132105   0.346   2.587   4.409
10402SOL    HW232106   0.327   2.736   4.343
10403SOL     OW32107   5.183   1.719   2.187
10403SOL    HW132108   5.129   1.770   2.120
10403SOL    HW232109   5.168   1.621   2.175
10404SOL     OW32110   0.280   6.669   3.598
10404SOL    HW132111   0.277   6.570   3.583
10404SOL    HW232112   0.285   6.716   3.509
10405SOL     OW32113   1.666   6.831   6.924
10405SOL    HW132114   1.613   6.852   6.842
10405SOL    HW232115   1.715   6.745   6.911
10406SOL     OW32116   2.553   5.118   5.849
10406SOL    HW132117   2.543   5.070   5.762
10406SOL    HW232118   2.569   5.052   5.922
10407SOL     OW32119   1.389   1.141   6.171
10407SOL    HW132120   1.362   1.089   6.090
10407SOL    HW232121   1.459   1.209   6.146
10408SOL     OW32122   3.944   5.135   3.132
10408SOL    HW132123   3.985   5.216   3.174
10408SOL    HW232124   3.915   5.071   3.203
10409SOL     OW32125   6.055   4.803   2.414
10409SOL    HW132126   5.976   4.784   2.473
10409SOL    HW232127   6.026   4.861   2.338
10410SOL     OW32128   6.080   0.028   0.500
10410SOL    HW132129   6.147   6.972   0.496
10410SOL    HW232130   6.110   0.103   0.441
10411SOL     OW32131   1.552   4.112   2.361
10411SOL    HW132132   1.557   4.014   2.383
10411SOL    HW232133   1.478   4.128   2.297
10412SOL     OW32134   0.484   2.348   6.819
10412SOL    HW132135   0.410   2.305   6.766
10412SOL    HW232136   0.491   2.445   6.792
10413SOL     OW32137   6.896   1.785   6.123
10413SOL    HW132138   6.826   1.783   6.051
10413SOL    HW232139   6.942   1.696   6.126
10414SOL     OW32140   5.633   0.321   5.007
10414SOL    HW132141   5.562   0.390   5.019
10414SOL    HW232142   5.718   0.351   5.051
10415SOL     OW32143   0.553   5.549   3.215
10415SOL    HW132144   0.561   5.480   3.143
10415SOL    HW232145   0.457   5.568   3.233
10416SOL     OW32146   4.685   0.436   6.954
10416SOL    HW132147   4.760   0.493   6.986
10416SOL    HW232148   4.607   0.446   7.015
10417SOL     OW32149   4.167   4.752   4.582
10417SOL    HW132150   4.230   4.749   4.659
10417SOL    HW232151   4.158   4.846   4.549
10418SOL     OW32152   6.870   3.649   6.529
10418SOL    HW132153   6.965   3.621   6.547
10418SOL    HW232154   6.808   3.575   6.555
10419SOL     OW32155   2.259   1.720   4.162
10419SOL    HW132156   2.242   1.786   4.088
10419SOL    HW232157   2.246   1.627   4.127
10420SOL     OW32158   5.153   3.404   3.764
10420SOL    HW132159   5.062   3.415   3.803
10420SOL    HW232160   5.220   3.450   3.822
10421SOL     OW32161   1.250   4.772   3.520
10421SOL    HW132162   1.288   4.692   3.566
10421SOL    HW232163   1.324   4.826   3.480
10422SOL     OW32164   5.999   3.481   5.274
10422SOL    HW132165   6.051   3.473   5.189
10422SOL    HW232166   6.043   3.548   5.334
10423SOL     OW32167   2.136   4.994   3.508
10423SOL    HW132168   2.075   5.053   3.455
10423SOL    HW232169   2.189   5.050   3.572
10424SOL     OW32170   3.338   1.684   0.401
10424SOL    HW132171   3.393   1.680   0.318
10424SOL    HW232172   3.244   1.708   0.376
10425SOL     OW32173   2.174   3.222   0.653
10425SOL    HW132174   2.145   3.306   0.699
10425SOL    HW232175   2.258   3.240   0.601
10426SOL     OW32176   5.873   2.455   6.116
10426SOL    HW132177   5.950   2.425   6.173
10426SOL    HW232178   5.886   2.551   6.092
10427SOL     OW32179   5.481   1.186   4.031
10427SOL    HW132180   5.408   1.170   4.097
10427SOL    HW232181   5.497   1.284   4.023
10428SOL     OW32182   1.973   6.766   5.012
10428SOL    HW132183   2.044   6.787   5.079
10428SOL    HW232184   1.956   6.667   5.012
10429SOL     OW32185   1.223   2.857   1.013
10429SOL    HW132186   1.187   2.930   1.072
10429SOL    HW232187   1.245   2.777   1.069
10430SOL     OW32188   3.558   0.686   4.250
10430SOL    HW132189   3.574   0.597   4.209
10430SOL    HW232190   3.588   0.684   4.346
10431SOL     OW32191   3.909   0.858   3.227
10431SOL    HW132192   3.995   0.875   3.276
10431SOL    HW232193   3.874   0.768   3.251
10432SOL     OW32194   1.143   5.241   6.678
10432SOL    HW132195   1.178   5.317   6.735
10432SOL    HW232196   1.100   5.278   6.596
10433SOL     OW32197   3.845   6.129   3.924
10433SOL    HW132198   3.832   6.223   3.891
10433SOL    HW232199   3.929   6.125   3.979
10434SOL     OW32200   4.796   0.659   6.288
10434SOL    HW132201   4.730   0.703   6.227
10434SOL    HW232202   4.748   0.611   6.361
10435SOL     OW32203   2.759   1.497   0.898
10435SOL    HW132204   2.742   1.586   0.941
10435SOL    HW232205   2.715   1.425   0.951
10436SOL     OW32206   0.413   3.607   5.088
10436SOL    HW132207   0.478   3.678   5.117
10436SOL    HW232208   0.426   3.525   5.144
10437SOL     OW32209   6.242   6.629   5.079
10437SOL    HW132210   6.255   6.535   5.050
10437SOL    HW232211   6.166   6.635   5.143
10438SOL     OW32212   6.808   6.260   6.997
10438SOL    HW132213   6.733   6.303   6.947
10438SOL    HW232214   6.792   6.268   0.077
10439SOL     OW32215   6.575   5.466   5.276
10439SOL    HW132216   6.622   5.379   5.258
10439SOL    HW232217   6.617   5.538   5.221
10440SOL     OW32218   5.905   2.721   0.698
10440SOL    HW132219   5.987   2.663   0.701
10440SOL    HW232220   5.912   2.793   0.767
10441SOL     OW32221   4.603   2.186   6.792
10441SOL    HW132222   4.533   2.246   6.754
10441SOL    HW232223   4.594   2.095   6.751
10442SOL     OW32224   1.956   1.428   4.902
10442SOL    HW132225   1.870   1.421   4.953
10442SOL    HW232226   1.949   1.503   4.836
10443SOL     OW32227   1.273   0.846   0.965
10443SOL    HW132228   1.324   0.899   0.896
10443SOL    HW232229   1.258   0.903   1.046
10444SOL     OW32230   3.926   4.924   4.247
10444SOL    HW132231   4.001   4.983   4.219
10444SOL    HW232232   3.906   4.938   4.344
10445SOL     OW32233   1.085   3.330   3.776
10445SOL    HW132234   1.167   3.332   3.719
10445SOL    HW232235   1.004   3.327   3.718
10446SOL     OW32236   2.324   4.870   5.538
10446SOL    HW132237   2.253   4.940   5.552
10446SOL    HW232238   2.410   4.902   5.578
10447SOL     OW32239   0.549   1.732   2.635
10447SOL    HW132240   0.618   1.794   2.597
10447SOL    HW232241   0.590   1.680   2.710
10448SOL     OW32242   2.581   6.485   2.253
10448SOL    HW132243   2.508   6.442   2.199
10448SOL    HW232244   2.614   6.421   2.321
10449SOL     OW32245   4.302   5.191   4.673
10449SOL    HW132246   4.241   5.161   4.747
10449SOL    HW232247   4.364   5.116   4.648
10450SOL     OW32248   6.857   0.988   4.481
10450SOL    HW132249   6.818   0.933   4.407
10450SOL    HW232250   6.793   1.059   4.508
10451SOL     OW32251   3.278   1.744   3.862
10451SOL    HW132252   3.199   1.804   3.875
10451SOL    HW232253   3.326   1.769   3.778
10452SOL     OW32254   5.988   2.720   4.492
10452SOL    HW132255   6.010   2.623   4.496
10452SOL    HW232256   5.993   2.760   4.583
10453SOL     OW32257   4.077   5.817   3.760
10453SOL    HW132258   3.980   5.835   3.746
10453SOL    HW232259   4.097   5.814   3.858
10454SOL     OW32260   6.565   1.341   6.797
10454SOL    HW132261   6.601   1.374   6.883
10454SOL    HW232262   6.554   1.241   6.802
10455SOL     OW32263   0.459   5.926   3.347
10455SOL    HW132264   0.542   5.976   3.372
10455SOL    HW232265   0.405   5.907   3.428
10456SOL     OW32266   1.014   5.742   6.544
10456SOL    HW132267   1.015   5.667   6.478
10456SOL    HW232268   1.033   5.828   6.498
10457SOL     OW32269   3.910   2.085   6.351
10457SOL    HW132270   3.982   2.026   6.316
10457SOL    HW232271   3.847   2.108   6.277
10458SOL     OW32272   1.251   5.785   6.994
10458SOL    HW132273   1.251   5.765   6.896
10458SOL    HW232274   1.158   5.780   0.011
10459SOL     OW32275   5.789   5.547   1.653
10459SOL    HW132276   5.866   5.603   1.622
10459SOL    HW232277   5.714   5.607   1.681
10460SOL     OW32278   6.431   0.604   0.534
10460SOL    HW132279   6.340   0.606   0.577
10460SOL    HW232280   6.450   0.511   0.503
10461SOL     OW32281   0.101   4.441   6.660
10461SOL    HW132282   0.041   4.501   6.608
10461SOL    HW232283   0.108   4.474   6.754
10462SOL     OW32284   3.471   3.486   6.174
10462SOL    HW132285   3.430   3.438   6.097
10462SOL    HW232286   3.530   3.560   6.140
10463SOL     OW32287   4.940   2.576   6.558
10463SOL    HW132288   4.988   2.662   6.575
10463SOL    HW232289   5.007   2.505   6.533
10464SOL     OW32290   6.537   4.406   2.826
10464SOL    HW132291   6.456   4.386   2.771
10464SOL    HW232292   6.545   4.505   2.838
10465SOL     OW32293   5.477   5.123   1.361
10465SOL    HW132294   5.399   5.078   1.402
10465SOL    HW232295   5.472   5.221   1.379
10466SOL     OW32296   6.581   3.962   6.095
10466SOL    HW132297   6.612   3.868   6.106
10466SOL    HW232298   6.627   4.004   6.017
10467SOL     OW32299   0.485   2.671   6.768
10467SOL    HW132300   0.427   2.624   6.701
10467SOL    HW232301   0.490   2.768   6.746
10468SOL     OW32302   1.137   4.712   3.827
10468SOL    HW132303   1.225   4.714   3.780
10468SOL    HW232304   1.084   4.634   3.795
10469SOL     OW32305   1.294   1.568   4.297
10469SOL    HW132306   1.227   1.574   4.223
10469SOL    HW232307   1.362   1.641   4.286
10470SOL     OW32308   1.878   3.502   2.811
10470SOL    HW132309   1.910   3.573   2.874
10470SOL    HW232310   1.780   3.488   2.824
10471SOL     OW32311   2.798   6.000   6.818
10471SOL    HW132312   2.799   6.034   6.724
10471SOL    HW232313   2.794   5.900   6.818
10472SOL     OW32314   3.378   4.857   6.830
10472SOL    HW132315   3.412   4.824   6.743
10472SOL    HW232316   3.317   4.935   6.815
10473SOL     OW32317   5.671   4.789   1.067
10473SOL    HW132318   5.650   4.877   1.109
10473SOL    HW232319   5.621   4.716   1.114
10474SOL     OW32320   6.132   0.240   4.969
10474SOL    HW132321   6.040   0.264   4.938
10474SOL    HW232322   6.165   0.160   4.918
10475SOL     OW32323   0.995   5.107   1.159
10475SOL    HW132324   0.933   5.163   1.106
10475SOL    HW232325   0.949   5.074   1.242
10476SOL     OW32326   4.960   6.876   1.491
10476SOL    HW132327   4.890   6.945   1.471
10476SOL    HW232328   4.917   6.787   1.503
10477SOL     OW32329   6.826   5.978   3.797
10477SOL    HW132330   6.778   5.918   3.861
10477SOL    HW232331   6.925   5.960   3.803
10478SOL     OW32332   6.449   0.985   6.583
10478SOL    HW132333   6.407   0.895   6.577
10478SOL    HW232334   6.380   1.053   6.607
10479SOL     OW32335   0.944   2.723   1.902
10479SOL    HW132336   0.919   2.635   1.942
10479SOL    HW232337   0.914   2.797   1.962
10480SOL     OW32338   2.647   0.644   3.642
10480SOL    HW132339   2.648   0.660   3.741
10480SOL    HW232340   2.652   0.732   3.594
10481SOL     OW32341   0.063   1.070   1.156
10481SOL    HW132342   0.084   0.983   1.201
10481SOL    HW232343   6.983   1.080   1.148
10482SOL     OW32344   5.235   2.969   3.814
10482SOL    HW132345   5.237   3.060   3.773
10482SOL    HW232346   5.245   2.977   3.913
10483SOL     OW32347   6.711   6.306   0.229
10483SOL    HW132348   6.742   6.310   0.324
10483SOL    HW232349   6.701   6.398   0.193
10484SOL     OW32350   6.375   0.833   2.237
10484SOL    HW132351   6.392   0.760   2.171
10484SOL    HW232352   6.347   0.792   2.325
10485SOL     OW32353   5.293   3.189   5.587
10485SOL    HW132354   5.193   3.193   5.584
10485SOL    HW232355   5.325   3.226   5.674
10486SOL     OW32356   5.577   3.107   2.358
10486SOL    HW132357   5.499   3.120   2.297
10486SOL    HW232358   5.579   3.013   2.391
10487SOL     OW32359   5.953   6.808   1.663
10487SOL    HW132360   5.992   6.830   1.752
10487SOL    HW232361   6.020   6.829   1.592
10488SOL     OW32362   2.934   3.085   0.075
10488SOL    HW132363   2.836   3.100   0.063
10488SOL    HW232364   2.959   3.101   0.171
10489SOL     OW32365   1.541   5.842   5.074
10489SOL    HW132366   1.442   5.832   5.064
10489SOL    HW232367   1.575   5.907   5.006
10490SOL     OW32368   7.008   0.398   4.060
10490SOL    HW132369   6.989   0.309   4.019
10490SOL    HW232370   0.086   0.401   4.089
10491SOL     OW32371   0.631   4.611   5.741
10491SOL    HW132372   0.610   4.687   5.802
10491SOL    HW232373   0.634   4.643   5.646
10492SOL     OW32374   3.897   3.954   5.666
10492SOL    HW132375   3.931   3.959   5.760
10492SOL    HW232376   3.956   3.893   5.613
10493SOL     OW32377   3.067   0.982   0.825
10493SOL    HW132378   3.001   0.945   0.760
10493SOL    HW232379   3.116   0.907   0.869
10494SOL     OW32380   5.607   2.497   4.637
10494SOL    HW132381   5.650   2.494   4.547
10494SOL    HW232382   5.648   2.428   4.696
10495SOL     OW32383   1.556   6.649   0.366
10495SOL    HW132384   1.457   6.635   0.365
10495SOL    HW232385   1.577   6.744   0.341
10496SOL     OW32386   6.327   0.740   5.482
10496SOL    HW132387   6.348   0.681   5.404
10496SOL    HW232388   6.385   0.714   5.559
10497SOL     OW32389   0.984   1.524   0.187
10497SOL    HW132390   0.905   1.585   0.197
10497SOL    HW232391   0.986   1.486   0.095
10498SOL     OW32392   3.097   5.197   5.683
10498SOL    HW132393   3.108   5.189   5.584
10498SOL    HW232394   3.001   5.187   5.707
10499SOL     OW32395   3.071   5.210   3.175
10499SOL    HW132396   3.081   5.189   3.077
10499SOL    HW232397   2.985   5.169   3.208
10500SOL     OW32398   1.449   2.499   6.866
10500SOL    HW132399   1.428   2.462   6.775
10500SOL    HW232400   1.539   2.542   6.864
10501SOL     OW32401   1.289   2.179   2.873
10501SOL    HW132402   1.204   2.195   2.823
10501SOL    HW232403   1.294   2.239   2.953
10502SOL     OW32404   3.318   6.279   5.394
10502SOL    HW132405   3.399   6.230   5.424
10502SOL    HW232406   3.236   6.239   5.436
10503SOL     OW32407   2.720   3.639   5.761
10503SOL    HW132408   2.734   3.591   5.848
10503SOL    HW232409   2.724   3.738   5.777
10504SOL     OW32410   2.673   3.025   1.163
10504SOL    HW132411   2.651   2.928   1.165
10504SOL    HW232412   2.760   3.041   1.210
10505SOL     OW32413   0.187   6.852   1.462
10505SOL    HW132414   0.260   6.821   1.400
10505SOL    HW232415   0.180   6.951   1.457
10506SOL     OW32416   0.441   4.409   5.281
10506SOL    HW132417   0.372   4.342   5.306
10506SOL    HW232418   0.529   4.363   5.267
10507SOL     OW32419   1.056   0.348   4.695
10507SOL    HW132420   1.127   0.397   4.645
10507SOL    HW232421   0.999   0.297   4.630
10508SOL     OW32422   5.240   4.015   2.664
10508SOL    HW132423   5.152   4.007   2.617
10508SOL    HW232424   5.231   4.077   2.742
10509SOL     OW32425   1.726   0.273   5.311
10509SOL    HW132426   1.821   0.299   5.328
10509SOL    HW232427   1.697   0.208   5.382
10510SOL     OW32428   6.139   6.333   0.065
10510SOL    HW132429   6.194   6.251   0.074
10510SOL    HW232430   6.190   6.412   0.099
10511SOL     OW32431   6.296   2.089   0.187
10511SOL    HW132432   6.252   2.051   0.269
10511SOL    HW232433   6.252   2.051   0.106
10512SOL     OW32434   3.424   5.966   6.690
10512SOL    HW132435   3.467   5.986   6.601
10512SOL    HW232436   3.486   5.909   6.744
10513SOL     OW32437   6.815   2.674   0.021
10513SOL    HW132438   6.792   2.771   0.026
10513SOL    HW232439   6.760   2.630   6.968
10514SOL     OW32440   6.538   3.675   1.447
10514SOL    HW132441   6.532   3.575   1.445
10514SOL    HW232442   6.449   3.713   1.473
10515SOL     OW32443   6.408   2.298   4.183
10515SOL    HW132444   6.402   2.202   4.212
10515SOL    HW232445   6.316   2.335   4.172
10516SOL     OW32446   3.706   0.226   6.954
10516SOL    HW132447   3.672   0.189   0.022
10516SOL    HW232448   3.757   0.156   6.905
10517SOL     OW32449   0.211   2.408   3.154
10517SOL    HW132450   0.145   2.335   3.170
10517SOL    HW232451   0.204   2.476   3.227
10518SOL     OW32452   0.606   6.828   1.772
10518SOL    HW132453   0.578   6.853   1.865
10518SOL    HW232454   0.706   6.821   1.769
10519SOL     OW32455   3.226   3.672   5.252
10519SOL    HW132456   3.264   3.672   5.345
10519SOL    HW232457   3.215   3.578   5.221
10520SOL     OW32458   3.927   3.816   6.324
10520SOL    HW132459   3.964   3.865   6.402
10520SOL    HW232460   3.895   3.882   6.255
10521SOL     OW32461   6.349   5.012   2.007
10521SOL    HW132462   6.254   5.035   1.989
10521SOL    HW232463   6.408   5.089   1.984
10522SOL     OW32464   6.274   0.088   1.873
10522SOL    HW132465   6.355   0.030   1.861
10522SOL    HW232466   6.298   0.183   1.853
10523SOL     OW32467   0.137   5.806   0.057
10523SOL    HW132468   0.109   5.739   0.124
10523SOL    HW232469   0.057   5.856   0.023
10524SOL     OW32470   4.213   0.963   4.228
10524SOL    HW132471   4.118   0.991   4.240
10524SOL    HW232472   4.228   0.877   4.275
10525SOL     OW32473   2.778   6.150   4.468
10525SOL    HW132474   2.727   6.158   4.382
10525SOL    HW232475   2.728   6.195   4.541
10526SOL     OW32476   5.764   6.895   2.021
10526SOL    HW132477   5.863   6.902   2.009
10526SOL    HW232478   5.742   6.815   2.077
10527SOL     OW32479   1.359   2.657   4.531
10527SOL    HW132480   1.376   2.749   4.567
10527SOL    HW232481   1.399   2.649   4.440
10528SOL     OW32482   6.365   4.707   5.499
10528SOL    HW132483   6.446   4.702   5.557
10528SOL    HW232484   6.300   4.636   5.526
10529SOL     OW32485   6.016   6.111   3.970
10529SOL    HW132486   5.984   6.108   3.875
10529SOL    HW232487   6.104   6.160   3.974
10530SOL     OW32488   1.824   1.718   5.772
10530SOL    HW132489   1.769   1.638   5.748
10530SOL    HW232490   1.766   1.799   5.773
10531SOL     OW32491   2.350   2.459   5.621
10531SOL    HW132492   2.383   2.467   5.715
10531SOL    HW232493   2.272   2.397   5.618
10532SOL     OW32494   3.303   3.155   5.019
10532SOL    HW132495   3.375   3.186   4.957
10532SOL    HW232496   3.288   3.057   5.005
10533SOL     OW32497   2.151   0.864   6.157
10533SOL    HW132498   2.106   0.869   6.246
10533SOL    HW232499   2.081   0.866   6.085
10534SOL     OW32500   5.704   5.624   1.244
10534SOL    HW132501   5.675   5.532   1.269
10534SOL    HW232502   5.664   5.649   1.156
10535SOL     OW32503   0.601   1.345   2.592
10535SOL    HW132504   0.591   1.444   2.606
10535SOL    HW232505   0.695   1.325   2.567
10536SOL     OW32506   4.676   6.777   3.790
10536SOL    HW132507   4.598   6.839   3.795
10536SOL    HW232508   4.737   6.793   3.868
10537SOL     OW32509   0.590   5.072   1.174
10537SOL    HW132510   0.597   5.063   1.273
10537SOL    HW232511   0.599   4.982   1.131
10538SOL     OW32512   4.968   3.849   6.816
10538SOL    HW132513   5.026   3.929   6.808
10538SOL    HW232514   4.896   3.852   6.748
10539SOL     OW32515   0.761   3.213   5.901
10539SOL    HW132516   0.826   3.288   5.911
10539SOL    HW232517   0.789   3.154   5.825
10540SOL     OW32518   2.991   0.738   6.941
10540SOL    HW132519   2.940   0.772   6.862
10540SOL    HW232520   3.073   0.689   6.909
10541SOL     OW32521   4.301   2.486   0.759
10541SOL    HW132522   4.240   2.548   0.710
10541SOL    HW232523   4.255   2.454   0.842
10542SOL     OW32524   1.719   2.519   6.943
10542SOL    HW132525   1.762   2.467   7.018
10542SOL    HW232526   1.773   2.601   6.924
10543SOL     OW32527   2.299   0.887   5.766
10543SOL    HW132528   2.310   0.957   5.837
10543SOL    HW232529   2.388   0.845   5.747
10544SOL     OW32530   0.402   2.587   2.080
10544SOL    HW132531   0.409   2.562   1.984
10544SOL    HW232532   0.345   2.669   2.090
10545SOL     OW32533   5.462   0.813   2.835
10545SOL    HW132534   5.399   0.741   2.805
10545SOL    HW232535   5.412   0.899   2.842
10546SOL     OW32536   3.887   0.542   4.938
10546SOL    HW132537   3.871   0.469   5.004
10546SOL    HW232538   3.851   0.628   4.974
10547SOL     OW32539   4.170   1.322   0.752
10547SOL    HW132540   4.192   1.407   0.800
10547SOL    HW232541   4.254   1.281   0.716
10548SOL     OW32542   4.581   4.098   5.341
10548SOL    HW132543   4.517   4.159   5.293
10548SOL    HW232544   4.675   4.129   5.325
10549SOL     OW32545   1.464   1.129   1.518
10549SOL    HW132546   1.431   1.037   1.534
10549SOL    HW232547   1.418   1.193   1.580
10550SOL     OW32548   4.883   6.957   5.286
10550SOL    HW132549   4.936   6.914   5.359
10550SOL    HW232550   4.945   7.006   5.225
10551SOL     OW32551   1.607   2.790   5.814
10551SOL    HW132552   1.582   2.884   5.837
10551SOL    HW232553   1.693   2.767   5.859
10552SOL     OW32554   3.166   2.022   5.091
10552SOL    HW132555   3.074   1.986   5.111
10552SOL    HW232556   3.163   2.122   5.089
10553SOL     OW32557   2.901   4.506   5.962
10553SOL    HW132558   2.883   4.584   6.022
10553SOL    HW232559   2.819   4.486   5.908
10554SOL     OW32560   6.476   4.570   5.288
10554SOL    HW132561   6.439   4.622   5.365
10554SOL    HW232562   6.410   4.500   5.259
10555SOL     OW32563   3.413   2.165   1.062
10555SOL    HW132564   3.419   2.224   1.142
10555SOL    HW232565   3.338   2.100   1.074
10556SOL     OW32566   2.149   3.190   4.255
10556SOL    HW132567   2.183   3.144   4.336
10556SOL    HW232568   2.172   3.287   4.259
10557SOL     OW32569   6.373   2.206   3.737
10557SOL    HW132570   6.409   2.257   3.660
10557SOL    HW232571   6.432   2.219   3.817
10558SOL     OW32572   4.948   6.007   5.069
10558SOL    HW132573   4.902   6.086   5.109
10558SOL    HW232574   5.035   6.037   5.028
10559SOL     OW32575   4.738   2.645   0.698
10559SOL    HW132576   4.755   2.633   0.796
10559SOL    HW232577   4.680   2.571   0.664
10560SOL     OW32578   0.103   2.798   4.544
10560SOL    HW132579   0.188   2.821   4.592
10560SOL    HW232580   0.119   2.719   4.484
10561SOL     OW32581   3.007   4.283   5.893
10561SOL    HW132582   2.970   4.363   5.941
10561SOL    HW232583   2.934   4.237   5.843
10562SOL     OW32584   3.180   1.459   0.522
10562SOL    HW132585   3.139   1.509   0.446
10562SOL    HW232586   3.133   1.371   0.534
10563SOL     OW32587   1.858   1.656   3.890
10563SOL    HW132588   1.904   1.736   3.928
10563SOL    HW232589   1.906   1.573   3.920
10564SOL     OW32590   6.871   2.352   2.098
10564SOL    HW132591   6.913   2.263   2.116
10564SOL    HW232592   6.777   2.338   2.067
10565SOL     OW32593   5.097   1.865   4.971
10565SOL    HW132594   5.103   1.962   4.948
10565SOL    HW232595   5.127   1.851   5.066
10566SOL     OW32596   4.129   4.372   6.872
10566SOL    HW132597   4.039   4.405   6.899
10566SOL    HW232598   4.158   4.416   6.788
10567SOL     OW32599   1.433   5.169   3.880
10567SOL    HW132600   1.495   5.209   3.813
10567SOL    HW232601   1.386   5.091   3.840
10568SOL     OW32602   4.204   1.733   3.295
10568SOL    HW132603   4.301   1.746   3.272
10568SOL    HW232604   4.175   1.642   3.268
10569SOL     OW32605   6.270   2.980   3.180
10569SOL    HW132606   6.197   2.947   3.120
10569SOL    HW232607   6.254   3.077   3.202
10570SOL     OW32608   1.003   4.370   1.840
10570SOL    HW132609   1.098   4.337   1.842
10570SOL    HW232610   1.002   4.467   1.863
10571SOL     OW32611   6.062   6.975   4.854
10571SOL    HW132612   6.047   0.004   4.767
10571SOL    HW232613   6.012   6.889   4.854
10572SOL     OW32614   6.508   3.108   1.933
10572SOL    HW132615   6.457   3.190   1.908
10572SOL    HW232616   6.446   3.029   1.933
10573SOL     OW32617   6.331   4.748   5.879
10573SOL    HW132618   6.318   4.844   5.854
10573SOL    HW232619   6.250   4.696   5.852
10574SOL     OW32620   0.752   1.950   3.027
10574SOL    HW132621   0.695   2.030   3.046
10574SOL    HW232622   0.789   1.915   3.113
10575SOL     OW32623   0.899   7.011   5.692
10575SOL    HW132624   0.851   6.935   5.647
10575SOL    HW232625   0.988   0.006   5.649
10576SOL     OW32626   1.576   4.575   3.314
10576SOL    HW132627   1.534   4.508   3.252
10576SOL    HW232628   1.584   4.663   3.267
10577SOL     OW32629   0.793   3.043   5.399
10577SOL    HW132630   0.828   2.968   5.343
10577SOL    HW232631   0.700   3.022   5.428
10578SOL     OW32632   5.986   0.806   5.872
10578SOL    HW132633   5.932   0.812   5.788
10578SOL    HW232634   5.991   0.711   5.902
10579SOL     OW32635   5.101   1.065   0.790
10579SOL    HW132636   5.011   1.067   0.835
10579SOL    HW232637   5.164   1.126   0.837
10580SOL     OW32638   6.508   6.107   0.269
10580SOL    HW132639   6.588   6.161   0.242
10580SOL    HW232640   6.487   6.040   0.198
10581SOL     OW32641   4.462   1.530   4.042
10581SOL    HW132642   4.497   1.547   3.950
10581SOL    HW232643   4.362   1.521   4.039
10582SOL     OW32644   3.366   4.556   7.017
10582SOL    HW132645   3.312   4.638   6.996
10582SOL    HW232646   3.441   4.580   0.060
10583SOL     OW32647   4.628   1.554   0.812
10583SOL    HW132648   4.543   1.529   0.767
10583SOL    HW232649   4.691   1.593   0.745
10584SOL     OW32650   6.435   0.663   1.533
10584SOL    HW132651   6.351   0.656   1.587
10584SOL    HW232652   6.416   0.636   1.438
10585SOL     OW32653   1.857   4.433   6.626
10585SOL    HW132654   1.838   4.352   6.681
10585SOL    HW232655   1.877   4.510   6.686
10586SOL     OW32656   4.110   1.304   0.302
10586SOL    HW132657   4.175   1.375   0.274
10586SOL    HW232658   4.157   1.239   0.362
10587SOL     OW32659   5.912   3.407   0.724
10587SOL    HW132660   5.921   3.324   0.778
10587SOL    HW232661   5.825   3.405   0.673
10588SOL     OW32662   0.865   5.396   2.958
10588SOL    HW132663   0.772   5.365   2.976
10588SOL    HW232664   0.930   5.341   3.010
10589SOL     OW32665   6.082   1.636   3.798
10589SOL    HW132666   6.010   1.704   3.810
10589SOL    HW232667   6.145   1.640   3.876
10590SOL     OW32668   1.869   0.860   4.326
10590SOL    HW132669   1.866   0.773   4.375
10590SOL    HW232670   1.807   0.857   4.248
10591SOL     OW32671   1.401   2.399   0.495
10591SOL    HW132672   1.346   2.375   0.415
10591SOL    HW232673   1.344   2.449   0.560
10592SOL     OW32674   6.145   2.013   6.993
10592SOL    HW132675   6.184   2.072   6.922
10592SOL    HW232676   6.124   1.924   6.954
10593SOL     OW32677   2.217   4.743   1.386
10593SOL    HW132678   2.296   4.801   1.406
10593SOL    HW232679   2.236   4.689   1.304
10594SOL     OW32680   1.080   2.003   4.519
10594SOL    HW132681   1.000   1.958   4.481
10594SOL    HW232682   1.073   2.005   4.619
10595SOL     OW32683   2.178   6.256   5.686
10595SOL    HW132684   2.214   6.204   5.763
10595SOL    HW232685   2.210   6.215   5.600
10596SOL     OW32686   3.630   0.860   1.901
10596SOL    HW132687   3.625   0.958   1.919
10596SOL    HW232688   3.665   0.813   1.982
10597SOL     OW32689   2.150   0.159   4.202
10597SOL    HW132690   2.113   0.245   4.239
10597SOL    HW232691   2.143   0.087   4.271
10598SOL     OW32692   1.800   1.840   6.913
10598SOL    HW132693   1.778   1.922   6.967
10598SOL    HW232694   1.719   1.811   6.862
10599SOL     OW32695   4.993   0.841   6.829
10599SOL    HW132696   4.989   0.882   6.920
10599SOL    HW232697   5.087   0.812   6.809
10600SOL     OW32698   1.872   2.595   5.829
10600SOL    HW132699   1.912   2.609   5.739
10600SOL    HW232700   1.932   2.635   5.899
10601SOL     OW32701   3.519   6.472   5.902
10601SOL    HW132702   3.427   6.486   5.938
10601SOL    HW232703   3.513   6.432   5.810
10602SOL     OW32704   4.221   1.054   1.896
10602SOL    HW132705   4.259   1.029   1.807
10602SOL    HW232706   4.292   1.095   1.953
10603SOL     OW32707   1.298   5.735   4.149
10603SOL    HW132708   1.223   5.701   4.092
10603SOL    HW232709   1.311   5.833   4.134
10604SOL     OW32710   7.010   4.345   5.244
10604SOL    HW132711   6.961   4.418   5.292
10604SOL    HW232712   7.014   4.365   5.147
10605SOL     OW32713   2.207   4.697   6.501
10605SOL    HW132714   2.164   4.615   6.465
10605SOL    HW232715   2.262   4.740   6.430
10606SOL     OW32716   0.493   0.882   3.135
10606SOL    HW132717   0.455   0.850   3.048
10606SOL    HW232718   0.587   0.913   3.120
10607SOL     OW32719   5.782   4.724   0.272
10607SOL    HW132720   5.860   4.785   0.260
10607SOL    HW232721   5.750   4.693   0.182
10608SOL     OW32722   5.994   0.941   2.887
10608SOL    HW132723   6.087   0.977   2.895
10608SOL    HW232724   5.995   0.858   2.832
10609SOL     OW32725   3.933   6.708   1.930
10609SOL    HW132726   3.872   6.787   1.932
10609SOL    HW232727   3.954   6.684   1.836
10610SOL     OW32728   1.834   3.482   4.895
10610SOL    HW132729   1.802   3.459   4.987
10610SOL    HW232730   1.856   3.398   4.845
10611SOL     OW32731   4.987   2.467   6.281
10611SOL    HW132732   4.989   2.432   6.188
10611SOL    HW232733   5.075   2.511   6.302
10612SOL     OW32734   1.196   6.785   0.944
10612SOL    HW132735   1.110   6.741   0.918
10612SOL    HW232736   1.269   6.718   0.946
10613SOL     OW32737   0.739   6.852   6.454
10613SOL    HW132738   0.684   6.888   6.379
10613SOL    HW232739   0.681   6.830   6.532
10614SOL     OW32740   6.739   0.833   4.293
10614SOL    HW132741   6.758   0.908   4.229
10614SOL    HW232742   6.785   0.750   4.262
10615SOL     OW32743   6.653   5.895   5.434
10615SOL    HW132744   6.642   5.828   5.508
10615SOL    HW232745   6.746   5.888   5.397
10616SOL     OW32746   2.762   6.195   0.139
10616SOL    HW132747   2.664   6.197   0.118
10616SOL    HW232748   2.788   6.279   0.185
10617SOL     OW32749   0.677   2.126   6.540
10617SOL    HW132750   0.680   2.034   6.578
10617SOL    HW232751   0.716   2.191   6.606
10618SOL     OW32752   6.130   4.093   1.362
10618SOL    HW132753   6.162   4.176   1.408
10618SOL    HW232754   6.180   4.082   1.276
10619SOL     OW32755   0.545   4.520   4.028
10619SOL    HW132756   0.550   4.595   3.963
10619SOL    HW232757   0.631   4.469   4.028
10620SOL     OW32758   1.347   5.982   4.289
10620SOL    HW132759   1.249   5.966   4.300
10620SOL    HW232760   1.395   5.946   4.370
10621SOL     OW32761   2.871   6.135   0.901
10621SOL    HW132762   2.825   6.127   0.989
10621SOL    HW232763   2.811   6.104   0.828
10622SOL     OW32764   4.531   1.464   1.564
10622SOL    HW132765   4.597   1.539   1.557
10622SOL    HW232766   4.567   1.393   1.624
10623SOL     OW32767   6.469   1.217   3.871
10623SOL    HW132768   6.521   1.182   3.792
10623SOL    HW232769   6.416   1.297   3.843
10624SOL     OW32770   2.478   1.470   4.349
10624SOL    HW132771   2.542   1.453   4.274
10624SOL    HW232772   2.445   1.383   4.385
10625SOL     OW32773   0.236   3.267   0.193
10625SOL    HW132774   0.177   3.186   0.201
10625SOL    HW232775   0.183   3.349   0.216
10626SOL     OW32776   6.921   1.832   1.142
10626SOL    HW132777   6.942   1.929   1.131
10626SOL    HW232778   6.972   1.779   1.075
10627SOL     OW32779   6.288   5.255   4.493
10627SOL    HW132780   6.268   5.325   4.426
10627SOL    HW232781   6.230   5.175   4.476
10628SOL     OW32782   6.953   6.281   6.190
10628SOL    HW132783   6.901   6.299   6.106
10628SOL    HW232784   6.919   6.196   6.232
10629SOL     OW32785   2.909   5.836   5.859
10629SOL    HW132786   2.983   5.856   5.923
10629SOL    HW232787   2.827   5.811   5.910
10630SOL     OW32788   6.708   1.387   2.864
10630SOL    HW132789   6.774   1.324   2.904
10630SOL    HW232790   6.751   1.436   2.788
10631SOL     OW32791   1.264   0.233   5.124
10631SOL    HW132792   1.173   0.192   5.136
10631SOL    HW232793   1.294   0.221   5.030
10632SOL     OW32794   0.263   3.025   4.875
10632SOL    HW132795   0.343   3.049   4.819
10632SOL    HW232796   0.274   2.931   4.908
10633SOL     OW32797   0.917   5.176   0.463
10633SOL    HW132798   0.851   5.200   0.534
10633SOL    HW232799   0.869   5.155   0.377
10634SOL     OW32800   4.010   6.995   1.492
10634SOL    HW132801   3.980   0.026   1.573
10634SOL    HW232802   4.068   0.035   1.436
10635SOL     OW32803   1.925   0.822   0.883
10635SOL    HW132804   1.879   0.740   0.847
10635SOL    HW232805   1.856   0.886   0.916
10636SOL     OW32806   6.713   1.327   1.033
10636SOL    HW132807   6.685   1.419   1.006
10636SOL    HW232808   6.739   1.275   0.952
10637SOL     OW32809   4.128   4.774   5.515
10637SOL    HW132810   4.083   4.746   5.600
10637SOL    HW232811   4.142   4.695   5.457
10638SOL     OW32812   6.662   0.435   5.327
10638SOL    HW132813   6.720   0.460   5.405
10638SOL    HW232814   6.573   0.480   5.336
10639SOL     OW32815   3.204   1.513   5.141
10639SOL    HW132816   3.193   1.534   5.238
10639SOL    HW232817   3.204   1.597   5.088
10640SOL     OW32818   3.381   6.714   0.466
10640SOL    HW132819   3.328   6.670   0.538
10640SOL    HW232820   3.415   6.645   0.402
10641SOL     OW32821   4.201   0.725   6.348
10641SOL    HW132822   4.216   0.662   6.272
10641SOL    HW232823   4.288   0.740   6.396
10642SOL     OW32824   6.947   3.596   0.615
10642SOL    HW132825   6.917   3.686   0.647
10642SOL    HW232826   0.020   3.603   0.576
10643SOL     OW32827   3.991   3.482   5.200
10643SOL    HW132828   4.032   3.411   5.257
10643SOL    HW232829   4.059   3.553   5.182
10644SOL     OW32830   3.671   1.816   4.855
10644SOL    HW132831   3.639   1.786   4.944
10644SOL    HW232832   3.594   1.843   4.798
10645SOL     OW32833   2.466   6.943   5.070
10645SOL    HW132834   2.538   6.934   5.139
10645SOL    HW232835   2.378   6.954   5.115
10646SOL     OW32836   0.972   4.043   6.598
10646SOL    HW132837   0.880   4.055   6.562
10646SOL    HW232838   1.032   4.008   6.526
10647SOL     OW32839   0.204   4.963   0.551
10647SOL    HW132840   0.200   5.017   0.467
10647SOL    HW232841   0.298   4.933   0.567
10648SOL     OW32842   5.041   4.682   6.478
10648SOL    HW132843   5.018   4.619   6.553
10648SOL    HW232844   5.098   4.756   6.513
10649SOL     OW32845   0.649   4.368   5.884
10649SOL    HW132846   0.596   4.383   5.968
10649SOL    HW232847   0.633   4.443   5.821
10650SOL     OW32848   2.850   0.231   4.290
10650SOL    HW132849   2.853   0.144   4.241
10650SOL    HW232850   2.943   0.267   4.299
10651SOL     OW32851   3.098   0.189   5.777
10651SOL    HW132852   3.034   0.221   5.846
10651SOL    HW232853   3.070   0.098   5.745
10652SOL     OW32854   3.954   1.096   0.166
10652SOL    HW132855   4.050   1.122   0.174
10652SOL    HW232856   3.904   1.127   0.247
10653SOL     OW32857   5.290   2.947   4.105
10653SOL    HW132858   5.308   3.044   4.119
10653SOL    HW232859   5.372   2.903   4.068
10654SOL     OW32860   4.392   0.966   1.305
10654SOL    HW132861   4.304   0.975   1.258
10654SOL    HW232862   4.376   0.942   1.401
10655SOL     OW32863   3.537   5.711   1.511
10655SOL    HW132864   3.475   5.741   1.438
10655SOL    HW232865   3.626   5.690   1.472
10656SOL     OW32866   6.151   2.914   6.127
10656SOL    HW132867   6.159   3.012   6.108
10656SOL    HW232868   6.202   2.863   6.058
10657SOL     OW32869   6.195   0.552   1.734
10657SOL    HW132870   6.236   0.476   1.785
10657SOL    HW232871   6.106   0.525   1.699
10658SOL     OW32872   0.757   6.345   4.783
10658SOL    HW132873   0.829   6.373   4.846
10658SOL    HW232874   0.767   6.395   4.697
10659SOL     OW32875   5.363   1.045   0.982
10659SOL    HW132876   5.279   0.991   0.990
10659SOL    HW232877   5.427   0.998   0.920
10660SOL     OW32878   5.098   5.046   5.762
10660SOL    HW132879   5.094   4.970   5.698
10660SOL    HW232880   5.191   5.081   5.767
10661SOL     OW32881   0.764   0.167   2.254
10661SOL    HW132882   0.785   0.174   2.157
10661SOL    HW232883   0.836   0.114   2.300
10662SOL     OW32884   5.776   1.380   0.989
10662SOL    HW132885   5.786   1.449   0.918
10662SOL    HW232886   5.801   1.419   1.077
10663SOL     OW32887   0.505   0.844   0.502
10663SOL    HW132888   0.548   0.935   0.502
10663SOL    HW232889   0.475   0.821   0.410
10664SOL     OW32890   2.270   4.591   6.749
10664SOL    HW132891   2.209   4.635   6.815
10664SOL    HW232892   2.244   4.618   6.657
10665SOL     OW32893   5.841   0.853   6.898
10665SOL    HW132894   5.752   0.876   6.937
10665SOL    HW232895   5.900   0.933   6.900
10666SOL     OW32896   1.034   0.218   6.934
10666SOL    HW132897   1.003   0.307   6.901
10666SOL    HW232898   0.961   0.150   6.921
10667SOL     OW32899   3.382   2.209   5.373
10667SOL    HW132900   3.453   2.161   5.319
10667SOL    HW232901   3.329   2.267   5.312
10668SOL     OW32902   2.089   0.997   6.665
10668SOL    HW132903   2.019   1.021   6.599
10668SOL    HW232904   2.049   0.995   6.757
10669SOL     OW32905   0.773   6.658   6.786
10669SOL    HW132906   0.725   6.740   6.755
10669SOL    HW232907   0.808   6.672   6.878
10670SOL     OW32908   6.995   5.113   5.556
10670SOL    HW132909   6.908   5.071   5.533
10670SOL    HW232910   6.998   5.134   5.654
10671SOL     OW32911   1.654   2.000   3.158
10671SOL    HW132912   1.661   1.913   3.110
10671SOL    HW232913   1.699   2.071   3.105
10672SOL     OW32914   0.352   2.509   1.071
10672SOL    HW132915   0.285   2.522   0.998
10672SOL    HW232916   0.359   2.412   1.093
10673SOL     OW32917   3.220   3.396   4.725
10673SOL    HW132918   3.273   3.415   4.643
10673SOL    HW232919   3.244   3.462   4.796
10674SOL     OW32920   4.452   1.633   2.287
10674SOL    HW132921   4.526   1.645   2.221
10674SOL    HW232922   4.465   1.695   2.364
10675SOL     OW32923   0.190   1.199   6.738
10675SOL    HW132924   0.281   1.156   6.735
10675SOL    HW232925   0.141   1.167   6.818
10676SOL     OW32926   6.616   0.261   0.014
10676SOL    HW132927   6.638   0.235   6.938
10676SOL    HW232928   6.676   0.210   0.076
10677SOL     OW32929   6.841   0.944   0.219
10677SOL    HW132930   6.833   0.902   0.310
10677SOL    HW232931   6.823   1.042   0.227
10678SOL     OW32932   2.085   5.812   2.768
10678SOL    HW132933   2.132   5.818   2.680
10678SOL    HW232934   2.060   5.717   2.786
10679SOL     OW32935   5.297   5.136   3.523
10679SOL    HW132936   5.330   5.122   3.616
10679SOL    HW232937   5.294   5.234   3.503
10680SOL     OW32938   1.693   2.265   3.723
10680SOL    HW132939   1.790   2.247   3.740
10680SOL    HW232940   1.679   2.291   3.628
10681SOL     OW32941   0.774   1.884   6.548
10681SOL    HW132942   0.772   1.799   6.601
10681SOL    HW232943   0.745   1.864   6.454
10682SOL     OW32944   6.325   1.524   2.994
10682SOL    HW132945   6.352   1.619   2.976
10682SOL    HW232946   6.230   1.511   2.967
10683SOL     OW32947   2.275   0.612   4.309
10683SOL    HW132948   2.214   0.691   4.313
10683SOL    HW232949   2.221   0.529   4.294
10684SOL     OW32950   6.161   6.171   0.592
10684SOL    HW132951   6.243   6.204   0.545
10684SOL    HW232952   6.149   6.073   0.575
10685SOL     OW32953   0.087   2.456   2.026
10685SOL    HW132954   0.088   2.556   2.027
10685SOL    HW232955   7.013   2.423   2.042
10686SOL     OW32956   4.078   4.420   0.845
10686SOL    HW132957   4.164   4.406   0.797
10686SOL    HW232958   4.096   4.461   0.934
10687SOL     OW32959   0.217   5.149   1.290
10687SOL    HW132960   0.197   5.216   1.361
10687SOL    HW232961   0.254   5.195   1.209
10688SOL     OW32962   6.641   5.929   1.437
10688SOL    HW132963   6.732   5.941   1.478
10688SOL    HW232964   6.577   5.993   1.479
10689SOL     OW32965   0.711   0.961   1.604
10689SOL    HW132966   0.688   1.016   1.684
10689SOL    HW232967   0.753   0.875   1.633
10690SOL     OW32968   4.496   5.909   2.497
10690SOL    HW132969   4.484   5.809   2.495
10690SOL    HW232970   4.589   5.932   2.467
10691SOL     OW32971   6.568   1.534   0.962
10691SOL    HW132972   6.567   1.599   0.886
10691SOL    HW232973   6.477   1.530   1.003
10692SOL     OW32974   5.391   6.095   4.618
10692SOL    HW132975   5.371   6.057   4.528
10692SOL    HW232976   5.343   6.041   4.688
10693SOL     OW32977   4.634   2.734   3.411
10693SOL    HW132978   4.573   2.657   3.430
10693SOL    HW232979   4.727   2.711   3.440
10694SOL     OW32980   3.275   6.309   0.588
10694SOL    HW132981   3.244   6.404   0.597
10694SOL    HW232982   3.307   6.276   0.677
10695SOL     OW32983   6.040   2.689   5.008
10695SOL    HW132984   6.112   2.757   5.016
10695SOL    HW232985   6.007   2.665   5.100
10696SOL     OW32986   6.544   6.718   2.073
10696SOL    HW132987   6.639   6.727   2.044
10696SOL    HW232988   6.496   6.654   2.012
10697SOL     OW32989   2.655   6.339   2.909
10697SOL    HW132990   2.603   6.333   2.824
10697SOL    HW232991   2.600   6.385   2.978
10698SOL     OW32992   3.004   0.854   3.409
10698SOL    HW132993   3.072   0.857   3.336
10698SOL    HW232994   2.925   0.910   3.384
10699SOL     OW32995   2.045   2.282   2.945
10699SOL    HW132996   2.107   2.336   3.003
10699SOL    HW232997   2.089   2.196   2.921
10700SOL     OW32998   0.077   1.289   1.813
10700SOL    HW132999   0.113   1.362   1.754
10700SOL    HW233000   0.040   1.216   1.755
10701SOL     OW33001   3.527   6.780   0.828
10701SOL    HW133002   3.623   6.757   0.848
10701SOL    HW233003   3.520   6.810   0.733
10702SOL     OW33004   5.342   3.026   0.845
10702SOL    HW133005   5.388   2.956   0.898
10702SOL    HW233006   5.246   3.031   0.872
10703SOL     OW33007   3.647   3.098   4.182
10703SOL    HW133008   3.634   3.131   4.275
10703SOL    HW233009   3.594   3.154   4.119
10704SOL     OW33010   5.373   6.464   2.408
10704SOL    HW133011   5.432   6.389   2.380
10704SOL    HW233012   5.405   6.501   2.496
10705SOL     OW33013   1.632   3.277   6.085
10705SOL    HW133014   1.680   3.271   6.173
10705SOL    HW233015   1.553   3.339   6.095
10706SOL     OW33016   3.579   2.126   1.388
10706SOL    HW133017   3.489   2.144   1.428
10706SOL    HW233018   3.647   2.184   1.432
10707SOL     OW33019   6.234   0.008   6.279
10707SOL    HW133020   6.157   0.063   6.310
10707SOL    HW233021   6.207   6.973   6.199
10708SOL     OW33022   4.763   1.108   1.397
10708SOL    HW133023   4.760   1.018   1.354
10708SOL    HW233024   4.829   1.166   1.348
10709SOL     OW33025   0.606   6.977   6.026
10709SOL    HW133026   0.618   7.013   5.933
10709SOL    HW233027   0.513   6.942   6.036
10710SOL     OW33028   6.339   5.985   4.280
10710SOL    HW133029   6.434   5.991   4.252
10710SOL    HW233030   6.292   5.915   4.226
10711SOL     OW33031   2.545   5.821   4.961
10711SOL    HW133032   2.549   5.751   4.890
10711SOL    HW233033   2.451   5.850   4.975
10712SOL     OW33034   4.101   1.460   5.767
10712SOL    HW133035   4.065   1.466   5.674
10712SOL    HW233036   4.086   1.368   5.803
10713SOL     OW33037   2.015   5.932   0.931
10713SOL    HW133038   1.923   5.958   0.901
10713SOL    HW233039   2.048   5.856   0.875
10714SOL     OW33040   6.599   5.736   5.648
10714SOL    HW133041   6.660   5.669   5.690
10714SOL    HW233042   6.506   5.700   5.647
10715SOL     OW33043   6.227   0.924   3.359
10715SOL    HW133044   6.170   0.980   3.300
10715SOL    HW233045   6.172   0.853   3.402
10716SOL     OW33046   6.683   0.844   2.239
10716SOL    HW133047   6.583   0.849   2.233
10716SOL    HW233048   6.718   0.918   2.296
10717SOL     OW33049   0.043   6.411   2.166
10717SOL    HW133050   6.970   6.404   2.205
10717SOL    HW233051   0.071   6.507   2.161
10718SOL     OW33052   0.820   3.587   5.855
10718SOL    HW133053   0.852   3.658   5.792
10718SOL    HW233054   0.731   3.613   5.892
10719SOL     OW33055   3.804   6.758   2.479
10719SOL    HW133056   3.804   6.708   2.392
10719SOL    HW233057   3.830   6.696   2.553
10720SOL     OW33058   0.318   2.873   6.492
10720SOL    HW133059   0.389   2.893   6.560
10720SOL    HW233060   0.234   2.845   6.538
10721SOL     OW33061   4.961   2.156   4.614
10721SOL    HW133062   5.029   2.101   4.566
10721SOL    HW233063   4.928   2.106   4.694
10722SOL     OW33064   7.015   4.517   0.639
10722SOL    HW133065   0.001   4.486   0.734
10722SOL    HW233066   6.919   4.531   0.613
10723SOL     OW33067   6.208   4.854   0.536
10723SOL    HW133068   6.243   4.840   0.444
10723SOL    HW233069   6.161   4.943   0.541
10724SOL     OW33070   3.152   0.357   5.563
10724SOL    HW133071   3.120   0.291   5.632
10724SOL    HW233072   3.233   0.404   5.598
10725SOL     OW33073   6.735   0.342   5.060
10725SOL    HW133074   6.685   0.389   4.987
10725SOL    HW233075   6.717   0.388   5.147
10726SOL     OW33076   5.759   1.085   3.759
10726SOL    HW133077   5.854   1.110   3.776
10726SOL    HW233078   5.709   1.081   3.845
10727SOL     OW33079   3.012   6.807   0.017
10727SOL    HW133080   2.977   6.900   0.007
10727SOL    HW233081   3.112   6.808   0.014
10728SOL     OW33082   5.677   5.806   4.037
10728SOL    HW133083   5.653   5.895   4.076
10728SOL    HW233084   5.612   5.737   4.069
10729SOL     OW33085   5.554   2.908   4.062
10729SOL    HW133086   5.594   2.999   4.065
10729SOL    HW233087   5.626   2.839   4.070
10730SOL     OW33088   1.091   5.495   3.354
10730SOL    HW133089   1.093   5.594   3.336
10730SOL    HW233090   0.998   5.461   3.340
10731SOL     OW33091   4.906   5.695   6.713
10731SOL    HW133092   4.808   5.674   6.716
10731SOL    HW233093   4.944   5.661   6.627
10732SOL     OW33094   6.329   5.955   2.849
10732SOL    HW133095   6.397   5.902   2.899
10732SOL    HW233096   6.371   6.040   2.816
10733SOL     OW33097   0.487   1.586   5.954
10733SOL    HW133098   0.474   1.642   5.872
10733SOL    HW233099   0.546   1.509   5.932
10734SOL     OW33100   0.999   0.464   4.919
10734SOL    HW133101   1.006   0.438   4.823
10734SOL    HW233102   0.927   0.411   4.963
10735SOL     OW33103   0.299   0.009   1.854
10735SOL    HW133104   0.234   0.082   1.875
10735SOL    HW233105   0.248   6.944   1.833
10736SOL     OW33106   5.212   5.633   3.247
10736SOL    HW133107   5.268   5.657   3.169
10736SOL    HW233108   5.115   5.648   3.225
10737SOL     OW33109   6.560   1.204   1.650
10737SOL    HW133110   6.613   1.135   1.700
10737SOL    HW233111   6.476   1.224   1.702
10738SOL     OW33112   2.475   6.779   1.394
10738SOL    HW133113   2.514   6.694   1.430
10738SOL    HW233114   2.468   6.772   1.294
10739SOL     OW33115   5.449   3.362   4.097
10739SOL    HW133116   5.424   3.459   4.094
10739SOL    HW233117   5.368   3.306   4.081
10740SOL     OW33118   3.135   0.334   6.169
10740SOL    HW133119   3.183   0.337   6.256
10740SOL    HW233120   3.145   0.422   6.122
10741SOL     OW33121   1.216   2.215   3.637
10741SOL    HW133122   1.164   2.140   3.597
10741SOL    HW233123   1.200   2.299   3.585
10742SOL     OW33124   6.291   6.478   2.067
10742SOL    HW133125   6.209   6.440   2.110
10742SOL    HW233126   6.293   6.453   1.970
10743SOL     OW33127   3.492   2.080   5.787
10743SOL    HW133128   3.395   2.088   5.768
10743SOL    HW233129   3.540   2.047   5.706
10744SOL     OW33130   2.783   1.871   0.794
10744SOL    HW133131   2.705   1.857   0.732
10744SOL    HW233132   2.851   1.799   0.777
10745SOL     OW33133   2.442   4.873   1.430
10745SOL    HW133134   2.530   4.846   1.391
10745SOL    HW233135   2.457   4.940   1.502
10746SOL     OW33136   2.430   5.258   6.522
10746SOL    HW133137   2.485   5.325   6.572
10746SOL    HW233138   2.436   5.276   6.424
10747SOL     OW33139   6.708   1.200   4.524
10747SOL    HW133140   6.687   1.276   4.585
10747SOL    HW233141   6.623   1.167   4.481
10748SOL     OW33142   3.284   6.360   2.351
10748SOL    HW133143   3.214   6.315   2.296
10748SOL    HW233144   3.255   6.454   2.370
10749SOL     OW33145   6.144   4.420   1.662
10749SOL    HW133146   6.231   4.465   1.681
10749SOL    HW233147   6.130   4.346   1.728
10750SOL     OW33148   3.998   1.868   4.652
10750SOL    HW133149   3.958   1.842   4.564
10750SOL    HW233150   4.012   1.967   4.655
10751SOL     OW33151   6.473   5.897   4.532
10751SOL    HW133152   6.408   5.948   4.477
10751SOL    HW233153   6.477   5.802   4.499
10752SOL     OW33154   6.726   6.318   0.516
10752SOL    HW133155   6.704   6.229   0.557
10752SOL    HW233156   6.646   6.377   0.520
10753SOL     OW33157   4.811   6.781   5.065
10753SOL    HW133158   4.781   6.815   5.154
10753SOL    HW233159   4.795   6.682   5.061
10754SOL     OW33160   1.249   5.209   2.088
10754SOL    HW133161   1.171   5.256   2.048
10754SOL    HW233162   1.307   5.171   2.016
10755SOL     OW33163   0.394   1.907   1.580
10755SOL    HW133164   0.330   1.922   1.654
10755SOL    HW233165   0.487   1.927   1.611
10756SOL     OW33166   1.302   0.467   0.184
10756SOL    HW133167   1.252   0.499   0.104
10756SOL    HW233168   1.397   0.449   0.158
10757SOL     OW33169   0.267   2.581   2.688
10757SOL    HW133170   0.285   2.676   2.713
10757SOL    HW233171   0.169   2.564   2.691
10758SOL     OW33172   0.690   0.710   7.014
10758SOL    HW133173   0.685   0.613   6.993
10758SOL    HW233174   0.775   0.730   0.044
10759SOL     OW33175   3.168   3.075   5.245
10759SOL    HW133176   3.216   3.122   5.171
10759SOL    HW233177   3.069   3.078   5.228
10760SOL     OW33178   0.710   4.792   6.731
10760SOL    HW133179   0.654   4.750   6.660
10760SOL    HW233180   0.722   4.728   6.806
10761SOL     OW33181   1.170   1.726   5.945
10761SOL    HW133182   1.135   1.794   6.009
10761SOL    HW233183   1.096   1.663   5.920
10762SOL     OW33184   2.384   6.192   6.823
10762SOL    HW133185   2.310   6.132   6.854
10762SOL    HW233186   2.366   6.221   6.729
10763SOL     OW33187   4.614   0.573   3.160
10763SOL    HW133188   4.546   0.552   3.231
10763SOL    HW233189   4.706   0.562   3.198
10764SOL     OW33190   5.186   6.359   4.749
10764SOL    HW133191   5.157   6.311   4.666
10764SOL    HW233192   5.247   6.299   4.802
10765SOL     OW33193   0.976   1.947   1.323
10765SOL    HW133194   1.031   2.018   1.279
10765SOL    HW233195   0.919   1.987   1.394
10766SOL     OW33196   2.661   5.082   6.552
10766SOL    HW133197   2.753   5.071   6.513
10766SOL    HW233198   2.593   5.066   6.481
10767SOL     OW33199   1.708   4.636   0.166
10767SOL    HW133200   1.636   4.697   0.199
10767SOL    HW233201   1.698   4.546   0.208
10768SOL     OW33202   5.436   6.137   6.679
10768SOL    HW133203   5.393   6.139   6.588
10768SOL    HW233204   5.397   6.209   6.736
10769SOL     OW33205   2.976   3.355   4.523
10769SOL    HW133206   3.003   3.269   4.481
10769SOL    HW233207   2.996   3.352   4.621
10770SOL     OW33208   5.959   0.140   3.309
10770SOL    HW133209   5.900   0.122   3.231
10770SOL    HW233210   6.041   0.189   3.278
10771SOL     OW33211   4.918   5.946   5.513
10771SOL    HW133212   4.965   6.034   5.498
10771SOL    HW233213   4.820   5.961   5.516
10772SOL     OW33214   5.699   5.313   2.238
10772SOL    HW133215   5.690   5.226   2.286
10772SOL    HW233216   5.616   5.367   2.250
10773SOL     OW33217   0.569   3.629   0.733
10773SOL    HW133218   0.594   3.722   0.707
10773SOL    HW233219   0.631   3.597   0.804
10774SOL     OW33220   1.073   3.063   0.701
10774SOL    HW133221   1.093   3.138   0.765
10774SOL    HW233222   0.986   3.021   0.726
10775SOL     OW33223   2.156   3.762   0.436
10775SOL    HW133224   2.133   3.707   0.517
10775SOL    HW233225   2.204   3.845   0.465
10776SOL     OW33226   0.759   3.179   3.364
10776SOL    HW133227   0.780   3.144   3.273
10776SOL    HW233228   0.660   3.176   3.379
10777SOL     OW33229   1.323   7.018   1.056
10777SOL    HW133230   1.286   6.930   1.027
10777SOL    HW233231   1.324   0.063   0.979
10778SOL     OW33232   4.709   0.076   3.168
10778SOL    HW133233   4.742   0.170   3.183
10778SOL    HW233234   4.704   0.028   3.256
10779SOL     OW33235   5.856   3.098   5.757
10779SOL    HW133236   5.915   3.175   5.736
10779SOL    HW233237   5.884   3.018   5.703
10780SOL     OW33238   2.171   5.473   4.683
10780SOL    HW133239   2.128   5.399   4.632
10780SOL    HW233240   2.148   5.561   4.641
10781SOL     OW33241   5.566   2.089   4.736
10781SOL    HW133242   5.529   2.016   4.792
10781SOL    HW233243   5.599   2.051   4.649
10782SOL     OW33244   1.103   2.488   5.443
10782SOL    HW133245   1.008   2.513   5.423
10782SOL    HW233246   1.117   2.391   5.423
10783SOL     OW33247   1.426   3.035   3.606
10783SOL    HW133248   1.510   3.018   3.658
10783SOL    HW233249   1.408   2.957   3.547
10784SOL     OW33250   4.367   5.374   3.717
10784SOL    HW133251   4.313   5.399   3.636
10784SOL    HW233252   4.339   5.431   3.794
10785SOL     OW33253   1.854   5.618   1.612
10785SOL    HW133254   1.861   5.717   1.608
10785SOL    HW233255   1.946   5.578   1.621
10786SOL     OW33256   4.676   1.670   2.144
10786SOL    HW133257   4.755   1.611   2.157
10786SOL    HW233258   4.704   1.756   2.102
10787SOL     OW33259   3.638   2.060   3.690
10787SOL    HW133260   3.558   2.075   3.749
10787SOL    HW233261   3.722   2.074   3.743
10788SOL     OW33262   2.172   3.730   0.169
10788SOL    HW133263   2.145   3.705   0.262
10788SOL    HW233264   2.131   3.818   0.144
10789SOL     OW33265   6.799   1.096   2.337
10789SOL    HW133266   6.805   1.099   2.437
10789SOL    HW233267   6.812   1.188   2.300
10790SOL     OW33268   6.857   1.990   5.543
10790SOL    HW133269   6.957   1.994   5.532
10790SOL    HW233270   6.813   2.036   5.466
10791SOL     OW33271   1.806   1.937   3.699
10791SOL    HW133272   1.715   1.895   3.712
10791SOL    HW233273   1.807   1.990   3.615
10792SOL     OW33274   3.814   1.673   2.409
10792SOL    HW133275   3.762   1.634   2.486
10792SOL    HW233276   3.836   1.769   2.430
10793SOL     OW33277   3.203   1.739   4.993
10793SOL    HW133278   3.196   1.837   5.012
10793SOL    HW233279   3.141   1.714   4.919
10794SOL     OW33280   5.351   2.143   0.384
10794SOL    HW133281   5.379   2.171   0.292
10794SOL    HW233282   5.294   2.214   0.425
10795SOL     OW33283   6.836   3.820   3.133
10795SOL    HW133284   6.778   3.820   3.215
10795SOL    HW233285   6.858   3.725   3.108
10796SOL     OW33286   0.242   0.958   6.122
10796SOL    HW133287   0.144   0.955   6.105
10796SOL    HW233288   0.262   0.915   6.210
10797SOL     OW33289   4.554   4.618   0.305
10797SOL    HW133290   4.508   4.678   0.239
10797SOL    HW233291   4.584   4.535   0.258
10798SOL     OW33292   2.390   6.486   6.723
10798SOL    HW133293   2.426   6.573   6.690
10798SOL    HW233294   2.422   6.412   6.664
10799SOL     OW33295   3.283   1.135   2.950
10799SOL    HW133296   3.231   1.052   2.929
10799SOL    HW233297   3.275   1.200   2.875
10800SOL     OW33298   2.024   6.781   5.410
10800SOL    HW133299   2.068   6.870   5.401
10800SOL    HW233300   1.938   6.781   5.359
10801SOL     OW33301   2.975   6.489   6.517
10801SOL    HW133302   3.056   6.431   6.514
10801SOL    HW233303   2.997   6.575   6.563
10802SOL     OW33304   0.207   5.269   4.232
10802SOL    HW133305   0.155   5.237   4.153
10802SOL    HW233306   0.217   5.369   4.226
10803SOL     OW33307   0.179   4.705   3.903
10803SOL    HW133308   0.209   4.624   3.954
10803SOL    HW233309   0.086   4.691   3.870
10804SOL     OW33310   4.661   4.580   1.158
10804SOL    HW133311   4.677   4.488   1.122
10804SOL    HW233312   4.582   4.578   1.219
10805SOL     OW33313   3.719   6.484   0.487
10805SOL    HW133314   3.769   6.440   0.413
10805SOL    HW233315   3.626   6.504   0.458
10806SOL     OW33316   5.923   4.012   6.439
10806SOL    HW133317   5.886   3.922   6.419
10806SOL    HW233318   6.001   4.031   6.380
10807SOL     OW33319   4.359   1.631   4.433
10807SOL    HW133320   4.280   1.582   4.397
10807SOL    HW233321   4.344   1.654   4.529
10808SOL     OW33322   0.422   2.205   0.210
10808SOL    HW133323   0.487   2.268   0.169
10808SOL    HW233324   0.408   2.127   0.149
10809SOL     OW33325   2.661   1.227   2.397
10809SOL    HW133326   2.744   1.233   2.453
10809SOL    HW233327   2.593   1.172   2.444
10810SOL     OW33328   1.885   1.066   6.507
10810SOL    HW133329   1.911   1.163   6.511
10810SOL    HW233330   1.785   1.059   6.505
10811SOL     OW33331   4.500   4.986   6.483
10811SOL    HW133332   4.503   4.930   6.400
10811SOL    HW233333   4.428   4.953   6.543
10812SOL     OW33334   6.597   2.815   2.147
10812SOL    HW133335   6.594   2.715   2.146
10812SOL    HW233336   6.522   2.851   2.092
10813SOL     OW33337   3.302   5.471   2.993
10813SOL    HW133338   3.281   5.516   3.080
10813SOL    HW233339   3.395   5.436   2.996
10814SOL     OW33340   2.051   5.398   4.273
10814SOL    HW133341   2.026   5.361   4.183
10814SOL    HW233342   1.986   5.470   4.298
10815SOL     OW33343   4.633   1.927   4.373
10815SOL    HW133344   4.706   1.879   4.422
10815SOL    HW233345   4.555   1.865   4.360
10816SOL     OW33346   2.376   2.112   1.614
10816SOL    HW133347   2.279   2.133   1.600
10816SOL    HW233348   2.418   2.087   1.526
10817SOL     OW33349   4.204   0.594   1.605
10817SOL    HW133350   4.189   0.530   1.680
10817SOL    HW233351   4.118   0.607   1.555
10818SOL     OW33352   4.224   2.932   0.002
10818SOL    HW133353   4.272   2.874   6.954
10818SOL    HW233354   4.179   2.874   0.070
10819SOL     OW33355   0.839   3.627   5.520
10819SOL    HW133356   0.845   3.543   5.576
10819SOL    HW233357   0.853   3.707   5.579
10820SOL     OW33358   0.293   6.925   4.584
10820SOL    HW133359   0.239   6.957   4.506
10820SOL    HW233360   0.237   6.927   4.666
10821SOL     OW33361   0.033   0.442   0.715
10821SOL    HW133362   0.054   0.481   0.626
10821SOL    HW233363   0.009   0.515   0.779
10822SOL     OW33364   0.361   3.953   6.552
10822SOL    HW133365   0.452   3.920   6.578
10822SOL    HW233366   0.346   3.936   6.455
10823SOL     OW33367   2.271   2.236   1.215
10823SOL    HW133368   2.195   2.173   1.200
10823SOL    HW233369   2.357   2.191   1.194
10824SOL     OW33370   5.039   0.590   3.629
10824SOL    HW133371   5.005   0.676   3.668
10824SOL    HW233372   5.038   0.519   3.699
10825SOL     OW33373   3.434   0.750   2.206
10825SOL    HW133374   3.368   0.720   2.138
10825SOL    HW233375   3.444   0.681   2.277
10826SOL     OW33376   6.664   3.033   1.550
10826SOL    HW133377   6.606   2.953   1.531
10826SOL    HW233378   6.759   3.009   1.533
10827SOL     OW33379   1.191   3.240   4.431
10827SOL    HW133380   1.130   3.207   4.504
10827SOL    HW233381   1.144   3.234   4.343
10828SOL     OW33382   1.911   5.517   0.505
10828SOL    HW133383   1.878   5.530   0.411
10828SOL    HW233384   1.917   5.419   0.525
10829SOL     OW33385   2.079   3.438   1.568
10829SOL    HW133386   2.163   3.393   1.598
10829SOL    HW233387   2.047   3.501   1.639
10830SOL     OW33388   5.186   0.843   3.414
10830SOL    HW133389   5.110   0.900   3.443
10830SOL    HW233390   5.225   0.880   3.329
10831SOL     OW33391   5.778   3.269   2.231
10831SOL    HW133392   5.715   3.196   2.258
10831SOL    HW233393   5.746   3.356   2.270
10832SOL     OW33394   0.836   3.705   3.131
10832SOL    HW133395   0.832   3.666   3.039
10832SOL    HW233396   0.787   3.645   3.194
10833SOL     OW33397   2.928   6.976   3.868
10833SOL    HW133398   2.947   0.035   3.808
10833SOL    HW233399   2.848   6.927   3.835
10834SOL     OW33400   7.002   0.976   5.465
10834SOL    HW133401   7.013   1.074   5.483
10834SOL    HW233402   6.968   0.931   5.548
10835SOL     OW33403   0.466   3.034   1.690
10835SOL    HW133404   0.444   2.978   1.610
10835SOL    HW233405   0.484   3.128   1.661
10836SOL     OW33406   1.866   2.765   0.612
10836SOL    HW133407   1.807   2.768   0.693
10836SOL    HW233408   1.882   2.670   0.587
10837SOL     OW33409   0.898   5.847   1.089
10837SOL    HW133410   0.935   5.910   1.157
10837SOL    HW233411   0.934   5.872   0.999
10838SOL     OW33412   6.285   6.550   0.215
10838SOL    HW133413   6.237   6.518   0.296
10838SOL    HW233414   6.351   6.620   0.240
10839SOL     OW33415   1.386   1.564   6.975
10839SOL    HW133416   1.468   1.543   0.010
10839SOL    HW233417   1.403   1.644   6.918
10840SOL     OW33418   3.079   6.593   2.609
10840SOL    HW133419   3.075   6.497   2.637
10840SOL    HW233420   3.147   6.603   2.536
10841SOL     OW33421   5.197   2.900   6.998
10841SOL    HW133422   5.285   2.925   0.021
10841SOL    HW233423   5.203   2.807   6.961
10842SOL     OW33424   6.105   2.690   1.450
10842SOL    HW133425   6.149   2.703   1.361
10842SOL    HW233426   6.163   2.730   1.521
10843SOL     OW33427   0.429   1.668   1.468
10843SOL    HW133428   0.403   1.759   1.503
10843SOL    HW233429   0.378   1.649   1.384
10844SOL     OW33430   4.100   0.395   3.309
10844SOL    HW133431   4.032   0.365   3.375
10844SOL    HW233432   4.055   0.441   3.233
10845SOL     OW33433   2.326   2.985   0.774
10845SOL    HW133434   2.423   3.000   0.792
10845SOL    HW233435   2.279   3.073   0.768
10846SOL     OW33436   3.463   1.613   1.284
10846SOL    HW133437   3.539   1.593   1.346
10846SOL    HW233438   3.440   1.710   1.289
10847SOL     OW33439   4.816   2.881   5.197
10847SOL    HW133440   4.780   2.788   5.203
10847SOL    HW233441   4.899   2.881   5.142
10848SOL     OW33442   1.261   0.788   6.779
10848SOL    HW133443   1.349   0.743   6.770
10848SOL    HW233444   1.273   0.878   6.822
10849SOL     OW33445   1.783   5.272   3.646
10849SOL    HW133446   1.767   5.231   3.736
10849SOL    HW233447   1.748   5.210   3.576
10850SOL     OW33448   5.955   0.474   1.619
10850SOL    HW133449   5.907   0.489   1.705
10850SOL    HW233450   5.898   0.419   1.557
10851SOL     OW33451   4.778   1.980   6.295
10851SOL    HW133452   4.690   2.008   6.332
10851SOL    HW233453   4.841   2.057   6.296
10852SOL     OW33454   6.933   0.427   5.852
10852SOL    HW133455   6.888   0.513   5.875
10852SOL    HW233456   6.905   0.398   5.761
10853SOL     OW33457   2.331   0.483   4.648
10853SOL    HW133458   2.370   0.574   4.634
10853SOL    HW233459   2.349   0.427   4.567
10854SOL     OW33460   6.842   0.178   0.882
10854SOL    HW133461   6.817   0.256   0.939
10854SOL    HW233462   6.855   0.097   0.940
10855SOL     OW33463   6.837   5.483   1.418
10855SOL    HW133464   6.830   5.534   1.504
10855SOL    HW233465   6.908   5.524   1.361
10856SOL     OW33466   5.245   0.102   6.751
10856SOL    HW133467   5.218   0.075   6.659
10856SOL    HW233468   5.221   0.029   6.815
10857SOL     OW33469   6.603   0.401   4.821
10857SOL    HW133470   6.634   0.484   4.774
10857SOL    HW233471   6.636   0.321   4.770
10858SOL     OW33472   1.947   1.727   0.356
10858SOL    HW133473   1.969   1.728   0.258
10858SOL    HW233474   1.979   1.811   0.399
10859SOL     OW33475   1.399   5.604   2.215
10859SOL    HW133476   1.441   5.604   2.124
10859SOL    HW233477   1.430   5.685   2.265
10860SOL     OW33478   5.934   2.737   1.757
10860SOL    HW133479   6.023   2.705   1.790
10860SOL    HW233480   5.942   2.769   1.663
10861SOL     OW33481   1.821   3.784   1.319
10861SOL    HW133482   1.806   3.876   1.353
10861SOL    HW233483   1.758   3.765   1.244
10862SOL     OW33484   3.563   4.396   5.370
10862SOL    HW133485   3.548   4.344   5.454
10862SOL    HW233486   3.563   4.333   5.291
10863SOL     OW33487   2.229   0.658   3.464
10863SOL    HW133488   2.228   0.574   3.518
10863SOL    HW233489   2.300   0.653   3.394
10864SOL     OW33490   3.026   4.051   1.834
10864SOL    HW133491   3.001   4.147   1.824
10864SOL    HW233492   3.124   4.044   1.856
10865SOL     OW33493   3.698   1.504   2.610
10865SOL    HW133494   3.676   1.550   2.696
10865SOL    HW233495   3.798   1.498   2.601
10866SOL     OW33496   1.011   3.724   3.932
10866SOL    HW133497   0.919   3.763   3.924
10866SOL    HW233498   1.013   3.661   4.009
10867SOL     OW33499   4.455   2.744   0.227
10867SOL    HW133500   4.429   2.647   0.227
10867SOL    HW233501   4.455   2.778   0.133
10868SOL     OW33502   1.316   6.743   4.925
10868SOL    HW133503   1.370   6.669   4.965
10868SOL    HW233504   1.254   6.781   4.994
10869NA      NA33505   6.801   1.054   6.331
10870NA      NA33506   4.524   4.528   5.405
10871NA      NA33507   1.136   4.858   2.865
10872NA      NA33508   5.659   3.659   3.052
10873NA      NA33509   3.755   2.804   5.655
10874NA      NA33510   2.505   4.839   0.042
10875NA      NA33511   1.844   5.682   6.726
10876NA      NA33512   4.178   4.968   1.507
10877NA      NA33513   5.050   4.527   0.698
10878NA      NA33514   3.386   1.544   0.616
10879NA      NA33515   5.483   6.870   1.680
10880NA      NA33516   2.380   6.535   5.185
10881NA      NA33517   4.572   4.771   2.592
10882NA      NA33518   4.345   4.099   6.665
   7.01842   7.01842   7.01842
