Generated by trjconv : CNT in water t=  50.00000
33518
    1C        C    1   2.842   2.772   4.748
    1C        C    2   2.899   2.719   4.865
    1C        C    3   2.842   2.771   4.982
    1C        C    4   2.850   2.774   4.261
    1C        C    5   2.902   2.728   4.384
    1C        C    6   2.846   2.773   4.505
    1C        C    7   3.016   2.647   4.625
    1C        C    8   2.900   2.728   4.627
    1C        C    9   3.082   2.607   4.743
    1C        C   10   3.013   2.636   4.863
    1C        C   11   3.183   2.501   4.979
    1C        C   12   3.059   2.565   4.975
    1C        C   13   2.854   2.772   3.773
    1C        C   14   2.904   2.725   3.896
    1C        C   15   2.854   2.778   4.017
    1C        C   16   3.018   2.644   4.139
    1C        C   17   2.903   2.725   4.139
    1C        C   18   3.081   2.611   4.261
    1C        C   19   3.018   2.647   4.382
    1C        C   20   3.208   2.555   4.505
    1C        C   21   3.078   2.608   4.504
    1C        C   22   3.281   2.534   4.624
    1C        C   23   3.211   2.548   4.746
    1C        C   24   3.413   2.482   4.867
    1C        C   25   3.271   2.499   4.866
    1C        C   26   3.490   2.471   4.983
    1C        C   27   2.849   2.771   3.281
    1C        C   28   2.905   2.726   3.402
    1C        C   29   2.854   2.770   3.527
    1C        C   30   3.022   2.644   3.650
    1C        C   31   2.907   2.726   3.650
    1C        C   32   3.078   2.602   3.772
    1C        C   33   3.017   2.640   3.894
    1C        C   34   3.209   2.552   4.016
    1C        C   35   3.080   2.609   4.016
    1C        C   36   3.277   2.530   4.138
    1C        C   37   3.211   2.556   4.260
    1C        C   38   3.415   2.501   4.382
    1C        C   39   3.277   2.533   4.383
    1C        C   40   3.487   2.495   4.503
    1C        C   41   3.418   2.500   4.625
    1C        C   42   3.631   2.489   4.744
    1C        C   43   3.489   2.485   4.747
    1C        C   44   3.707   2.488   4.863
    1C        C   45   3.628   2.481   4.979
    1C        C   46   2.839   2.754   2.793
    1C        C   47   2.899   2.715   2.915
    1C        C   48   2.851   2.766   3.038
    1C        C   49   3.013   2.632   3.161
    1C        C   50   2.901   2.718   3.161
    1C        C   51   3.079   2.602   3.282
    1C        C   52   3.018   2.641   3.404
    1C        C   53   3.209   2.549   3.530
    1C        C   54   3.082   2.611   3.526
    1C        C   55   3.276   2.525   3.652
    1C        C   56   3.206   2.543   3.773
    1C        C   57   3.415   2.501   3.894
    1C        C   58   3.276   2.524   3.895
    1C        C   59   3.487   2.498   4.015
    1C        C   60   3.416   2.504   4.137
    1C        C   61   3.627   2.499   4.257
    1C        C   62   3.486   2.497   4.260
    1C        C   63   3.699   2.507   4.378
    1C        C   64   3.629   2.498   4.501
    1C        C   65   3.837   2.540   4.624
    1C        C   66   3.700   2.505   4.622
    1C        C   67   3.907   2.562   4.745
    1C        C   68   3.841   2.532   4.866
    1C        C   69   4.050   2.584   4.976
    1C        C   70   3.921   2.530   4.981
    1C        C   71   2.824   2.734   2.308
    1C        C   72   2.892   2.700   2.427
    1C        C   73   2.838   2.748   2.548
    1C        C   74   3.005   2.622   2.671
    1C        C   75   2.889   2.702   2.672
    1C        C   76   3.068   2.588   2.793
    1C        C   77   3.012   2.630   2.916
    1C        C   78   3.203   2.541   3.038
    1C        C   79   3.072   2.593   3.039
    1C        C   80   3.273   2.526   3.160
    1C        C   81   3.211   2.553   3.285
    1C        C   82   3.414   2.501   3.401
    1C        C   83   3.275   2.525   3.407
    1C        C   84   3.483   2.494   3.524
    1C        C   85   3.415   2.499   3.647
    1C        C   86   3.625   2.502   3.766
    1C        C   87   3.484   2.493   3.770
    1C        C   88   3.694   2.509   3.889
    1C        C   89   3.629   2.497   4.014
    1C        C   90   3.835   2.547   4.134
    1C        C   91   3.699   2.510   4.136
    1C        C   92   3.900   2.571   4.258
    1C        C   93   3.835   2.544   4.380
    1C        C   94   4.029   2.631   4.498
    1C        C   95   3.901   2.570   4.502
    1C        C   96   4.091   2.670   4.619
    1C        C   97   4.030   2.634   4.741
    1C        C   98   4.185   2.772   4.864
    1C        C   99   4.097   2.659   4.864
    1C        C  100   4.212   2.845   4.980
    1C        C  101   2.820   2.731   2.071
    1C        C  102   2.991   2.595   2.185
    1C        C  103   2.873   2.676   2.188
    1C        C  104   3.064   2.578   2.306
    1C        C  105   3.006   2.617   2.429
    1C        C  106   3.203   2.535   2.550
    1C        C  107   3.071   2.587   2.551
    1C        C  108   3.271   2.521   2.673
    1C        C  109   3.201   2.541   2.794
    1C        C  110   3.409   2.495   2.917
    1C        C  111   3.269   2.517   2.916
    1C        C  112   3.484   2.491   3.037
    1C        C  113   3.411   2.498   3.158
    1C        C  114   3.626   2.497   3.280
    1C        C  115   3.485   2.495   3.279
    1C        C  116   3.697   2.503   3.402
    1C        C  117   3.625   2.497   3.523
    1C        C  118   3.833   2.544   3.647
    1C        C  119   3.696   2.508   3.644
    1C        C  120   3.896   2.572   3.770
    1C        C  121   3.829   2.550   3.892
    1C        C  122   4.024   2.643   4.013
    1C        C  123   3.899   2.576   4.012
    1C        C  124   4.086   2.677   4.135
    1C        C  125   4.028   2.631   4.255
    1C        C  126   4.196   2.762   4.374
    1C        C  127   4.087   2.672   4.376
    1C        C  128   4.242   2.815   4.496
    1C        C  129   4.194   2.767   4.620
    1C        C  130   4.327   2.933   4.741
    1C        C  131   4.239   2.822   4.742
    1C        C  132   4.356   2.999   4.863
    1C        C  133   4.287   2.962   4.979
    1C        C  134   3.174   2.467   2.085
    1C        C  135   3.041   2.511   2.080
    1C        C  136   3.262   2.480   2.193
    1C        C  137   3.194   2.521   2.310
    1C        C  138   3.406   2.476   2.427
    1C        C  139   3.267   2.501   2.429
    1C        C  140   3.479   2.480   2.548
    1C        C  141   3.410   2.499   2.670
    1C        C  142   3.619   2.497   2.791
    1C        C  143   3.478   2.491   2.794
    1C        C  144   3.693   2.510   2.910
    1C        C  145   3.625   2.495   3.033
    1C        C  146   3.831   2.539   3.155
    1C        C  147   3.694   2.503   3.156
    1C        C  148   3.896   2.566   3.277
    1C        C  149   3.832   2.545   3.402
    1C        C  150   4.028   2.627   3.522
    1C        C  151   3.899   2.567   3.524
    1C        C  152   4.081   2.672   3.645
    1C        C  153   4.020   2.641   3.768
    1C        C  154   4.198   2.758   3.888
    1C        C  155   4.085   2.674   3.889
    1C        C  156   4.251   2.807   4.010
    1C        C  157   4.200   2.762   4.133
    1C        C  158   4.335   2.926   4.254
    1C        C  159   4.251   2.812   4.255
    1C        C  160   4.371   2.986   4.377
    1C        C  161   4.329   2.927   4.498
    1C        C  162   4.432   3.116   4.619
    1C        C  163   4.363   2.993   4.619
    1C        C  164   4.460   3.184   4.740
    1C        C  165   4.428   3.121   4.862
    1C        C  166   4.521   3.318   4.974
    1C        C  167   4.480   3.186   4.975
    1C        C  168   3.480   2.435   2.074
    1C        C  169   3.400   2.453   2.188
    1C        C  170   3.620   2.465   2.305
    1C        C  171   3.477   2.464   2.305
    1C        C  172   3.691   2.484   2.426
    1C        C  173   3.620   2.486   2.548
    1C        C  174   3.828   2.537   2.664
    1C        C  175   3.691   2.504   2.669
    1C        C  176   3.897   2.560   2.786
    1C        C  177   3.831   2.540   2.909
    1C        C  178   4.021   2.631   3.032
    1C        C  179   3.894   2.568   3.032
    1C        C  180   4.082   2.666   3.154
    1C        C  181   4.021   2.632   3.276
    1C        C  182   4.196   2.752   3.397
    1C        C  183   4.084   2.664   3.398
    1C        C  184   4.249   2.801   3.518
    1C        C  185   4.193   2.758   3.641
    1C        C  186   4.334   2.915   3.762
    1C        C  187   4.243   2.807   3.764
    1C        C  188   4.374   2.975   3.884
    1C        C  189   4.331   2.924   4.008
    1C        C  190   4.440   3.107   4.128
    1C        C  191   4.369   2.984   4.130
    1C        C  192   4.468   3.172   4.250
    1C        C  193   4.436   3.112   4.374
    1C        C  194   4.504   3.313   4.494
    1C        C  195   4.460   3.179   4.496
    1C        C  196   4.524   3.387   4.612
    1C        C  197   4.503   3.319   4.734
    1C        C  198   4.554   3.532   4.852
    1C        C  199   4.530   3.390   4.854
    1C        C  200   4.588   3.622   4.958
    1C        C  201   3.620   2.421   2.071
    1C        C  202   3.829   2.512   2.182
    1C        C  203   3.696   2.458   2.186
    1C        C  204   3.900   2.538   2.302
    1C        C  205   3.828   2.518   2.422
    1C        C  206   4.022   2.615   2.543
    1C        C  207   3.896   2.553   2.541
    1C        C  208   4.083   2.657   2.664
    1C        C  209   4.025   2.619   2.788
    1C        C  210   4.195   2.749   2.902
    1C        C  211   4.083   2.663   2.909
    1C        C  212   4.248   2.794   3.026
    1C        C  213   4.197   2.748   3.149
    1C        C  214   4.330   2.910   3.270
    1C        C  215   4.244   2.799   3.273
    1C        C  216   4.371   2.970   3.392
    1C        C  217   4.342   2.907   3.516
    1C        C  218   4.437   3.096   3.637
    1C        C  219   4.376   2.969   3.638
    1C        C  220   4.462   3.165   3.758
    1C        C  221   4.434   3.103   3.882
    1C        C  222   4.503   3.304   4.004
    1C        C  223   4.466   3.168   4.004
    1C        C  224   4.517   3.375   4.125
    1C        C  225   4.509   3.308   4.249
    1C        C  226   4.515   3.521   4.368
    1C        C  227   4.517   3.380   4.370
    1C        C  228   4.520   3.596   4.488
    1C        C  229   4.539   3.527   4.610
    1C        C  230   4.498   3.739   4.731
    1C        C  231   4.536   3.602   4.730
    1C        C  232   4.490   3.820   4.846
    1C        C  233   4.548   3.756   4.956
    1C        C  234   4.018   2.610   2.061
    1C        C  235   3.895   2.546   2.063
    1C        C  236   4.085   2.647   2.179
    1C        C  237   4.026   2.603   2.299
    1C        C  238   4.199   2.731   2.420
    1C        C  239   4.086   2.645   2.421
    1C        C  240   4.252   2.785   2.539
    1C        C  241   4.198   2.739   2.661
    1C        C  242   4.338   2.904   2.785
    1C        C  243   4.249   2.795   2.780
    1C        C  244   4.379   2.965   2.906
    1C        C  245   4.335   2.905   3.027
    1C        C  246   4.442   3.091   3.146
    1C        C  247   4.372   2.968   3.148
    1C        C  248   4.461   3.156   3.271
    1C        C  249   4.430   3.097   3.396
    1C        C  250   4.499   3.300   3.514
    1C        C  251   4.466   3.163   3.516
    1C        C  252   4.507   3.370   3.636
    1C        C  253   4.495   3.302   3.759
    1C        C  254   4.521   3.514   3.879
    1C        C  255   4.514   3.372   3.880
    1C        C  256   4.514   3.585   4.000
    1C        C  257   4.519   3.516   4.124
    1C        C  258   4.492   3.730   4.245
    1C        C  259   4.510   3.590   4.244
    1C        C  260   4.471   3.802   4.365
    1C        C  261   4.490   3.734   4.487
    1C        C  262   4.421   3.936   4.602
    1C        C  263   4.470   3.803   4.608
    1C        C  264   4.397   4.009   4.720
    1C        C  265   4.436   3.950   4.842
    1C        C  266   4.319   4.134   4.958
    1C        C  267   4.391   4.015   4.958
    1C        C  268   4.262   2.772   2.062
    1C        C  269   4.200   2.728   2.180
    1C        C  270   4.343   2.891   2.298
    1C        C  271   4.256   2.779   2.299
    1C        C  272   4.384   2.953   2.418
    1C        C  273   4.338   2.897   2.539
    1C        C  274   4.450   3.079   2.657
    1C        C  275   4.376   2.958   2.660
    1C        C  276   4.472   3.150   2.777
    1C        C  277   4.444   3.090   2.902
    1C        C  278   4.504   3.293   3.027
    1C        C  279   4.469   3.156   3.024
    1C        C  280   4.516   3.364   3.148
    1C        C  281   4.496   3.293   3.268
    1C        C  282   4.514   3.507   3.391
    1C        C  283   4.505   3.366   3.389
    1C        C  284   4.515   3.580   3.511
    1C        C  285   4.515   3.511   3.635
    1C        C  286   4.490   3.723   3.754
    1C        C  287   4.515   3.584   3.756
    1C        C  288   4.474   3.792   3.876
    1C        C  289   4.490   3.724   3.999
    1C        C  290   4.425   3.928   4.116
    1C        C  291   4.471   3.794   4.121
    1C        C  292   4.400   4.000   4.235
    1C        C  293   4.422   3.935   4.358
    1C        C  294   4.325   4.125   4.478
    1C        C  295   4.394   4.001   4.480
    1C        C  296   4.287   4.189   4.598
    1C        C  297   4.322   4.130   4.722
    1C        C  298   4.200   4.316   4.838
    1C        C  299   4.279   4.196   4.839
    1C        C  300   4.168   4.402   4.948
    1C        C  301   4.354   2.876   2.061
    1C        C  302   4.468   3.067   2.173
    1C        C  303   4.394   2.945   2.177
    1C        C  304   4.482   3.140   2.294
    1C        C  305   4.449   3.079   2.417
    1C        C  306   4.513   3.284   2.535
    1C        C  307   4.479   3.146   2.537
    1C        C  308   4.513   3.356   2.657
    1C        C  309   4.493   3.290   2.780
    1C        C  310   4.527   3.499   2.901
    1C        C  311   4.514   3.359   2.902
    1C        C  312   4.517   3.572   3.021
    1C        C  313   4.521   3.505   3.146
    1C        C  314   4.487   3.714   3.264
    1C        C  315   4.516   3.576   3.268
    1C        C  316   4.469   3.784   3.386
    1C        C  317   4.493   3.720   3.510
    1C        C  318   4.421   3.922   3.627
    1C        C  319   4.474   3.791   3.631
    1C        C  320   4.387   3.983   3.750
    1C        C  321   4.419   3.922   3.873
    1C        C  322   4.312   4.108   3.990
    1C        C  323   4.387   3.988   3.994
    1C        C  324   4.277   4.169   4.112
    1C        C  325   4.328   4.122   4.235
    1C        C  326   4.179   4.276   4.356
    1C        C  327   4.285   4.181   4.355
    1C        C  328   4.129   4.330   4.476
    1C        C  329   4.187   4.289   4.598
    1C        C  330   4.024   4.436   4.716
    1C        C  331   4.138   4.351   4.715
    1C        C  332   3.970   4.494   4.833
    1C        C  333   4.055   4.484   4.944
    1C        C  334   4.555   3.267   2.061
    1C        C  335   4.535   3.128   2.062
    1C        C  336   4.544   3.348   2.174
    1C        C  337   4.515   3.279   2.294
    1C        C  338   4.519   3.495   2.411
    1C        C  339   4.523   3.354   2.413
    1C        C  340   4.518   3.565   2.533
    1C        C  341   4.516   3.497   2.657
    1C        C  342   4.497   3.709   2.774
    1C        C  343   4.519   3.569   2.778
    1C        C  344   4.476   3.780   2.894
    1C        C  345   4.490   3.711   3.017
    1C        C  346   4.420   3.910   3.137
    1C        C  347   4.469   3.778   3.139
    1C        C  348   4.390   3.977   3.258
    1C        C  349   4.424   3.917   3.381
    1C        C  350   4.319   4.102   3.501
    1C        C  351   4.396   3.983   3.502
    1C        C  352   4.276   4.161   3.622
    1C        C  353   4.319   4.107   3.745
    1C        C  354   4.178   4.268   3.864
    1C        C  355   4.277   4.167   3.866
    1C        C  356   4.124   4.318   3.985
    1C        C  357   4.178   4.269   4.106
    1C        C  358   4.015   4.399   4.231
    1C        C  359   4.127   4.314   4.230
    1C        C  360   3.955   4.446   4.350
    1C        C  361   4.019   4.419   4.474
    1C        C  362   3.828   4.519   4.592
    1C        C  363   3.956   4.459   4.594
    1C        C  364   3.761   4.545   4.713
    1C        C  365   3.835   4.535   4.832
    1C        C  366   3.628   4.589   4.950
    1C        C  367   3.765   4.567   4.949
    1C        C  368   4.510   3.564   2.053
    1C        C  369   4.531   3.489   2.169
    1C        C  370   4.503   3.704   2.288
    1C        C  371   4.524   3.564   2.288
    1C        C  372   4.480   3.774   2.408
    1C        C  373   4.496   3.705   2.530
    1C        C  374   4.421   3.905   2.648
    1C        C  375   4.476   3.775   2.651
    1C        C  376   4.390   3.970   2.769
    1C        C  377   4.425   3.912   2.893
    1C        C  378   4.318   4.095   3.009
    1C        C  379   4.396   3.977   3.015
    1C        C  380   4.271   4.150   3.131
    1C        C  381   4.314   4.097   3.255
    1C        C  382   4.172   4.252   3.377
    1C        C  383   4.275   4.154   3.378
    1C        C  384   4.117   4.301   3.497
    1C        C  385   4.173   4.258   3.619
    1C        C  386   4.006   4.389   3.742
    1C        C  387   4.121   4.307   3.741
    1C        C  388   3.946   4.431   3.863
    1C        C  389   4.007   4.397   3.986
    1C        C  390   3.818   4.484   4.108
    1C        C  391   3.950   4.433   4.110
    1C        C  392   3.751   4.510   4.230
    1C        C  393   3.824   4.498   4.350
    1C        C  394   3.616   4.547   4.473
    1C        C  395   3.756   4.528   4.470
    1C        C  396   3.545   4.556   4.594
    1C        C  397   3.620   4.561   4.714
    1C        C  398   3.409   4.558   4.838
    1C        C  399   3.549   4.575   4.835
    1C        C  400   3.340   4.520   4.954
    1C        C  401   4.508   3.703   2.051
    1C        C  402   4.456   3.915   2.169
    1C        C  403   4.495   3.779   2.168
    1C        C  404   4.413   3.980   2.287
    1C        C  405   4.434   3.908   2.407
    1C        C  406   4.322   4.092   2.523
    1C        C  407   4.398   3.974   2.527
    1C        C  408   4.274   4.146   2.644
    1C        C  409   4.316   4.090   2.767
    1C        C  410   4.174   4.251   2.887
    1C        C  411   4.275   4.152   2.887
    1C        C  412   4.121   4.297   3.009
    1C        C  413   4.172   4.250   3.132
    1C        C  414   4.003   4.379   3.252
    1C        C  415   4.118   4.297   3.254
    1C        C  416   3.941   4.414   3.374
    1C        C  417   4.001   4.382   3.498
    1C        C  418   3.810   4.472   3.619
    1C        C  419   3.940   4.417   3.620
    1C        C  420   3.747   4.501   3.742
    1C        C  421   3.814   4.481   3.865
    1C        C  422   3.609   4.533   3.987
    1C        C  423   3.747   4.505   3.988
    1C        C  424   3.539   4.540   4.109
    1C        C  425   3.612   4.534   4.230
    1C        C  426   3.402   4.551   4.358
    1C        C  427   3.543   4.553   4.352
    1C        C  428   3.330   4.546   4.479
    1C        C  429   3.404   4.551   4.599
    1C        C  430   3.193   4.518   4.723
    1C        C  431   3.332   4.546   4.720
    1C        C  432   3.123   4.496   4.845
    1C        C  433   3.202   4.501   4.960
    1C        C  434   4.384   4.122   2.050
    1C        C  435   4.451   3.999   2.057
    1C        C  436   4.302   4.162   2.160
    1C        C  437   4.336   4.099   2.283
    1C        C  438   4.182   4.254   2.401
    1C        C  439   4.281   4.153   2.402
    1C        C  440   4.126   4.300   2.522
    1C        C  441   4.177   4.249   2.643
    1C        C  442   4.002   4.372   2.765
    1C        C  443   4.119   4.293   2.764
    1C        C  444   3.940   4.404   2.888
    1C        C  445   4.001   4.373   3.011
    1C        C  446   3.810   4.471   3.128
    1C        C  447   3.940   4.415   3.131
    1C        C  448   3.745   4.497   3.251
    1C        C  449   3.810   4.467   3.373
    1C        C  450   3.607   4.528   3.497
    1C        C  451   3.744   4.491   3.496
    1C        C  452   3.538   4.540   3.620
    1C        C  453   3.610   4.536   3.742
    1C        C  454   3.398   4.543   3.867
    1C        C  455   3.540   4.543   3.864
    1C        C  456   3.329   4.538   3.990
    1C        C  457   3.398   4.538   4.114
    1C        C  458   3.192   4.503   4.236
    1C        C  459   3.330   4.536   4.237
    1C        C  460   3.125   4.487   4.360
    1C        C  461   3.191   4.520   4.480
    1C        C  462   2.993   4.440   4.602
    1C        C  463   3.123   4.497   4.602
    1C        C  464   2.931   4.403   4.723
    1C        C  465   2.989   4.447   4.845
    1C        C  466   2.799   4.343   4.958
    1C        C  467   2.904   4.436   4.960
    1C        C  468   4.125   4.289   2.040
    1C        C  469   4.189   4.250   2.158
    1C        C  470   4.005   4.367   2.278
    1C        C  471   4.130   4.300   2.278
    1C        C  472   3.943   4.406   2.399
    1C        C  473   4.007   4.376   2.522
    1C        C  474   3.814   4.470   2.642
    1C        C  475   3.943   4.413   2.643
    1C        C  476   3.745   4.490   2.764
    1C        C  477   3.814   4.467   2.885
    1C        C  478   3.608   4.524   3.009
    1C        C  479   3.747   4.498   3.005
    1C        C  480   3.536   4.528   3.131
    1C        C  481   3.607   4.526   3.253
    1C        C  482   3.396   4.536   3.377
    1C        C  483   3.537   4.538   3.375
    1C        C  484   3.326   4.531   3.500
    1C        C  485   3.397   4.539   3.621
    1C        C  486   3.190   4.501   3.745
    1C        C  487   3.328   4.533   3.745
    1C        C  488   3.128   4.479   3.870
    1C        C  489   3.192   4.504   3.993
    1C        C  490   3.000   4.419   4.116
    1C        C  491   3.122   4.490   4.115
    1C        C  492   2.941   4.385   4.239
    1C        C  493   2.997   4.428   4.362
    1C        C  494   2.823   4.305   4.482
    1C        C  495   2.933   4.393   4.483
    1C        C  496   2.774   4.256   4.605
    1C        C  497   2.817   4.317   4.725
    1C        C  498   2.668   4.163   4.846
    1C        C  499   2.752   4.277   4.844
    1C        C  500   2.598   4.117   4.958
    1C        C  501   4.005   4.359   2.038
    1C        C  502   3.819   4.470   2.158
    1C        C  503   3.942   4.401   2.156
    1C        C  504   3.745   4.485   2.277
    1C        C  505   3.812   4.458   2.399
    1C        C  506   3.606   4.512   2.520
    1C        C  507   3.744   4.483   2.520
    1C        C  508   3.536   4.523   2.642
    1C        C  509   3.606   4.518   2.765
    1C        C  510   3.397   4.526   2.886
    1C        C  511   3.538   4.535   2.887
    1C        C  512   3.326   4.520   3.008
    1C        C  513   3.395   4.532   3.131
    1C        C  514   3.190   4.487   3.256
    1C        C  515   3.326   4.525   3.254
    1C        C  516   3.121   4.470   3.378
    1C        C  517   3.189   4.499   3.499
    1C        C  518   3.002   4.405   3.626
    1C        C  519   3.125   4.473   3.623
    1C        C  520   2.944   4.368   3.749
    1C        C  521   3.005   4.409   3.870
    1C        C  522   2.838   4.283   3.994
    1C        C  523   2.944   4.377   3.993
    1C        C  524   2.789   4.236   4.118
    1C        C  525   2.837   4.289   4.240
    1C        C  526   2.698   4.130   4.366
    1C        C  527   2.781   4.245   4.361
    1C        C  528   2.653   4.075   4.488
    1C        C  529   2.692   4.141   4.606
    1C        C  530   2.588   3.958   4.731
    1C        C  531   2.644   4.089   4.728
    1C        C  532   2.543   3.903   4.854
    1C        C  533   2.526   3.996   4.962
    1C        C  534   3.614   4.556   2.039
    1C        C  535   3.745   4.509   2.045
    1C        C  536   3.533   4.535   2.155
    1C        C  537   3.605   4.509   2.275
    1C        C  538   3.394   4.513   2.398
    1C        C  539   3.536   4.518   2.398
    1C        C  540   3.324   4.506   2.520
    1C        C  541   3.395   4.516   2.642
    1C        C  542   3.189   4.475   2.764
    1C        C  543   3.327   4.507   2.765
    1C        C  544   3.120   4.461   2.887
    1C        C  545   3.188   4.489   3.007
    1C        C  546   3.001   4.400   3.133
    1C        C  547   3.126   4.464   3.132
    1C        C  548   2.938   4.365   3.254
    1C        C  549   2.995   4.405   3.377
    1C        C  550   2.835   4.277   3.505
    1C        C  551   2.942   4.368   3.503
    1C        C  552   2.783   4.229   3.628
    1C        C  553   2.834   4.280   3.749
    1C        C  554   2.702   4.117   3.875
    1C        C  555   2.788   4.229   3.873
    1C        C  556   2.660   4.064   3.999
    1C        C  557   2.700   4.126   4.119
    1C        C  558   2.597   3.944   4.246
    1C        C  559   2.663   4.069   4.243
    1C        C  560   2.574   3.874   4.366
    1C        C  561   2.590   3.949   4.485
    1C        C  562   2.529   3.753   4.614
    1C        C  563   2.565   3.889   4.610
    1C        C  564   2.518   3.684   4.737
    1C        C  565   2.519   3.762   4.855
    1C        C  566   2.530   3.549   4.980
    1C        C  567   2.524   3.688   4.974
    1C        C  568   3.324   4.475   2.039
    1C        C  569   3.393   4.510   2.156
    1C        C  570   3.182   4.472   2.280
    1C        C  571   3.320   4.504   2.278
    1C        C  572   3.115   4.455   2.404
    1C        C  573   3.186   4.479   2.524
    1C        C  574   2.987   4.401   2.647
    1C        C  575   3.115   4.462   2.645
    1C        C  576   2.933   4.356   2.769
    1C        C  577   2.995   4.395   2.890
    1C        C  578   2.828   4.269   3.016
    1C        C  579   2.936   4.360   3.013
    1C        C  580   2.777   4.224   3.140
    1C        C  581   2.828   4.277   3.261
    1C        C  582   2.695   4.115   3.386
    1C        C  583   2.781   4.226   3.384
    1C        C  584   2.660   4.055   3.509
    1C        C  585   2.698   4.116   3.631
    1C        C  586   2.595   3.933   3.754
    1C        C  587   2.663   4.056   3.754
    1C        C  588   2.571   3.872   3.879
    1C        C  589   2.597   3.937   4.002
    1C        C  590   2.537   3.738   4.126
    1C        C  591   2.566   3.877   4.125
    1C        C  592   2.523   3.670   4.249
    1C        C  593   2.530   3.740   4.371
    1C        C  594   2.503   3.535   4.498
    1C        C  595   2.514   3.676   4.496
    1C        C  596   2.515   3.466   4.620
    1C        C  597   2.518   3.541   4.739
    1C        C  598   2.535   3.331   4.865
    1C        C  599   2.527   3.472   4.862
    1C        C  600   2.526   3.249   4.979
    1C        C  601   3.191   4.437   2.038
    1C        C  602   2.984   4.389   2.159
    1C        C  603   3.119   4.435   2.158
    1C        C  604   2.925   4.356   2.284
    1C        C  605   2.989   4.393   2.405
    1C        C  606   2.816   4.270   2.530
    1C        C  607   2.927   4.356   2.527
    1C        C  608   2.767   4.218   2.652
    1C        C  609   2.824   4.266   2.772
    1C        C  610   2.681   4.113   2.896
    1C        C  611   2.775   4.218   2.895
    1C        C  612   2.641   4.058   3.021
    1C        C  613   2.686   4.116   3.141
    1C        C  614   2.593   3.927   3.264
    1C        C  615   2.654   4.055   3.264
    1C        C  616   2.564   3.865   3.388
    1C        C  617   2.594   3.931   3.510
    1C        C  618   2.532   3.729   3.637
    1C        C  619   2.569   3.865   3.632
    1C        C  620   2.515   3.666   3.762
    1C        C  621   2.528   3.738   3.883
    1C        C  622   2.514   3.526   4.008
    1C        C  623   2.521   3.667   4.005
    1C        C  624   2.507   3.458   4.132
    1C        C  625   2.504   3.530   4.253
    1C        C  626   2.536   3.323   4.380
    1C        C  627   2.508   3.462   4.377
    1C        C  628   2.555   3.257   4.503
    1C        C  629   2.539   3.327   4.625
    1C        C  630   2.600   3.123   4.745
    1C        C  631   2.556   3.258   4.747
    1C        C  632   2.617   3.051   4.867
    1C        C  633   2.550   3.112   4.978
    1C        C  634   2.779   4.305   2.058
    1C        C  635   2.890   4.391   2.051
    1C        C  636   2.747   4.227   2.170
    1C        C  637   2.813   4.268   2.288
    1C        C  638   2.676   4.106   2.410
    1C        C  639   2.765   4.216   2.410
    1C        C  640   2.636   4.049   2.532
    1C        C  641   2.676   4.110   2.653
    1C        C  642   2.581   3.923   2.777
    1C        C  643   2.638   4.052   2.776
    1C        C  644   2.563   3.859   2.902
    1C        C  645   2.588   3.927   3.022
    1C        C  646   2.524   3.724   3.146
    1C        C  647   2.564   3.859   3.144
    1C        C  648   2.511   3.658   3.271
    1C        C  649   2.526   3.729   3.392
    1C        C  650   2.508   3.519   3.520
    1C        C  651   2.518   3.659   3.515
    1C        C  652   2.510   3.450   3.643
    1C        C  653   2.505   3.525   3.763
    1C        C  654   2.534   3.315   3.890
    1C        C  655   2.513   3.455   3.886
    1C        C  656   2.554   3.251   4.014
    1C        C  657   2.533   3.319   4.136
    1C        C  658   2.603   3.121   4.258
    1C        C  659   2.553   3.253   4.259
    1C        C  660   2.639   3.060   4.381
    1C        C  661   2.609   3.126   4.502
    1C        C  662   2.707   2.938   4.622
    1C        C  663   2.631   3.057   4.623
    1C        C  664   2.751   2.881   4.744
    1C        C  665   2.704   2.937   4.866
    1C        C  666   2.754   2.879   4.983
    1C        C  667   2.671   4.027   2.051
    1C        C  668   2.679   4.104   2.168
    1C        C  669   2.587   3.911   2.288
    1C        C  670   2.639   4.043   2.289
    1C        C  671   2.561   3.848   2.412
    1C        C  672   2.577   3.921   2.532
    1C        C  673   2.515   3.720   2.658
    1C        C  674   2.557   3.855   2.655
    1C        C  675   2.506   3.650   2.781
    1C        C  676   2.527   3.722   2.901
    1C        C  677   2.505   3.513   3.028
    1C        C  678   2.517   3.653   3.024
    1C        C  679   2.503   3.444   3.152
    1C        C  680   2.505   3.517   3.273
    1C        C  681   2.533   3.310   3.401
    1C        C  682   2.510   3.449   3.397
    1C        C  683   2.556   3.243   3.524
    1C        C  684   2.536   3.311   3.646
    1C        C  685   2.602   3.112   3.770
    1C        C  686   2.549   3.243   3.769
    1C        C  687   2.637   3.053   3.893
    1C        C  688   2.603   3.118   4.014
    1C        C  689   2.717   2.941   4.138
    1C        C  690   2.636   3.057   4.137
    1C        C  691   2.759   2.882   4.259
    1C        C  692   2.713   2.939   4.380
    1C        C  693   2.754   2.881   4.502
    1C        C  694   2.626   3.895   2.057
    1C        C  695   2.522   3.701   2.176
    1C        C  696   2.575   3.832   2.172
    1C        C  697   2.502   3.636   2.299
    1C        C  698   2.522   3.712   2.417
    1C        C  699   2.484   3.506   2.542
    1C        C  700   2.499   3.646   2.539
    1C        C  701   2.504   3.439   2.665
    1C        C  702   2.504   3.509   2.788
    1C        C  703   2.521   3.297   2.910
    1C        C  704   2.503   3.437   2.909
    1C        C  705   2.543   3.235   3.035
    1C        C  706   2.526   3.305   3.157
    1C        C  707   2.600   3.108   3.279
    1C        C  708   2.547   3.239   3.280
    1C        C  709   2.638   3.050   3.402
    1C        C  710   2.607   3.112   3.526
    1C        C  711   2.714   2.931   3.649
    1C        C  712   2.636   3.049   3.649
    1C        C  713   2.760   2.878   3.771
    1C        C  714   2.718   2.937   3.893
    1C        C  715   2.762   2.884   4.016
    1C        C  716   2.455   3.496   2.058
    1C        C  717   2.496   3.630   2.058
    1C        C  718   2.462   3.422   2.180
    1C        C  719   2.476   3.496   2.300
    1C        C  720   2.516   3.292   2.423
    1C        C  721   2.480   3.429   2.424
    1C        C  722   2.541   3.227   2.546
    1C        C  723   2.524   3.299   2.667
    1C        C  724   2.599   3.100   2.790
    1C        C  725   2.539   3.228   2.788
    1C        C  726   2.627   3.037   2.913
    1C        C  727   2.597   3.104   3.034
    1C        C  728   2.711   2.928   3.158
    1C        C  729   2.628   3.043   3.157
    1C        C  730   2.755   2.877   3.282
    1C        C  731   2.717   2.932   3.406
    1C        C  732   2.759   2.874   3.527
    1C        C  733   2.491   3.197   2.073
    1C        C  734   2.488   3.281   2.185
    1C        C  735   2.582   3.085   2.307
    1C        C  736   2.527   3.216   2.305
    1C        C  737   2.617   3.023   2.429
    1C        C  738   2.594   3.096   2.548
    1C        C  739   2.696   2.909   2.670
    1C        C  740   2.631   3.034   2.670
    1C        C  741   2.742   2.856   2.793
    1C        C  742   2.705   2.919   2.914
    1C        C  743   2.759   2.874   3.037
    1C        C  744   2.543   3.068   2.076
    1C        C  745   2.683   2.895   2.185
    1C        C  746   2.612   3.017   2.186
    1C        C  747   2.731   2.842   2.307
    1C        C  748   2.691   2.903   2.428
    1C        C  749   2.740   2.850   2.549
    1C        C  750   2.736   2.842   2.067
    1C        C  751   3.674   2.321   1.975
    1C        O  752   3.671   2.197   1.995
    1C        O  753   3.681   2.357   1.840
    1C        C  754   4.615   3.055   1.961
    1C        O  755   4.558   3.010   1.858
    1C        O  756   4.726   2.976   1.991
    1C        C  757   4.459   4.218   1.966
    1C        O  758   4.554   4.282   2.020
    1C        O  759   4.407   4.274   1.848
    1C        C  760   3.592   4.666   1.942
    1C        O  761   3.486   4.734   1.934
    1C        O  762   3.670   4.686   1.827
    1C        C  763   2.896   4.474   1.928
    1C        O  764   2.912   4.405   1.824
    1C        O  765   2.812   4.582   1.898
    1C        C  766   2.351   3.470   1.956
    1C        O  767   2.368   3.498   1.834
    1C        O  768   2.218   3.483   1.998
    1C        C  769   4.697   3.585   5.051
    1C        O  770   4.681   3.556   5.173
    1C        O  771   4.818   3.652   5.030
    1C        C  772   4.270   4.472   5.030
    1C        O  773   4.264   4.497   5.153
    1C        O  774   4.373   4.542   4.966
    1C        C  775   4.142   2.522   5.074
    1C        O  776   4.144   2.397   5.094
    1C        O  777   4.167   2.569   5.203
    1C        C  778   2.907   4.534   5.071
    1C        O  779   2.814   4.619   5.080
    1C        O  780   2.959   4.490   5.193
    1C        C  781   2.495   3.035   5.092
    1C        O  782   2.372   3.017   5.110
    1C        O  783   2.566   2.994   5.204
    1C        C  784   2.404   3.996   5.044
    1C        O  785   2.291   4.012   4.989
    1C        O  786   2.401   3.956   5.178
    1C        C  787   2.955   2.449   1.976
    1C        O  788   2.986   2.452   1.854
    1C        O  789   2.871   2.344   2.010
    1C        C  790   3.196   2.394   5.080
    1C        O  791   3.161   2.277   5.050
    1C        O  792   3.160   2.440   5.208
    1C        H  793   4.281   3.038   5.055
    1C        H  794   4.139   2.843   5.059
    1C        H  795   4.532   3.120   5.042
    1C        H  796   4.519   3.380   5.061
    1C        H  797   4.589   3.820   5.032
    1C        H  798   4.451   4.007   5.046
    1C        H  799   4.251   4.151   5.039
    1C        H  800   4.011   4.499   5.040
    1C        H  801   3.806   4.543   5.045
    1C        H  802   3.597   4.652   5.031
    1C        H  803   3.397   4.486   5.038
    1C        H  804   3.169   4.461   5.054
    1C        H  805   3.910   2.436   5.032
    1C        H  806   3.673   2.509   5.072
    1C        H  807   2.983   2.530   5.043
    1C        H  808   3.445   2.472   5.081
    1C        H  809   2.864   2.731   5.079
    1C        H  810   2.750   2.937   5.073
    1C        H  811   2.527   3.298   5.074
    1C        H  812   2.564   3.508   5.073
    1C        H  813   2.546   3.735   5.067
    1C        H  814   2.587   4.178   5.045
    1C        H  815   2.745   4.337   5.050
    1C        H  816   2.721   2.900   1.978
    1C        H  817   2.820   2.675   1.980
    1C        H  818   3.203   2.401   2.006
    1C        H  819   3.427   2.401   1.987
    1C        H  820   3.862   2.507   1.969
    1C        H  821   4.070   2.599   1.968
    1C        H  822   4.268   2.705   1.978
    1C        H  823   4.387   2.912   1.966
    1C        H  824   4.577   3.313   1.967
    1C        H  825   4.440   3.515   1.988
    1C        H  826   4.556   3.746   1.965
    1C        H  827   3.813   4.548   1.972
    1C        H  828   3.960   4.375   1.942
    1C        H  829   4.188   4.294   1.954
    1C        H  830   4.531   3.995   1.986
    1C        H  831   2.626   3.844   1.963
    1C        H  832   2.746   4.046   1.977
    1C        H  833   2.708   4.316   1.979
    1C        H  834   3.367   4.502   1.945
    1C        H  835   3.139   4.449   1.945
    1C        H  836   2.512   3.002   1.997
    1C        H  837   2.479   3.242   1.977
    1C        H  838   2.516   3.680   1.966
    2V3OU   H29  839   2.797   3.546   1.106
    2V3OU   C27  840   2.782   3.500   1.207
    2V3OU   H27  841   2.728   3.564   1.281
    2V3OU   H28  842   2.731   3.402   1.189
    2V3OU   O11  843   2.912   3.476   1.260
    2V3OU   C15  844   2.922   3.395   1.371
    2V3OU   C13  845   3.053   3.373   1.418
    2V3OU   C14  846   3.077   3.268   1.507
    2V3OU   C16  847   2.970   3.189   1.549
    2V3OU    H6  848   2.991   3.111   1.624
    2V3OU   C12  849   3.212   3.232   1.555
    2V3OU    O2  850   3.238   3.136   1.631
    2V3OU   C10  851   3.324   3.312   1.503
    2V3OU    C8  852   3.455   3.272   1.524
    2V3OU   O10  853   3.483   3.159   1.595
    2V3OU   H26  854   3.396   3.127   1.622
    2V3OU    C6  855   3.564   3.347   1.470
    2V3OU    C5  856   3.539   3.466   1.402
    2V3OU    C4  857   3.703   3.294   1.467
    2V3OU    H4  858   3.727   3.232   1.558
    2V3OU    H5  859   3.708   3.234   1.372
    2V3OU    C2  860   3.815   3.398   1.468
    2V3OU    O6  861   3.808   3.475   1.589
    2V3OU   H21  862   3.757   3.554   1.566
    2V3OU    C3  863   3.779   3.494   1.355
    2V3OU    H2  864   3.859   3.573   1.358
    2V3OU    H3  865   3.780   3.432   1.262
    2V3OU   C25  866   3.950   3.326   1.456
    2V3OU    O7  867   3.992   3.295   1.345
    2V3OU   C26  868   4.028   3.290   1.581
    2V3OU   H22  869   4.068   3.384   1.627
    2V3OU   H23  870   4.114   3.223   1.554
    2V3OU    O8  871   3.965   3.213   1.681
    2V3OU   H24  872   3.917   3.260   1.751
    2V3OU    C1  873   3.644   3.564   1.361
    2V3OU    H1  874   3.625   3.619   1.263
    2V3OU    O3  875   3.658   3.655   1.470
    2V3OU   C19  876   3.619   3.791   1.448
    2V3OU    H9  877   3.525   3.798   1.386
    2V3OU    O4  878   3.717   3.853   1.367
    2V3OU   C20  879   3.846   3.875   1.426
    2V3OU   H10  880   3.893   3.773   1.437
    2V3OU   C24  881   3.608   3.854   1.587
    2V3OU   H16  882   3.539   3.796   1.653
    2V3OU   H17  883   3.571   3.958   1.570
    2V3OU   C23  884   3.747   3.870   1.649
    2V3OU   H15  885   3.790   3.768   1.674
    2V3OU    N1  886   3.732   3.953   1.767
    2V3OU   H19  887   3.805   3.922   1.828
    2V3OU   H20  888   3.646   3.924   1.810
    2V3OU   C21  889   3.850   3.948   1.560
    2V3OU   H11  890   3.952   3.918   1.597
    2V3OU    O5  891   3.839   4.089   1.567
    2V3OU   H18  892   3.780   4.104   1.643
    2V3OU   C22  893   3.918   3.950   1.315
    2V3OU   H12  894   3.864   4.046   1.295
    2V3OU   H13  895   3.911   3.887   1.223
    2V3OU   H14  896   4.027   3.956   1.338
    2V3OU   C11  897   3.160   3.470   1.388
    2V3OU    O1  898   3.131   3.588   1.357
    2V3OU    C9  899   3.297   3.427   1.425
    2V3OU    C7  900   3.403   3.506   1.382
    2V3OU    O9  901   3.386   3.617   1.302
    2V3OU   H25  902   3.289   3.629   1.300
    2V3OU   C17  903   2.816   3.316   1.422
    2V3OU    H7  904   2.713   3.343   1.397
    2V3OU   C18  905   2.839   3.210   1.509
    2V3OU    H8  906   2.749   3.154   1.538
    3SOL     OW  907   0.980   3.259   0.852
    3SOL    HW1  908   1.032   3.344   0.858
    3SOL    HW2  909   0.889   3.272   0.892
    4SOL     OW  910   5.673   1.010   2.310
    4SOL    HW1  911   5.646   1.103   2.336
    4SOL    HW2  912   5.765   0.991   2.345
    5SOL     OW  913   3.440   3.224   1.108
    5SOL    HW1  914   3.513   3.163   1.138
    5SOL    HW2  915   3.357   3.205   1.161
    6SOL     OW  916   2.598   2.494   1.034
    6SOL    HW1  917   2.645   2.556   0.972
    6SOL    HW2  918   2.652   2.411   1.046
    7SOL     OW  919   6.348   0.975   1.634
    7SOL    HW1  920   6.317   0.953   1.727
    7SOL    HW2  921   6.441   1.013   1.638
    8SOL     OW  922   2.908   1.683   3.534
    8SOL    HW1  923   2.969   1.630   3.594
    8SOL    HW2  924   2.913   1.780   3.560
    9SOL     OW  925   0.959   3.975   6.159
    9SOL    HW1  926   0.961   3.958   6.258
    9SOL    HW2  927   1.010   3.904   6.112
   10SOL     OW  928   0.416   4.064   0.079
   10SOL    HW1  929   0.462   4.069   7.013
   10SOL    HW2  930   0.440   4.145   0.134
   11SOL     OW  931   4.208   6.118   6.990
   11SOL    HW1  932   4.232   6.080   0.056
   11SOL    HW2  933   4.160   6.205   7.002
   12SOL     OW  934   5.321   5.909   2.713
   12SOL    HW1  935   5.389   5.849   2.671
   12SOL    HW2  936   5.294   5.980   2.649
   13SOL     OW  937   2.127   0.419   3.239
   13SOL    HW1  938   2.100   0.325   3.259
   13SOL    HW2  939   2.109   0.476   3.319
   14SOL     OW  940   3.118   0.147   1.989
   14SOL    HW1  941   3.193   0.082   1.996
   14SOL    HW2  942   3.034   0.105   2.023
   15SOL     OW  943   2.129   6.623   6.305
   15SOL    HW1  944   2.084   6.708   6.336
   15SOL    HW2  945   2.085   6.591   6.222
   16SOL     OW  946   6.663   1.691   6.645
   16SOL    HW1  947   6.716   1.752   6.587
   16SOL    HW2  948   6.666   1.598   6.609
   17SOL     OW  949   5.042   6.119   3.665
   17SOL    HW1  950   5.125   6.101   3.717
   17SOL    HW2  951   4.963   6.084   3.716
   18SOL     OW  952   1.463   1.124   0.326
   18SOL    HW1  953   1.412   1.208   0.311
   18SOL    HW2  954   1.513   1.099   0.242
   19SOL     OW  955   0.717   6.789   1.617
   19SOL    HW1  956   0.743   6.877   1.577
   19SOL    HW2  957   0.769   6.716   1.573
   20SOL     OW  958   2.957   0.922   4.104
   20SOL    HW1  959   3.021   0.855   4.143
   20SOL    HW2  960   2.885   0.941   4.171
   21SOL     OW  961   3.058   2.744   1.330
   21SOL    HW1  962   2.995   2.669   1.347
   21SOL    HW2  963   3.071   2.796   1.415
   22SOL     OW  964   0.809   1.462   4.843
   22SOL    HW1  965   0.760   1.483   4.928
   22SOL    HW2  966   0.746   1.471   4.765
   23SOL     OW  967   3.664   6.001   4.174
   23SOL    HW1  968   3.572   6.038   4.163
   23SOL    HW2  969   3.700   5.975   4.084
   24SOL     OW  970   3.803   0.869   4.549
   24SOL    HW1  971   3.827   0.966   4.546
   24SOL    HW2  972   3.856   0.824   4.620
   25SOL     OW  973   2.880   4.377   1.253
   25SOL    HW1  974   2.914   4.342   1.166
   25SOL    HW2  975   2.857   4.474   1.243
   26SOL     OW  976   5.889   1.062   2.815
   26SOL    HW1  977   5.892   1.116   2.898
   26SOL    HW2  978   5.908   0.966   2.837
   27SOL     OW  979   6.112   6.214   2.041
   27SOL    HW1  980   6.056   6.132   2.048
   27SOL    HW2  981   6.131   6.233   1.945
   28SOL     OW  982   3.084   1.065   0.734
   28SOL    HW1  983   3.047   1.075   0.642
   28SOL    HW2  984   3.175   1.107   0.738
   29SOL     OW  985   4.159   2.630   1.694
   29SOL    HW1  986   4.077   2.597   1.647
   29SOL    HW2  987   4.145   2.725   1.722
   30SOL     OW  988   3.861   1.143   4.567
   30SOL    HW1  989   3.830   1.175   4.657
   30SOL    HW2  990   3.904   1.219   4.518
   31SOL     OW  991   0.531   1.259   4.831
   31SOL    HW1  992   0.467   1.280   4.904
   31SOL    HW2  993   0.515   1.319   4.753
   32SOL     OW  994   0.021   1.965   1.990
   32SOL    HW1  995   0.100   2.000   2.040
   32SOL    HW2  996   0.053   1.912   1.911
   33SOL     OW  997   1.969   2.089   5.079
   33SOL    HW1  998   2.032   2.015   5.102
   33SOL    HW2  999   1.874   2.056   5.085
   34SOL     OW 1000   0.765   0.437   4.581
   34SOL    HW1 1001   0.723   0.415   4.493
   34SOL    HW2 1002   0.719   0.387   4.653
   35SOL     OW 1003   4.166   1.611   6.326
   35SOL    HW1 1004   4.080   1.587   6.281
   35SOL    HW2 1005   4.221   1.668   6.264
   36SOL     OW 1006   1.485   1.689   5.664
   36SOL    HW1 1007   1.471   1.590   5.676
   36SOL    HW2 1008   1.551   1.704   5.590
   37SOL     OW 1009   2.130   6.584   0.713
   37SOL    HW1 1010   2.087   6.499   0.743
   37SOL    HW2 1011   2.085   6.662   0.757
   38SOL     OW 1012   0.059   6.380   1.923
   38SOL    HW1 1013   0.062   6.424   2.013
   38SOL    HW2 1014   0.114   6.296   1.925
   39SOL     OW 1015   6.915   2.770   5.946
   39SOL    HW1 1016   6.912   2.672   5.969
   39SOL    HW2 1017   6.892   2.781   5.849
   40SOL     OW 1018   6.803   0.700   1.627
   40SOL    HW1 1019   6.842   0.768   1.689
   40SOL    HW2 1020   6.780   0.617   1.678
   41SOL     OW 1021   1.570   0.633   5.654
   41SOL    HW1 1022   1.653   0.598   5.698
   41SOL    HW2 1023   1.590   0.721   5.611
   42SOL     OW 1024   4.010   0.387   0.595
   42SOL    HW1 1025   4.090   0.445   0.580
   42SOL    HW2 1026   3.964   0.371   0.508
   43SOL     OW 1027   5.422   5.719   5.213
   43SOL    HW1 1028   5.435   5.750   5.307
   43SOL    HW2 1029   5.460   5.627   5.203
   44SOL     OW 1030   0.681   3.295   6.528
   44SOL    HW1 1031   0.664   3.198   6.543
   44SOL    HW2 1032   0.638   3.324   6.443
   45SOL     OW 1033   2.726   0.521   1.637
   45SOL    HW1 1034   2.807   0.463   1.647
   45SOL    HW2 1035   2.660   0.498   1.709
   46SOL     OW 1036   1.390   4.860   3.882
   46SOL    HW1 1037   1.361   4.766   3.862
   46SOL    HW2 1038   1.345   4.891   3.966
   47SOL     OW 1039   5.672   4.290   2.986
   47SOL    HW1 1040   5.633   4.200   3.002
   47SOL    HW2 1041   5.748   4.283   2.921
   48SOL     OW 1042   0.803   1.079   5.406
   48SOL    HW1 1043   0.730   1.026   5.364
   48SOL    HW2 1044   0.871   1.103   5.336
   49SOL     OW 1045   5.454   2.644   0.476
   49SOL    HW1 1046   5.432   2.559   0.429
   49SOL    HW2 1047   5.442   2.631   0.575
   50SOL     OW 1048   6.831   3.965   4.611
   50SOL    HW1 1049   6.819   3.952   4.512
   50SOL    HW2 1050   6.742   3.955   4.656
   51SOL     OW 1051   2.949   5.877   2.514
   51SOL    HW1 1052   2.880   5.804   2.526
   51SOL    HW2 1053   3.036   5.847   2.553
   52SOL     OW 1054   1.158   2.034   1.605
   52SOL    HW1 1055   1.064   2.001   1.614
   52SOL    HW2 1056   1.214   1.963   1.562
   53SOL     OW 1057   4.997   6.366   4.414
   53SOL    HW1 1058   4.980   6.306   4.336
   53SOL    HW2 1059   4.934   6.444   4.410
   54SOL     OW 1060   4.168   5.809   6.177
   54SOL    HW1 1061   4.170   5.763   6.266
   54SOL    HW2 1062   4.174   5.740   6.104
   55SOL     OW 1063   3.935   2.138   0.233
   55SOL    HW1 1064   4.034   2.142   0.216
   55SOL    HW2 1065   3.893   2.224   0.204
   56SOL     OW 1066   0.913   6.653   1.461
   56SOL    HW1 1067   0.990   6.699   1.415
   56SOL    HW2 1068   0.923   6.554   1.450
   57SOL     OW 1069   5.885   1.191   0.628
   57SOL    HW1 1070   5.925   1.110   0.586
   57SOL    HW2 1071   5.872   1.262   0.559
   58SOL     OW 1072   7.000   6.953   6.726
   58SOL    HW1 1073   0.044   6.929   6.796
   58SOL    HW2 1074   6.948   0.010   6.755
   59SOL     OW 1075   0.810   6.979   4.866
   59SOL    HW1 1076   0.825   6.990   4.965
   59SOL    HW2 1077   0.717   6.948   4.849
   60SOL     OW 1078   4.859   6.635   5.335
   60SOL    HW1 1079   4.798   6.660   5.410
   60SOL    HW2 1080   4.829   6.681   5.252
   61SOL     OW 1081   3.927   0.501   5.197
   61SOL    HW1 1082   3.981   0.573   5.153
   61SOL    HW2 1083   3.938   0.415   5.146
   62SOL     OW 1084   2.789   1.349   4.821
   62SOL    HW1 1085   2.791   1.315   4.915
   62SOL    HW2 1086   2.804   1.448   4.821
   63SOL     OW 1087   6.956   3.282   3.235
   63SOL    HW1 1088   6.993   3.200   3.280
   63SOL    HW2 1089   6.856   3.279   3.238
   64SOL     OW 1090   6.799   2.505   5.745
   64SOL    HW1 1091   6.812   2.470   5.652
   64SOL    HW2 1092   6.706   2.483   5.777
   65SOL     OW 1093   6.850   3.910   5.921
   65SOL    HW1 1094   6.921   3.844   5.945
   65SOL    HW2 1095   6.888   3.982   5.864
   66SOL     OW 1096   2.695   1.341   0.774
   66SOL    HW1 1097   2.716   1.277   0.847
   66SOL    HW2 1098   2.621   1.402   0.802
   67SOL     OW 1099   4.800   5.678   4.105
   67SOL    HW1 1100   4.794   5.689   4.006
   67SOL    HW2 1101   4.771   5.763   4.150
   68SOL     OW 1102   5.650   2.981   6.496
   68SOL    HW1 1103   5.689   2.894   6.467
   68SOL    HW2 1104   5.663   3.049   6.425
   69SOL     OW 1105   2.374   3.025   6.143
   69SOL    HW1 1106   2.321   3.100   6.104
   69SOL    HW2 1107   2.395   3.045   6.239
   70SOL     OW 1108   6.683   5.573   1.803
   70SOL    HW1 1109   6.658   5.503   1.736
   70SOL    HW2 1110   6.624   5.566   1.883
   71SOL     OW 1111   2.037   2.917   2.943
   71SOL    HW1 1112   1.952   2.933   2.993
   71SOL    HW2 1113   2.065   3.002   2.898
   72SOL     OW 1114   3.131   5.512   4.063
   72SOL    HW1 1115   3.079   5.455   4.127
   72SOL    HW2 1116   3.168   5.455   3.990
   73SOL     OW 1117   4.142   2.361   6.512
   73SOL    HW1 1118   4.108   2.397   6.599
   73SOL    HW2 1119   4.240   2.342   6.520
   74SOL     OW 1120   5.156   5.809   6.361
   74SOL    HW1 1121   5.161   5.902   6.396
   74SOL    HW2 1122   5.084   5.759   6.409
   75SOL     OW 1123   3.986   4.956   5.075
   75SOL    HW1 1124   3.975   4.930   4.979
   75SOL    HW2 1125   3.948   4.885   5.134
   76SOL     OW 1126   2.645   3.066   1.229
   76SOL    HW1 1127   2.575   3.127   1.264
   76SOL    HW2 1128   2.653   3.077   1.130
   77SOL     OW 1129   5.599   4.924   6.291
   77SOL    HW1 1130   5.657   4.842   6.297
   77SOL    HW2 1131   5.541   4.918   6.210
   78SOL     OW 1132   6.436   6.581   6.277
   78SOL    HW1 1133   6.510   6.580   6.210
   78SOL    HW2 1134   6.472   6.571   6.369
   79SOL     OW 1135   3.386   0.013   6.968
   79SOL    HW1 1136   3.373   6.967   6.897
   79SOL    HW2 1137   3.446   0.085   6.934
   80SOL     OW 1138   0.270   1.310   4.045
   80SOL    HW1 1139   0.308   1.403   4.051
   80SOL    HW2 1140   0.279   1.265   4.134
   81SOL     OW 1141   1.530   0.231   4.025
   81SOL    HW1 1142   1.481   0.238   4.112
   81SOL    HW2 1143   1.556   0.136   4.009
   82SOL     OW 1144   6.962   4.523   5.648
   82SOL    HW1 1145   6.905   4.603   5.630
   82SOL    HW2 1146   6.904   4.447   5.675
   83SOL     OW 1147   6.683   0.095   6.710
   83SOL    HW1 1148   6.750   0.115   6.781
   83SOL    HW2 1149   6.676   7.019   6.697
   84SOL     OW 1150   6.030   3.378   1.669
   84SOL    HW1 1151   5.979   3.406   1.751
   84SOL    HW2 1152   6.126   3.366   1.693
   85SOL     OW 1153   0.265   2.033   5.343
   85SOL    HW1 1154   0.220   2.114   5.305
   85SOL    HW2 1155   0.331   1.997   5.278
   86SOL     OW 1156   1.542   0.936   4.637
   86SOL    HW1 1157   1.464   0.898   4.687
   86SOL    HW2 1158   1.601   0.862   4.605
   87SOL     OW 1159   4.143   0.756   1.487
   87SOL    HW1 1160   4.217   0.727   1.426
   87SOL    HW2 1161   4.173   0.745   1.582
   88SOL     OW 1162   5.586   0.379   0.688
   88SOL    HW1 1163   5.566   0.474   0.711
   88SOL    HW2 1164   5.584   0.368   0.589
   89SOL     OW 1165   1.944   1.808   5.895
   89SOL    HW1 1166   1.885   1.793   5.975
   89SOL    HW2 1167   1.893   1.857   5.824
   90SOL     OW 1168   6.718   5.881   3.860
   90SOL    HW1 1169   6.665   5.945   3.804
   90SOL    HW2 1170   6.815   5.887   3.834
   91SOL     OW 1171   4.840   4.881   4.717
   91SOL    HW1 1172   4.907   4.951   4.742
   91SOL    HW2 1173   4.761   4.887   4.778
   92SOL     OW 1174   2.816   6.537   1.165
   92SOL    HW1 1175   2.722   6.510   1.183
   92SOL    HW2 1176   2.840   6.617   1.220
   93SOL     OW 1177   3.738   5.036   5.850
   93SOL    HW1 1178   3.706   5.129   5.830
   93SOL    HW2 1179   3.820   5.041   5.907
   94SOL     OW 1180   2.359   6.053   1.106
   94SOL    HW1 1181   2.338   5.957   1.124
   94SOL    HW2 1182   2.437   6.081   1.163
   95SOL     OW 1183   6.446   0.162   4.667
   95SOL    HW1 1184   6.470   0.185   4.573
   95SOL    HW2 1185   6.519   0.106   4.707
   96SOL     OW 1186   1.198   6.865   4.887
   96SOL    HW1 1187   1.255   6.784   4.901
   96SOL    HW2 1188   1.237   6.942   4.937
   97SOL     OW 1189   6.329   2.756   5.067
   97SOL    HW1 1190   6.319   2.817   5.145
   97SOL    HW2 1191   6.274   2.674   5.081
   98SOL     OW 1192   5.929   2.271   5.847
   98SOL    HW1 1193   5.983   2.190   5.826
   98SOL    HW2 1194   5.962   2.349   5.794
   99SOL     OW 1195   4.205   2.506   1.332
   99SOL    HW1 1196   4.197   2.412   1.298
   99SOL    HW2 1197   4.278   2.510   1.401
  100SOL     OW 1198   6.239   4.945   6.505
  100SOL    HW1 1199   6.193   5.026   6.469
  100SOL    HW2 1200   6.279   4.966   6.594
  101SOL     OW 1201   1.245   6.712   4.297
  101SOL    HW1 1202   1.192   6.634   4.265
  101SOL    HW2 1203   1.190   6.796   4.288
  102SOL     OW 1204   5.000   7.000   3.286
  102SOL    HW1 1205   4.916   6.952   3.262
  102SOL    HW2 1206   5.016   6.992   3.385
  103SOL     OW 1207   3.809   2.155   1.479
  103SOL    HW1 1208   3.783   2.163   1.576
  103SOL    HW2 1209   3.889   2.095   1.471
  104SOL     OW 1210   0.085   5.623   1.509
  104SOL    HW1 1211   0.069   5.720   1.527
  104SOL    HW2 1212   0.066   5.570   1.591
  105SOL     OW 1213   5.077   1.639   5.487
  105SOL    HW1 1214   5.165   1.612   5.527
  105SOL    HW2 1215   5.013   1.563   5.494
  106SOL     OW 1216   3.678   6.531   0.471
  106SOL    HW1 1217   3.695   6.435   0.494
  106SOL    HW2 1218   3.739   6.560   0.398
  107SOL     OW 1219   2.464   3.268   1.347
  107SOL    HW1 1220   2.479   3.224   1.435
  107SOL    HW2 1221   2.435   3.363   1.361
  108SOL     OW 1222   4.970   4.600   5.391
  108SOL    HW1 1223   4.984   4.554   5.303
  108SOL    HW2 1224   5.000   4.695   5.384
  109SOL     OW 1225   6.738   0.670   1.358
  109SOL    HW1 1226   6.758   0.695   1.452
  109SOL    HW2 1227   6.745   0.571   1.346
  110SOL     OW 1228   3.070   5.783   5.353
  110SOL    HW1 1229   3.119   5.821   5.274
  110SOL    HW2 1230   3.123   5.800   5.436
  111SOL     OW 1231   3.980   1.175   3.192
  111SOL    HW1 1232   3.999   1.129   3.279
  111SOL    HW2 1233   4.037   1.257   3.185
  112SOL     OW 1234   0.100   1.190   6.153
  112SOL    HW1 1235   0.192   1.167   6.121
  112SOL    HW2 1236   0.038   1.115   6.131
  113SOL     OW 1237   0.011   5.709   4.013
  113SOL    HW1 1238   0.074   5.658   4.071
  113SOL    HW2 1239   0.061   5.753   3.939
  114SOL     OW 1240   0.264   6.858   6.821
  114SOL    HW1 1241   0.249   6.898   6.730
  114SOL    HW2 1242   0.363   6.852   6.838
  115SOL     OW 1243   5.130   1.130   4.946
  115SOL    HW1 1244   5.205   1.066   4.933
  115SOL    HW2 1245   5.045   1.080   4.964
  116SOL     OW 1246   6.008   4.638   2.629
  116SOL    HW1 1247   5.952   4.705   2.580
  116SOL    HW2 1248   6.050   4.576   2.563
  117SOL     OW 1249   1.005   6.498   6.434
  117SOL    HW1 1250   1.098   6.532   6.450
  117SOL    HW2 1251   1.010   6.404   6.401
  118SOL     OW 1252   1.580   0.619   2.148
  118SOL    HW1 1253   1.679   0.634   2.146
  118SOL    HW2 1254   1.561   0.523   2.172
  119SOL     OW 1255   6.790   2.876   6.277
  119SOL    HW1 1256   6.781   2.953   6.214
  119SOL    HW2 1257   6.703   2.863   6.325
  120SOL     OW 1258   5.674   6.474   1.429
  120SOL    HW1 1259   5.753   6.534   1.417
  120SOL    HW2 1260   5.700   6.380   1.409
  121SOL     OW 1261   3.032   3.297   5.932
  121SOL    HW1 1262   3.015   3.248   5.847
  121SOL    HW2 1263   3.126   3.331   5.933
  122SOL     OW 1264   0.430   3.243   4.585
  122SOL    HW1 1265   0.443   3.316   4.651
  122SOL    HW2 1266   0.465   3.157   4.623
  123SOL     OW 1267   0.940   1.859   1.686
  123SOL    HW1 1268   0.964   1.780   1.629
  123SOL    HW2 1269   0.977   1.846   1.778
  124SOL     OW 1270   4.612   2.914   0.681
  124SOL    HW1 1271   4.608   2.933   0.582
  124SOL    HW2 1272   4.708   2.908   0.709
  125SOL     OW 1273   2.032   3.431   1.827
  125SOL    HW1 1274   2.073   3.364   1.765
  125SOL    HW2 1275   2.100   3.459   1.895
  126SOL     OW 1276   3.375   4.536   1.217
  126SOL    HW1 1277   3.305   4.605   1.197
  126SOL    HW2 1278   3.351   4.488   1.302
  127SOL     OW 1279   0.846   5.647   5.929
  127SOL    HW1 1280   0.869   5.744   5.940
  127SOL    HW2 1281   0.927   5.597   5.898
  128SOL     OW 1282   4.689   2.531   1.578
  128SOL    HW1 1283   4.668   2.512   1.674
  128SOL    HW2 1284   4.630   2.604   1.545
  129SOL     OW 1285   2.712   3.599   6.179
  129SOL    HW1 1286   2.760   3.556   6.103
  129SOL    HW2 1287   2.760   3.683   6.205
  130SOL     OW 1288   1.359   2.284   4.500
  130SOL    HW1 1289   1.260   2.299   4.494
  130SOL    HW2 1290   1.406   2.366   4.469
  131SOL     OW 1291   5.145   2.125   2.903
  131SOL    HW1 1292   5.100   2.206   2.939
  131SOL    HW2 1293   5.081   2.048   2.903
  132SOL     OW 1294   0.287   2.493   0.628
  132SOL    HW1 1295   0.340   2.551   0.567
  132SOL    HW2 1296   0.335   2.483   0.715
  133SOL     OW 1297   6.359   5.221   2.028
  133SOL    HW1 1298   6.310   5.288   2.084
  133SOL    HW2 1299   6.337   5.238   1.931
  134SOL     OW 1300   0.218   3.871   2.616
  134SOL    HW1 1301   0.215   3.970   2.623
  134SOL    HW2 1302   0.133   3.838   2.574
  135SOL     OW 1303   4.674   1.398   4.166
  135SOL    HW1 1304   4.616   1.380   4.247
  135SOL    HW2 1305   4.697   1.495   4.163
  136SOL     OW 1306   5.379   4.774   5.695
  136SOL    HW1 1307   5.335   4.723   5.769
  136SOL    HW2 1308   5.439   4.844   5.734
  137SOL     OW 1309   3.838   0.593   5.930
  137SOL    HW1 1310   3.846   0.600   5.830
  137SOL    HW2 1311   3.880   0.508   5.961
  138SOL     OW 1312   6.624   5.219   4.806
  138SOL    HW1 1313   6.566   5.192   4.883
  138SOL    HW2 1314   6.568   5.261   4.735
  139SOL     OW 1315   3.724   5.793   5.589
  139SOL    HW1 1316   3.758   5.755   5.503
  139SOL    HW2 1317   3.788   5.773   5.663
  140SOL     OW 1318   6.256   4.411   4.889
  140SOL    HW1 1319   6.192   4.483   4.915
  140SOL    HW2 1320   6.327   4.404   4.960
  141SOL     OW 1321   1.441   2.335   3.158
  141SOL    HW1 1322   1.438   2.305   3.063
  141SOL    HW2 1323   1.532   2.318   3.195
  142SOL     OW 1324   1.254   5.713   1.153
  142SOL    HW1 1325   1.283   5.717   1.057
  142SOL    HW2 1326   1.292   5.632   1.196
  143SOL     OW 1327   5.543   3.885   1.649
  143SOL    HW1 1328   5.599   3.892   1.732
  143SOL    HW2 1329   5.446   3.885   1.674
  144SOL     OW 1330   2.477   6.188   0.723
  144SOL    HW1 1331   2.388   6.152   0.697
  144SOL    HW2 1332   2.477   6.288   0.716
  145SOL     OW 1333   6.787   5.483   0.369
  145SOL    HW1 1334   6.707   5.544   0.366
  145SOL    HW2 1335   6.860   5.522   0.313
  146SOL     OW 1336   6.450   4.849   0.620
  146SOL    HW1 1337   6.533   4.800   0.645
  146SOL    HW2 1338   6.430   4.833   0.523
  147SOL     OW 1339   6.194   2.308   1.416
  147SOL    HW1 1340   6.198   2.406   1.396
  147SOL    HW2 1341   6.198   2.257   1.330
  148SOL     OW 1342   1.208   4.856   5.660
  148SOL    HW1 1343   1.303   4.827   5.661
  148SOL    HW2 1344   1.152   4.790   5.711
  149SOL     OW 1345   3.236   1.319   6.121
  149SOL    HW1 1346   3.330   1.286   6.130
  149SOL    HW2 1347   3.174   1.240   6.121
  150SOL     OW 1348   0.499   5.821   5.951
  150SOL    HW1 1349   0.411   5.812   5.999
  150SOL    HW2 1350   0.526   5.733   5.913
  151SOL     OW 1351   3.912   1.138   1.830
  151SOL    HW1 1352   3.988   1.204   1.825
  151SOL    HW2 1353   3.934   1.058   1.775
  152SOL     OW 1354   3.409   1.096   4.663
  152SOL    HW1 1355   3.411   1.176   4.604
  152SOL    HW2 1356   3.333   1.103   4.727
  153SOL     OW 1357   1.699   0.897   3.125
  153SOL    HW1 1358   1.745   0.918   3.038
  153SOL    HW2 1359   1.695   0.980   3.181
  154SOL     OW 1360   6.560   2.052   2.896
  154SOL    HW1 1361   6.637   2.104   2.860
  154SOL    HW2 1362   6.477   2.077   2.847
  155SOL     OW 1363   0.330   0.778   2.758
  155SOL    HW1 1364   0.297   0.694   2.717
  155SOL    HW2 1365   0.429   0.786   2.741
  156SOL     OW 1366   0.083   2.202   1.148
  156SOL    HW1 1367   0.069   2.300   1.132
  156SOL    HW2 1368   7.018   2.157   1.156
  157SOL     OW 1369   5.761   3.894   2.793
  157SOL    HW1 1370   5.847   3.893   2.843
  157SOL    HW2 1371   5.705   3.815   2.820
  158SOL     OW 1372   1.238   1.602   3.367
  158SOL    HW1 1373   1.293   1.549   3.303
  158SOL    HW2 1374   1.196   1.540   3.434
  159SOL     OW 1375   4.978   3.618   2.236
  159SOL    HW1 1376   5.077   3.633   2.231
  159SOL    HW2 1377   4.954   3.533   2.191
  160SOL     OW 1378   6.748   4.334   5.701
  160SOL    HW1 1379   6.677   4.405   5.693
  160SOL    HW2 1380   6.729   4.278   5.782
  161SOL     OW 1381   3.788   4.762   5.261
  161SOL    HW1 1382   3.732   4.804   5.190
  161SOL    HW2 1383   3.728   4.723   5.331
  162SOL     OW 1384   4.592   6.294   1.992
  162SOL    HW1 1385   4.682   6.258   1.967
  162SOL    HW2 1386   4.566   6.260   2.082
  163SOL     OW 1387   5.461   0.744   1.724
  163SOL    HW1 1388   5.514   0.731   1.808
  163SOL    HW2 1389   5.490   0.828   1.679
  164SOL     OW 1390   6.394   3.371   1.222
  164SOL    HW1 1391   6.344   3.413   1.298
  164SOL    HW2 1392   6.332   3.310   1.172
  165SOL     OW 1393   5.390   3.995   6.491
  165SOL    HW1 1394   5.293   4.020   6.493
  165SOL    HW2 1395   5.398   3.896   6.502
  166SOL     OW 1396   1.748   0.613   1.669
  166SOL    HW1 1397   1.692   0.592   1.589
  166SOL    HW2 1398   1.689   0.620   1.750
  167SOL     OW 1399   6.654   3.376   0.613
  167SOL    HW1 1400   6.722   3.317   0.656
  167SOL    HW2 1401   6.700   3.445   0.557
  168SOL     OW 1402   2.362   5.612   1.680
  168SOL    HW1 1403   2.437   5.664   1.720
  168SOL    HW2 1404   2.399   5.545   1.614
  169SOL     OW 1405   0.859   6.987   1.493
  169SOL    HW1 1406   0.852   0.063   1.509
  169SOL    HW2 1407   0.951   6.956   1.515
  170SOL     OW 1408   0.429   1.620   3.152
  170SOL    HW1 1409   0.443   1.692   3.084
  170SOL    HW2 1410   0.385   1.541   3.110
  171SOL     OW 1411   3.480   3.744   0.291
  171SOL    HW1 1412   3.484   3.647   0.312
  171SOL    HW2 1413   3.561   3.771   0.240
  172SOL     OW 1414   6.917   2.689   0.736
  172SOL    HW1 1415   6.874   2.715   0.650
  172SOL    HW2 1416   6.973   2.607   0.722
  173SOL     OW 1417   0.280   6.484   5.862
  173SOL    HW1 1418   0.182   6.476   5.878
  173SOL    HW2 1419   0.322   6.392   5.865
  174SOL     OW 1420   2.699   5.947   3.734
  174SOL    HW1 1421   2.689   5.908   3.826
  174SOL    HW2 1422   2.703   5.873   3.667
  175SOL     OW 1423   0.631   5.371   2.985
  175SOL    HW1 1424   0.622   5.366   3.084
  175SOL    HW2 1425   0.540   5.378   2.943
  176SOL     OW 1426   2.924   5.365   1.098
  176SOL    HW1 1427   2.840   5.409   1.131
  176SOL    HW2 1428   2.904   5.272   1.068
  177SOL     OW 1429   4.370   2.401   3.235
  177SOL    HW1 1430   4.443   2.417   3.169
  177SOL    HW2 1431   4.398   2.432   3.326
  178SOL     OW 1432   5.633   4.348   6.483
  178SOL    HW1 1433   5.611   4.271   6.544
  178SOL    HW2 1434   5.665   4.312   6.395
  179SOL     OW 1435   2.828   0.219   0.765
  179SOL    HW1 1436   2.741   0.197   0.809
  179SOL    HW2 1437   2.881   0.134   0.753
  180SOL     OW 1438   1.353   2.197   6.546
  180SOL    HW1 1439   1.336   2.272   6.482
  180SOL    HW2 1440   1.339   2.109   6.499
  181SOL     OW 1441   3.110   2.881   5.200
  181SOL    HW1 1442   3.089   2.790   5.235
  181SOL    HW2 1443   3.158   2.873   5.113
  182SOL     OW 1444   4.854   2.703   5.270
  182SOL    HW1 1445   4.852   2.800   5.295
  182SOL    HW2 1446   4.915   2.653   5.331
  183SOL     OW 1447   5.500   1.779   2.220
  183SOL    HW1 1448   5.492   1.878   2.227
  183SOL    HW2 1449   5.489   1.738   2.311
  184SOL     OW 1450   0.091   4.575   3.457
  184SOL    HW1 1451   0.080   4.551   3.360
  184SOL    HW2 1452   0.189   4.585   3.477
  185SOL     OW 1453   2.787   3.450   6.526
  185SOL    HW1 1454   2.727   3.409   6.595
  185SOL    HW2 1455   2.739   3.452   6.438
  186SOL     OW 1456   6.018   6.498   3.469
  186SOL    HW1 1457   6.092   6.539   3.522
  186SOL    HW2 1458   5.932   6.543   3.491
  187SOL     OW 1459   5.553   1.222   3.801
  187SOL    HW1 1460   5.559   1.138   3.748
  187SOL    HW2 1461   5.472   1.220   3.860
  188SOL     OW 1462   6.289   2.770   4.032
  188SOL    HW1 1463   6.316   2.764   3.935
  188SOL    HW2 1464   6.198   2.731   4.043
  189SOL     OW 1465   2.186   3.908   2.488
  189SOL    HW1 1466   2.203   3.872   2.396
  189SOL    HW2 1467   2.092   3.941   2.493
  190SOL     OW 1468   3.157   1.241   6.620
  190SOL    HW1 1469   3.180   1.307   6.692
  190SOL    HW2 1470   3.242   1.210   6.576
  191SOL     OW 1471   4.433   5.966   5.669
  191SOL    HW1 1472   4.500   5.943   5.598
  191SOL    HW2 1473   4.480   5.990   5.753
  192SOL     OW 1474   0.129   0.418   1.203
  192SOL    HW1 1475   0.154   0.407   1.107
  192SOL    HW2 1476   0.061   0.491   1.212
  193SOL     OW 1477   5.443   4.495   6.744
  193SOL    HW1 1478   5.506   4.540   6.681
  193SOL    HW2 1479   5.365   4.555   6.764
  194SOL     OW 1480   4.145   0.107   4.749
  194SOL    HW1 1481   4.190   0.019   4.760
  194SOL    HW2 1482   4.212   0.176   4.723
  195SOL     OW 1483   6.829   5.247   3.511
  195SOL    HW1 1484   6.804   5.259   3.415
  195SOL    HW2 1485   6.789   5.320   3.566
  196SOL     OW 1486   0.971   1.352   1.183
  196SOL    HW1 1487   0.928   1.312   1.263
  196SOL    HW2 1488   0.975   1.284   1.110
  197SOL     OW 1489   2.121   1.126   0.881
  197SOL    HW1 1490   2.167   1.089   0.962
  197SOL    HW2 1491   2.126   1.226   0.884
  198SOL     OW 1492   2.749   1.140   3.595
  198SOL    HW1 1493   2.832   1.136   3.539
  198SOL    HW2 1494   2.752   1.068   3.664
  199SOL     OW 1495   0.796   1.699   4.223
  199SOL    HW1 1496   0.741   1.681   4.141
  199SOL    HW2 1497   0.890   1.672   4.207
  200SOL     OW 1498   6.502   2.677   0.224
  200SOL    HW1 1499   6.494   2.675   0.324
  200SOL    HW2 1500   6.493   2.584   0.189
  201SOL     OW 1501   0.547   0.844   6.566
  201SOL    HW1 1502   0.592   0.929   6.537
  201SOL    HW2 1503   0.615   0.770   6.569
  202SOL     OW 1504   4.905   6.859   0.743
  202SOL    HW1 1505   4.977   6.924   0.763
  202SOL    HW2 1506   4.819   6.890   0.785
  203SOL     OW 1507   6.296   2.957   6.490
  203SOL    HW1 1508   6.301   2.949   6.390
  203SOL    HW2 1509   6.268   2.869   6.528
  204SOL     OW 1510   6.282   0.974   5.177
  204SOL    HW1 1511   6.274   0.939   5.083
  204SOL    HW2 1512   6.331   0.907   5.233
  205SOL     OW 1513   2.033   3.597   3.081
  205SOL    HW1 1514   1.951   3.622   3.029
  205SOL    HW2 1515   2.112   3.594   3.019
  206SOL     OW 1516   0.266   3.377   0.313
  206SOL    HW1 1517   0.205   3.330   0.376
  206SOL    HW2 1518   0.314   3.451   0.362
  207SOL     OW 1519   6.079   2.728   4.696
  207SOL    HW1 1520   5.995   2.774   4.728
  207SOL    HW2 1521   6.159   2.774   4.735
  208SOL     OW 1522   1.325   3.542   5.087
  208SOL    HW1 1523   1.401   3.481   5.069
  208SOL    HW2 1524   1.312   3.552   5.186
  209SOL     OW 1525   6.950   4.570   2.699
  209SOL    HW1 1526   6.981   4.519   2.619
  209SOL    HW2 1527   6.879   4.635   2.671
  210SOL     OW 1528   4.694   2.672   0.142
  210SOL    HW1 1529   4.736   2.680   0.051
  210SOL    HW2 1530   4.594   2.677   0.133
  211SOL     OW 1531   0.469   1.529   2.682
  211SOL    HW1 1532   0.470   1.459   2.753
  211SOL    HW2 1533   0.515   1.495   2.601
  212SOL     OW 1534   2.159   3.788   2.255
  212SOL    HW1 1535   2.195   3.819   2.167
  212SOL    HW2 1536   2.133   3.692   2.248
  213SOL     OW 1537   0.773   4.582   1.450
  213SOL    HW1 1538   0.735   4.542   1.367
  213SOL    HW2 1539   0.735   4.535   1.530
  214SOL     OW 1540   5.350   5.935   1.744
  214SOL    HW1 1541   5.394   5.932   1.834
  214SOL    HW2 1542   5.378   5.854   1.692
  215SOL     OW 1543   2.792   5.764   3.446
  215SOL    HW1 1544   2.803   5.675   3.402
  215SOL    HW2 1545   2.865   5.825   3.416
  216SOL     OW 1546   0.896   6.388   2.767
  216SOL    HW1 1547   0.933   6.297   2.751
  216SOL    HW2 1548   0.963   6.457   2.738
  217SOL     OW 1549   0.820   4.620   5.758
  217SOL    HW1 1550   0.816   4.535   5.705
  217SOL    HW2 1551   0.760   4.688   5.716
  218SOL     OW 1552   2.121   1.897   5.180
  218SOL    HW1 1553   2.056   1.840   5.229
  218SOL    HW2 1554   2.213   1.881   5.216
  219SOL     OW 1555   4.315   1.811   1.333
  219SOL    HW1 1556   4.356   1.855   1.253
  219SOL    HW2 1557   4.352   1.851   1.417
  220SOL     OW 1558   3.102   6.527   1.172
  220SOL    HW1 1559   3.112   6.626   1.175
  220SOL    HW2 1560   3.038   6.502   1.099
  221SOL     OW 1561   5.501   4.690   2.048
  221SOL    HW1 1562   5.501   4.591   2.064
  221SOL    HW2 1563   5.566   4.734   2.111
  222SOL     OW 1564   2.147   4.652   6.391
  222SOL    HW1 1565   2.182   4.676   6.301
  222SOL    HW2 1566   2.158   4.729   6.453
  223SOL     OW 1567   5.961   2.334   5.412
  223SOL    HW1 1568   5.882   2.278   5.440
  223SOL    HW2 1569   5.986   2.311   5.318
  224SOL     OW 1570   2.429   1.476   5.802
  224SOL    HW1 1571   2.509   1.440   5.850
  224SOL    HW2 1572   2.446   1.570   5.773
  225SOL     OW 1573   3.872   6.354   5.859
  225SOL    HW1 1574   3.807   6.381   5.931
  225SOL    HW2 1575   3.965   6.366   5.893
  226SOL     OW 1576   1.399   2.376   6.338
  226SOL    HW1 1577   1.490   2.413   6.315
  226SOL    HW2 1578   1.361   2.329   6.258
  227SOL     OW 1579   1.775   3.493   1.282
  227SOL    HW1 1580   1.852   3.534   1.332
  227SOL    HW2 1581   1.751   3.552   1.205
  228SOL     OW 1582   1.231   0.272   2.365
  228SOL    HW1 1583   1.261   0.199   2.425
  228SOL    HW2 1584   1.303   0.342   2.358
  229SOL     OW 1585   3.816   6.597   6.045
  229SOL    HW1 1586   3.744   6.665   6.062
  229SOL    HW2 1587   3.817   6.531   6.120
  230SOL     OW 1588   5.415   5.651   5.873
  230SOL    HW1 1589   5.443   5.654   5.778
  230SOL    HW2 1590   5.423   5.557   5.907
  231SOL     OW 1591   5.272   1.790   6.696
  231SOL    HW1 1592   5.214   1.762   6.619
  231SOL    HW2 1593   5.295   1.710   6.751
  232SOL     OW 1594   1.297   1.842   5.790
  232SOL    HW1 1595   1.216   1.800   5.749
  232SOL    HW2 1596   1.377   1.820   5.735
  233SOL     OW 1597   3.370   1.977   3.169
  233SOL    HW1 1598   3.360   2.008   3.263
  233SOL    HW2 1599   3.304   2.024   3.111
  234SOL     OW 1600   4.811   0.612   0.730
  234SOL    HW1 1601   4.891   0.629   0.673
  234SOL    HW2 1602   4.834   0.628   0.826
  235SOL     OW 1603   4.907   3.106   2.834
  235SOL    HW1 1604   4.879   3.071   2.924
  235SOL    HW2 1605   4.905   3.206   2.835
  236SOL     OW 1606   4.230   5.144   6.281
  236SOL    HW1 1607   4.232   5.175   6.186
  236SOL    HW2 1608   4.191   5.052   6.286
  237SOL     OW 1609   6.119   3.270   3.178
  237SOL    HW1 1610   6.192   3.264   3.109
  237SOL    HW2 1611   6.079   3.179   3.191
  238SOL     OW 1612   6.618   2.010   0.676
  238SOL    HW1 1613   6.636   2.107   0.660
  238SOL    HW2 1614   6.578   1.970   0.594
  239SOL     OW 1615   1.077   3.493   6.904
  239SOL    HW1 1616   1.072   3.421   6.835
  239SOL    HW2 1617   1.063   3.453   6.995
  240SOL     OW 1618   4.943   3.244   3.212
  240SOL    HW1 1619   4.923   3.149   3.234
  240SOL    HW2 1620   4.939   3.299   3.296
  241SOL     OW 1621   2.648   2.026   4.223
  241SOL    HW1 1622   2.584   2.000   4.151
  241SOL    HW2 1623   2.682   2.119   4.206
  242SOL     OW 1624   3.669   3.788   2.517
  242SOL    HW1 1625   3.689   3.881   2.548
  242SOL    HW2 1626   3.635   3.791   2.423
  243SOL     OW 1627   3.782   2.648   6.034
  243SOL    HW1 1628   3.795   2.724   5.971
  243SOL    HW2 1629   3.871   2.611   6.061
  244SOL     OW 1630   4.854   3.245   5.169
  244SOL    HW1 1631   4.827   3.328   5.217
  244SOL    HW2 1632   4.856   3.263   5.071
  245SOL     OW 1633   4.425   1.291   2.997
  245SOL    HW1 1634   4.506   1.307   3.053
  245SOL    HW2 1635   4.430   1.199   2.957
  246SOL     OW 1636   6.219   1.204   2.020
  246SOL    HW1 1637   6.262   1.121   1.985
  246SOL    HW2 1638   6.213   1.271   1.947
  247SOL     OW 1639   1.359   1.856   1.519
  247SOL    HW1 1640   1.332   1.804   1.438
  247SOL    HW2 1641   1.336   1.803   1.601
  248SOL     OW 1642   1.957   2.840   2.084
  248SOL    HW1 1643   2.035   2.854   2.022
  248SOL    HW2 1644   1.987   2.853   2.179
  249SOL     OW 1645   4.678   6.027   4.999
  249SOL    HW1 1646   4.580   6.032   4.976
  249SOL    HW2 1647   4.704   5.932   5.015
  250SOL     OW 1648   4.195   2.443   0.298
  250SOL    HW1 1649   4.290   2.440   0.327
  250SOL    HW2 1650   4.138   2.394   0.364
  251SOL     OW 1651   3.784   4.152   5.418
  251SOL    HW1 1652   3.689   4.127   5.398
  251SOL    HW2 1653   3.840   4.070   5.423
  252SOL     OW 1654   6.661   6.121   5.653
  252SOL    HW1 1655   6.677   6.216   5.628
  252SOL    HW2 1656   6.747   6.070   5.645
  253SOL     OW 1657   4.132   6.341   6.208
  253SOL    HW1 1658   4.120   6.283   6.128
  253SOL    HW2 1659   4.206   6.407   6.192
  254SOL     OW 1660   5.586   2.568   5.660
  254SOL    HW1 1661   5.677   2.598   5.688
  254SOL    HW2 1662   5.562   2.484   5.709
  255SOL     OW 1663   1.724   3.913   6.244
  255SOL    HW1 1664   1.798   3.930   6.309
  255SOL    HW2 1665   1.740   3.966   6.161
  256SOL     OW 1666   5.078   2.323   5.419
  256SOL    HW1 1667   5.156   2.382   5.397
  256SOL    HW2 1668   4.994   2.362   5.382
  257SOL     OW 1669   5.144   6.741   2.301
  257SOL    HW1 1670   5.087   6.806   2.350
  257SOL    HW2 1671   5.087   6.686   2.240
  258SOL     OW 1672   1.561   3.361   5.560
  258SOL    HW1 1673   1.548   3.262   5.570
  258SOL    HW2 1674   1.658   3.383   5.564
  259SOL     OW 1675   3.857   6.703   4.212
  259SOL    HW1 1676   3.908   6.659   4.139
  259SOL    HW2 1677   3.883   6.663   4.300
  260SOL     OW 1678   3.899   5.271   3.464
  260SOL    HW1 1679   3.860   5.253   3.555
  260SOL    HW2 1680   3.834   5.243   3.394
  261SOL     OW 1681   4.303   4.561   0.609
  261SOL    HW1 1682   4.354   4.500   0.671
  261SOL    HW2 1683   4.209   4.528   0.601
  262SOL     OW 1684   1.194   4.061   6.384
  262SOL    HW1 1685   1.148   3.979   6.418
  262SOL    HW2 1686   1.241   4.040   6.298
  263SOL     OW 1687   0.677   6.860   4.286
  263SOL    HW1 1688   0.693   6.926   4.213
  263SOL    HW2 1689   0.750   6.867   4.354
  264SOL     OW 1690   6.341   3.452   6.506
  264SOL    HW1 1691   6.365   3.355   6.516
  264SOL    HW2 1692   6.249   3.468   6.542
  265SOL     OW 1693   6.381   0.438   3.888
  265SOL    HW1 1694   6.403   0.429   3.791
  265SOL    HW2 1695   6.287   0.410   3.904
  266SOL     OW 1696   3.686   0.986   5.857
  266SOL    HW1 1697   3.679   1.067   5.798
  266SOL    HW2 1698   3.686   1.014   5.953
  267SOL     OW 1699   1.455   0.797   3.855
  267SOL    HW1 1700   1.398   0.872   3.822
  267SOL    HW2 1701   1.536   0.788   3.797
  268SOL     OW 1702   3.401   2.543   1.270
  268SOL    HW1 1703   3.464   2.562   1.195
  268SOL    HW2 1704   3.451   2.505   1.348
  269SOL     OW 1705   4.577   2.113   0.466
  269SOL    HW1 1706   4.653   2.088   0.406
  269SOL    HW2 1707   4.514   2.035   0.474
  270SOL     OW 1708   5.362   0.857   6.656
  270SOL    HW1 1709   5.325   0.792   6.590
  270SOL    HW2 1710   5.449   0.823   6.692
  271SOL     OW 1711   1.239   3.174   6.508
  271SOL    HW1 1712   1.165   3.240   6.497
  271SOL    HW2 1713   1.231   3.103   6.438
  272SOL     OW 1714   3.263   6.406   3.867
  272SOL    HW1 1715   3.183   6.467   3.866
  272SOL    HW2 1716   3.341   6.454   3.908
  273SOL     OW 1717   2.182   4.796   6.146
  273SOL    HW1 1718   2.256   4.787   6.080
  273SOL    HW2 1719   2.108   4.732   6.123
  274SOL     OW 1720   5.236   2.411   3.879
  274SOL    HW1 1721   5.152   2.395   3.827
  274SOL    HW2 1722   5.302   2.340   3.858
  275SOL     OW 1723   6.471   6.201   1.533
  275SOL    HW1 1724   6.540   6.255   1.485
  275SOL    HW2 1725   6.383   6.211   1.487
  276SOL     OW 1726   1.123   0.745   5.039
  276SOL    HW1 1727   1.194   0.687   5.000
  276SOL    HW2 1728   1.079   0.698   5.115
  277SOL     OW 1729   2.117   4.104   1.036
  277SOL    HW1 1730   2.215   4.113   1.050
  277SOL    HW2 1731   2.069   4.167   1.098
  278SOL     OW 1732   0.342   2.689   1.993
  278SOL    HW1 1733   0.402   2.613   1.965
  278SOL    HW2 1734   0.322   2.747   1.914
  279SOL     OW 1735   6.148   1.506   3.699
  279SOL    HW1 1736   6.230   1.448   3.704
  279SOL    HW2 1737   6.164   1.579   3.633
  280SOL     OW 1738   1.595   4.748   2.416
  280SOL    HW1 1739   1.650   4.773   2.337
  280SOL    HW2 1740   1.542   4.665   2.396
  281SOL     OW 1741   2.553   4.479   1.255
  281SOL    HW1 1742   2.606   4.553   1.213
  281SOL    HW2 1743   2.490   4.440   1.188
  282SOL     OW 1744   2.742   1.871   6.497
  282SOL    HW1 1745   2.686   1.834   6.571
  282SOL    HW2 1746   2.789   1.953   6.529
  283SOL     OW 1747   3.853   2.360   5.666
  283SOL    HW1 1748   3.875   2.277   5.615
  283SOL    HW2 1749   3.935   2.417   5.676
  284SOL     OW 1750   1.308   4.440   3.891
  284SOL    HW1 1751   1.225   4.461   3.942
  284SOL    HW2 1752   1.287   4.435   3.794
  285SOL     OW 1753   5.358   4.520   4.311
  285SOL    HW1 1754   5.423   4.464   4.261
  285SOL    HW2 1755   5.399   4.609   4.331
  286SOL     OW 1756   3.158   3.845   6.872
  286SOL    HW1 1757   3.180   3.808   6.782
  286SOL    HW2 1758   3.170   3.774   6.941
  287SOL     OW 1759   1.695   3.377   0.024
  287SOL    HW1 1760   1.603   3.367   7.009
  287SOL    HW2 1761   1.762   3.348   6.979
  288SOL     OW 1762   5.050   3.516   0.901
  288SOL    HW1 1763   5.102   3.524   0.986
  288SOL    HW2 1764   5.050   3.605   0.854
  289SOL     OW 1765   3.409   4.920   6.565
  289SOL    HW1 1766   3.424   4.896   6.661
  289SOL    HW2 1767   3.479   4.877   6.509
  290SOL     OW 1768   1.470   1.248   4.596
  290SOL    HW1 1769   1.506   1.182   4.662
  290SOL    HW2 1770   1.518   1.336   4.609
  291SOL     OW 1771   6.980   1.988   2.446
  291SOL    HW1 1772   6.895   2.029   2.414
  291SOL    HW2 1773   0.004   1.944   2.370
  292SOL     OW 1774   2.857   0.106   3.893
  292SOL    HW1 1775   2.773   0.130   3.943
  292SOL    HW2 1776   2.888   0.185   3.841
  293SOL     OW 1777   3.186   4.929   3.692
  293SOL    HW1 1778   3.113   4.862   3.689
  293SOL    HW2 1779   3.147   5.021   3.694
  294SOL     OW 1780   4.626   0.444   0.116
  294SOL    HW1 1781   4.708   0.423   0.063
  294SOL    HW2 1782   4.558   0.372   0.102
  295SOL     OW 1783   5.432   6.812   3.442
  295SOL    HW1 1784   5.437   6.712   3.442
  295SOL    HW2 1785   5.432   6.845   3.348
  296SOL     OW 1786   2.771   1.946   3.336
  296SOL    HW1 1787   2.706   2.000   3.389
  296SOL    HW2 1788   2.724   1.867   3.296
  297SOL     OW 1789   1.247   4.747   2.827
  297SOL    HW1 1790   1.323   4.691   2.862
  297SOL    HW2 1791   1.283   4.821   2.771
  298SOL     OW 1792   6.539   4.987   0.892
  298SOL    HW1 1793   6.504   4.937   0.812
  298SOL    HW2 1794   6.535   5.085   0.873
  299SOL     OW 1795   5.844   2.589   4.630
  299SOL    HW1 1796   5.808   2.601   4.537
  299SOL    HW2 1797   5.928   2.642   4.640
  300SOL     OW 1798   6.817   0.036   2.442
  300SOL    HW1 1799   6.827   0.110   2.509
  300SOL    HW2 1800   6.732   0.048   2.391
  301SOL     OW 1801   4.381   3.259   5.747
  301SOL    HW1 1802   4.359   3.162   5.763
  301SOL    HW2 1803   4.297   3.309   5.726
  302SOL     OW 1804   0.724   6.428   4.029
  302SOL    HW1 1805   0.683   6.490   4.096
  302SOL    HW2 1806   0.662   6.418   3.951
  303SOL     OW 1807   5.995   6.644   2.977
  303SOL    HW1 1808   6.064   6.589   3.024
  303SOL    HW2 1809   5.906   6.629   3.019
  304SOL     OW 1810   3.793   6.552   3.564
  304SOL    HW1 1811   3.858   6.591   3.629
  304SOL    HW2 1812   3.830   6.467   3.528
  305SOL     OW 1813   1.487   3.836   1.688
  305SOL    HW1 1814   1.476   3.736   1.694
  305SOL    HW2 1815   1.565   3.857   1.629
  306SOL     OW 1816   1.988   0.740   3.552
  306SOL    HW1 1817   1.913   0.733   3.616
  306SOL    HW2 1818   1.958   0.711   3.461
  307SOL     OW 1819   3.521   0.244   1.619
  307SOL    HW1 1820   3.595   0.302   1.585
  307SOL    HW2 1821   3.433   0.286   1.599
  308SOL     OW 1822   1.119   5.103   4.290
  308SOL    HW1 1823   1.096   5.067   4.381
  308SOL    HW2 1824   1.046   5.080   4.226
  309SOL     OW 1825   3.562   4.927   5.060
  309SOL    HW1 1826   3.488   4.939   4.994
  309SOL    HW2 1827   3.615   5.012   5.066
  310SOL     OW 1828   0.944   5.724   6.540
  310SOL    HW1 1829   0.893   5.686   6.463
  310SOL    HW2 1830   0.888   5.793   6.586
  311SOL     OW 1831   0.217   0.711   1.586
  311SOL    HW1 1832   0.286   0.649   1.548
  311SOL    HW2 1833   0.126   0.683   1.554
  312SOL     OW 1834   3.732   1.467   4.807
  312SOL    HW1 1835   3.658   1.513   4.758
  312SOL    HW2 1836   3.761   1.386   4.755
  313SOL     OW 1837   7.022   4.761   0.682
  313SOL    HW1 1838   7.010   4.841   0.741
  313SOL    HW2 1839   6.994   4.784   0.589
  314SOL     OW 1840   3.124   6.107   1.397
  314SOL    HW1 1841   3.178   6.030   1.360
  314SOL    HW2 1842   3.181   6.189   1.400
  315SOL     OW 1843   0.768   3.292   2.671
  315SOL    HW1 1844   0.836   3.248   2.613
  315SOL    HW2 1845   0.686   3.312   2.617
  316SOL     OW 1846   2.115   3.816   4.397
  316SOL    HW1 1847   2.170   3.893   4.428
  316SOL    HW2 1848   2.158   3.774   4.317
  317SOL     OW 1849   6.210   1.148   0.170
  317SOL    HW1 1850   6.250   1.195   0.248
  317SOL    HW2 1851   6.279   1.088   0.128
  318SOL     OW 1852   2.227   4.916   0.865
  318SOL    HW1 1853   2.276   4.832   0.888
  318SOL    HW2 1854   2.210   4.969   0.948
  319SOL     OW 1855   1.467   6.926   6.724
  319SOL    HW1 1856   1.468   6.910   6.625
  319SOL    HW2 1857   1.382   6.970   6.750
  320SOL     OW 1858   5.132   2.944   0.934
  320SOL    HW1 1859   5.189   2.930   0.853
  320SOL    HW2 1860   5.162   2.881   1.006
  321SOL     OW 1861   2.094   1.091   1.881
  321SOL    HW1 1862   2.057   1.000   1.865
  321SOL    HW2 1863   2.109   1.137   1.794
  322SOL     OW 1864   3.193   2.803   5.557
  322SOL    HW1 1865   3.188   2.753   5.644
  322SOL    HW2 1866   3.139   2.755   5.488
  323SOL     OW 1867   0.548   4.437   2.066
  323SOL    HW1 1868   0.532   4.359   2.006
  323SOL    HW2 1869   0.546   4.522   2.012
  324SOL     OW 1870   0.517   3.298   4.351
  324SOL    HW1 1871   0.484   3.280   4.444
  324SOL    HW2 1872   0.507   3.396   4.331
  325SOL     OW 1873   2.409   2.351   2.705
  325SOL    HW1 1874   2.439   2.414   2.634
  325SOL    HW2 1875   2.399   2.259   2.666
  326SOL     OW 1876   2.381   4.940   5.432
  326SOL    HW1 1877   2.335   4.867   5.381
  326SOL    HW2 1878   2.424   4.902   5.513
  327SOL     OW 1879   6.266   5.168   6.252
  327SOL    HW1 1880   6.313   5.093   6.206
  327SOL    HW2 1881   6.322   5.250   6.247
  328SOL     OW 1882   3.463   5.736   1.409
  328SOL    HW1 1883   3.475   5.639   1.432
  328SOL    HW2 1884   3.552   5.777   1.391
  329SOL     OW 1885   3.257   3.566   2.522
  329SOL    HW1 1886   3.242   3.473   2.487
  329SOL    HW2 1887   3.192   3.584   2.596
  330SOL     OW 1888   3.035   1.939   1.801
  330SOL    HW1 1889   3.106   1.922   1.733
  330SOL    HW2 1890   3.072   1.996   1.874
  331SOL     OW 1891   5.759   4.075   5.683
  331SOL    HW1 1892   5.849   4.103   5.651
  331SOL    HW2 1893   5.690   4.138   5.647
  332SOL     OW 1894   4.395   2.284   3.973
  332SOL    HW1 1895   4.429   2.191   3.956
  332SOL    HW2 1896   4.384   2.298   4.071
  333SOL     OW 1897   4.226   6.301   0.467
  333SOL    HW1 1898   4.242   6.311   0.369
  333SOL    HW2 1899   4.310   6.270   0.511
  334SOL     OW 1900   4.985   6.426   2.518
  334SOL    HW1 1901   5.030   6.353   2.467
  334SOL    HW2 1902   4.953   6.390   2.606
  335SOL     OW 1903   3.430   6.892   3.119
  335SOL    HW1 1904   3.443   6.831   3.041
  335SOL    HW2 1905   3.425   6.987   3.087
  336SOL     OW 1906   3.673   0.412   4.812
  336SOL    HW1 1907   3.679   0.312   4.811
  336SOL    HW2 1908   3.637   0.444   4.724
  337SOL     OW 1909   0.337   4.224   1.561
  337SOL    HW1 1910   0.324   4.137   1.609
  337SOL    HW2 1911   0.263   4.237   1.494
  338SOL     OW 1912   2.639   2.463   1.492
  338SOL    HW1 1913   2.588   2.549   1.494
  338SOL    HW2 1914   2.729   2.476   1.533
  339SOL     OW 1915   4.367   0.775   3.082
  339SOL    HW1 1916   4.328   0.683   3.085
  339SOL    HW2 1917   4.371   0.812   3.175
  340SOL     OW 1918   4.867   3.992   4.810
  340SOL    HW1 1919   4.863   3.897   4.779
  340SOL    HW2 1920   4.826   4.051   4.740
  341SOL     OW 1921   5.172   4.942   5.784
  341SOL    HW1 1922   5.264   4.916   5.756
  341SOL    HW2 1923   5.114   4.953   5.704
  342SOL     OW 1924   5.644   3.887   0.277
  342SOL    HW1 1925   5.722   3.848   0.326
  342SOL    HW2 1926   5.606   3.817   0.216
  343SOL     OW 1927   2.310   0.893   2.569
  343SOL    HW1 1928   2.364   0.951   2.630
  343SOL    HW2 1929   2.362   0.874   2.486
  344SOL     OW 1930   3.694   5.590   6.937
  344SOL    HW1 1931   3.729   5.666   6.992
  344SOL    HW2 1932   3.731   5.595   6.844
  345SOL     OW 1933   1.257   0.707   5.976
  345SOL    HW1 1934   1.335   0.645   5.977
  345SOL    HW2 1935   1.241   0.739   5.882
  346SOL     OW 1936   3.138   0.750   4.195
  346SOL    HW1 1937   3.216   0.690   4.179
  346SOL    HW2 1938   3.165   0.826   4.254
  347SOL     OW 1939   4.707   6.691   5.543
  347SOL    HW1 1940   4.769   6.650   5.609
  347SOL    HW2 1941   4.632   6.627   5.524
  348SOL     OW 1942   2.680   6.039   2.690
  348SOL    HW1 1943   2.678   5.991   2.778
  348SOL    HW2 1944   2.771   6.078   2.676
  349SOL     OW 1945   2.411   4.926   1.564
  349SOL    HW1 1946   2.370   4.917   1.473
  349SOL    HW2 1947   2.378   5.010   1.607
  350SOL     OW 1948   4.559   3.093   1.027
  350SOL    HW1 1949   4.517   3.024   0.968
  350SOL    HW2 1950   4.650   3.116   0.993
  351SOL     OW 1951   2.898   1.832   0.677
  351SOL    HW1 1952   2.836   1.890   0.730
  351SOL    HW2 1953   2.915   1.747   0.726
  352SOL     OW 1954   3.121   1.545   6.230
  352SOL    HW1 1955   3.163   1.470   6.179
  352SOL    HW2 1956   3.129   1.527   6.328
  353SOL     OW 1957   2.258   0.436   1.219
  353SOL    HW1 1958   2.205   0.511   1.180
  353SOL    HW2 1959   2.324   0.472   1.285
  354SOL     OW 1960   5.254   0.945   2.329
  354SOL    HW1 1961   5.334   0.964   2.272
  354SOL    HW2 1962   5.271   0.864   2.384
  355SOL     OW 1963   1.463   1.574   1.622
  355SOL    HW1 1964   1.485   1.571   1.525
  355SOL    HW2 1965   1.541   1.540   1.675
  356SOL     OW 1966   4.204   6.225   2.690
  356SOL    HW1 1967   4.121   6.257   2.644
  356SOL    HW2 1968   4.200   6.250   2.787
  357SOL     OW 1969   1.427   4.661   6.019
  357SOL    HW1 1970   1.397   4.750   5.984
  357SOL    HW2 1971   1.446   4.600   5.943
  358SOL     OW 1972   5.332   0.966   3.208
  358SOL    HW1 1973   5.421   0.999   3.239
  358SOL    HW2 1974   5.300   0.894   3.269
  359SOL     OW 1975   1.012   2.239   0.411
  359SOL    HW1 1976   0.940   2.260   0.345
  359SOL    HW2 1977   0.984   2.161   0.467
  360SOL     OW 1978   5.278   6.787   0.456
  360SOL    HW1 1979   5.226   6.740   0.384
  360SOL    HW2 1980   5.236   6.876   0.473
  361SOL     OW 1981   3.484   1.065   3.464
  361SOL    HW1 1982   3.502   1.152   3.511
  361SOL    HW2 1983   3.535   1.063   3.378
  362SOL     OW 1984   2.769   3.890   1.016
  362SOL    HW1 1985   2.697   3.950   0.978
  362SOL    HW2 1986   2.743   3.861   1.108
  363SOL     OW 1987   4.223   4.785   3.542
  363SOL    HW1 1988   4.211   4.737   3.629
  363SOL    HW2 1989   4.156   4.859   3.536
  364SOL     OW 1990   1.809   6.306   6.458
  364SOL    HW1 1991   1.781   6.310   6.362
  364SOL    HW2 1992   1.891   6.362   6.471
  365SOL     OW 1993   4.902   6.932   2.863
  365SOL    HW1 1994   4.891   6.889   2.953
  365SOL    HW2 1995   4.816   6.922   2.811
  366SOL     OW 1996   4.972   0.936   0.580
  366SOL    HW1 1997   5.040   1.003   0.549
  366SOL    HW2 1998   4.980   0.924   0.679
  367SOL     OW 1999   4.625   1.911   2.045
  367SOL    HW1 2000   4.705   1.914   1.985
  367SOL    HW2 2001   4.599   1.816   2.061
  368SOL     OW 2002   1.572   5.120   5.800
  368SOL    HW1 2003   1.591   5.053   5.728
  368SOL    HW2 2004   1.558   5.073   5.887
  369SOL     OW 2005   0.702   3.042   1.392
  369SOL    HW1 2006   0.725   3.056   1.488
  369SOL    HW2 2007   0.641   2.963   1.383
  370SOL     OW 2008   3.299   1.669   0.042
  370SOL    HW1 2009   3.305   1.740   6.994
  370SOL    HW2 2010   3.229   1.603   0.017
  371SOL     OW 2011   3.443   3.045   5.998
  371SOL    HW1 2012   3.503   3.104   6.052
  371SOL    HW2 2013   3.447   3.072   5.902
  372SOL     OW 2014   1.826   4.908   0.061
  372SOL    HW1 2015   1.785   4.998   0.067
  372SOL    HW2 2016   1.882   4.891   0.142
  373SOL     OW 2017   6.612   6.556   6.965
  373SOL    HW1 2018   6.604   6.652   6.993
  373SOL    HW2 2019   6.700   6.542   6.920
  374SOL     OW 2020   4.640   0.990   1.100
  374SOL    HW1 2021   4.556   0.938   1.113
  374SOL    HW2 2022   4.643   1.027   1.008
  375SOL     OW 2023   6.638   4.437   1.122
  375SOL    HW1 2024   6.597   4.513   1.071
  375SOL    HW2 2025   6.591   4.352   1.098
  376SOL     OW 2026   2.016   3.620   4.582
  376SOL    HW1 2027   2.059   3.638   4.670
  376SOL    HW2 2028   2.064   3.672   4.511
  377SOL     OW 2029   4.548   2.102   4.567
  377SOL    HW1 2030   4.543   2.095   4.667
  377SOL    HW2 2031   4.568   2.012   4.528
  378SOL     OW 2032   5.203   2.527   4.929
  378SOL    HW1 2033   5.145   2.608   4.926
  378SOL    HW2 2034   5.297   2.552   4.906
  379SOL     OW 2035   0.160   2.606   1.595
  379SOL    HW1 2036   0.164   2.513   1.557
  379SOL    HW2 2037   0.094   2.607   1.670
  380SOL     OW 2038   1.160   2.041   0.001
  380SOL    HW1 2039   1.084   2.025   0.064
  380SOL    HW2 2040   1.227   2.102   0.044
  381SOL     OW 2041   3.849   4.865   0.704
  381SOL    HW1 2042   3.893   4.806   0.771
  381SOL    HW2 2043   3.850   4.821   0.615
  382SOL     OW 2044   2.571   5.141   0.430
  382SOL    HW1 2045   2.489   5.129   0.487
  382SOL    HW2 2046   2.544   5.141   0.333
  383SOL     OW 2047   6.427   2.013   0.464
  383SOL    HW1 2048   6.370   2.094   0.483
  383SOL    HW2 2049   6.367   1.933   0.452
  384SOL     OW 2050   1.589   4.953   5.211
  384SOL    HW1 2051   1.688   4.959   5.223
  384SOL    HW2 2052   1.559   5.017   5.141
  385SOL     OW 2053   4.353   5.227   1.918
  385SOL    HW1 2054   4.260   5.215   1.883
  385SOL    HW2 2055   4.383   5.321   1.903
  386SOL     OW 2056   2.575   6.451   4.668
  386SOL    HW1 2057   2.547   6.370   4.719
  386SOL    HW2 2058   2.542   6.443   4.574
  387SOL     OW 2059   6.632   0.250   5.966
  387SOL    HW1 2060   6.630   0.335   6.020
  387SOL    HW2 2061   6.619   0.172   6.026
  388SOL     OW 2062   0.176   2.026   4.470
  388SOL    HW1 2063   0.131   2.094   4.412
  388SOL    HW2 2064   0.116   1.947   4.482
  389SOL     OW 2065   5.124   4.383   2.139
  389SOL    HW1 2066   5.174   4.300   2.114
  389SOL    HW2 2067   5.085   4.373   2.230
  390SOL     OW 2068   4.060   2.400   6.836
  390SOL    HW1 2069   3.976   2.442   6.802
  390SOL    HW2 2070   4.098   2.457   6.909
  391SOL     OW 2071   4.095   3.783   3.779
  391SOL    HW1 2072   4.134   3.837   3.853
  391SOL    HW2 2073   4.016   3.733   3.812
  392SOL     OW 2074   1.861   3.848   1.729
  392SOL    HW1 2075   1.950   3.881   1.698
  392SOL    HW2 2076   1.846   3.878   1.824
  393SOL     OW 2077   1.563   5.479   1.540
  393SOL    HW1 2078   1.593   5.422   1.616
  393SOL    HW2 2079   1.639   5.536   1.509
  394SOL     OW 2080   6.024   1.318   6.126
  394SOL    HW1 2081   6.110   1.336   6.173
  394SOL    HW2 2082   5.996   1.223   6.142
  395SOL     OW 2083   6.196   4.269   0.193
  395SOL    HW1 2084   6.150   4.334   0.133
  395SOL    HW2 2085   6.128   4.211   0.238
  396SOL     OW 2086   1.478   0.782   1.425
  396SOL    HW1 2087   1.566   0.818   1.392
  396SOL    HW2 2088   1.420   0.858   1.455
  397SOL     OW 2089   4.383   2.365   4.640
  397SOL    HW1 2090   4.287   2.386   4.621
  397SOL    HW2 2091   4.391   2.268   4.665
  398SOL     OW 2092   0.209   1.102   3.338
  398SOL    HW1 2093   0.125   1.058   3.306
  398SOL    HW2 2094   0.222   1.082   3.436
  399SOL     OW 2095   6.046   5.884   3.657
  399SOL    HW1 2096   6.016   5.865   3.751
  399SOL    HW2 2097   5.965   5.894   3.598
  400SOL     OW 2098   0.007   6.525   3.587
  400SOL    HW1 2099   0.069   6.508   3.664
  400SOL    HW2 2100   0.029   6.613   3.546
  401SOL     OW 2101   1.329   5.289   4.439
  401SOL    HW1 2102   1.309   5.387   4.448
  401SOL    HW2 2103   1.260   5.246   4.381
  402SOL     OW 2104   5.797   1.826   4.202
  402SOL    HW1 2105   5.765   1.756   4.265
  402SOL    HW2 2106   5.795   1.916   4.246
  403SOL     OW 2107   2.861   1.594   4.902
  403SOL    HW1 2108   2.818   1.658   4.838
  403SOL    HW2 2109   2.799   1.577   4.979
  404SOL     OW 2110   3.107   5.199   3.621
  404SOL    HW1 2111   3.142   5.268   3.685
  404SOL    HW2 2112   3.111   5.235   3.528
  405SOL     OW 2113   2.516   5.366   3.976
  405SOL    HW1 2114   2.556   5.429   3.910
  405SOL    HW2 2115   2.422   5.344   3.950
  406SOL     OW 2116   0.609   6.869   6.246
  406SOL    HW1 2117   0.674   6.805   6.205
  406SOL    HW2 2118   0.516   6.843   6.221
  407SOL     OW 2119   1.877   3.620   3.963
  407SOL    HW1 2120   1.942   3.685   4.001
  407SOL    HW2 2121   1.859   3.548   4.030
  408SOL     OW 2122   2.517   2.493   2.493
  408SOL    HW1 2123   2.485   2.583   2.463
  408SOL    HW2 2124   2.591   2.462   2.435
  409SOL     OW 2125   0.217   3.015   2.401
  409SOL    HW1 2126   0.302   2.977   2.363
  409SOL    HW2 2127   0.145   3.009   2.332
  410SOL     OW 2128   1.934   3.198   1.622
  410SOL    HW1 2129   1.879   3.197   1.705
  410SOL    HW2 2130   2.031   3.204   1.646
  411SOL     OW 2131   6.969   2.022   0.428
  411SOL    HW1 2132   6.947   2.107   0.477
  411SOL    HW2 2133   6.928   1.944   0.476
  412SOL     OW 2134   1.633   4.945   2.617
  412SOL    HW1 2135   1.543   4.984   2.635
  412SOL    HW2 2136   1.624   4.871   2.551
  413SOL     OW 2137   6.118   4.280   2.088
  413SOL    HW1 2138   6.155   4.248   2.175
  413SOL    HW2 2139   6.167   4.237   2.012
  414SOL     OW 2140   2.267   6.543   3.280
  414SOL    HW1 2141   2.321   6.607   3.225
  414SOL    HW2 2142   2.188   6.591   3.318
  415SOL     OW 2143   5.615   1.732   6.940
  415SOL    HW1 2144   5.597   1.823   6.901
  415SOL    HW2 2145   5.596   1.662   6.871
  416SOL     OW 2146   5.814   3.105   6.296
  416SOL    HW1 2147   5.745   3.144   6.236
  416SOL    HW2 2148   5.880   3.053   6.242
  417SOL     OW 2149   2.436   2.657   5.652
  417SOL    HW1 2150   2.396   2.645   5.561
  417SOL    HW2 2151   2.471   2.751   5.660
  418SOL     OW 2152   3.567   6.443   6.020
  418SOL    HW1 2153   3.482   6.427   5.969
  418SOL    HW2 2154   3.602   6.534   6.000
  419SOL     OW 2155   5.868   0.690   6.892
  419SOL    HW1 2156   5.796   0.624   6.912
  419SOL    HW2 2157   5.841   0.748   6.815
  420SOL     OW 2158   3.573   0.241   1.133
  420SOL    HW1 2159   3.654   0.299   1.145
  420SOL    HW2 2160   3.601   0.146   1.122
  421SOL     OW 2161   4.744   4.200   2.616
  421SOL    HW1 2162   4.744   4.293   2.655
  421SOL    HW2 2163   4.703   4.202   2.525
  422SOL     OW 2164   4.146   2.225   1.605
  422SOL    HW1 2165   4.072   2.264   1.659
  422SOL    HW2 2166   4.207   2.173   1.665
  423SOL     OW 2167   2.903   0.809   6.403
  423SOL    HW1 2168   2.941   0.805   6.310
  423SOL    HW2 2169   2.928   0.897   6.445
  424SOL     OW 2170   1.683   3.669   4.262
  424SOL    HW1 2171   1.737   3.724   4.326
  424SOL    HW2 2172   1.744   3.608   4.211
  425SOL     OW 2173   3.119   1.437   0.075
  425SOL    HW1 2174   3.190   1.415   0.141
  425SOL    HW2 2175   3.031   1.440   0.120
  426SOL     OW 2176   2.319   2.389   4.238
  426SOL    HW1 2177   2.400   2.379   4.295
  426SOL    HW2 2178   2.344   2.376   4.142
  427SOL     OW 2179   4.694   1.503   3.613
  427SOL    HW1 2180   4.782   1.503   3.567
  427SOL    HW2 2181   4.707   1.490   3.711
  428SOL     OW 2182   2.553   2.038   6.786
  428SOL    HW1 2183   2.518   2.104   6.719
  428SOL    HW2 2184   2.492   1.959   6.790
  429SOL     OW 2185   0.188   6.284   3.775
  429SOL    HW1 2186   0.106   6.230   3.757
  429SOL    HW2 2187   0.259   6.260   3.709
  430SOL     OW 2188   2.166   0.784   3.786
  430SOL    HW1 2189   2.145   0.752   3.694
  430SOL    HW2 2190   2.198   0.879   3.782
  431SOL     OW 2191   2.966   1.195   1.487
  431SOL    HW1 2192   2.938   1.290   1.493
  431SOL    HW2 2193   2.911   1.140   1.550
  432SOL     OW 2194   4.639   1.887   1.446
  432SOL    HW1 2195   4.559   1.890   1.506
  432SOL    HW2 2196   4.693   1.805   1.466
  433SOL     OW 2197   1.867   4.257   0.321
  433SOL    HW1 2198   1.895   4.162   0.305
  433SOL    HW2 2199   1.769   4.266   0.304
  434SOL     OW 2200   4.512   5.594   2.717
  434SOL    HW1 2201   4.477   5.572   2.626
  434SOL    HW2 2202   4.608   5.621   2.710
  435SOL     OW 2203   3.602   2.590   6.261
  435SOL    HW1 2204   3.655   2.611   6.178
  435SOL    HW2 2205   3.603   2.492   6.277
  436SOL     OW 2206   5.451   5.959   2.004
  436SOL    HW1 2207   5.405   5.917   2.083
  436SOL    HW2 2208   5.470   6.055   2.024
  437SOL     OW 2209   6.935   1.320   4.748
  437SOL    HW1 2210   7.015   1.379   4.755
  437SOL    HW2 2211   6.958   1.237   4.696
  438SOL     OW 2212   0.920   4.566   2.599
  438SOL    HW1 2213   0.961   4.535   2.685
  438SOL    HW2 2214   0.984   4.548   2.524
  439SOL     OW 2215   0.096   0.798   5.953
  439SOL    HW1 2216   0.163   0.731   5.985
  439SOL    HW2 2217   0.055   0.766   5.868
  440SOL     OW 2218   4.312   2.321   0.734
  440SOL    HW1 2219   4.231   2.329   0.792
  440SOL    HW2 2220   4.371   2.401   0.745
  441SOL     OW 2221   0.154   4.743   2.373
  441SOL    HW1 2222   0.166   4.646   2.352
  441SOL    HW2 2223   0.244   4.787   2.380
  442SOL     OW 2224   3.517   3.222   4.914
  442SOL    HW1 2225   3.585   3.289   4.943
  442SOL    HW2 2226   3.427   3.264   4.914
  443SOL     OW 2227   4.913   2.662   3.049
  443SOL    HW1 2228   4.816   2.685   3.047
  443SOL    HW2 2229   4.926   2.575   3.096
  444SOL     OW 2230   4.375   2.352   1.587
  444SOL    HW1 2231   4.384   2.412   1.667
  444SOL    HW2 2232   4.281   2.319   1.580
  445SOL     OW 2233   2.758   5.710   2.562
  445SOL    HW1 2234   2.785   5.619   2.595
  445SOL    HW2 2235   2.682   5.744   2.617
  446SOL     OW 2236   6.089   0.049   1.474
  446SOL    HW1 2237   5.994   0.077   1.484
  446SOL    HW2 2238   6.149   0.121   1.507
  447SOL     OW 2239   6.155   3.913   0.368
  447SOL    HW1 2240   6.099   3.996   0.356
  447SOL    HW2 2241   6.145   3.855   0.287
  448SOL     OW 2242   3.498   6.125   3.762
  448SOL    HW1 2243   3.413   6.121   3.814
  448SOL    HW2 2244   3.551   6.204   3.792
  449SOL     OW 2245   1.003   4.031   4.748
  449SOL    HW1 2246   0.993   4.071   4.839
  449SOL    HW2 2247   1.092   3.987   4.740
  450SOL     OW 2248   6.878   3.913   2.991
  450SOL    HW1 2249   6.968   3.953   2.999
  450SOL    HW2 2250   6.886   3.816   2.968
  451SOL     OW 2251   1.610   2.324   0.079
  451SOL    HW1 2252   1.640   2.264   0.153
  451SOL    HW2 2253   1.521   2.295   0.046
  452SOL     OW 2254   4.416   5.556   1.803
  452SOL    HW1 2255   4.401   5.590   1.710
  452SOL    HW2 2256   4.328   5.545   1.849
  453SOL     OW 2257   4.639   0.684   0.255
  453SOL    HW1 2258   4.561   0.743   0.236
  453SOL    HW2 2259   4.636   0.603   0.197
  454SOL     OW 2260   0.131   3.191   4.125
  454SOL    HW1 2261   0.218   3.219   4.085
  454SOL    HW2 2262   0.115   3.244   4.209
  455SOL     OW 2263   5.381   5.041   6.761
  455SOL    HW1 2264   5.366   4.998   6.672
  455SOL    HW2 2265   5.421   4.974   6.824
  456SOL     OW 2266   2.133   1.097   3.151
  456SOL    HW1 2267   2.226   1.079   3.183
  456SOL    HW2 2268   2.126   1.073   3.054
  457SOL     OW 2269   3.156   5.730   0.093
  457SOL    HW1 2270   3.067   5.751   0.132
  457SOL    HW2 2271   3.184   5.804   0.031
  458SOL     OW 2272   3.832   1.634   3.338
  458SOL    HW1 2273   3.926   1.670   3.332
  458SOL    HW2 2274   3.767   1.709   3.328
  459SOL     OW 2275   3.040   1.526   3.100
  459SOL    HW1 2276   3.090   1.532   3.186
  459SOL    HW2 2277   3.069   1.444   3.051
  460SOL     OW 2278   0.655   1.457   6.742
  460SOL    HW1 2279   0.570   1.405   6.748
  460SOL    HW2 2280   0.681   1.468   6.646
  461SOL     OW 2281   1.237   6.867   5.651
  461SOL    HW1 2282   1.264   6.862   5.554
  461SOL    HW2 2283   1.288   6.799   5.703
  462SOL     OW 2284   3.771   4.127   4.663
  462SOL    HW1 2285   3.790   4.167   4.753
  462SOL    HW2 2286   3.857   4.105   4.617
  463SOL     OW 2287   5.448   5.952   3.161
  463SOL    HW1 2288   5.355   5.974   3.191
  463SOL    HW2 2289   5.495   6.035   3.131
  464SOL     OW 2290   4.324   5.994   5.262
  464SOL    HW1 2291   4.285   6.048   5.337
  464SOL    HW2 2292   4.409   5.950   5.292
  465SOL     OW 2293   0.158   4.731   7.020
  465SOL    HW1 2294   0.068   4.691   0.011
  465SOL    HW2 2295   0.161   4.822   0.037
  466SOL     OW 2296   3.891   4.871   4.045
  466SOL    HW1 2297   3.866   4.877   4.141
  466SOL    HW2 2298   3.980   4.915   4.030
  467SOL     OW 2299   6.828   7.011   2.060
  467SOL    HW1 2300   6.851   6.917   2.086
  467SOL    HW2 2301   6.902   0.026   2.004
  468SOL     OW 2302   2.496   5.895   6.492
  468SOL    HW1 2303   2.435   5.965   6.456
  468SOL    HW2 2304   2.443   5.827   6.543
  469SOL     OW 2305   3.365   4.602   5.433
  469SOL    HW1 2306   3.348   4.503   5.432
  469SOL    HW2 2307   3.285   4.650   5.400
  470SOL     OW 2308   2.163   5.084   2.683
  470SOL    HW1 2309   2.125   5.176   2.692
  470SOL    HW2 2310   2.244   5.075   2.741
  471SOL     OW 2311   1.568   2.283   3.793
  471SOL    HW1 2312   1.489   2.243   3.746
  471SOL    HW2 2313   1.627   2.211   3.826
  472SOL     OW 2314   5.323   4.323   6.570
  472SOL    HW1 2315   5.399   4.314   6.505
  472SOL    HW2 2316   5.346   4.391   6.639
  473SOL     OW 2317   5.376   3.046   2.283
  473SOL    HW1 2318   5.298   2.989   2.256
  473SOL    HW2 2319   5.364   3.138   2.248
  474SOL     OW 2320   4.923   5.398   3.394
  474SOL    HW1 2321   4.826   5.403   3.369
  474SOL    HW2 2322   4.958   5.308   3.370
  475SOL     OW 2323   5.364   1.320   0.318
  475SOL    HW1 2324   5.376   1.310   0.219
  475SOL    HW2 2325   5.312   1.403   0.338
  476SOL     OW 2326   1.081   3.576   0.328
  476SOL    HW1 2327   1.166   3.554   0.282
  476SOL    HW2 2328   1.042   3.660   0.290
  477SOL     OW 2329   6.432   4.951   3.212
  477SOL    HW1 2330   6.363   4.969   3.282
  477SOL    HW2 2331   6.492   5.030   3.203
  478SOL     OW 2332   6.178   5.120   2.355
  478SOL    HW1 2333   6.194   5.115   2.454
  478SOL    HW2 2334   6.177   5.027   2.317
  479SOL     OW 2335   3.014   3.906   2.731
  479SOL    HW1 2336   3.024   4.001   2.763
  479SOL    HW2 2337   3.103   3.872   2.701
  480SOL     OW 2338   0.886   0.926   2.028
  480SOL    HW1 2339   0.927   0.983   1.958
  480SOL    HW2 2340   0.931   0.942   2.116
  481SOL     OW 2341   5.626   6.302   0.962
  481SOL    HW1 2342   5.590   6.249   1.039
  481SOL    HW2 2343   5.556   6.367   0.930
  482SOL     OW 2344   3.483   5.258   2.534
  482SOL    HW1 2345   3.447   5.194   2.602
  482SOL    HW2 2346   3.521   5.338   2.580
  483SOL     OW 2347   6.087   0.607   3.932
  483SOL    HW1 2348   6.058   0.698   3.900
  483SOL    HW2 2349   6.171   0.615   3.986
  484SOL     OW 2350   1.880   4.704   3.118
  484SOL    HW1 2351   1.901   4.613   3.084
  484SOL    HW2 2352   1.862   4.766   3.041
  485SOL     OW 2353   4.904   2.249   0.918
  485SOL    HW1 2354   4.859   2.328   0.959
  485SOL    HW2 2355   4.896   2.171   0.980
  486SOL     OW 2356   6.218   6.500   5.405
  486SOL    HW1 2357   6.295   6.466   5.458
  486SOL    HW2 2358   6.217   6.454   5.316
  487SOL     OW 2359   0.131   0.899   6.831
  487SOL    HW1 2360   0.099   0.913   6.925
  487SOL    HW2 2361   0.182   0.813   6.825
  488SOL     OW 2362   2.007   5.841   2.996
  488SOL    HW1 2363   2.017   5.908   2.922
  488SOL    HW2 2364   1.962   5.884   3.074
  489SOL     OW 2365   3.128   4.692   5.342
  489SOL    HW1 2366   3.070   4.772   5.358
  489SOL    HW2 2367   3.081   4.628   5.282
  490SOL     OW 2368   1.527   3.363   4.981
  490SOL    HW1 2369   1.520   3.373   4.882
  490SOL    HW2 2370   1.623   3.361   5.008
  491SOL     OW 2371   6.092   3.185   1.242
  491SOL    HW1 2372   6.117   3.169   1.146
  491SOL    HW2 2373   6.016   3.249   1.245
  492SOL     OW 2374   1.696   2.404   5.801
  492SOL    HW1 2375   1.746   2.454   5.730
  492SOL    HW2 2376   1.751   2.328   5.834
  493SOL     OW 2377   1.857   5.813   3.752
  493SOL    HW1 2378   1.805   5.771   3.677
  493SOL    HW2 2379   1.945   5.767   3.760
  494SOL     OW 2380   2.900   0.591   4.217
  494SOL    HW1 2381   2.996   0.618   4.224
  494SOL    HW2 2382   2.861   0.626   4.132
  495SOL     OW 2383   3.767   4.699   6.894
  495SOL    HW1 2384   3.768   4.604   6.924
  495SOL    HW2 2385   3.805   4.705   6.802
  496SOL     OW 2386   5.191   0.895   2.843
  496SOL    HW1 2387   5.228   0.964   2.905
  496SOL    HW2 2388   5.115   0.933   2.791
  497SOL     OW 2389   4.198   2.724   1.173
  497SOL    HW1 2390   4.219   2.659   1.246
  497SOL    HW2 2391   4.123   2.783   1.202
  498SOL     OW 2392   0.566   0.073   1.188
  498SOL    HW1 2393   0.530   0.030   1.270
  498SOL    HW2 2394   0.666   0.072   1.191
  499SOL     OW 2395   3.039   6.517   0.189
  499SOL    HW1 2396   2.940   6.508   0.174
  499SOL    HW2 2397   3.075   6.431   0.225
  500SOL     OW 2398   5.895   1.746   6.172
  500SOL    HW1 2399   5.936   1.765   6.083
  500SOL    HW2 2400   5.806   1.792   6.179
  501SOL     OW 2401   1.681   2.152   4.176
  501SOL    HW1 2402   1.662   2.125   4.271
  501SOL    HW2 2403   1.594   2.164   4.128
  502SOL     OW 2404   2.235   3.670   6.754
  502SOL    HW1 2405   2.315   3.645   6.810
  502SOL    HW2 2406   2.247   3.633   6.662
  503SOL     OW 2407   3.240   5.104   0.924
  503SOL    HW1 2408   3.281   5.190   0.895
  503SOL    HW2 2409   3.144   5.101   0.895
  504SOL     OW 2410   6.131   7.010   0.211
  504SOL    HW1 2411   6.130   0.017   0.306
  504SOL    HW2 2412   6.079   0.051   0.155
  505SOL     OW 2413   6.304   4.145   5.586
  505SOL    HW1 2414   6.367   4.206   5.539
  505SOL    HW2 2415   6.337   4.129   5.680
  506SOL     OW 2416   2.934   5.588   3.273
  506SOL    HW1 2417   2.946   5.493   3.303
  506SOL    HW2 2418   2.868   5.591   3.198
  507SOL     OW 2419   3.350   0.476   2.901
  507SOL    HW1 2420   3.262   0.429   2.905
  507SOL    HW2 2421   3.403   0.455   2.984
  508SOL     OW 2422   0.447   5.359   3.758
  508SOL    HW1 2423   0.356   5.399   3.742
  508SOL    HW2 2424   0.436   5.271   3.805
  509SOL     OW 2425   4.436   0.384   6.070
  509SOL    HW1 2426   4.426   0.337   6.158
  509SOL    HW2 2427   4.503   0.457   6.079
  510SOL     OW 2428   6.373   4.518   6.640
  510SOL    HW1 2429   6.292   4.574   6.655
  510SOL    HW2 2430   6.371   4.481   6.547
  511SOL     OW 2431   1.145   1.123   0.052
  511SOL    HW1 2432   1.067   1.072   0.086
  511SOL    HW2 2433   1.120   1.220   0.043
  512SOL     OW 2434   0.298   1.725   4.295
  512SOL    HW1 2435   0.321   1.814   4.332
  512SOL    HW2 2436   0.275   1.662   4.369
  513SOL     OW 2437   5.849   6.313   2.734
  513SOL    HW1 2438   5.903   6.394   2.756
  513SOL    HW2 2439   5.798   6.330   2.649
  514SOL     OW 2440   4.629   1.601   4.677
  514SOL    HW1 2441   4.666   1.515   4.641
  514SOL    HW2 2442   4.671   1.678   4.629
  515SOL     OW 2443   3.098   0.833   0.240
  515SOL    HW1 2444   3.084   0.931   0.223
  515SOL    HW2 2445   3.180   0.821   0.296
  516SOL     OW 2446   1.387   6.061   1.769
  516SOL    HW1 2447   1.296   6.057   1.810
  516SOL    HW2 2448   1.381   6.035   1.672
  517SOL     OW 2449   3.282   5.027   1.357
  517SOL    HW1 2450   3.194   5.034   1.311
  517SOL    HW2 2451   3.295   4.933   1.389
  518SOL     OW 2452   2.385   6.323   4.086
  518SOL    HW1 2453   2.312   6.265   4.049
  518SOL    HW2 2454   2.439   6.360   4.011
  519SOL     OW 2455   6.538   0.350   2.674
  519SOL    HW1 2456   6.580   0.341   2.765
  519SOL    HW2 2457   6.610   0.366   2.606
  520SOL     OW 2458   2.264   5.273   0.876
  520SOL    HW1 2459   2.325   5.334   0.825
  520SOL    HW2 2460   2.197   5.233   0.814
  521SOL     OW 2461   6.473   5.877   5.386
  521SOL    HW1 2462   6.555   5.919   5.347
  521SOL    HW2 2463   6.413   5.845   5.313
  522SOL     OW 2464   4.149   4.440   7.006
  522SOL    HW1 2465   4.231   4.431   6.948
  522SOL    HW2 2466   4.170   4.409   0.075
  523SOL     OW 2467   1.901   6.826   6.072
  523SOL    HW1 2468   1.840   6.747   6.067
  523SOL    HW2 2469   1.879   6.890   5.998
  524SOL     OW 2470   6.984   0.921   0.828
  524SOL    HW1 2471   7.019   0.840   0.877
  524SOL    HW2 2472   6.929   0.976   0.890
  525SOL     OW 2473   0.827   3.429   3.377
  525SOL    HW1 2474   0.921   3.417   3.409
  525SOL    HW2 2475   0.801   3.525   3.386
  526SOL     OW 2476   3.970   6.708   5.186
  526SOL    HW1 2477   3.932   6.791   5.227
  526SOL    HW2 2478   4.065   6.697   5.215
  527SOL     OW 2479   0.327   1.045   0.822
  527SOL    HW1 2480   0.370   0.977   0.881
  527SOL    HW2 2481   0.325   1.133   0.869
  528SOL     OW 2482   6.725   1.763   4.540
  528SOL    HW1 2483   6.699   1.670   4.565
  528SOL    HW2 2484   6.654   1.803   4.481
  529SOL     OW 2485   1.353   0.991   5.939
  529SOL    HW1 2486   1.314   0.901   5.961
  529SOL    HW2 2487   1.444   0.979   5.900
  530SOL     OW 2488   3.055   4.834   1.614
  530SOL    HW1 2489   3.088   4.926   1.636
  530SOL    HW2 2490   3.120   4.789   1.554
  531SOL     OW 2491   0.868   0.852   6.076
  531SOL    HW1 2492   0.954   0.816   6.112
  531SOL    HW2 2493   0.885   0.933   6.021
  532SOL     OW 2494   2.969   0.540   6.643
  532SOL    HW1 2495   2.884   0.555   6.693
  532SOL    HW2 2496   3.018   0.463   6.683
  533SOL     OW 2497   4.318   6.976   4.484
  533SOL    HW1 2498   4.276   0.043   4.473
  533SOL    HW2 2499   4.281   6.913   4.416
  534SOL     OW 2500   2.140   4.135   1.783
  534SOL    HW1 2501   2.192   4.118   1.866
  534SOL    HW2 2502   2.149   4.057   1.721
  535SOL     OW 2503   4.780   4.192   4.662
  535SOL    HW1 2504   4.761   4.133   4.584
  535SOL    HW2 2505   4.740   4.282   4.647
  536SOL     OW 2506   6.529   6.509   1.139
  536SOL    HW1 2507   6.484   6.460   1.065
  536SOL    HW2 2508   6.616   6.546   1.108
  537SOL     OW 2509   2.396   2.065   2.325
  537SOL    HW1 2510   2.454   2.119   2.264
  537SOL    HW2 2511   2.351   1.993   2.272
  538SOL     OW 2512   4.217   4.753   5.266
  538SOL    HW1 2513   4.134   4.776   5.317
  538SOL    HW2 2514   4.208   4.661   5.227
  539SOL     OW 2515   2.468   0.117   6.675
  539SOL    HW1 2516   2.452   0.055   6.752
  539SOL    HW2 2517   2.560   0.155   6.682
  540SOL     OW 2518   2.164   1.275   5.447
  540SOL    HW1 2519   2.092   1.222   5.492
  540SOL    HW2 2520   2.126   1.362   5.414
  541SOL     OW 2521   5.185   6.355   3.611
  541SOL    HW1 2522   5.092   6.316   3.614
  541SOL    HW2 2523   5.182   6.446   3.570
  542SOL     OW 2524   3.425   6.139   5.923
  542SOL    HW1 2525   3.509   6.136   5.977
  542SOL    HW2 2526   3.350   6.174   5.979
  543SOL     OW 2527   6.183   2.668   4.447
  543SOL    HW1 2528   6.143   2.679   4.538
  543SOL    HW2 2529   6.280   2.689   4.451
  544SOL     OW 2530   1.170   3.046   1.231
  544SOL    HW1 2531   1.258   3.088   1.253
  544SOL    HW2 2532   1.160   3.040   1.132
  545SOL     OW 2533   6.621   5.241   0.456
  545SOL    HW1 2534   6.556   5.298   0.506
  545SOL    HW2 2535   6.699   5.296   0.427
  546SOL     OW 2536   0.116   4.665   2.015
  546SOL    HW1 2537   0.112   4.750   2.068
  546SOL    HW2 2538   0.029   4.617   2.021
  547SOL     OW 2539   4.253   6.926   6.785
  547SOL    HW1 2540   4.192   6.875   6.724
  547SOL    HW2 2541   4.348   6.913   6.757
  548SOL     OW 2542   4.194   2.544   0.011
  548SOL    HW1 2543   4.202   2.551   0.111
  548SOL    HW2 2544   4.233   2.625   6.992
  549SOL     OW 2545   5.655   2.229   3.659
  549SOL    HW1 2546   5.735   2.191   3.705
  549SOL    HW2 2547   5.634   2.319   3.697
  550SOL     OW 2548   6.707   5.493   3.594
  550SOL    HW1 2549   6.669   5.491   3.502
  550SOL    HW2 2550   6.633   5.480   3.661
  551SOL     OW 2551   5.305   0.467   0.036
  551SOL    HW1 2552   5.284   0.564   0.047
  551SOL    HW2 2553   5.257   0.415   0.107
  552SOL     OW 2554   0.350   6.996   4.611
  552SOL    HW1 2555   0.311   0.010   4.695
  552SOL    HW2 2556   0.277   6.978   4.545
  553SOL     OW 2557   3.596   2.149   6.096
  553SOL    HW1 2558   3.537   2.229   6.089
  553SOL    HW2 2559   3.654   2.141   6.015
  554SOL     OW 2560   6.475   5.953   0.723
  554SOL    HW1 2561   6.567   5.917   0.710
  554SOL    HW2 2562   6.458   5.966   0.821
  555SOL     OW 2563   2.741   4.265   6.133
  555SOL    HW1 2564   2.837   4.263   6.105
  555SOL    HW2 2565   2.735   4.242   6.230
  556SOL     OW 2566   6.572   6.159   2.572
  556SOL    HW1 2567   6.502   6.222   2.605
  556SOL    HW2 2568   6.549   6.066   2.601
  557SOL     OW 2569   5.474   3.822   6.207
  557SOL    HW1 2570   5.402   3.818   6.276
  557SOL    HW2 2571   5.439   3.870   6.126
  558SOL     OW 2572   3.257   3.662   2.251
  558SOL    HW1 2573   3.332   3.727   2.244
  558SOL    HW2 2574   3.256   3.622   2.343
  559SOL     OW 2575   6.405   1.349   6.509
  559SOL    HW1 2576   6.327   1.350   6.572
  559SOL    HW2 2577   6.383   1.402   6.428
  560SOL     OW 2578   0.071   2.271   3.733
  560SOL    HW1 2579   0.144   2.203   3.748
  560SOL    HW2 2580   0.112   2.359   3.709
  561SOL     OW 2581   0.566   4.090   6.856
  561SOL    HW1 2582   0.534   4.181   6.883
  561SOL    HW2 2583   0.665   4.090   6.850
  562SOL     OW 2584   4.486   6.423   3.575
  562SOL    HW1 2585   4.488   6.372   3.660
  562SOL    HW2 2586   4.575   6.466   3.559
  563SOL     OW 2587   1.167   1.260   3.840
  563SOL    HW1 2588   1.200   1.175   3.798
  563SOL    HW2 2589   1.191   1.260   3.937
  564SOL     OW 2590   5.735   1.755   5.651
  564SOL    HW1 2591   5.739   1.814   5.731
  564SOL    HW2 2592   5.661   1.688   5.662
  565SOL     OW 2593   2.960   3.242   3.734
  565SOL    HW1 2594   3.004   3.198   3.655
  565SOL    HW2 2595   2.899   3.314   3.702
  566SOL     OW 2596   2.097   2.171   3.672
  566SOL    HW1 2597   2.129   2.159   3.578
  566SOL    HW2 2598   2.088   2.081   3.715
  567SOL     OW 2599   2.000   3.309   5.394
  567SOL    HW1 2600   1.938   3.232   5.381
  567SOL    HW2 2601   2.082   3.278   5.442
  568SOL     OW 2602   1.117   6.878   0.017
  568SOL    HW1 2603   1.184   6.930   0.070
  568SOL    HW2 2604   1.083   6.803   0.073
  569SOL     OW 2605   5.160   3.664   5.924
  569SOL    HW1 2606   5.107   3.745   5.900
  569SOL    HW2 2607   5.249   3.691   5.959
  570SOL     OW 2608   3.900   0.707   6.165
  570SOL    HW1 2609   3.872   0.675   6.075
  570SOL    HW2 2610   3.830   0.685   6.233
  571SOL     OW 2611   2.518   4.236   1.798
  571SOL    HW1 2612   2.589   4.198   1.739
  571SOL    HW2 2613   2.538   4.333   1.816
  572SOL     OW 2614   3.097   1.018   4.567
  572SOL    HW1 2615   3.003   0.987   4.585
  572SOL    HW2 2616   3.128   1.076   4.643
  573SOL     OW 2617   0.399   0.794   5.492
  573SOL    HW1 2618   0.399   0.695   5.509
  573SOL    HW2 2619   0.460   0.839   5.558
  574SOL     OW 2620   2.055   1.130   6.345
  574SOL    HW1 2621   2.039   1.129   6.246
  574SOL    HW2 2622   2.096   1.044   6.373
  575SOL     OW 2623   3.830   3.783   0.432
  575SOL    HW1 2624   3.750   3.725   0.450
  575SOL    HW2 2625   3.910   3.745   0.479
  576SOL     OW 2626   0.875   0.880   2.880
  576SOL    HW1 2627   0.876   0.939   2.799
  576SOL    HW2 2628   0.863   0.937   2.961
  577SOL     OW 2629   0.174   0.416   2.063
  577SOL    HW1 2630   0.214   0.502   2.092
  577SOL    HW2 2631   0.203   0.343   2.125
  578SOL     OW 2632   4.065   6.725   0.031
  578SOL    HW1 2633   4.052   6.819   0.001
  578SOL    HW2 2634   4.006   6.665   7.000
  579SOL     OW 2635   1.154   4.147   1.940
  579SOL    HW1 2636   1.120   4.238   1.915
  579SOL    HW2 2637   1.234   4.125   1.884
  580SOL     OW 2638   4.853   5.096   4.471
  580SOL    HW1 2639   4.905   5.145   4.541
  580SOL    HW2 2640   4.896   5.007   4.455
  581SOL     OW 2641   1.958   2.440   4.500
  581SOL    HW1 2642   1.974   2.353   4.452
  581SOL    HW2 2643   1.970   2.516   4.437
  582SOL     OW 2644   5.565   4.417   5.438
  582SOL    HW1 2645   5.501   4.493   5.425
  582SOL    HW2 2646   5.543   4.369   5.523
  583SOL     OW 2647   3.160   6.280   5.672
  583SOL    HW1 2648   3.143   6.285   5.573
  583SOL    HW2 2649   3.235   6.217   5.691
  584SOL     OW 2650   4.090   0.633   5.048
  584SOL    HW1 2651   4.116   0.561   4.984
  584SOL    HW2 2652   4.173   0.677   5.084
  585SOL     OW 2653   3.467   6.816   1.583
  585SOL    HW1 2654   3.506   6.742   1.638
  585SOL    HW2 2655   3.399   6.780   1.520
  586SOL     OW 2656   3.475   6.979   0.549
  586SOL    HW1 2657   3.508   0.050   0.533
  586SOL    HW2 2658   3.439   6.971   0.642
  587SOL     OW 2659   5.043   1.333   2.368
  587SOL    HW1 2660   5.062   1.342   2.466
  587SOL    HW2 2661   5.068   1.419   2.322
  588SOL     OW 2662   2.137   4.392   2.882
  588SOL    HW1 2663   2.101   4.479   2.846
  588SOL    HW2 2664   2.203   4.354   2.817
  589SOL     OW 2665   3.343   5.003   0.636
  589SOL    HW1 2666   3.414   4.940   0.604
  589SOL    HW2 2667   3.385   5.077   0.688
  590SOL     OW 2668   2.956   2.243   6.375
  590SOL    HW1 2669   3.055   2.237   6.379
  590SOL    HW2 2670   2.929   2.340   6.378
  591SOL     OW 2671   2.770   6.875   3.644
  591SOL    HW1 2672   2.807   6.937   3.575
  591SOL    HW2 2673   2.813   6.893   3.732
  592SOL     OW 2674   4.837   2.483   5.054
  592SOL    HW1 2675   4.846   2.529   5.142
  592SOL    HW2 2676   4.878   2.540   4.983
  593SOL     OW 2677   1.858   1.289   6.589
  593SOL    HW1 2678   1.920   1.315   6.662
  593SOL    HW2 2679   1.911   1.263   6.508
  594SOL     OW 2680   3.615   1.062   4.066
  594SOL    HW1 2681   3.710   1.051   4.037
  594SOL    HW2 2682   3.612   1.078   4.165
  595SOL     OW 2683   5.997   3.990   2.253
  595SOL    HW1 2684   6.000   3.934   2.336
  595SOL    HW2 2685   6.069   4.059   2.256
  596SOL     OW 2686   5.773   4.744   4.534
  596SOL    HW1 2687   5.826   4.690   4.468
  596SOL    HW2 2688   5.830   4.764   4.614
  597SOL     OW 2689   3.022   1.903   6.906
  597SOL    HW1 2690   3.073   1.826   6.868
  597SOL    HW2 2691   3.053   1.988   6.864
  598SOL     OW 2692   3.221   3.315   3.293
  598SOL    HW1 2693   3.247   3.304   3.389
  598SOL    HW2 2694   3.146   3.381   3.286
  599SOL     OW 2695   1.728   4.797   1.522
  599SOL    HW1 2696   1.685   4.885   1.543
  599SOL    HW2 2697   1.709   4.774   1.426
  600SOL     OW 2698   0.208   3.685   5.025
  600SOL    HW1 2699   0.304   3.668   5.005
  600SOL    HW2 2700   0.198   3.720   5.118
  601SOL     OW 2701   0.356   6.701   6.013
  601SOL    HW1 2702   0.327   6.618   5.965
  601SOL    HW2 2703   0.278   6.736   6.066
  602SOL     OW 2704   1.479   1.086   3.332
  602SOL    HW1 2705   1.539   1.019   3.374
  602SOL    HW2 2706   1.529   1.138   3.263
  603SOL     OW 2707   1.742   2.091   3.914
  603SOL    HW1 2708   1.732   2.101   4.013
  603SOL    HW2 2709   1.728   1.995   3.889
  604SOL     OW 2710   5.578   2.706   0.990
  604SOL    HW1 2711   5.658   2.674   1.040
  604SOL    HW2 2712   5.518   2.757   1.051
  605SOL     OW 2713   5.996   6.332   1.256
  605SOL    HW1 2714   6.025   6.392   1.330
  605SOL    HW2 2715   5.964   6.387   1.179
  606SOL     OW 2716   3.196   6.390   4.683
  606SOL    HW1 2717   3.272   6.353   4.629
  606SOL    HW2 2718   3.114   6.336   4.666
  607SOL     OW 2719   1.567   2.529   6.006
  607SOL    HW1 2720   1.602   2.488   5.922
  607SOL    HW2 2721   1.485   2.582   5.985
  608SOL     OW 2722   3.234   1.378   6.845
  608SOL    HW1 2723   3.177   1.429   6.910
  608SOL    HW2 2724   3.302   1.326   6.895
  609SOL     OW 2725   3.821   3.108   2.318
  609SOL    HW1 2726   3.795   3.106   2.414
  609SOL    HW2 2727   3.763   3.045   2.266
  610SOL     OW 2728   4.823   3.621   1.875
  610SOL    HW1 2729   4.800   3.569   1.792
  610SOL    HW2 2730   4.872   3.704   1.849
  611SOL     OW 2731   4.173   0.928   2.624
  611SOL    HW1 2732   4.091   0.902   2.572
  611SOL    HW2 2733   4.205   0.849   2.677
  612SOL     OW 2734   4.866   4.632   4.286
  612SOL    HW1 2735   4.963   4.653   4.289
  612SOL    HW2 2736   4.824   4.655   4.373
  613SOL     OW 2737   3.961   4.984   6.440
  613SOL    HW1 2738   3.927   5.069   6.400
  613SOL    HW2 2739   4.019   4.937   6.373
  614SOL     OW 2740   3.010   6.680   6.593
  614SOL    HW1 2741   3.058   6.653   6.677
  614SOL    HW2 2742   3.076   6.711   6.525
  615SOL     OW 2743   0.060   5.034   2.946
  615SOL    HW1 2744   7.013   4.983   2.996
  615SOL    HW2 2745   0.031   5.130   2.937
  616SOL     OW 2746   6.398   3.433   4.024
  616SOL    HW1 2747   6.358   3.377   3.952
  616SOL    HW2 2748   6.351   3.413   4.111
  617SOL     OW 2749   2.641   0.252   5.835
  617SOL    HW1 2750   2.605   0.248   5.928
  617SOL    HW2 2751   2.649   0.159   5.798
  618SOL     OW 2752   1.731   0.754   3.731
  618SOL    HW1 2753   1.772   0.682   3.787
  618SOL    HW2 2754   1.785   0.838   3.740
  619SOL     OW 2755   1.206   1.859   6.830
  619SOL    HW1 2756   1.135   1.793   6.857
  619SOL    HW2 2757   1.208   1.934   6.896
  620SOL     OW 2758   4.816   3.608   0.624
  620SOL    HW1 2759   4.785   3.693   0.582
  620SOL    HW2 2760   4.908   3.587   0.593
  621SOL     OW 2761   6.976   5.714   0.811
  621SOL    HW1 2762   6.924   5.647   0.756
  621SOL    HW2 2763   0.004   5.666   0.882
  622SOL     OW 2764   0.341   0.923   0.158
  622SOL    HW1 2765   0.358   0.986   0.083
  622SOL    HW2 2766   0.424   0.912   0.212
  623SOL     OW 2767   0.499   4.453   4.884
  623SOL    HW1 2768   0.570   4.519   4.859
  623SOL    HW2 2769   0.450   4.424   4.801
  624SOL     OW 2770   0.505   1.525   1.487
  624SOL    HW1 2771   0.521   1.617   1.521
  624SOL    HW2 2772   0.582   1.467   1.510
  625SOL     OW 2773   1.585   1.407   2.860
  625SOL    HW1 2774   1.653   1.453   2.803
  625SOL    HW2 2775   1.602   1.309   2.860
  626SOL     OW 2776   2.594   5.821   4.844
  626SOL    HW1 2777   2.670   5.794   4.904
  626SOL    HW2 2778   2.547   5.739   4.811
  627SOL     OW 2779   5.376   6.367   6.842
  627SOL    HW1 2780   5.356   6.323   6.929
  627SOL    HW2 2781   5.371   6.467   6.853
  628SOL     OW 2782   5.586   3.695   2.850
  628SOL    HW1 2783   5.524   3.739   2.785
  628SOL    HW2 2784   5.567   3.597   2.852
  629SOL     OW 2785   1.439   0.347   0.930
  629SOL    HW1 2786   1.404   0.292   0.855
  629SOL    HW2 2787   1.453   0.441   0.899
  630SOL     OW 2788   2.688   1.271   1.284
  630SOL    HW1 2789   2.775   1.223   1.273
  630SOL    HW2 2790   2.705   1.361   1.323
  631SOL     OW 2791   2.551   0.755   4.646
  631SOL    HW1 2792   2.612   0.692   4.597
  631SOL    HW2 2793   2.467   0.707   4.672
  632SOL     OW 2794   2.953   0.414   0.911
  632SOL    HW1 2795   2.909   0.334   0.872
  632SOL    HW2 2796   2.891   0.493   0.906
  633SOL     OW 2797   2.149   0.250   5.229
  633SOL    HW1 2798   2.170   0.221   5.322
  633SOL    HW2 2799   2.095   0.178   5.184
  634SOL     OW 2800   2.555   5.747   1.827
  634SOL    HW1 2801   2.592   5.812   1.894
  634SOL    HW2 2802   2.630   5.706   1.776
  635SOL     OW 2803   2.876   0.109   2.891
  635SOL    HW1 2804   2.907   0.118   2.986
  635SOL    HW2 2805   2.809   0.180   2.871
  636SOL     OW 2806   4.551   5.492   6.576
  636SOL    HW1 2807   4.611   5.558   6.529
  636SOL    HW2 2808   4.564   5.500   6.674
  637SOL     OW 2809   5.873   4.766   6.627
  637SOL    HW1 2810   5.922   4.779   6.540
  637SOL    HW2 2811   5.923   4.810   6.701
  638SOL     OW 2812   5.162   1.431   3.283
  638SOL    HW1 2813   5.242   1.372   3.278
  638SOL    HW2 2814   5.173   1.509   3.221
  639SOL     OW 2815   4.687   3.749   1.423
  639SOL    HW1 2816   4.667   3.684   1.497
  639SOL    HW2 2817   4.760   3.712   1.365
  640SOL     OW 2818   2.481   3.239   5.326
  640SOL    HW1 2819   2.526   3.318   5.286
  640SOL    HW2 2820   2.511   3.156   5.279
  641SOL     OW 2821   0.128   5.620   5.118
  641SOL    HW1 2822   0.095   5.607   5.024
  641SOL    HW2 2823   0.106   5.540   5.173
  642SOL     OW 2824   1.761   4.503   6.104
  642SOL    HW1 2825   1.728   4.530   6.013
  642SOL    HW2 2826   1.690   4.521   6.172
  643SOL     OW 2827   6.219   6.139   4.924
  643SOL    HW1 2828   6.239   6.073   4.851
  643SOL    HW2 2829   6.120   6.146   4.935
  644SOL     OW 2830   2.242   6.273   1.656
  644SOL    HW1 2831   2.308   6.225   1.598
  644SOL    HW2 2832   2.286   6.298   1.742
  645SOL     OW 2833   0.306   2.511   3.011
  645SOL    HW1 2834   0.388   2.566   3.024
  645SOL    HW2 2835   0.239   2.563   2.957
  646SOL     OW 2836   1.187   3.268   4.617
  646SOL    HW1 2837   1.184   3.215   4.532
  646SOL    HW2 2838   1.148   3.358   4.601
  647SOL     OW 2839   5.514   3.599   0.511
  647SOL    HW1 2840   5.508   3.692   0.473
  647SOL    HW2 2841   5.468   3.596   0.599
  648SOL     OW 2842   4.562   2.532   4.467
  648SOL    HW1 2843   4.598   2.442   4.445
  648SOL    HW2 2844   4.479   2.522   4.522
  649SOL     OW 2845   4.437   4.538   1.841
  649SOL    HW1 2846   4.375   4.532   1.762
  649SOL    HW2 2847   4.441   4.449   1.886
  650SOL     OW 2848   5.221   4.503   0.693
  650SOL    HW1 2849   5.256   4.587   0.652
  650SOL    HW2 2850   5.224   4.511   0.793
  651SOL     OW 2851   1.189   5.777   6.441
  651SOL    HW1 2852   1.092   5.765   6.458
  651SOL    HW2 2853   1.242   5.728   6.510
  652SOL     OW 2854   5.012   1.773   2.535
  652SOL    HW1 2855   5.074   1.744   2.462
  652SOL    HW2 2856   5.043   1.737   2.623
  653SOL     OW 2857   3.580   5.094   2.856
  653SOL    HW1 2858   3.577   5.081   2.955
  653SOL    HW2 2859   3.663   5.053   2.819
  654SOL     OW 2860   6.709   5.662   6.593
  654SOL    HW1 2861   6.703   5.666   6.693
  654SOL    HW2 2862   6.619   5.640   6.555
  655SOL     OW 2863   0.804   1.761   0.005
  655SOL    HW1 2864   0.889   1.734   6.983
  655SOL    HW2 2865   0.821   1.836   0.068
  656SOL     OW 2866   2.230   6.359   1.162
  656SOL    HW1 2867   2.186   6.448   1.153
  656SOL    HW2 2868   2.263   6.328   1.073
  657SOL     OW 2869   4.122   0.852   0.210
  657SOL    HW1 2870   4.043   0.795   0.186
  657SOL    HW2 2871   4.110   0.887   0.303
  658SOL     OW 2872   3.767   5.353   6.637
  658SOL    HW1 2873   3.722   5.310   6.715
  658SOL    HW2 2874   3.717   5.435   6.611
  659SOL     OW 2875   4.097   0.777   5.764
  659SOL    HW1 2876   4.151   0.722   5.828
  659SOL    HW2 2877   4.063   0.858   5.812
  660SOL     OW 2878   3.975   6.156   3.052
  660SOL    HW1 2879   3.927   6.209   2.982
  660SOL    HW2 2880   4.036   6.216   3.104
  661SOL     OW 2881   5.536   4.896   2.490
  661SOL    HW1 2882   5.567   4.911   2.584
  661SOL    HW2 2883   5.440   4.923   2.482
  662SOL     OW 2884   4.059   1.668   0.476
  662SOL    HW1 2885   4.107   1.649   0.561
  662SOL    HW2 2886   4.126   1.677   0.402
  663SOL     OW 2887   1.570   4.315   4.782
  663SOL    HW1 2888   1.561   4.341   4.686
  663SOL    HW2 2889   1.654   4.353   4.819
  664SOL     OW 2890   5.973   0.101   6.092
  664SOL    HW1 2891   6.032   0.137   6.164
  664SOL    HW2 2892   5.936   0.177   6.038
  665SOL     OW 2893   1.031   4.375   1.829
  665SOL    HW1 2894   0.972   4.445   1.869
  665SOL    HW2 2895   0.990   4.340   1.745
  666SOL     OW 2896   4.359   1.343   1.847
  666SOL    HW1 2897   4.345   1.244   1.851
  666SOL    HW2 2898   4.283   1.390   1.891
  667SOL     OW 2899   1.031   0.092   2.219
  667SOL    HW1 2900   1.056   0.004   2.259
  667SOL    HW2 2901   1.098   0.161   2.247
  668SOL     OW 2902   5.836   3.188   6.987
  668SOL    HW1 2903   5.774   3.221   0.036
  668SOL    HW2 2904   5.789   3.191   6.899
  669SOL     OW 2905   5.327   1.796   3.346
  669SOL    HW1 2906   5.308   1.733   3.420
  669SOL    HW2 2907   5.422   1.788   3.317
  670SOL     OW 2908   3.605   2.078   2.385
  670SOL    HW1 2909   3.522   2.066   2.439
  670SOL    HW2 2910   3.585   2.060   2.288
  671SOL     OW 2911   1.991   6.322   1.912
  671SOL    HW1 2912   2.076   6.314   1.860
  671SOL    HW2 2913   1.988   6.412   1.957
  672SOL     OW 2914   0.502   0.104   1.858
  672SOL    HW1 2915   0.456   0.151   1.782
  672SOL    HW2 2916   0.592   0.145   1.872
  673SOL     OW 2917   6.098   6.826   6.649
  673SOL    HW1 2918   6.164   6.815   6.724
  673SOL    HW2 2919   6.007   6.842   6.686
  674SOL     OW 2920   4.984   0.218   3.921
  674SOL    HW1 2921   5.084   0.226   3.922
  674SOL    HW2 2922   4.945   0.284   3.985
  675SOL     OW 2923   0.426   3.664   2.566
  675SOL    HW1 2924   0.359   3.738   2.559
  675SOL    HW2 2925   0.504   3.694   2.620
  676SOL     OW 2926   2.640   6.088   6.702
  676SOL    HW1 2927   2.573   6.162   6.690
  676SOL    HW2 2928   2.628   6.021   6.629
  677SOL     OW 2929   5.983   1.609   1.070
  677SOL    HW1 2930   5.895   1.644   1.102
  677SOL    HW2 2931   6.057   1.647   1.125
  678SOL     OW 2932   1.159   5.391   3.688
  678SOL    HW1 2933   1.093   5.343   3.746
  678SOL    HW2 2934   1.181   5.480   3.729
  679SOL     OW 2935   4.734   1.992   5.091
  679SOL    HW1 2936   4.812   1.966   5.034
  679SOL    HW2 2937   4.704   1.913   5.145
  680SOL     OW 2938   6.308   6.398   3.693
  680SOL    HW1 2939   6.230   6.337   3.676
  680SOL    HW2 2940   6.301   6.435   3.785
  681SOL     OW 2941   4.691   4.914   2.791
  681SOL    HW1 2942   4.695   4.956   2.882
  681SOL    HW2 2943   4.771   4.941   2.738
  682SOL     OW 2944   6.875   1.700   3.164
  682SOL    HW1 2945   6.824   1.678   3.081
  682SOL    HW2 2946   6.971   1.716   3.142
  683SOL     OW 2947   3.269   4.079   0.642
  683SOL    HW1 2948   3.342   4.065   0.708
  683SOL    HW2 2949   3.188   4.027   0.670
  684SOL     OW 2950   6.363   1.429   5.648
  684SOL    HW1 2951   6.336   1.376   5.728
  684SOL    HW2 2952   6.315   1.395   5.567
  685SOL     OW 2953   2.964   6.851   2.941
  685SOL    HW1 2954   2.919   6.805   3.017
  685SOL    HW2 2955   2.950   6.949   2.948
  686SOL     OW 2956   4.066   0.572   5.448
  686SOL    HW1 2957   4.059   0.599   5.352
  686SOL    HW2 2958   4.100   0.478   5.454
  687SOL     OW 2959   7.012   1.172   4.191
  687SOL    HW1 2960   7.011   1.093   4.128
  687SOL    HW2 2961   6.997   1.256   4.139
  688SOL     OW 2962   5.817   2.063   6.915
  688SOL    HW1 2963   5.878   2.069   6.836
  688SOL    HW2 2964   5.732   2.020   6.888
  689SOL     OW 2965   2.007   5.550   0.369
  689SOL    HW1 2966   2.011   5.604   0.286
  689SOL    HW2 2967   2.079   5.481   0.368
  690SOL     OW 2968   5.524   3.843   3.403
  690SOL    HW1 2969   5.617   3.807   3.406
  690SOL    HW2 2970   5.524   3.931   3.355
  691SOL     OW 2971   5.759   1.292   1.313
  691SOL    HW1 2972   5.687   1.222   1.316
  691SOL    HW2 2973   5.847   1.250   1.334
  692SOL     OW 2974   1.433   1.428   3.835
  692SOL    HW1 2975   1.378   1.442   3.918
  692SOL    HW2 2976   1.511   1.492   3.836
  693SOL     OW 2977   5.825   4.880   3.400
  693SOL    HW1 2978   5.893   4.819   3.361
  693SOL    HW2 2979   5.831   4.878   3.500
  694SOL     OW 2980   4.116   5.585   4.286
  694SOL    HW1 2981   4.110   5.648   4.363
  694SOL    HW2 2982   4.024   5.556   4.259
  695SOL     OW 2983   4.773   6.452   3.787
  695SOL    HW1 2984   4.807   6.363   3.817
  695SOL    HW2 2985   4.783   6.460   3.688
  696SOL     OW 2986   5.630   4.033   2.222
  696SOL    HW1 2987   5.573   4.099   2.173
  696SOL    HW2 2988   5.720   4.027   2.179
  697SOL     OW 2989   0.634   6.850   2.536
  697SOL    HW1 2990   0.620   6.773   2.599
  697SOL    HW2 2991   0.576   6.927   2.565
  698SOL     OW 2992   5.628   6.242   6.068
  698SOL    HW1 2993   5.586   6.187   5.997
  698SOL    HW2 2994   5.655   6.184   6.144
  699SOL     OW 2995   4.473   3.832   0.698
  699SOL    HW1 2996   4.550   3.866   0.751
  699SOL    HW2 2997   4.416   3.774   0.756
  700SOL     OW 2998   3.648   6.624   5.311
  700SOL    HW1 2999   3.563   6.575   5.293
  700SOL    HW2 3000   3.725   6.568   5.281
  701SOL     OW 3001   4.527   4.819   1.517
  701SOL    HW1 3002   4.428   4.826   1.527
  701SOL    HW2 3003   4.558   4.729   1.547
  702SOL     OW 3004   4.330   0.489   4.725
  702SOL    HW1 3005   4.289   0.473   4.814
  702SOL    HW2 3006   4.422   0.527   4.737
  703SOL     OW 3007   3.025   2.918   0.008
  703SOL    HW1 3008   3.095   2.989   0.011
  703SOL    HW2 3009   2.974   2.919   0.094
  704SOL     OW 3010   3.697   1.109   6.135
  704SOL    HW1 3011   3.602   1.136   6.116
  704SOL    HW2 3012   3.757   1.187   6.120
  705SOL     OW 3013   0.011   6.423   5.868
  705SOL    HW1 3014   0.034   6.342   5.922
  705SOL    HW2 3015   0.027   6.402   5.771
  706SOL     OW 3016   3.530   0.852   4.678
  706SOL    HW1 3017   3.622   0.846   4.639
  706SOL    HW2 3018   3.492   0.943   4.661
  707SOL     OW 3019   2.969   5.380   4.252
  707SOL    HW1 3020   2.969   5.281   4.238
  707SOL    HW2 3021   3.006   5.401   4.343
  708SOL     OW 3022   3.752   5.903   3.936
  708SOL    HW1 3023   3.738   5.880   3.840
  708SOL    HW2 3024   3.838   5.954   3.946
  709SOL     OW 3025   2.565   0.380   1.834
  709SOL    HW1 3026   2.607   0.407   1.921
  709SOL    HW2 3027   2.574   0.281   1.822
  710SOL     OW 3028   4.887   3.516   2.475
  710SOL    HW1 3029   4.862   3.586   2.542
  710SOL    HW2 3030   4.895   3.558   2.385
  711SOL     OW 3031   0.815   1.782   0.395
  711SOL    HW1 3032   0.829   1.856   0.330
  711SOL    HW2 3033   0.744   1.808   0.461
  712SOL     OW 3034   5.377   3.999   6.870
  712SOL    HW1 3035   5.333   3.972   6.955
  712SOL    HW2 3036   5.308   4.009   6.798
  713SOL     OW 3037   3.959   3.343   5.993
  713SOL    HW1 3038   4.057   3.348   6.014
  713SOL    HW2 3039   3.947   3.306   5.901
  714SOL     OW 3040   5.243   6.330   3.108
  714SOL    HW1 3041   5.261   6.247   3.161
  714SOL    HW2 3042   5.145   6.349   3.107
  715SOL     OW 3043   6.131   5.163   5.160
  715SOL    HW1 3044   6.076   5.080   5.148
  715SOL    HW2 3045   6.158   5.170   5.256
  716SOL     OW 3046   3.111   2.157   3.595
  716SOL    HW1 3047   3.031   2.203   3.557
  716SOL    HW2 3048   3.188   2.167   3.532
  717SOL     OW 3049   5.183   5.073   3.758
  717SOL    HW1 3050   5.214   5.022   3.678
  717SOL    HW2 3051   5.091   5.109   3.741
  718SOL     OW 3052   6.057   2.271   5.150
  718SOL    HW1 3053   6.007   2.256   5.065
  718SOL    HW2 3054   6.136   2.210   5.154
  719SOL     OW 3055   4.798   6.143   3.288
  719SOL    HW1 3056   4.796   6.070   3.220
  719SOL    HW2 3057   4.721   6.131   3.351
  720SOL     OW 3058   3.117   1.441   1.792
  720SOL    HW1 3059   3.076   1.364   1.842
  720SOL    HW2 3060   3.046   1.488   1.739
  721SOL     OW 3061   6.809   3.176   1.807
  721SOL    HW1 3062   6.712   3.155   1.807
  721SOL    HW2 3063   6.829   3.244   1.737
  722SOL     OW 3064   4.837   6.313   1.262
  722SOL    HW1 3065   4.936   6.306   1.275
  722SOL    HW2 3066   4.817   6.368   1.180
  723SOL     OW 3067   2.270   0.770   4.502
  723SOL    HW1 3068   2.194   0.788   4.439
  723SOL    HW2 3069   2.313   0.857   4.527
  724SOL     OW 3070   1.089   2.242   4.488
  724SOL    HW1 3071   1.053   2.183   4.415
  724SOL    HW2 3072   1.077   2.197   4.576
  725SOL     OW 3073   1.827   4.577   2.832
  725SOL    HW1 3074   1.831   4.513   2.909
  725SOL    HW2 3075   1.920   4.596   2.800
  726SOL     OW 3076   2.153   3.856   0.654
  726SOL    HW1 3077   2.200   3.885   0.571
  726SOL    HW2 3078   2.099   3.774   0.635
  727SOL     OW 3079   3.479   5.557   4.848
  727SOL    HW1 3080   3.473   5.623   4.923
  727SOL    HW2 3081   3.425   5.476   4.871
  728SOL     OW 3082   6.880   3.105   3.760
  728SOL    HW1 3083   6.786   3.137   3.752
  728SOL    HW2 3084   6.897   3.035   3.690
  729SOL     OW 3085   0.908   4.313   0.815
  729SOL    HW1 3086   0.847   4.392   0.820
  729SOL    HW2 3087   0.854   4.229   0.805
  730SOL     OW 3088   4.624   1.348   3.155
  730SOL    HW1 3089   4.689   1.349   3.079
  730SOL    HW2 3090   4.608   1.442   3.186
  731SOL     OW 3091   4.723   4.674   4.548
  731SOL    HW1 3092   4.779   4.740   4.600
  731SOL    HW2 3093   4.636   4.716   4.524
  732SOL     OW 3094   4.017   0.600   4.301
  732SOL    HW1 3095   4.077   0.556   4.234
  732SOL    HW2 3096   4.048   0.578   4.393
  733SOL     OW 3097   6.398   5.118   4.064
  733SOL    HW1 3098   6.446   5.129   3.977
  733SOL    HW2 3099   6.312   5.169   4.061
  734SOL     OW 3100   6.408   6.813   2.871
  734SOL    HW1 3101   6.470   6.860   2.807
  734SOL    HW2 3102   6.316   6.850   2.861
  735SOL     OW 3103   4.002   0.188   2.369
  735SOL    HW1 3104   3.958   0.275   2.391
  735SOL    HW2 3105   4.074   0.169   2.435
  736SOL     OW 3106   1.560   1.988   3.461
  736SOL    HW1 3107   1.534   1.977   3.365
  736SOL    HW2 3108   1.642   2.045   3.466
  737SOL     OW 3109   3.430   1.106   6.058
  737SOL    HW1 3110   3.389   1.119   5.967
  737SOL    HW2 3111   3.386   1.029   6.104
  738SOL     OW 3112   1.625   4.885   0.353
  738SOL    HW1 3113   1.566   4.946   0.406
  738SOL    HW2 3114   1.577   4.855   0.271
  739SOL     OW 3115   1.768   0.134   3.578
  739SOL    HW1 3116   1.781   0.188   3.495
  739SOL    HW2 3117   1.734   0.192   3.651
  740SOL     OW 3118   4.931   3.402   3.438
  740SOL    HW1 3119   4.849   3.458   3.434
  740SOL    HW2 3120   5.008   3.457   3.469
  741SOL     OW 3121   3.093   1.089   2.955
  741SOL    HW1 3122   2.998   1.065   2.977
  741SOL    HW2 3123   3.123   1.164   3.014
  742SOL     OW 3124   1.568   0.050   2.388
  742SOL    HW1 3125   1.571   0.126   2.324
  742SOL    HW2 3126   1.482   7.023   2.377
  743SOL     OW 3127   0.271   6.210   2.998
  743SOL    HW1 3128   0.231   6.178   2.913
  743SOL    HW2 3129   0.201   6.256   3.053
  744SOL     OW 3130   5.252   1.556   0.744
  744SOL    HW1 3131   5.304   1.580   0.826
  744SOL    HW2 3132   5.157   1.585   0.756
  745SOL     OW 3133   2.130   6.491   5.077
  745SOL    HW1 3134   2.092   6.572   5.032
  745SOL    HW2 3135   2.215   6.515   5.123
  746SOL     OW 3136   0.013   4.890   4.500
  746SOL    HW1 3137   6.984   4.874   4.584
  746SOL    HW2 3138   6.973   4.892   4.422
  747SOL     OW 3139   4.589   5.318   2.737
  747SOL    HW1 3140   4.587   5.418   2.735
  747SOL    HW2 3141   4.584   5.286   2.832
  748SOL     OW 3142   5.563   4.692   1.145
  748SOL    HW1 3143   5.584   4.643   1.229
  748SOL    HW2 3144   5.515   4.631   1.082
  749SOL     OW 3145   5.126   4.845   5.315
  749SOL    HW1 3146   5.095   4.902   5.239
  749SOL    HW2 3147   5.219   4.814   5.298
  750SOL     OW 3148   2.289   1.994   3.202
  750SOL    HW1 3149   2.212   2.021   3.144
  750SOL    HW2 3150   2.370   2.046   3.176
  751SOL     OW 3151   3.439   1.069   0.597
  751SOL    HW1 3152   3.403   0.997   0.538
  751SOL    HW2 3153   3.535   1.084   0.576
  752SOL     OW 3154   3.226   2.892   4.926
  752SOL    HW1 3155   3.186   2.863   4.839
  752SOL    HW2 3156   3.326   2.895   4.918
  753SOL     OW 3157   3.795   4.012   3.798
  753SOL    HW1 3158   3.858   3.978   3.728
  753SOL    HW2 3159   3.735   4.080   3.758
  754SOL     OW 3160   4.940   0.380   6.761
  754SOL    HW1 3161   4.895   0.307   6.710
  754SOL    HW2 3162   4.951   0.460   6.702
  755SOL     OW 3163   4.490   4.720   5.141
  755SOL    HW1 3164   4.452   4.690   5.229
  755SOL    HW2 3165   4.461   4.657   5.069
  756SOL     OW 3166   3.170   5.138   6.348
  756SOL    HW1 3167   3.194   5.103   6.439
  756SOL    HW2 3168   3.112   5.219   6.357
  757SOL     OW 3169   1.728   0.028   1.774
  757SOL    HW1 3170   1.655   6.983   1.769
  757SOL    HW2 3171   1.739   0.072   1.684
  758SOL     OW 3172   4.548   1.114   4.499
  758SOL    HW1 3173   4.478   1.069   4.554
  758SOL    HW2 3174   4.567   1.205   4.537
  759SOL     OW 3175   0.029   3.508   4.117
  759SOL    HW1 3176   0.017   3.450   4.197
  759SOL    HW2 3177   0.108   3.476   4.065
  760SOL     OW 3178   6.461   5.410   3.727
  760SOL    HW1 3179   6.477   5.503   3.760
  760SOL    HW2 3180   6.385   5.411   3.661
  761SOL     OW 3181   5.104   5.102   6.026
  761SOL    HW1 3182   5.040   5.032   6.057
  761SOL    HW2 3183   5.151   5.070   5.944
  762SOL     OW 3184   3.628   5.542   4.048
  762SOL    HW1 3185   3.639   5.445   4.072
  762SOL    HW2 3186   3.711   5.576   4.005
  763SOL     OW 3187   5.505   0.647   0.763
  763SOL    HW1 3188   5.586   0.704   0.749
  763SOL    HW2 3189   5.431   0.678   0.704
  764SOL     OW 3190   5.212   6.407   5.133
  764SOL    HW1 3191   5.293   6.349   5.128
  764SOL    HW2 3192   5.226   6.479   5.201
  765SOL     OW 3193   5.790   6.233   0.498
  765SOL    HW1 3194   5.854   6.169   0.455
  765SOL    HW2 3195   5.769   6.202   0.590
  766SOL     OW 3196   2.448   1.908   4.030
  766SOL    HW1 3197   2.444   1.862   4.119
  766SOL    HW2 3198   2.428   1.843   3.958
  767SOL     OW 3199   6.721   6.031   4.102
  767SOL    HW1 3200   6.746   6.101   4.035
  767SOL    HW2 3201   6.712   5.942   4.056
  768SOL     OW 3202   2.130   5.218   2.368
  768SOL    HW1 3203   2.054   5.157   2.392
  768SOL    HW2 3204   2.113   5.259   2.279
  769SOL     OW 3205   3.237   1.934   5.250
  769SOL    HW1 3206   3.234   2.016   5.307
  769SOL    HW2 3207   3.247   1.961   5.154
  770SOL     OW 3208   1.189   4.513   5.553
  770SOL    HW1 3209   1.179   4.418   5.584
  770SOL    HW2 3210   1.177   4.575   5.630
  771SOL     OW 3211   1.080   4.735   2.402
  771SOL    HW1 3212   1.083   4.784   2.490
  771SOL    HW2 3213   1.116   4.643   2.415
  772SOL     OW 3214   5.350   4.729   0.499
  772SOL    HW1 3215   5.393   4.758   0.585
  772SOL    HW2 3216   5.411   4.751   0.423
  773SOL     OW 3217   2.360   4.295   3.397
  773SOL    HW1 3218   2.319   4.284   3.307
  773SOL    HW2 3219   2.448   4.341   3.388
  774SOL     OW 3220   2.232   1.756   3.660
  774SOL    HW1 3221   2.270   1.823   3.595
  774SOL    HW2 3222   2.280   1.763   3.747
  775SOL     OW 3223   1.210   4.437   2.478
  775SOL    HW1 3224   1.217   4.343   2.513
  775SOL    HW2 3225   1.285   4.492   2.513
  776SOL     OW 3226   2.840   5.005   6.391
  776SOL    HW1 3227   2.769   4.938   6.411
  776SOL    HW2 3228   2.873   4.992   6.298
  777SOL     OW 3229   1.986   3.693   6.318
  777SOL    HW1 3230   1.939   3.645   6.392
  777SOL    HW2 3231   1.930   3.690   6.235
  778SOL     OW 3232   3.430   5.708   6.395
  778SOL    HW1 3233   3.339   5.703   6.438
  778SOL    HW2 3234   3.443   5.798   6.355
  779SOL     OW 3235   6.063   1.731   3.047
  779SOL    HW1 3236   6.004   1.713   3.126
  779SOL    HW2 3237   6.097   1.645   3.010
  780SOL     OW 3238   6.795   2.167   4.287
  780SOL    HW1 3239   6.798   2.232   4.362
  780SOL    HW2 3240   6.741   2.204   4.212
  781SOL     OW 3241   0.393   4.693   6.445
  781SOL    HW1 3242   0.339   4.619   6.483
  781SOL    HW2 3243   0.420   4.670   6.351
  782SOL     OW 3244   2.489   4.162   5.321
  782SOL    HW1 3245   2.445   4.138   5.407
  782SOL    HW2 3246   2.478   4.086   5.256
  783SOL     OW 3247   6.711   5.176   6.681
  783SOL    HW1 3248   6.771   5.255   6.691
  783SOL    HW2 3249   6.670   5.153   6.769
  784SOL     OW 3250   1.883   5.551   0.621
  784SOL    HW1 3251   1.927   5.545   0.532
  784SOL    HW2 3252   1.944   5.597   0.686
  785SOL     OW 3253   0.336   0.400   4.729
  785SOL    HW1 3254   0.433   0.382   4.750
  785SOL    HW2 3255   0.283   0.397   4.814
  786SOL     OW 3256   5.891   0.617   4.231
  786SOL    HW1 3257   5.792   0.600   4.236
  786SOL    HW2 3258   5.907   0.704   4.185
  787SOL     OW 3259   1.943   6.544   1.619
  787SOL    HW1 3260   1.867   6.556   1.683
  787SOL    HW2 3261   1.981   6.453   1.629
  788SOL     OW 3262   2.189   3.075   2.256
  788SOL    HW1 3263   2.156   3.154   2.205
  788SOL    HW2 3264   2.286   3.060   2.235
  789SOL     OW 3265   3.917   5.218   2.825
  789SOL    HW1 3266   4.009   5.180   2.814
  789SOL    HW2 3267   3.850   5.144   2.818
  790SOL     OW 3268   0.284   3.100   1.992
  790SOL    HW1 3269   0.362   3.151   1.958
  790SOL    HW2 3270   0.225   3.160   2.046
  791SOL     OW 3271   3.070   0.489   3.911
  791SOL    HW1 3272   3.042   0.541   3.992
  791SOL    HW2 3273   3.164   0.456   3.925
  792SOL     OW 3274   2.712   0.568   0.918
  792SOL    HW1 3275   2.637   0.631   0.897
  792SOL    HW2 3276   2.674   0.483   0.955
  793SOL     OW 3277   2.164   6.049   4.769
  793SOL    HW1 3278   2.081   6.070   4.718
  793SOL    HW2 3279   2.178   6.118   4.840
  794SOL     OW 3280   3.065   3.599   2.727
  794SOL    HW1 3281   3.102   3.525   2.783
  794SOL    HW2 3282   3.004   3.656   2.782
  795SOL     OW 3283   4.828   0.543   5.105
  795SOL    HW1 3284   4.904   0.484   5.075
  795SOL    HW2 3285   4.865   0.628   5.142
  796SOL     OW 3286   0.890   1.974   0.198
  796SOL    HW1 3287   0.986   1.965   0.227
  796SOL    HW2 3288   0.864   2.070   0.196
  797SOL     OW 3289   3.409   6.981   1.350
  797SOL    HW1 3290   3.452   6.965   1.260
  797SOL    HW2 3291   3.432   6.905   1.411
  798SOL     OW 3292   5.116   4.162   1.615
  798SOL    HW1 3293   5.044   4.231   1.609
  798SOL    HW2 3294   5.163   4.171   1.703
  799SOL     OW 3295   2.969   2.454   5.890
  799SOL    HW1 3296   3.037   2.500   5.833
  799SOL    HW2 3297   2.913   2.523   5.937
  800SOL     OW 3298   5.732   2.960   3.435
  800SOL    HW1 3299   5.744   3.025   3.361
  800SOL    HW2 3300   5.751   3.004   3.523
  801SOL     OW 3301   1.943   5.796   6.481
  801SOL    HW1 3302   1.970   5.759   6.570
  801SOL    HW2 3303   1.964   5.893   6.477
  802SOL     OW 3304   4.333   2.577   6.247
  802SOL    HW1 3305   4.251   2.520   6.254
  802SOL    HW2 3306   4.414   2.518   6.246
  803SOL     OW 3307   2.265   2.335   3.978
  803SOL    HW1 3308   2.254   2.395   3.898
  803SOL    HW2 3309   2.182   2.281   3.990
  804SOL     OW 3310   4.877   0.386   2.967
  804SOL    HW1 3311   4.804   0.434   3.017
  804SOL    HW2 3312   4.951   0.364   3.030
  805SOL     OW 3313   3.412   1.178   3.925
  805SOL    HW1 3314   3.335   1.156   3.986
  805SOL    HW2 3315   3.498   1.149   3.969
  806SOL     OW 3316   3.321   6.487   5.873
  806SOL    HW1 3317   3.259   6.565   5.861
  806SOL    HW2 3318   3.336   6.442   5.785
  807SOL     OW 3319   0.967   5.921   6.208
  807SOL    HW1 3320   1.062   5.936   6.237
  807SOL    HW2 3321   0.908   5.918   6.288
  808SOL     OW 3322   5.153   2.650   6.145
  808SOL    HW1 3323   5.152   2.636   6.046
  808SOL    HW2 3324   5.246   2.673   6.175
  809SOL     OW 3325   3.065   5.997   6.680
  809SOL    HW1 3326   2.996   5.926   6.670
  809SOL    HW2 3327   3.133   5.987   6.608
  810SOL     OW 3328   3.473   3.913   6.989
  810SOL    HW1 3329   3.481   3.815   7.007
  810SOL    HW2 3330   3.377   3.940   6.991
  811SOL     OW 3331   5.626   5.523   4.193
  811SOL    HW1 3332   5.655   5.481   4.279
  811SOL    HW2 3333   5.532   5.496   4.172
  812SOL     OW 3334   0.878   3.287   1.414
  812SOL    HW1 3335   0.927   3.210   1.453
  812SOL    HW2 3336   0.839   3.261   1.325
  813SOL     OW 3337   2.408   1.733   4.920
  813SOL    HW1 3338   2.403   1.831   4.939
  813SOL    HW2 3339   2.320   1.702   4.883
  814SOL     OW 3340   0.529   4.619   1.829
  814SOL    HW1 3341   0.543   4.713   1.861
  814SOL    HW2 3342   0.435   4.609   1.797
  815SOL     OW 3343   4.999   2.582   4.344
  815SOL    HW1 3344   5.052   2.584   4.259
  815SOL    HW2 3345   4.902   2.578   4.322
  816SOL     OW 3346   5.085   3.933   6.241
  816SOL    HW1 3347   5.184   3.945   6.248
  816SOL    HW2 3348   5.040   3.984   6.315
  817SOL     OW 3349   0.062   5.133   6.390
  817SOL    HW1 3350   7.005   5.088   6.430
  817SOL    HW2 3351   0.142   5.074   6.400
  818SOL     OW 3352   0.149   1.450   4.787
  818SOL    HW1 3353   0.143   1.408   4.878
  818SOL    HW2 3354   0.183   1.543   4.795
  819SOL     OW 3355   5.429   2.815   1.581
  819SOL    HW1 3356   5.470   2.817   1.672
  819SOL    HW2 3357   5.475   2.746   1.525
  820SOL     OW 3358   2.815   1.868   5.039
  820SOL    HW1 3359   2.716   1.859   5.048
  820SOL    HW2 3360   2.855   1.890   5.128
  821SOL     OW 3361   4.704   3.973   6.957
  821SOL    HW1 3362   4.634   3.912   6.919
  821SOL    HW2 3363   4.758   4.012   6.883
  822SOL     OW 3364   0.046   5.199   3.617
  822SOL    HW1 3365   6.975   5.203   3.581
  822SOL    HW2 3366   0.055   5.122   3.679
  823SOL     OW 3367   1.805   2.893   4.639
  823SOL    HW1 3368   1.881   2.842   4.598
  823SOL    HW2 3369   1.795   2.981   4.592
  824SOL     OW 3370   5.301   0.404   6.796
  824SOL    HW1 3371   5.301   0.440   6.890
  824SOL    HW2 3372   5.257   0.470   6.736
  825SOL     OW 3373   6.159   5.556   0.464
  825SOL    HW1 3374   6.241   5.608   0.443
  825SOL    HW2 3375   6.129   5.506   0.382
  826SOL     OW 3376   3.756   1.660   0.304
  826SOL    HW1 3377   3.758   1.711   0.218
  826SOL    HW2 3378   3.731   1.565   0.287
  827SOL     OW 3379   3.261   3.613   4.685
  827SOL    HW1 3380   3.353   3.633   4.717
  827SOL    HW2 3381   3.245   3.514   4.688
  828SOL     OW 3382   0.479   6.416   6.488
  828SOL    HW1 3383   0.455   6.434   6.583
  828SOL    HW2 3384   0.398   6.382   6.440
  829SOL     OW 3385   3.868   3.379   1.898
  829SOL    HW1 3386   3.873   3.372   1.998
  829SOL    HW2 3387   3.788   3.434   1.873
  830SOL     OW 3388   6.604   4.532   5.951
  830SOL    HW1 3389   6.564   4.617   5.915
  830SOL    HW2 3390   6.677   4.555   6.016
  831SOL     OW 3391   5.809   1.305   2.688
  831SOL    HW1 3392   5.905   1.306   2.662
  831SOL    HW2 3393   5.791   1.226   2.747
  832SOL     OW 3394   3.145   1.933   4.377
  832SOL    HW1 3395   3.133   1.908   4.280
  832SOL    HW2 3396   3.129   2.031   4.387
  833SOL     OW 3397   4.105   3.201   6.975
  833SOL    HW1 3398   4.114   3.292   6.933
  833SOL    HW2 3399   4.043   3.145   6.919
  834SOL     OW 3400   5.412   2.977   0.178
  834SOL    HW1 3401   5.393   2.971   0.080
  834SOL    HW2 3402   5.327   2.972   0.229
  835SOL     OW 3403   6.965   0.246   4.726
  835SOL    HW1 3404   6.981   0.242   4.627
  835SOL    HW2 3405   6.867   0.255   4.744
  836SOL     OW 3406   5.356   0.526   4.308
  836SOL    HW1 3407   5.265   0.568   4.307
  836SOL    HW2 3408   5.380   0.499   4.401
  837SOL     OW 3409   1.499   0.463   6.749
  837SOL    HW1 3410   1.557   0.537   6.785
  837SOL    HW2 3411   1.479   0.398   6.822
  838SOL     OW 3412   1.897   6.004   3.213
  838SOL    HW1 3413   1.872   6.098   3.190
  838SOL    HW2 3414   1.923   6.000   3.309
  839SOL     OW 3415   1.197   2.429   0.319
  839SOL    HW1 3416   1.238   2.505   0.371
  839SOL    HW2 3417   1.149   2.368   0.383
  840SOL     OW 3418   4.349   5.076   1.205
  840SOL    HW1 3419   4.434   5.057   1.156
  840SOL    HW2 3420   4.277   5.096   1.139
  841SOL     OW 3421   2.450   5.186   6.873
  841SOL    HW1 3422   2.529   5.247   6.874
  841SOL    HW2 3423   2.367   5.239   6.858
  842SOL     OW 3424   4.451   6.104   0.818
  842SOL    HW1 3425   4.389   6.026   0.830
  842SOL    HW2 3426   4.451   6.159   0.901
  843SOL     OW 3427   1.361   0.709   1.787
  843SOL    HW1 3428   1.280   0.744   1.833
  843SOL    HW2 3429   1.338   0.625   1.737
  844SOL     OW 3430   6.714   0.247   1.601
  844SOL    HW1 3431   6.664   0.178   1.654
  844SOL    HW2 3432   6.797   0.207   1.563
  845SOL     OW 3433   3.911   1.625   2.142
  845SOL    HW1 3434   3.861   1.696   2.191
  845SOL    HW2 3435   3.881   1.535   2.174
  846SOL     OW 3436   2.076   2.168   0.867
  846SOL    HW1 3437   2.051   2.241   0.931
  846SOL    HW2 3438   2.004   2.099   0.865
  847SOL     OW 3439   2.441   3.503   1.420
  847SOL    HW1 3440   2.347   3.519   1.452
  847SOL    HW2 3441   2.503   3.503   1.499
  848SOL     OW 3442   6.536   6.356   0.111
  848SOL    HW1 3443   6.582   6.422   0.052
  848SOL    HW2 3444   6.457   6.398   0.154
  849SOL     OW 3445   6.099   3.154   6.774
  849SOL    HW1 3446   6.142   3.120   6.858
  849SOL    HW2 3447   6.032   3.088   6.742
  850SOL     OW 3448   1.558   0.950   4.346
  850SOL    HW1 3449   1.548   0.941   4.445
  850SOL    HW2 3450   1.516   1.036   4.316
  851SOL     OW 3451   5.007   2.713   6.388
  851SOL    HW1 3452   5.037   2.696   6.294
  851SOL    HW2 3453   5.008   2.812   6.406
  852SOL     OW 3454   6.791   4.788   1.844
  852SOL    HW1 3455   6.712   4.843   1.872
  852SOL    HW2 3456   6.760   4.699   1.811
  853SOL     OW 3457   3.256   3.146   0.630
  853SOL    HW1 3458   3.317   3.113   0.702
  853SOL    HW2 3459   3.168   3.099   0.636
  854SOL     OW 3460   6.645   0.045   5.432
  854SOL    HW1 3461   6.645   0.038   5.332
  854SOL    HW2 3462   6.738   0.032   5.467
  855SOL     OW 3463   5.010   1.877   0.427
  855SOL    HW1 3464   5.042   1.971   0.426
  855SOL    HW2 3465   4.964   1.858   0.514
  856SOL     OW 3466   2.093   5.302   2.101
  856SOL    HW1 3467   2.089   5.264   2.009
  856SOL    HW2 3468   2.142   5.390   2.098
  857SOL     OW 3469   6.847   5.236   4.991
  857SOL    HW1 3470   6.807   5.309   5.046
  857SOL    HW2 3471   6.787   5.215   4.914
  858SOL     OW 3472   4.354   4.058   0.253
  858SOL    HW1 3473   4.324   3.971   0.214
  858SOL    HW2 3474   4.359   4.050   0.352
  859SOL     OW 3475   5.166   5.526   5.297
  859SOL    HW1 3476   5.068   5.513   5.309
  859SOL    HW2 3477   5.206   5.558   5.383
  860SOL     OW 3478   4.442   3.378   6.008
  860SOL    HW1 3479   4.381   3.331   6.071
  860SOL    HW2 3480   4.459   3.320   5.929
  861SOL     OW 3481   1.512   5.649   2.685
  861SOL    HW1 3482   1.512   5.552   2.707
  861SOL    HW2 3483   1.477   5.702   2.763
  862SOL     OW 3484   0.740   4.251   3.834
  862SOL    HW1 3485   0.785   4.164   3.856
  862SOL    HW2 3486   0.753   4.271   3.737
  863SOL     OW 3487   6.288   0.538   1.528
  863SOL    HW1 3488   6.212   0.527   1.592
  863SOL    HW2 3489   6.286   0.631   1.491
  864SOL     OW 3490   6.035   5.709   2.714
  864SOL    HW1 3491   5.974   5.788   2.724
  864SOL    HW2 3492   6.091   5.700   2.796
  865SOL     OW 3493   1.608   5.544   4.990
  865SOL    HW1 3494   1.640   5.468   5.046
  865SOL    HW2 3495   1.533   5.591   5.037
  866SOL     OW 3496   3.448   0.611   1.824
  866SOL    HW1 3497   3.415   0.526   1.866
  866SOL    HW2 3498   3.440   0.686   1.891
  867SOL     OW 3499   5.998   3.093   5.753
  867SOL    HW1 3500   6.013   3.186   5.787
  867SOL    HW2 3501   5.902   3.068   5.763
  868SOL     OW 3502   0.707   2.029   1.717
  868SOL    HW1 3503   0.723   2.068   1.808
  868SOL    HW2 3504   0.784   1.971   1.691
  869SOL     OW 3505   6.873   3.651   2.893
  869SOL    HW1 3506   6.916   3.588   2.828
  869SOL    HW2 3507   6.795   3.606   2.936
  870SOL     OW 3508   3.428   5.352   2.112
  870SOL    HW1 3509   3.510   5.316   2.156
  870SOL    HW2 3510   3.359   5.279   2.104
  871SOL     OW 3511   4.983   1.920   4.092
  871SOL    HW1 3512   4.990   2.007   4.140
  871SOL    HW2 3513   4.968   1.936   3.995
  872SOL     OW 3514   1.316   2.027   4.967
  872SOL    HW1 3515   1.304   1.928   4.969
  872SOL    HW2 3516   1.327   2.058   4.873
  873SOL     OW 3517   4.464   0.251   6.310
  873SOL    HW1 3518   4.544   0.298   6.348
  873SOL    HW2 3519   4.491   0.160   6.279
  874SOL     OW 3520   5.789   3.630   1.663
  874SOL    HW1 3521   5.858   3.699   1.644
  874SOL    HW2 3522   5.816   3.577   1.743
  875SOL     OW 3523   5.104   5.744   1.639
  875SOL    HW1 3524   5.103   5.824   1.698
  875SOL    HW2 3525   5.198   5.716   1.620
  876SOL     OW 3526   5.550   0.362   6.856
  876SOL    HW1 3527   5.585   0.419   6.781
  876SOL    HW2 3528   5.452   0.348   6.845
  877SOL     OW 3529   1.298   3.675   6.845
  877SOL    HW1 3530   1.252   3.764   6.842
  877SOL    HW2 3531   1.231   3.604   6.866
  878SOL     OW 3532   4.045   6.375   4.386
  878SOL    HW1 3533   4.022   6.315   4.462
  878SOL    HW2 3534   4.023   6.470   4.410
  879SOL     OW 3535   5.790   6.561   6.748
  879SOL    HW1 3536   5.746   6.553   6.837
  879SOL    HW2 3537   5.820   6.471   6.717
  880SOL     OW 3538   2.915   3.743   2.925
  880SOL    HW1 3539   2.919   3.810   2.851
  880SOL    HW2 3540   2.919   3.791   3.013
  881SOL     OW 3541   4.636   1.905   0.884
  881SOL    HW1 3542   4.576   1.826   0.894
  881SOL    HW2 3543   4.582   1.989   0.883
  882SOL     OW 3544   1.795   2.918   3.084
  882SOL    HW1 3545   1.765   2.975   3.160
  882SOL    HW2 3546   1.802   2.823   3.115
  883SOL     OW 3547   2.617   0.096   3.128
  883SOL    HW1 3548   2.647   0.005   3.101
  883SOL    HW2 3549   2.656   0.119   3.217
  884SOL     OW 3550   3.062   3.407   5.652
  884SOL    HW1 3551   3.154   3.437   5.625
  884SOL    HW2 3552   3.008   3.385   5.570
  885SOL     OW 3553   4.386   2.759   6.041
  885SOL    HW1 3554   4.366   2.713   5.954
  885SOL    HW2 3555   4.368   2.696   6.117
  886SOL     OW 3556   3.625   1.786   6.843
  886SOL    HW1 3557   3.716   1.813   6.877
  886SOL    HW2 3558   3.628   1.777   6.743
  887SOL     OW 3559   5.243   1.261   5.184
  887SOL    HW1 3560   5.200   1.215   5.106
  887SOL    HW2 3561   5.339   1.281   5.162
  888SOL     OW 3562   6.819   6.268   1.916
  888SOL    HW1 3563   6.832   6.171   1.895
  888SOL    HW2 3564   6.906   6.316   1.909
  889SOL     OW 3565   0.537   3.532   7.015
  889SOL    HW1 3566   0.439   3.521   0.007
  889SOL    HW2 3567   0.563   3.487   6.930
  890SOL     OW 3568   2.546   6.468   4.394
  890SOL    HW1 3569   2.488   6.506   4.323
  890SOL    HW2 3570   2.589   6.384   4.361
  891SOL     OW 3571   5.065   4.961   1.827
  891SOL    HW1 3572   4.986   5.018   1.850
  891SOL    HW2 3573   5.040   4.901   1.751
  892SOL     OW 3574   2.402   4.661   0.576
  892SOL    HW1 3575   2.342   4.602   0.630
  892SOL    HW2 3576   2.470   4.604   0.529
  893SOL     OW 3577   1.154   5.503   2.491
  893SOL    HW1 3578   1.085   5.553   2.544
  893SOL    HW2 3579   1.195   5.564   2.423
  894SOL     OW 3580   1.282   4.167   0.781
  894SOL    HW1 3581   1.360   4.116   0.747
  894SOL    HW2 3582   1.213   4.104   0.817
  895SOL     OW 3583   0.124   5.660   4.574
  895SOL    HW1 3584   0.178   5.643   4.492
  895SOL    HW2 3585   0.079   5.575   4.603
  896SOL     OW 3586   0.751   0.672   6.601
  896SOL    HW1 3587   0.837   0.721   6.588
  896SOL    HW2 3588   0.759   0.580   6.564
  897SOL     OW 3589   4.597   1.069   0.644
  897SOL    HW1 3590   4.653   1.047   0.564
  897SOL    HW2 3591   4.514   1.115   0.615
  898SOL     OW 3592   4.301   0.519   3.006
  898SOL    HW1 3593   4.328   0.479   2.919
  898SOL    HW2 3594   4.266   0.447   3.067
  899SOL     OW 3595   6.762   5.943   0.173
  899SOL    HW1 3596   6.696   5.912   0.242
  899SOL    HW2 3597   6.848   5.968   0.217
  900SOL     OW 3598   5.247   5.373   0.961
  900SOL    HW1 3599   5.209   5.285   0.989
  900SOL    HW2 3600   5.259   5.431   1.042
  901SOL     OW 3601   1.317   0.360   2.902
  901SOL    HW1 3602   1.362   0.360   2.991
  901SOL    HW2 3603   1.219   0.345   2.914
  902SOL     OW 3604   6.444   2.636   1.526
  902SOL    HW1 3605   6.476   2.707   1.462
  902SOL    HW2 3606   6.523   2.586   1.563
  903SOL     OW 3607   0.137   1.342   0.957
  903SOL    HW1 3608   0.154   1.347   0.858
  903SOL    HW2 3609   0.065   1.276   0.976
  904SOL     OW 3610   2.579   0.986   2.658
  904SOL    HW1 3611   2.647   0.989   2.585
  904SOL    HW2 3612   2.612   0.925   2.731
  905SOL     OW 3613   5.946   2.119   6.419
  905SOL    HW1 3614   5.847   2.101   6.426
  905SOL    HW2 3615   5.975   2.174   6.496
  906SOL     OW 3616   5.258   2.443   6.786
  906SOL    HW1 3617   5.272   2.525   6.732
  906SOL    HW2 3618   5.160   2.423   6.792
  907SOL     OW 3619   5.177   4.593   6.785
  907SOL    HW1 3620   5.154   4.618   6.690
  907SOL    HW2 3621   5.104   4.537   6.823
  908SOL     OW 3622   1.023   4.458   2.810
  908SOL    HW1 3623   1.047   4.366   2.777
  908SOL    HW2 3624   1.090   4.487   2.878
  909SOL     OW 3625   5.262   5.575   6.206
  909SOL    HW1 3626   5.234   5.652   6.263
  909SOL    HW2 3627   5.346   5.536   6.244
  910SOL     OW 3628   2.904   4.681   0.717
  910SOL    HW1 3629   2.932   4.682   0.621
  910SOL    HW2 3630   2.937   4.597   0.761
  911SOL     OW 3631   1.168   4.521   6.093
  911SOL    HW1 3632   1.199   4.436   6.135
  911SOL    HW2 3633   1.245   4.584   6.084
  912SOL     OW 3634   5.205   1.887   4.683
  912SOL    HW1 3635   5.123   1.887   4.626
  912SOL    HW2 3636   5.244   1.979   4.684
  913SOL     OW 3637   5.479   6.450   3.017
  913SOL    HW1 3638   5.494   6.400   2.932
  913SOL    HW2 3639   5.397   6.416   3.063
  914SOL     OW 3640   3.446   6.643   6.735
  914SOL    HW1 3641   3.375   6.585   6.696
  914SOL    HW2 3642   3.416   6.678   6.824
  915SOL     OW 3643   4.867   5.706   1.437
  915SOL    HW1 3644   4.943   5.705   1.501
  915SOL    HW2 3645   4.886   5.644   1.361
  916SOL     OW 3646   1.681   3.316   2.481
  916SOL    HW1 3647   1.619   3.305   2.559
  916SOL    HW2 3648   1.776   3.305   2.512
  917SOL     OW 3649   0.183   6.780   0.359
  917SOL    HW1 3650   0.105   6.787   0.296
  917SOL    HW2 3651   0.153   6.738   0.444
  918SOL     OW 3652   3.131   6.258   0.062
  918SOL    HW1 3653   3.218   6.234   0.019
  918SOL    HW2 3654   3.141   6.254   0.161
  919SOL     OW 3655   5.026   1.326   5.851
  919SOL    HW1 3656   5.080   1.282   5.922
  919SOL    HW2 3657   4.941   1.362   5.890
  920SOL     OW 3658   2.879   4.972   2.017
  920SOL    HW1 3659   2.828   4.996   1.935
  920SOL    HW2 3660   2.950   4.905   1.994
  921SOL     OW 3661   4.958   5.415   5.068
  921SOL    HW1 3662   4.889   5.470   5.020
  921SOL    HW2 3663   5.044   5.416   5.015
  922SOL     OW 3664   3.222   2.999   4.045
  922SOL    HW1 3665   3.141   3.051   4.018
  922SOL    HW2 3666   3.247   3.022   4.139
  923SOL     OW 3667   2.341   3.538   5.762
  923SOL    HW1 3668   2.395   3.564   5.842
  923SOL    HW2 3669   2.282   3.460   5.785
  924SOL     OW 3670   0.037   3.237   1.497
  924SOL    HW1 3671   7.008   3.292   1.562
  924SOL    HW2 3672   0.133   3.232   1.526
  925SOL     OW 3673   1.059   1.806   0.542
  925SOL    HW1 3674   1.111   1.889   0.559
  925SOL    HW2 3675   0.996   1.822   0.465
  926SOL     OW 3676   1.963   1.763   1.725
  926SOL    HW1 3677   1.970   1.680   1.781
  926SOL    HW2 3678   1.898   1.748   1.651
  927SOL     OW 3679   6.820   3.881   4.348
  927SOL    HW1 3680   6.858   3.853   4.261
  927SOL    HW2 3681   6.758   3.810   4.383
  928SOL     OW 3682   3.347   4.435   5.822
  928SOL    HW1 3683   3.368   4.532   5.835
  928SOL    HW2 3684   3.417   4.379   5.867
  929SOL     OW 3685   0.372   1.588   4.060
  929SOL    HW1 3686   0.333   1.629   3.978
  929SOL    HW2 3687   0.330   1.628   4.141
  930SOL     OW 3688   5.308   5.437   5.058
  930SOL    HW1 3689   5.369   5.364   5.089
  930SOL    HW2 3690   5.261   5.477   5.137
  931SOL     OW 3691   6.050   0.681   3.126
  931SOL    HW1 3692   5.972   0.618   3.119
  931SOL    HW2 3693   6.127   0.634   3.168
  932SOL     OW 3694   3.429   0.837   3.831
  932SOL    HW1 3695   3.412   0.935   3.829
  932SOL    HW2 3696   3.425   0.804   3.925
  933SOL     OW 3697   1.624   5.807   1.936
  933SOL    HW1 3698   1.709   5.819   1.986
  933SOL    HW2 3699   1.586   5.716   1.954
  934SOL     OW 3700   1.639   3.326   0.702
  934SOL    HW1 3701   1.553   3.351   0.658
  934SOL    HW2 3702   1.641   3.365   0.794
  935SOL     OW 3703   5.812   2.646   5.805
  935SOL    HW1 3704   5.824   2.745   5.801
  935SOL    HW2 3705   5.902   2.601   5.805
  936SOL     OW 3706   2.131   0.651   5.889
  936SOL    HW1 3707   2.204   0.672   5.954
  936SOL    HW2 3708   2.120   0.727   5.825
  937SOL     OW 3709   3.414   2.008   6.253
  937SOL    HW1 3710   3.371   1.969   6.172
  937SOL    HW2 3711   3.487   2.071   6.225
  938SOL     OW 3712   5.453   6.041   4.387
  938SOL    HW1 3713   5.380   6.108   4.401
  938SOL    HW2 3714   5.540   6.080   4.417
  939SOL     OW 3715   1.275   0.202   5.709
  939SOL    HW1 3716   1.278   0.302   5.704
  939SOL    HW2 3717   1.358   0.164   5.670
  940SOL     OW 3718   1.731   5.013   0.638
  940SOL    HW1 3719   1.717   5.094   0.580
  940SOL    HW2 3720   1.828   5.006   0.662
  941SOL     OW 3721   3.611   0.186   0.465
  941SOL    HW1 3722   3.695   0.221   0.506
  941SOL    HW2 3723   3.601   0.222   0.373
  942SOL     OW 3724   6.570   4.759   6.950
  942SOL    HW1 3725   6.661   4.795   6.930
  942SOL    HW2 3726   6.575   4.659   6.957
  943SOL     OW 3727   3.748   5.595   1.208
  943SOL    HW1 3728   3.844   5.567   1.202
  943SOL    HW2 3729   3.689   5.514   1.202
  944SOL     OW 3730   6.531   6.109   3.473
  944SOL    HW1 3731   6.482   6.195   3.457
  944SOL    HW2 3732   6.608   6.126   3.534
  945SOL     OW 3733   0.317   5.631   6.326
  945SOL    HW1 3734   0.336   5.539   6.292
  945SOL    HW2 3735   0.264   5.682   6.258
  946SOL     OW 3736   5.964   2.369   4.205
  946SOL    HW1 3737   5.984   2.280   4.164
  946SOL    HW2 3738   5.944   2.357   4.302
  947SOL     OW 3739   3.610   3.878   3.500
  947SOL    HW1 3740   3.618   3.973   3.530
  947SOL    HW2 3741   3.701   3.840   3.485
  948SOL     OW 3742   3.218   1.278   3.548
  948SOL    HW1 3743   3.225   1.285   3.449
  948SOL    HW2 3744   3.309   1.289   3.589
  949SOL     OW 3745   2.980   0.213   5.799
  949SOL    HW1 3746   2.883   0.237   5.797
  949SOL    HW2 3747   3.033   0.289   5.762
  950SOL     OW 3748   0.113   0.372   2.409
  950SOL    HW1 3749   0.061   0.317   2.344
  950SOL    HW2 3750   0.211   0.351   2.401
  951SOL     OW 3751   1.507   0.081   3.293
  951SOL    HW1 3752   1.594   0.130   3.296
  951SOL    HW2 3753   1.432   0.148   3.293
  952SOL     OW 3754   3.802   1.897   3.554
  952SOL    HW1 3755   3.856   1.834   3.609
  952SOL    HW2 3756   3.858   1.975   3.526
  953SOL     OW 3757   0.483   4.862   5.856
  953SOL    HW1 3758   0.510   4.928   5.786
  953SOL    HW2 3759   0.435   4.785   5.813
  954SOL     OW 3760   4.994   6.563   2.159
  954SOL    HW1 3761   4.956   6.472   2.179
  954SOL    HW2 3762   4.928   6.615   2.104
  955SOL     OW 3763   2.172   5.284   1.168
  955SOL    HW1 3764   2.162   5.357   1.235
  955SOL    HW2 3765   2.216   5.319   1.085
  956SOL     OW 3766   4.384   0.884   1.081
  956SOL    HW1 3767   4.329   0.948   1.135
  956SOL    HW2 3768   4.361   0.894   0.985
  957SOL     OW 3769   5.748   6.866   3.261
  957SOL    HW1 3770   5.727   6.825   3.172
  957SOL    HW2 3771   5.705   6.956   3.268
  958SOL     OW 3772   5.079   6.348   1.317
  958SOL    HW1 3773   5.082   6.448   1.309
  958SOL    HW2 3774   5.158   6.317   1.370
  959SOL     OW 3775   5.192   6.851   3.186
  959SOL    HW1 3776   5.283   6.890   3.200
  959SOL    HW2 3777   5.124   6.908   3.232
  960SOL     OW 3778   1.424   6.496   6.457
  960SOL    HW1 3779   1.491   6.523   6.527
  960SOL    HW2 3780   1.366   6.423   6.493
  961SOL     OW 3781   3.753   1.402   3.203
  961SOL    HW1 3782   3.832   1.341   3.189
  961SOL    HW2 3783   3.780   1.479   3.260
  962SOL     OW 3784   0.106   0.301   4.935
  962SOL    HW1 3785   0.046   0.350   4.998
  962SOL    HW2 3786   0.053   0.272   4.855
  963SOL     OW 3787   5.748   2.958   1.114
  963SOL    HW1 3788   5.777   3.030   1.051
  963SOL    HW2 3789   5.797   2.874   1.093
  964SOL     OW 3790   3.758   6.201   4.788
  964SOL    HW1 3791   3.820   6.256   4.843
  964SOL    HW2 3792   3.811   6.135   4.734
  965SOL     OW 3793   5.861   2.299   3.834
  965SOL    HW1 3794   5.830   2.386   3.872
  965SOL    HW2 3795   5.828   2.224   3.891
  966SOL     OW 3796   5.214   1.173   4.187
  966SOL    HW1 3797   5.131   1.214   4.222
  966SOL    HW2 3798   5.269   1.138   4.262
  967SOL     OW 3799   4.291   5.020   6.513
  967SOL    HW1 3800   4.273   5.083   6.437
  967SOL    HW2 3801   4.359   5.059   6.574
  968SOL     OW 3802   3.586   0.750   1.291
  968SOL    HW1 3803   3.546   0.662   1.316
  968SOL    HW2 3804   3.525   0.798   1.228
  969SOL     OW 3805   2.725   3.867   6.242
  969SOL    HW1 3806   2.792   3.910   6.302
  969SOL    HW2 3807   2.632   3.886   6.276
  970SOL     OW 3808   5.147   6.585   5.854
  970SOL    HW1 3809   5.173   6.672   5.895
  970SOL    HW2 3810   5.177   6.510   5.913
  971SOL     OW 3811   5.094   3.589   3.536
  971SOL    HW1 3812   5.190   3.604   3.514
  971SOL    HW2 3813   5.080   3.595   3.635
  972SOL     OW 3814   0.362   2.882   0.748
  972SOL    HW1 3815   0.461   2.881   0.757
  972SOL    HW2 3816   0.331   2.792   0.715
  973SOL     OW 3817   0.091   2.570   5.170
  973SOL    HW1 3818   0.147   2.524   5.239
  973SOL    HW2 3819   0.113   2.534   5.079
  974SOL     OW 3820   0.754   3.907   2.397
  974SOL    HW1 3821   0.820   3.980   2.379
  974SOL    HW2 3822   0.702   3.888   2.313
  975SOL     OW 3823   3.205   0.257   2.416
  975SOL    HW1 3824   3.260   0.219   2.490
  975SOL    HW2 3825   3.224   0.355   2.408
  976SOL     OW 3826   0.132   3.072   3.335
  976SOL    HW1 3827   0.186   3.002   3.383
  976SOL    HW2 3828   0.084   3.030   3.258
  977SOL     OW 3829   6.437   1.465   1.893
  977SOL    HW1 3830   6.478   1.535   1.834
  977SOL    HW2 3831   6.351   1.433   1.852
  978SOL     OW 3832   4.920   2.924   0.467
  978SOL    HW1 3833   4.934   3.001   0.528
  978SOL    HW2 3834   4.964   2.843   0.504
  979SOL     OW 3835   0.292   4.938   6.427
  979SOL    HW1 3836   0.337   4.849   6.434
  979SOL    HW2 3837   0.343   4.997   6.364
  980SOL     OW 3838   4.297   0.956   4.543
  980SOL    HW1 3839   4.370   0.896   4.577
  980SOL    HW2 3840   4.270   0.927   4.452
  981SOL     OW 3841   0.619   6.707   5.481
  981SOL    HW1 3842   0.564   6.624   5.478
  981SOL    HW2 3843   0.684   6.706   5.404
  982SOL     OW 3844   0.051   1.230   6.731
  982SOL    HW1 3845   6.984   1.238   6.774
  982SOL    HW2 3846   0.115   1.291   6.777
  983SOL     OW 3847   0.502   3.890   3.238
  983SOL    HW1 3848   0.410   3.920   3.263
  983SOL    HW2 3849   0.500   3.847   3.148
  984SOL     OW 3850   0.417   3.653   3.887
  984SOL    HW1 3851   0.495   3.626   3.943
  984SOL    HW2 3852   0.361   3.719   3.937
  985SOL     OW 3853   6.085   5.677   4.849
  985SOL    HW1 3854   6.047   5.767   4.826
  985SOL    HW2 3855   6.063   5.612   4.777
  986SOL     OW 3856   4.407   5.612   1.523
  986SOL    HW1 3857   4.494   5.561   1.527
  986SOL    HW2 3858   4.423   5.701   1.481
  987SOL     OW 3859   4.765   4.621   4.962
  987SOL    HW1 3860   4.693   4.552   4.948
  987SOL    HW2 3861   4.829   4.618   4.886
  988SOL     OW 3862   2.685   4.766   2.044
  988SOL    HW1 3863   2.750   4.837   2.071
  988SOL    HW2 3864   2.730   4.700   1.985
  989SOL     OW 3865   0.893   2.669   0.820
  989SOL    HW1 3866   0.879   2.606   0.743
  989SOL    HW2 3867   0.809   2.720   0.837
  990SOL     OW 3868   3.575   6.887   4.808
  990SOL    HW1 3869   3.522   6.970   4.792
  990SOL    HW2 3870   3.573   6.863   4.905
  991SOL     OW 3871   1.055   5.652   4.296
  991SOL    HW1 3872   1.035   5.582   4.228
  991SOL    HW2 3873   1.089   5.735   4.251
  992SOL     OW 3874   6.684   2.805   0.056
  992SOL    HW1 3875   6.629   2.758   0.125
  992SOL    HW2 3876   6.624   2.856   7.017
  993SOL     OW 3877   1.622   4.585   0.171
  993SOL    HW1 3878   1.590   4.579   0.266
  993SOL    HW2 3879   1.543   4.584   0.110
  994SOL     OW 3880   3.112   6.830   0.926
  994SOL    HW1 3881   3.084   6.747   0.879
  994SOL    HW2 3882   3.075   6.910   0.878
  995SOL     OW 3883   6.207   3.792   5.331
  995SOL    HW1 3884   6.259   3.848   5.395
  995SOL    HW2 3885   6.198   3.699   5.368
  996SOL     OW 3886   4.216   6.865   4.723
  996SOL    HW1 3887   4.243   6.873   4.627
  996SOL    HW2 3888   4.204   6.769   4.747
  997SOL     OW 3889   1.599   6.246   3.296
  997SOL    HW1 3890   1.540   6.218   3.371
  997SOL    HW2 3891   1.547   6.303   3.232
  998SOL     OW 3892   4.715   0.402   6.413
  998SOL    HW1 3893   4.781   0.337   6.453
  998SOL    HW2 3894   4.725   0.491   6.458
  999SOL     OW 3895   5.547   3.147   2.734
  999SOL    HW1 3896   5.460   3.124   2.690
  999SOL    HW2 3897   5.614   3.173   2.665
 1000SOL     OW 3898   5.366   1.612   2.051
 1000SOL    HW1 3899   5.423   1.586   1.974
 1000SOL    HW2 3900   5.421   1.662   2.119
 1001SOL     OW 3901   2.807   6.707   2.677
 1001SOL    HW1 3902   2.751   6.785   2.703
 1001SOL    HW2 3903   2.851   6.668   2.757
 1002SOL     OW 3904   3.944   2.987   1.296
 1002SOL    HW1 3905   4.004   3.066   1.283
 1002SOL    HW2 3906   3.921   2.979   1.393
 1003SOL     OW 3907   1.065   0.075   2.978
 1003SOL    HW1 3908   0.983   0.082   3.035
 1003SOL    HW2 3909   1.038   0.056   2.884
 1004SOL     OW 3910   4.959   1.405   4.864
 1004SOL    HW1 3911   4.984   1.502   4.869
 1004SOL    HW2 3912   5.003   1.363   4.785
 1005SOL     OW 3913   0.790   5.035   2.005
 1005SOL    HW1 3914   0.700   4.993   1.988
 1005SOL    HW2 3915   0.782   5.103   2.078
 1006SOL     OW 3916   2.116   3.924   1.637
 1006SOL    HW1 3917   2.178   3.857   1.678
 1006SOL    HW2 3918   2.130   3.925   1.538
 1007SOL     OW 3919   4.841   0.665   6.368
 1007SOL    HW1 3920   4.798   0.756   6.363
 1007SOL    HW2 3921   4.909   0.657   6.295
 1008SOL     OW 3922   0.495   4.848   5.099
 1008SOL    HW1 3923   0.406   4.881   5.066
 1008SOL    HW2 3924   0.514   4.887   5.189
 1009SOL     OW 3925   6.971   5.991   6.033
 1009SOL    HW1 3926   7.001   6.017   6.124
 1009SOL    HW2 3927   6.874   5.967   6.036
 1010SOL     OW 3928   3.097   3.689   0.193
 1010SOL    HW1 3929   3.137   3.598   0.202
 1010SOL    HW2 3930   3.016   3.685   0.134
 1011SOL     OW 3931   6.585   4.740   2.951
 1011SOL    HW1 3932   6.505   4.799   2.939
 1011SOL    HW2 3933   6.661   4.792   2.989
 1012SOL     OW 3934   5.578   6.380   2.766
 1012SOL    HW1 3935   5.565   6.377   2.666
 1012SOL    HW2 3936   5.674   6.360   2.787
 1013SOL     OW 3937   0.417   0.415   6.472
 1013SOL    HW1 3938   0.453   0.503   6.441
 1013SOL    HW2 3939   0.493   0.351   6.484
 1014SOL     OW 3940   1.079   4.731   4.649
 1014SOL    HW1 3941   1.052   4.761   4.740
 1014SOL    HW2 3942   0.998   4.719   4.592
 1015SOL     OW 3943   2.060   6.164   0.346
 1015SOL    HW1 3944   1.972   6.205   0.368
 1015SOL    HW2 3945   2.106   6.219   0.276
 1016SOL     OW 3946   0.029   4.048   0.781
 1016SOL    HW1 3947   0.017   4.146   0.791
 1016SOL    HW2 3948   0.120   4.029   0.743
 1017SOL     OW 3949   2.473   1.430   2.827
 1017SOL    HW1 3950   2.451   1.469   2.916
 1017SOL    HW2 3951   2.391   1.428   2.770
 1018SOL     OW 3952   6.202   6.277   4.123
 1018SOL    HW1 3953   6.194   6.362   4.175
 1018SOL    HW2 3954   6.283   6.227   4.155
 1019SOL     OW 3955   5.861   4.095   1.067
 1019SOL    HW1 3956   5.930   4.127   1.131
 1019SOL    HW2 3957   5.885   4.003   1.035
 1020SOL     OW 3958   5.235   1.307   1.297
 1020SOL    HW1 3959   5.156   1.275   1.246
 1020SOL    HW2 3960   5.211   1.388   1.349
 1021SOL     OW 3961   0.986   6.540   1.005
 1021SOL    HW1 3962   1.054   6.606   0.973
 1021SOL    HW2 3963   1.023   6.448   1.000
 1022SOL     OW 3964   2.569   5.369   6.530
 1022SOL    HW1 3965   2.498   5.303   6.505
 1022SOL    HW2 3966   2.585   5.432   6.453
 1023SOL     OW 3967   0.916   1.618   2.530
 1023SOL    HW1 3968   0.865   1.697   2.496
 1023SOL    HW2 3969   0.991   1.649   2.588
 1024SOL     OW 3970   1.599   2.441   4.151
 1024SOL    HW1 3971   1.698   2.451   4.137
 1024SOL    HW2 3972   1.573   2.345   4.143
 1025SOL     OW 3973   4.817   4.671   1.190
 1025SOL    HW1 3974   4.840   4.664   1.093
 1025SOL    HW2 3975   4.871   4.605   1.242
 1026SOL     OW 3976   3.077   2.968   1.829
 1026SOL    HW1 3977   3.006   3.028   1.867
 1026SOL    HW2 3978   3.157   3.022   1.805
 1027SOL     OW 3979   6.728   6.752   0.327
 1027SOL    HW1 3980   6.632   6.756   0.299
 1027SOL    HW2 3981   6.754   6.839   0.370
 1028SOL     OW 3982   0.958   5.323   2.772
 1028SOL    HW1 3983   0.935   5.398   2.710
 1028SOL    HW2 3984   0.876   5.268   2.790
 1029SOL     OW 3985   1.406   1.095   4.913
 1029SOL    HW1 3986   1.384   1.080   5.009
 1029SOL    HW2 3987   1.479   1.162   4.905
 1030SOL     OW 3988   4.096   3.299   0.544
 1030SOL    HW1 3989   4.079   3.368   0.474
 1030SOL    HW2 3990   4.044   3.216   0.523
 1031SOL     OW 3991   4.347   3.597   0.569
 1031SOL    HW1 3992   4.395   3.670   0.617
 1031SOL    HW2 3993   4.298   3.540   0.635
 1032SOL     OW 3994   1.794   1.482   0.619
 1032SOL    HW1 3995   1.719   1.445   0.564
 1032SOL    HW2 3996   1.871   1.418   0.619
 1033SOL     OW 3997   0.202   1.048   1.902
 1033SOL    HW1 3998   0.182   0.954   1.930
 1033SOL    HW2 3999   0.136   1.110   1.946
 1034SOL     OW 4000   3.146   0.762   4.869
 1034SOL    HW1 4001   3.244   0.775   4.883
 1034SOL    HW2 4002   3.131   0.717   4.781
 1035SOL     OW 4003   1.387   0.610   0.352
 1035SOL    HW1 4004   1.383   0.675   0.428
 1035SOL    HW2 4005   1.325   0.638   0.280
 1036SOL     OW 4006   4.509   1.586   1.779
 1036SOL    HW1 4007   4.436   1.644   1.742
 1036SOL    HW2 4008   4.479   1.491   1.780
 1037SOL     OW 4009   1.484   3.565   2.462
 1037SOL    HW1 4010   1.573   3.546   2.502
 1037SOL    HW2 4011   1.413   3.521   2.517
 1038SOL     OW 4012   1.994   5.675   0.102
 1038SOL    HW1 4013   1.918   5.610   0.108
 1038SOL    HW2 4014   1.978   5.750   0.167
 1039SOL     OW 4015   3.212   3.726   3.274
 1039SOL    HW1 4016   3.255   3.689   3.356
 1039SOL    HW2 4017   3.282   3.743   3.205
 1040SOL     OW 4018   3.673   1.843   3.290
 1040SOL    HW1 4019   3.680   1.904   3.212
 1040SOL    HW2 4020   3.653   1.896   3.373
 1041SOL     OW 4021   6.533   6.496   6.554
 1041SOL    HW1 4022   6.629   6.468   6.559
 1041SOL    HW2 4023   6.475   6.419   6.579
 1042SOL     OW 4024   5.363   4.166   3.571
 1042SOL    HW1 4025   5.332   4.110   3.494
 1042SOL    HW2 4026   5.415   4.109   3.634
 1043SOL     OW 4027   2.721   1.663   3.919
 1043SOL    HW1 4028   2.816   1.641   3.896
 1043SOL    HW2 4029   2.707   1.651   4.017
 1044SOL     OW 4030   5.815   4.846   2.043
 1044SOL    HW1 4031   5.765   4.840   2.130
 1044SOL    HW2 4032   5.772   4.785   1.976
 1045SOL     OW 4033   2.163   0.669   2.285
 1045SOL    HW1 4034   2.075   0.634   2.318
 1045SOL    HW2 4035   2.225   0.592   2.271
 1046SOL     OW 4036   3.031   2.150   1.333
 1046SOL    HW1 4037   3.008   2.212   1.409
 1046SOL    HW2 4038   3.110   2.094   1.359
 1047SOL     OW 4039   4.267   0.311   3.269
 1047SOL    HW1 4040   4.256   0.213   3.285
 1047SOL    HW2 4041   4.360   0.338   3.293
 1048SOL     OW 4042   0.753   0.253   1.882
 1048SOL    HW1 4043   0.827   0.188   1.899
 1048SOL    HW2 4044   0.751   0.321   1.956
 1049SOL     OW 4045   4.019   6.319   6.991
 1049SOL    HW1 4046   4.019   6.417   7.011
 1049SOL    HW2 4047   3.999   6.304   6.894
 1050SOL     OW 4048   3.382   0.053   4.065
 1050SOL    HW1 4049   3.474   0.089   4.049
 1050SOL    HW2 4050   3.315   0.125   4.049
 1051SOL     OW 4051   1.974   1.795   5.403
 1051SOL    HW1 4052   1.884   1.836   5.417
 1051SOL    HW2 4053   2.006   1.755   5.489
 1052SOL     OW 4054   3.836   1.313   0.401
 1052SOL    HW1 4055   3.935   1.324   0.392
 1052SOL    HW2 4056   3.791   1.341   0.316
 1053SOL     OW 4057   5.240   2.425   4.450
 1053SOL    HW1 4058   5.291   2.380   4.523
 1053SOL    HW2 4059   5.161   2.472   4.489
 1054SOL     OW 4060   4.292   5.336   6.530
 1054SOL    HW1 4061   4.210   5.331   6.586
 1054SOL    HW2 4062   4.366   5.379   6.583
 1055SOL     OW 4063   4.797   5.933   6.608
 1055SOL    HW1 4064   4.798   5.837   6.635
 1055SOL    HW2 4065   4.712   5.976   6.642
 1056SOL     OW 4066   3.728   3.859   6.877
 1056SOL    HW1 4067   3.784   3.938   6.854
 1056SOL    HW2 4068   3.650   3.888   6.932
 1057SOL     OW 4069   3.443   2.880   6.482
 1057SOL    HW1 4070   3.343   2.883   6.486
 1057SOL    HW2 4071   3.478   2.970   6.456
 1058SOL     OW 4072   3.146   2.177   1.886
 1058SOL    HW1 4073   3.084   2.252   1.866
 1058SOL    HW2 4074   3.212   2.168   1.812
 1059SOL     OW 4075   2.416   6.358   2.155
 1059SOL    HW1 4076   2.393   6.382   2.249
 1059SOL    HW2 4077   2.499   6.408   2.127
 1060SOL     OW 4078   6.465   0.814   5.277
 1060SOL    HW1 4079   6.478   0.715   5.290
 1060SOL    HW2 4080   6.533   0.863   5.332
 1061SOL     OW 4081   0.405   3.349   6.091
 1061SOL    HW1 4082   0.474   3.297   6.042
 1061SOL    HW2 4083   0.366   3.418   6.031
 1062SOL     OW 4084   3.301   5.269   4.919
 1062SOL    HW1 4085   3.331   5.176   4.897
 1062SOL    HW2 4086   3.285   5.277   5.017
 1063SOL     OW 4087   3.093   6.670   4.199
 1063SOL    HW1 4088   3.159   6.595   4.196
 1063SOL    HW2 4089   3.137   6.752   4.237
 1064SOL     OW 4090   0.938   3.193   0.167
 1064SOL    HW1 4091   0.930   3.097   0.138
 1064SOL    HW2 4092   1.031   3.212   0.198
 1065SOL     OW 4093   6.025   1.055   4.654
 1065SOL    HW1 4094   5.967   0.976   4.672
 1065SOL    HW2 4095   5.969   1.132   4.624
 1066SOL     OW 4096   5.235   6.426   0.975
 1066SOL    HW1 4097   5.260   6.384   0.888
 1066SOL    HW2 4098   5.142   6.399   0.999
 1067SOL     OW 4099   2.443   1.540   0.285
 1067SOL    HW1 4100   2.499   1.613   0.245
 1067SOL    HW2 4101   2.484   1.510   0.371
 1068SOL     OW 4102   6.533   2.801   1.289
 1068SOL    HW1 4103   6.461   2.862   1.255
 1068SOL    HW2 4104   6.538   2.721   1.230
 1069SOL     OW 4105   6.503   2.947   2.628
 1069SOL    HW1 4106   6.557   2.871   2.592
 1069SOL    HW2 4107   6.438   2.978   2.558
 1070SOL     OW 4108   1.014   0.453   2.267
 1070SOL    HW1 4109   1.072   0.529   2.296
 1070SOL    HW2 4110   1.017   0.381   2.337
 1071SOL     OW 4111   0.749   3.093   6.135
 1071SOL    HW1 4112   0.749   3.054   6.044
 1071SOL    HW2 4113   0.656   3.117   6.162
 1072SOL     OW 4114   1.687   1.505   2.104
 1072SOL    HW1 4115   1.641   1.503   2.193
 1072SOL    HW2 4116   1.726   1.596   2.089
 1073SOL     OW 4117   5.502   2.428   3.088
 1073SOL    HW1 4118   5.445   2.508   3.106
 1073SOL    HW2 4119   5.554   2.442   3.004
 1074SOL     OW 4120   2.987   5.108   1.729
 1074SOL    HW1 4121   3.069   5.091   1.784
 1074SOL    HW2 4122   2.907   5.105   1.788
 1075SOL     OW 4123   6.916   3.919   5.387
 1075SOL    HW1 4124   6.882   3.867   5.309
 1075SOL    HW2 4125   6.845   3.981   5.420
 1076SOL     OW 4126   2.081   4.157   5.271
 1076SOL    HW1 4127   2.106   4.123   5.180
 1076SOL    HW2 4128   2.137   4.237   5.292
 1077SOL     OW 4129   6.887   6.467   0.105
 1077SOL    HW1 4130   6.860   6.467   0.201
 1077SOL    HW2 4131   6.925   6.378   0.080
 1078SOL     OW 4132   6.398   6.042   4.664
 1078SOL    HW1 4133   6.410   6.125   4.717
 1078SOL    HW2 4134   6.333   6.059   4.590
 1079SOL     OW 4135   0.733   6.586   1.160
 1079SOL    HW1 4136   0.813   6.567   1.103
 1079SOL    HW2 4137   0.650   6.581   1.105
 1080SOL     OW 4138   3.837   6.341   0.746
 1080SOL    HW1 4139   3.912   6.276   0.760
 1080SOL    HW2 4140   3.766   6.298   0.690
 1081SOL     OW 4141   6.403   6.717   3.759
 1081SOL    HW1 4142   6.495   6.679   3.754
 1081SOL    HW2 4143   6.353   6.693   3.676
 1082SOL     OW 4144   4.008   6.944   0.701
 1082SOL    HW1 4145   4.108   6.947   0.705
 1082SOL    HW2 4146   3.977   6.851   0.722
 1083SOL     OW 4147   6.065   3.799   2.030
 1083SOL    HW1 4148   6.069   3.889   2.074
 1083SOL    HW2 4149   5.976   3.757   2.048
 1084SOL     OW 4150   5.544   0.409   5.634
 1084SOL    HW1 4151   5.577   0.327   5.587
 1084SOL    HW2 4152   5.495   0.383   5.716
 1085SOL     OW 4153   2.186   3.582   4.819
 1085SOL    HW1 4154   2.282   3.589   4.793
 1085SOL    HW2 4155   2.165   3.487   4.842
 1086SOL     OW 4156   5.443   4.976   1.028
 1086SOL    HW1 4157   5.522   4.934   1.073
 1086SOL    HW2 4158   5.359   4.946   1.074
 1087SOL     OW 4159   4.130   0.010   5.820
 1087SOL    HW1 4160   4.111   6.940   5.850
 1087SOL    HW2 4161   4.056   0.043   5.762
 1088SOL     OW 4162   6.502   5.426   4.244
 1088SOL    HW1 4163   6.497   5.334   4.284
 1088SOL    HW2 4164   6.586   5.471   4.273
 1089SOL     OW 4165   5.490   5.214   4.088
 1089SOL    HW1 4166   5.588   5.219   4.104
 1089SOL    HW2 4167   5.442   5.215   4.176
 1090SOL     OW 4168   5.674   2.315   5.444
 1090SOL    HW1 4169   5.712   2.405   5.463
 1090SOL    HW2 4170   5.662   2.304   5.345
 1091SOL     OW 4171   2.067   3.440   3.307
 1091SOL    HW1 4172   2.097   3.497   3.384
 1091SOL    HW2 4173   2.041   3.498   3.230
 1092SOL     OW 4174   0.490   6.171   0.638
 1092SOL    HW1 4175   0.567   6.123   0.595
 1092SOL    HW2 4176   0.404   6.142   0.596
 1093SOL     OW 4177   1.444   0.648   3.413
 1093SOL    HW1 4178   1.366   0.601   3.454
 1093SOL    HW2 4179   1.411   0.717   3.348
 1094SOL     OW 4180   0.689   0.284   2.621
 1094SOL    HW1 4181   0.739   0.370   2.636
 1094SOL    HW2 4182   0.592   0.304   2.608
 1095SOL     OW 4183   6.030   3.630   0.324
 1095SOL    HW1 4184   5.977   3.699   0.374
 1095SOL    HW2 4185   5.969   3.554   0.300
 1096SOL     OW 4186   2.022   5.601   2.007
 1096SOL    HW1 4187   2.095   5.659   1.971
 1096SOL    HW2 4188   2.003   5.528   1.941
 1097SOL     OW 4189   3.142   6.553   4.481
 1097SOL    HW1 4190   3.166   6.487   4.552
 1097SOL    HW2 4191   3.140   6.508   4.392
 1098SOL     OW 4192   6.883   3.768   0.403
 1098SOL    HW1 4193   6.792   3.726   0.407
 1098SOL    HW2 4194   6.878   3.862   0.438
 1099SOL     OW 4195   5.281   0.232   6.503
 1099SOL    HW1 4196   5.205   0.291   6.475
 1099SOL    HW2 4197   5.367   0.283   6.499
 1100SOL     OW 4198   4.630   2.279   4.361
 1100SOL    HW1 4199   4.546   2.285   4.308
 1100SOL    HW2 4200   4.615   2.223   4.442
 1101SOL     OW 4201   4.776   2.826   6.658
 1101SOL    HW1 4202   4.719   2.882   6.598
 1101SOL    HW2 4203   4.795   2.738   6.613
 1102SOL     OW 4204   2.657   0.686   3.411
 1102SOL    HW1 4205   2.666   0.589   3.436
 1102SOL    HW2 4206   2.741   0.717   3.368
 1103SOL     OW 4207   3.528   5.986   0.955
 1103SOL    HW1 4208   3.472   6.067   0.976
 1103SOL    HW2 4209   3.477   5.925   0.894
 1104SOL     OW 4210   6.687   2.738   3.924
 1104SOL    HW1 4211   6.772   2.744   3.873
 1104SOL    HW2 4212   6.621   2.804   3.887
 1105SOL     OW 4213   5.152   1.305   6.376
 1105SOL    HW1 4214   5.228   1.251   6.413
 1105SOL    HW2 4215   5.180   1.349   6.291
 1106SOL     OW 4216   6.441   1.700   0.875
 1106SOL    HW1 4217   6.536   1.671   0.875
 1106SOL    HW2 4218   6.384   1.626   0.912
 1107SOL     OW 4219   0.813   1.209   6.867
 1107SOL    HW1 4220   0.762   1.211   6.781
 1107SOL    HW2 4221   0.882   1.282   6.867
 1108SOL     OW 4222   2.090   1.087   3.585
 1108SOL    HW1 4223   2.159   1.077   3.656
 1108SOL    HW2 4224   2.111   1.026   3.509
 1109SOL     OW 4225   4.625   2.279   5.227
 1109SOL    HW1 4226   4.562   2.352   5.200
 1109SOL    HW2 4227   4.630   2.210   5.155
 1110SOL     OW 4228   1.392   1.299   2.227
 1110SOL    HW1 4229   1.401   1.265   2.321
 1110SOL    HW2 4230   1.426   1.231   2.163
 1111SOL     OW 4231   5.693   3.474   6.440
 1111SOL    HW1 4232   5.593   3.465   6.437
 1111SOL    HW2 4233   5.725   3.460   6.534
 1112SOL     OW 4234   5.827   0.331   2.535
 1112SOL    HW1 4235   5.735   0.309   2.569
 1112SOL    HW2 4236   5.854   0.263   2.467
 1113SOL     OW 4237   6.653   3.185   2.669
 1113SOL    HW1 4238   6.597   3.105   2.650
 1113SOL    HW2 4239   6.673   3.234   2.584
 1114SOL     OW 4240   3.839   3.553   4.849
 1114SOL    HW1 4241   3.744   3.578   4.866
 1114SOL    HW2 4242   3.889   3.553   4.936
 1115SOL     OW 4243   2.469   4.814   5.630
 1115SOL    HW1 4244   2.421   4.836   5.715
 1115SOL    HW2 4245   2.497   4.718   5.632
 1116SOL     OW 4246   4.110   0.082   0.430
 1116SOL    HW1 4247   4.106   0.000   0.372
 1116SOL    HW2 4248   4.151   0.058   0.518
 1117SOL     OW 4249   2.033   2.275   1.612
 1117SOL    HW1 4250   2.127   2.304   1.624
 1117SOL    HW2 4251   2.030   2.195   1.552
 1118SOL     OW 4252   4.564   5.818   0.086
 1118SOL    HW1 4253   4.492   5.750   0.101
 1118SOL    HW2 4254   4.529   5.908   0.112
 1119SOL     OW 4255   3.453   4.878   3.613
 1119SOL    HW1 4256   3.489   4.820   3.687
 1119SOL    HW2 4257   3.359   4.906   3.636
 1120SOL     OW 4258   6.978   3.008   1.359
 1120SOL    HW1 4259   0.041   2.965   1.329
 1120SOL    HW2 4260   6.998   3.095   1.403
 1121SOL     OW 4261   6.723   4.716   5.109
 1121SOL    HW1 4262   6.822   4.709   5.104
 1121SOL    HW2 4263   6.697   4.808   5.140
 1122SOL     OW 4264   6.104   1.530   2.011
 1122SOL    HW1 4265   6.190   1.558   2.053
 1122SOL    HW2 4266   6.054   1.611   1.980
 1123SOL     OW 4267   3.836   1.735   4.656
 1123SOL    HW1 4268   3.782   1.748   4.572
 1123SOL    HW2 4269   3.829   1.640   4.685
 1124SOL     OW 4270   2.096   2.929   4.285
 1124SOL    HW1 4271   2.056   3.021   4.295
 1124SOL    HW2 4272   2.032   2.861   4.320
 1125SOL     OW 4273   1.529   3.461   3.462
 1125SOL    HW1 4274   1.571   3.456   3.371
 1125SOL    HW2 4275   1.448   3.520   3.457
 1126SOL     OW 4276   4.159   4.752   4.334
 1126SOL    HW1 4277   4.193   4.825   4.275
 1126SOL    HW2 4278   4.124   4.677   4.277
 1127SOL     OW 4279   6.665   6.763   1.734
 1127SOL    HW1 4280   6.755   6.807   1.735
 1127SOL    HW2 4281   6.666   6.686   1.670
 1128SOL     OW 4282   4.394   1.452   4.644
 1128SOL    HW1 4283   4.441   1.364   4.654
 1128SOL    HW2 4284   4.461   1.525   4.632
 1129SOL     OW 4285   1.205   0.216   6.968
 1129SOL    HW1 4286   1.110   0.247   6.974
 1129SOL    HW2 4287   1.264   0.282   7.014
 1130SOL     OW 4288   2.237   4.691   2.044
 1130SOL    HW1 4289   2.152   4.653   2.082
 1130SOL    HW2 4290   2.219   4.781   2.004
 1131SOL     OW 4291   2.525   5.813   3.374
 1131SOL    HW1 4292   2.618   5.800   3.407
 1131SOL    HW2 4293   2.528   5.853   3.282
 1132SOL     OW 4294   1.352   1.773   2.491
 1132SOL    HW1 4295   1.409   1.761   2.410
 1132SOL    HW2 4296   1.356   1.868   2.521
 1133SOL     OW 4297   1.062   6.238   6.300
 1133SOL    HW1 4298   1.137   6.172   6.313
 1133SOL    HW2 4299   0.976   6.188   6.290
 1134SOL     OW 4300   3.727   6.119   1.096
 1134SOL    HW1 4301   3.807   6.067   1.126
 1134SOL    HW2 4302   3.678   6.068   1.026
 1135SOL     OW 4303   1.615   6.649   3.120
 1135SOL    HW1 4304   1.697   6.683   3.166
 1135SOL    HW2 4305   1.642   6.598   3.038
 1136SOL     OW 4306   1.297   5.015   2.282
 1136SOL    HW1 4307   1.282   4.941   2.347
 1136SOL    HW2 4308   1.384   5.060   2.302
 1137SOL     OW 4309   1.428   6.151   4.444
 1137SOL    HW1 4310   1.482   6.148   4.360
 1137SOL    HW2 4311   1.463   6.083   4.508
 1138SOL     OW 4312   1.633   4.291   5.333
 1138SOL    HW1 4313   1.592   4.279   5.423
 1138SOL    HW2 4314   1.612   4.211   5.276
 1139SOL     OW 4315   2.633   5.057   5.027
 1139SOL    HW1 4316   2.634   5.157   5.027
 1139SOL    HW2 4317   2.539   5.025   5.017
 1140SOL     OW 4318   1.811   2.227   1.759
 1140SOL    HW1 4319   1.893   2.249   1.706
 1140SOL    HW2 4320   1.809   2.282   1.842
 1141SOL     OW 4321   6.981   4.907   5.657
 1141SOL    HW1 4322   0.019   4.978   5.622
 1141SOL    HW2 4323   6.937   4.938   5.741
 1142SOL     OW 4324   1.457   5.997   2.168
 1142SOL    HW1 4325   1.476   6.093   2.151
 1142SOL    HW2 4326   1.496   5.942   2.094
 1143SOL     OW 4327   7.018   4.124   1.693
 1143SOL    HW1 4328   6.952   4.108   1.620
 1143SOL    HW2 4329   6.991   4.073   1.775
 1144SOL     OW 4330   5.655   4.514   0.355
 1144SOL    HW1 4331   5.632   4.607   0.330
 1144SOL    HW2 4332   5.704   4.470   0.279
 1145SOL     OW 4333   5.646   0.052   0.351
 1145SOL    HW1 4334   5.713   7.016   0.306
 1145SOL    HW2 4335   5.674   0.148   0.341
 1146SOL     OW 4336   0.927   0.901   1.168
 1146SOL    HW1 4337   1.000   0.894   1.099
 1146SOL    HW2 4338   0.844   0.858   1.133
 1147SOL     OW 4339   2.053   6.341   0.773
 1147SOL    HW1 4340   2.083   6.269   0.836
 1147SOL    HW2 4341   1.961   6.320   0.740
 1148SOL     OW 4342   4.457   5.870   2.965
 1148SOL    HW1 4343   4.393   5.911   3.030
 1148SOL    HW2 4344   4.421   5.880   2.872
 1149SOL     OW 4345   5.069   3.105   1.722
 1149SOL    HW1 4346   5.022   3.108   1.634
 1149SOL    HW2 4347   5.005   3.126   1.796
 1150SOL     OW 4348   0.870   3.383   0.372
 1150SOL    HW1 4349   0.923   3.465   0.354
 1150SOL    HW2 4350   0.882   3.318   0.297
 1151SOL     OW 4351   5.855   5.251   4.268
 1151SOL    HW1 4352   5.825   5.238   4.174
 1151SOL    HW2 4353   5.952   5.277   4.269
 1152SOL     OW 4354   3.728   6.568   6.453
 1152SOL    HW1 4355   3.734   6.563   6.552
 1152SOL    HW2 4356   3.645   6.521   6.422
 1153SOL     OW 4357   5.700   6.661   1.878
 1153SOL    HW1 4358   5.749   6.611   1.807
 1153SOL    HW2 4359   5.623   6.606   1.911
 1154SOL     OW 4360   2.363   3.062   0.735
 1154SOL    HW1 4361   2.274   3.082   0.693
 1154SOL    HW2 4362   2.408   3.147   0.760
 1155SOL     OW 4363   3.499   5.781   3.987
 1155SOL    HW1 4364   3.579   5.820   3.940
 1155SOL    HW2 4365   3.527   5.697   4.034
 1156SOL     OW 4366   2.594   1.500   2.580
 1156SOL    HW1 4367   2.546   1.549   2.654
 1156SOL    HW2 4368   2.692   1.495   2.602
 1157SOL     OW 4369   2.757   1.204   0.543
 1157SOL    HW1 4370   2.728   1.259   0.621
 1157SOL    HW2 4371   2.829   1.140   0.571
 1158SOL     OW 4372   5.530   4.001   3.046
 1158SOL    HW1 4373   5.600   3.931   3.037
 1158SOL    HW2 4374   5.544   4.051   3.131
 1159SOL     OW 4375   6.074   5.073   0.415
 1159SOL    HW1 4376   6.077   5.144   0.486
 1159SOL    HW2 4377   6.156   5.017   0.422
 1160SOL     OW 4378   4.780   2.156   0.248
 1160SOL    HW1 4379   4.773   2.180   0.152
 1160SOL    HW2 4380   4.759   2.236   0.305
 1161SOL     OW 4381   6.358   5.400   1.026
 1161SOL    HW1 4382   6.268   5.423   0.988
 1161SOL    HW2 4383   6.347   5.325   1.091
 1162SOL     OW 4384   2.853   2.247   4.610
 1162SOL    HW1 4385   2.895   2.226   4.698
 1162SOL    HW2 4386   2.769   2.193   4.600
 1163SOL     OW 4387   5.851   2.480   1.270
 1163SOL    HW1 4388   5.950   2.472   1.274
 1163SOL    HW2 4389   5.812   2.394   1.238
 1164SOL     OW 4390   4.028   2.965   5.916
 1164SOL    HW1 4391   3.936   2.926   5.906
 1164SOL    HW2 4392   4.058   2.956   6.011
 1165SOL     OW 4393   4.681   6.719   3.442
 1165SOL    HW1 4394   4.600   6.716   3.383
 1165SOL    HW2 4395   4.664   6.782   3.518
 1166SOL     OW 4396   3.114   4.609   6.473
 1166SOL    HW1 4397   3.016   4.624   6.476
 1166SOL    HW2 4398   3.159   4.686   6.427
 1167SOL     OW 4399   4.759   4.436   2.750
 1167SOL    HW1 4400   4.707   4.512   2.709
 1167SOL    HW2 4401   4.837   4.473   2.800
 1168SOL     OW 4402   0.090   0.012   2.180
 1168SOL    HW1 4403   0.018   6.967   2.173
 1168SOL    HW2 4404   0.052   0.099   2.211
 1169SOL     OW 4405   4.446   1.552   5.582
 1169SOL    HW1 4406   4.369   1.521   5.638
 1169SOL    HW2 4407   4.436   1.518   5.489
 1170SOL     OW 4408   4.906   4.975   2.589
 1170SOL    HW1 4409   4.941   5.068   2.577
 1170SOL    HW2 4410   4.927   4.921   2.507
 1171SOL     OW 4411   0.047   5.912   0.630
 1171SOL    HW1 4412   0.001   5.856   0.699
 1171SOL    HW2 4413   0.126   5.958   0.671
 1172SOL     OW 4414   6.556   3.321   6.173
 1172SOL    HW1 4415   6.554   3.421   6.176
 1172SOL    HW2 4416   6.470   3.287   6.136
 1173SOL     OW 4417   3.724   2.604   0.569
 1173SOL    HW1 4418   3.807   2.622   0.623
 1173SOL    HW2 4419   3.744   2.535   0.499
 1174SOL     OW 4420   1.907   4.535   0.419
 1174SOL    HW1 4421   1.889   4.437   0.412
 1174SOL    HW2 4422   1.887   4.579   0.331
 1175SOL     OW 4423   3.020   3.202   4.374
 1175SOL    HW1 4424   2.965   3.235   4.451
 1175SOL    HW2 4425   2.996   3.253   4.292
 1176SOL     OW 4426   5.217   2.805   6.713
 1176SOL    HW1 4427   5.240   2.889   6.664
 1176SOL    HW2 4428   5.191   2.734   6.648
 1177SOL     OW 4429   1.133   1.658   4.147
 1177SOL    HW1 4430   1.169   1.598   4.076
 1177SOL    HW2 4431   1.195   1.658   4.225
 1178SOL     OW 4432   4.446   6.198   6.914
 1178SOL    HW1 4433   4.354   6.159   6.916
 1178SOL    HW2 4434   4.503   6.153   6.983
 1179SOL     OW 4435   0.824   5.620   0.214
 1179SOL    HW1 4436   0.888   5.591   0.286
 1179SOL    HW2 4437   0.807   5.718   0.221
 1180SOL     OW 4438   3.662   6.256   0.542
 1180SOL    HW1 4439   3.698   6.166   0.516
 1180SOL    HW2 4440   3.562   6.253   0.541
 1181SOL     OW 4441   6.519   6.740   6.704
 1181SOL    HW1 4442   6.596   6.803   6.693
 1181SOL    HW2 4443   6.530   6.662   6.642
 1182SOL     OW 4444   4.444   4.547   2.460
 1182SOL    HW1 4445   4.478   4.499   2.379
 1182SOL    HW2 4446   4.519   4.596   2.504
 1183SOL     OW 4447   2.019   3.948   6.047
 1183SOL    HW1 4448   2.051   3.982   6.135
 1183SOL    HW2 4449   2.098   3.924   5.990
 1184SOL     OW 4450   0.278   0.411   5.451
 1184SOL    HW1 4451   0.353   0.373   5.505
 1184SOL    HW2 4452   0.203   0.344   5.448
 1185SOL     OW 4453   6.456   1.326   0.198
 1185SOL    HW1 4454   6.547   1.335   0.238
 1185SOL    HW2 4455   6.464   1.319   0.099
 1186SOL     OW 4456   5.806   6.392   4.811
 1186SOL    HW1 4457   5.723   6.395   4.755
 1186SOL    HW2 4458   5.851   6.481   4.807
 1187SOL     OW 4459   6.551   1.178   5.875
 1187SOL    HW1 4460   6.587   1.234   5.801
 1187SOL    HW2 4461   6.451   1.189   5.879
 1188SOL     OW 4462   2.738   0.521   6.896
 1188SOL    HW1 4463   2.755   0.619   6.896
 1188SOL    HW2 4464   2.767   0.482   6.984
 1189SOL     OW 4465   5.368   3.520   3.823
 1189SOL    HW1 4466   5.282   3.555   3.861
 1189SOL    HW2 4467   5.390   3.432   3.865
 1190SOL     OW 4468   2.318   6.831   3.578
 1190SOL    HW1 4469   2.406   6.789   3.555
 1190SOL    HW2 4470   2.249   6.760   3.588
 1191SOL     OW 4471   4.312   6.523   2.507
 1191SOL    HW1 4472   4.257   6.520   2.590
 1191SOL    HW2 4473   4.409   6.522   2.531
 1192SOL     OW 4474   6.025   6.233   3.373
 1192SOL    HW1 4475   6.041   6.327   3.404
 1192SOL    HW2 4476   6.077   6.217   3.289
 1193SOL     OW 4477   0.226   5.645   4.169
 1193SOL    HW1 4478   0.290   5.591   4.224
 1193SOL    HW2 4479   0.245   5.742   4.181
 1194SOL     OW 4480   3.861   0.230   1.531
 1194SOL    HW1 4481   3.937   0.255   1.471
 1194SOL    HW2 4482   3.804   0.311   1.548
 1195SOL     OW 4483   5.385   2.307   3.593
 1195SOL    HW1 4484   5.460   2.242   3.584
 1195SOL    HW2 4485   5.299   2.258   3.598
 1196SOL     OW 4486   6.914   6.607   4.785
 1196SOL    HW1 4487   6.845   6.575   4.850
 1196SOL    HW2 4488   6.887   6.697   4.750
 1197SOL     OW 4489   2.226   6.034   0.513
 1197SOL    HW1 4490   2.166   6.095   0.461
 1197SOL    HW2 4491   2.177   6.000   0.593
 1198SOL     OW 4492   1.639   2.728   6.717
 1198SOL    HW1 4493   1.657   2.743   6.815
 1198SOL    HW2 4494   1.592   2.808   6.680
 1199SOL     OW 4495   6.226   3.861   1.773
 1199SOL    HW1 4496   6.131   3.892   1.774
 1199SOL    HW2 4497   6.247   3.819   1.685
 1200SOL     OW 4498   2.908   3.525   2.504
 1200SOL    HW1 4499   2.892   3.428   2.520
 1200SOL    HW2 4500   2.969   3.561   2.575
 1201SOL     OW 4501   1.645   2.007   4.681
 1201SOL    HW1 4502   1.676   1.917   4.711
 1201SOL    HW2 4503   1.682   2.077   4.743
 1202SOL     OW 4504   1.501   5.722   5.607
 1202SOL    HW1 4505   1.559   5.723   5.525
 1202SOL    HW2 4506   1.407   5.741   5.582
 1203SOL     OW 4507   3.537   5.937   5.459
 1203SOL    HW1 4508   3.615   5.904   5.511
 1203SOL    HW2 4509   3.483   5.859   5.426
 1204SOL     OW 4510   2.009   0.013   2.970
 1204SOL    HW1 4511   2.018   6.981   2.887
 1204SOL    HW2 4512   1.915   0.047   2.978
 1205SOL     OW 4513   5.504   3.772   1.971
 1205SOL    HW1 4514   5.412   3.805   1.991
 1205SOL    HW2 4515   5.545   3.735   2.055
 1206SOL     OW 4516   3.536   3.681   4.658
 1206SOL    HW1 4517   3.605   3.735   4.708
 1206SOL    HW2 4518   3.564   3.585   4.656
 1207SOL     OW 4519   1.120   5.831   2.777
 1207SOL    HW1 4520   1.198   5.855   2.720
 1207SOL    HW2 4521   1.082   5.914   2.818
 1208SOL     OW 4522   3.148   3.708   5.831
 1208SOL    HW1 4523   3.207   3.704   5.912
 1208SOL    HW2 4524   3.176   3.638   5.765
 1209SOL     OW 4525   3.510   6.399   5.574
 1209SOL    HW1 4526   3.499   6.302   5.553
 1209SOL    HW2 4527   3.488   6.454   5.493
 1210SOL     OW 4528   3.566   0.928   3.213
 1210SOL    HW1 4529   3.492   0.959   3.153
 1210SOL    HW2 4530   3.533   0.854   3.271
 1211SOL     OW 4531   0.995   2.908   0.070
 1211SOL    HW1 4532   1.049   2.891   7.011
 1211SOL    HW2 4533   1.004   2.831   0.133
 1212SOL     OW 4534   1.617   0.065   0.160
 1212SOL    HW1 4535   1.652   6.998   0.185
 1212SOL    HW2 4536   1.619   0.125   0.240
 1213SOL     OW 4537   5.402   2.984   1.179
 1213SOL    HW1 4538   5.332   2.912   1.184
 1213SOL    HW2 4539   5.457   2.983   1.262
 1214SOL     OW 4540   6.776   2.794   1.739
 1214SOL    HW1 4541   6.742   2.840   1.656
 1214SOL    HW2 4542   6.762   2.696   1.730
 1215SOL     OW 4543   1.419   5.806   3.419
 1215SOL    HW1 4544   1.396   5.709   3.413
 1215SOL    HW2 4545   1.503   5.823   3.368
 1216SOL     OW 4546   3.467   0.024   1.756
 1216SOL    HW1 4547   3.473   6.978   1.685
 1216SOL    HW2 4548   3.477   0.115   1.715
 1217SOL     OW 4549   2.950   4.741   0.045
 1217SOL    HW1 4550   3.005   4.703   0.119
 1217SOL    HW2 4551   2.890   4.813   0.081
 1218SOL     OW 4552   2.605   5.563   3.679
 1218SOL    HW1 4553   2.518   5.579   3.633
 1218SOL    HW2 4554   2.627   5.641   3.739
 1219SOL     OW 4555   3.469   6.557   2.512
 1219SOL    HW1 4556   3.481   6.507   2.426
 1219SOL    HW2 4557   3.513   6.647   2.505
 1220SOL     OW 4558   0.944   4.743   2.878
 1220SOL    HW1 4559   0.928   4.647   2.901
 1220SOL    HW2 4560   1.034   4.752   2.834
 1221SOL     OW 4561   4.855   4.722   6.727
 1221SOL    HW1 4562   4.862   4.642   6.787
 1221SOL    HW2 4563   4.926   4.788   6.752
 1222SOL     OW 4564   6.753   0.612   6.038
 1222SOL    HW1 4565   6.656   0.592   6.029
 1222SOL    HW2 4566   6.767   0.711   6.032
 1223SOL     OW 4567   3.456   6.601   0.783
 1223SOL    HW1 4568   3.495   6.599   0.875
 1223SOL    HW2 4569   3.528   6.619   0.717
 1224SOL     OW 4570   2.852   0.291   1.949
 1224SOL    HW1 4571   2.867   0.356   2.023
 1224SOL    HW2 4572   2.770   0.237   1.969
 1225SOL     OW 4573   2.908   3.857   5.620
 1225SOL    HW1 4574   2.987   3.913   5.645
 1225SOL    HW2 4575   2.824   3.900   5.654
 1226SOL     OW 4576   1.951   4.752   0.576
 1226SOL    HW1 4577   1.952   4.691   0.655
 1226SOL    HW2 4578   1.946   4.699   0.492
 1227SOL     OW 4579   1.104   3.069   5.728
 1227SOL    HW1 4580   1.099   2.975   5.697
 1227SOL    HW2 4581   1.154   3.124   5.661
 1228SOL     OW 4582   3.966   1.731   6.776
 1228SOL    HW1 4583   3.993   1.759   6.684
 1228SOL    HW2 4584   4.039   1.753   6.841
 1229SOL     OW 4585   3.027   4.216   6.669
 1229SOL    HW1 4586   2.969   4.292   6.699
 1229SOL    HW2 4587   3.023   4.142   6.735
 1230SOL     OW 4588   4.459   0.554   3.453
 1230SOL    HW1 4589   4.365   0.523   3.465
 1230SOL    HW2 4590   4.466   0.650   3.479
 1231SOL     OW 4591   1.258   4.535   4.717
 1231SOL    HW1 4592   1.211   4.619   4.690
 1231SOL    HW2 4593   1.311   4.551   4.800
 1232SOL     OW 4594   1.918   2.526   3.472
 1232SOL    HW1 4595   1.954   2.504   3.563
 1232SOL    HW2 4596   1.989   2.508   3.404
 1233SOL     OW 4597   0.708   3.118   4.270
 1233SOL    HW1 4598   0.783   3.171   4.232
 1233SOL    HW2 4599   0.631   3.178   4.291
 1234SOL     OW 4600   6.646   4.015   4.135
 1234SOL    HW1 4601   6.674   3.945   4.201
 1234SOL    HW2 4602   6.558   4.054   4.162
 1235SOL     OW 4603   6.765   5.711   4.113
 1235SOL    HW1 4604   6.858   5.721   4.078
 1235SOL    HW2 4605   6.721   5.632   4.070
 1236SOL     OW 4606   5.612   1.126   5.876
 1236SOL    HW1 4607   5.562   1.048   5.915
 1236SOL    HW2 4608   5.565   1.211   5.898
 1237SOL     OW 4609   2.843   4.701   6.510
 1237SOL    HW1 4610   2.893   4.779   6.546
 1237SOL    HW2 4611   2.745   4.723   6.506
 1238SOL     OW 4612   1.403   1.826   0.479
 1238SOL    HW1 4613   1.503   1.819   0.482
 1238SOL    HW2 4614   1.371   1.876   0.559
 1239SOL     OW 4615   0.872   0.074   5.440
 1239SOL    HW1 4616   0.793   0.118   5.484
 1239SOL    HW2 4617   0.928   0.029   5.510
 1240SOL     OW 4618   4.090   6.009   2.187
 1240SOL    HW1 4619   4.036   6.091   2.169
 1240SOL    HW2 4620   4.141   5.983   2.105
 1241SOL     OW 4621   0.487   2.504   4.376
 1241SOL    HW1 4622   0.451   2.597   4.381
 1241SOL    HW2 4623   0.484   2.473   4.281
 1242SOL     OW 4624   2.226   3.374   6.628
 1242SOL    HW1 4625   2.294   3.447   6.630
 1242SOL    HW2 4626   2.242   3.317   6.547
 1243SOL     OW 4627   2.448   5.194   5.451
 1243SOL    HW1 4628   2.401   5.109   5.428
 1243SOL    HW2 4629   2.387   5.271   5.433
 1244SOL     OW 4630   0.223   1.050   2.989
 1244SOL    HW1 4631   0.291   1.010   3.050
 1244SOL    HW2 4632   0.267   1.118   2.930
 1245SOL     OW 4633   3.155   2.859   6.200
 1245SOL    HW1 4634   3.142   2.958   6.213
 1245SOL    HW2 4635   3.248   2.843   6.166
 1246SOL     OW 4636   0.835   6.926   1.212
 1246SOL    HW1 4637   0.817   6.947   1.308
 1246SOL    HW2 4638   0.788   6.841   1.187
 1247SOL     OW 4639   1.211   6.609   6.733
 1247SOL    HW1 4640   1.218   6.604   6.633
 1247SOL    HW2 4641   1.118   6.585   6.762
 1248SOL     OW 4642   2.010   6.442   3.250
 1248SOL    HW1 4643   2.107   6.417   3.250
 1248SOL    HW2 4644   2.001   6.541   3.257
 1249SOL     OW 4645   5.910   2.989   3.677
 1249SOL    HW1 4646   5.900   3.088   3.669
 1249SOL    HW2 4647   5.885   2.960   3.769
 1250SOL     OW 4648   0.183   4.228   4.383
 1250SOL    HW1 4649   0.167   4.131   4.402
 1250SOL    HW2 4650   0.275   4.239   4.344
 1251SOL     OW 4651   3.449   6.875   6.276
 1251SOL    HW1 4652   3.504   6.932   6.337
 1251SOL    HW2 4653   3.379   6.931   6.232
 1252SOL     OW 4654   3.405   3.596   6.976
 1252SOL    HW1 4655   3.482   3.562   6.922
 1252SOL    HW2 4656   3.330   3.530   6.974
 1253SOL     OW 4657   4.170   6.959   2.687
 1253SOL    HW1 4658   4.086   6.958   2.741
 1253SOL    HW2 4659   4.166   6.886   2.619
 1254SOL     OW 4660   6.106   1.561   2.604
 1254SOL    HW1 4661   6.149   1.651   2.597
 1254SOL    HW2 4662   6.090   1.524   2.513
 1255SOL     OW 4663   6.227   0.533   0.306
 1255SOL    HW1 4664   6.233   0.600   0.380
 1255SOL    HW2 4665   6.281   0.564   0.228
 1256SOL     OW 4666   5.133   2.109   3.885
 1256SOL    HW1 4667   5.194   2.157   3.948
 1256SOL    HW2 4668   5.187   2.062   3.816
 1257SOL     OW 4669   6.184   1.415   3.979
 1257SOL    HW1 4670   6.099   1.463   3.999
 1257SOL    HW2 4671   6.225   1.452   3.896
 1258SOL     OW 4672   0.423   5.810   3.681
 1258SOL    HW1 4673   0.360   5.888   3.678
 1258SOL    HW2 4674   0.427   5.767   3.591
 1259SOL     OW 4675   4.399   1.998   5.072
 1259SOL    HW1 4676   4.319   2.048   5.038
 1259SOL    HW2 4677   4.481   2.054   5.060
 1260SOL     OW 4678   0.645   1.555   5.032
 1260SOL    HW1 4679   0.549   1.575   5.011
 1260SOL    HW2 4680   0.686   1.632   5.081
 1261SOL     OW 4681   6.652   3.562   0.870
 1261SOL    HW1 4682   6.687   3.656   0.877
 1261SOL    HW2 4683   6.670   3.527   0.778
 1262SOL     OW 4684   5.072   6.005   2.355
 1262SOL    HW1 4685   5.068   6.104   2.344
 1262SOL    HW2 4686   5.162   5.972   2.327
 1263SOL     OW 4687   6.739   2.384   3.681
 1263SOL    HW1 4688   6.788   2.410   3.764
 1263SOL    HW2 4689   6.791   2.315   3.631
 1264SOL     OW 4690   1.123   2.631   5.415
 1264SOL    HW1 4691   1.103   2.632   5.317
 1264SOL    HW2 4692   1.217   2.601   5.430
 1265SOL     OW 4693   5.635   0.147   5.512
 1265SOL    HW1 4694   5.561   0.088   5.480
 1265SOL    HW2 4695   5.721   0.118   5.471
 1266SOL     OW 4696   2.455   1.228   5.442
 1266SOL    HW1 4697   2.359   1.255   5.437
 1266SOL    HW2 4698   2.461   1.134   5.475
 1267SOL     OW 4699   3.435   0.386   2.633
 1267SOL    HW1 4700   3.459   0.474   2.592
 1267SOL    HW2 4701   3.410   0.400   2.729
 1268SOL     OW 4702   4.013   2.502   5.401
 1268SOL    HW1 4703   4.066   2.541   5.326
 1268SOL    HW2 4704   3.924   2.548   5.406
 1269SOL     OW 4705   6.113   1.874   3.596
 1269SOL    HW1 4706   6.050   1.949   3.614
 1269SOL    HW2 4707   6.141   1.833   3.683
 1270SOL     OW 4708   6.255   4.993   2.585
 1270SOL    HW1 4709   6.277   4.921   2.520
 1270SOL    HW2 4710   6.219   4.953   2.669
 1271SOL     OW 4711   2.475   1.236   1.124
 1271SOL    HW1 4712   2.548   1.249   1.190
 1271SOL    HW2 4713   2.415   1.316   1.125
 1272SOL     OW 4714   5.676   1.908   0.566
 1272SOL    HW1 4715   5.590   1.916   0.516
 1272SOL    HW2 4716   5.725   1.826   0.535
 1273SOL     OW 4717   2.214   4.363   5.677
 1273SOL    HW1 4718   2.311   4.343   5.684
 1273SOL    HW2 4719   2.201   4.447   5.624
 1274SOL     OW 4720   0.011   4.449   4.061
 1274SOL    HW1 4721   6.965   4.486   3.999
 1274SOL    HW2 4722   6.989   4.418   4.146
 1275SOL     OW 4723   2.069   1.783   2.779
 1275SOL    HW1 4724   2.057   1.855   2.847
 1275SOL    HW2 4725   2.090   1.824   2.690
 1276SOL     OW 4726   5.519   4.090   3.293
 1276SOL    HW1 4727   5.421   4.069   3.299
 1276SOL    HW2 4728   5.533   4.187   3.315
 1277SOL     OW 4729   0.748   6.323   6.842
 1277SOL    HW1 4730   0.782   6.352   6.752
 1277SOL    HW2 4731   0.678   6.388   6.873
 1278SOL     OW 4732   0.451   5.720   2.673
 1278SOL    HW1 4733   0.441   5.686   2.767
 1278SOL    HW2 4734   0.422   5.816   2.669
 1279SOL     OW 4735   2.636   3.065   0.949
 1279SOL    HW1 4736   2.698   3.108   0.883
 1279SOL    HW2 4737   2.600   2.980   0.911
 1280SOL     OW 4738   2.777   2.277   4.179
 1280SOL    HW1 4739   2.768   2.327   4.093
 1280SOL    HW2 4740   2.868   2.234   4.184
 1281SOL     OW 4741   6.057   6.345   4.568
 1281SOL    HW1 4742   6.005   6.277   4.619
 1281SOL    HW2 4743   6.123   6.389   4.629
 1282SOL     OW 4744   0.570   2.448   1.402
 1282SOL    HW1 4745   0.568   2.545   1.378
 1282SOL    HW2 4746   0.616   2.437   1.490
 1283SOL     OW 4747   6.937   1.739   4.087
 1283SOL    HW1 4748   6.925   1.790   4.172
 1283SOL    HW2 4749   6.959   1.803   4.013
 1284SOL     OW 4750   3.855   2.033   2.107
 1284SOL    HW1 4751   3.872   1.964   2.036
 1284SOL    HW2 4752   3.785   2.097   2.075
 1285SOL     OW 4753   4.698   0.948   4.323
 1285SOL    HW1 4754   4.710   0.913   4.230
 1285SOL    HW2 4755   4.628   1.019   4.323
 1286SOL     OW 4756   4.734   1.641   1.524
 1286SOL    HW1 4757   4.823   1.643   1.478
 1286SOL    HW2 4758   4.748   1.614   1.620
 1287SOL     OW 4759   5.459   5.029   5.504
 1287SOL    HW1 4760   5.500   5.109   5.547
 1287SOL    HW2 4761   5.528   4.958   5.490
 1288SOL     OW 4762   4.581   4.679   6.834
 1288SOL    HW1 4763   4.481   4.678   6.838
 1288SOL    HW2 4764   4.616   4.593   6.869
 1289SOL     OW 4765   6.541   6.953   0.604
 1289SOL    HW1 4766   6.483   6.917   0.531
 1289SOL    HW2 4767   6.596   6.879   0.642
 1290SOL     OW 4768   1.423   6.630   5.920
 1290SOL    HW1 4769   1.434   6.564   5.995
 1290SOL    HW2 4770   1.448   6.721   5.953
 1291SOL     OW 4771   5.969   5.113   3.858
 1291SOL    HW1 4772   6.039   5.165   3.809
 1291SOL    HW2 4773   6.011   5.063   3.934
 1292SOL     OW 4774   0.801   6.874   2.308
 1292SOL    HW1 4775   0.764   6.925   2.230
 1292SOL    HW2 4776   0.739   6.880   2.386
 1293SOL     OW 4777   4.985   1.146   0.904
 1293SOL    HW1 4778   5.010   1.216   0.837
 1293SOL    HW2 4779   5.039   1.064   0.888
 1294SOL     OW 4780   2.145   4.550   5.007
 1294SOL    HW1 4781   2.239   4.517   4.997
 1294SOL    HW2 4782   2.081   4.481   4.972
 1295SOL     OW 4783   0.164   4.462   0.255
 1295SOL    HW1 4784   0.187   4.382   0.310
 1295SOL    HW2 4785   0.188   4.546   0.305
 1296SOL     OW 4786   5.275   6.956   5.946
 1296SOL    HW1 4787   5.180   6.928   5.957
 1296SOL    HW2 4788   5.330   6.877   5.917
 1297SOL     OW 4789   6.399   6.813   0.416
 1297SOL    HW1 4790   6.303   6.810   0.389
 1297SOL    HW2 4791   6.457   6.814   0.334
 1298SOL     OW 4792   5.096   0.673   3.017
 1298SOL    HW1 4793   5.084   0.602   2.947
 1298SOL    HW2 4794   5.157   0.744   2.981
 1299SOL     OW 4795   1.065   3.499   4.530
 1299SOL    HW1 4796   1.111   3.579   4.568
 1299SOL    HW2 4797   0.966   3.509   4.539
 1300SOL     OW 4798   0.717   5.745   0.891
 1300SOL    HW1 4799   0.755   5.668   0.840
 1300SOL    HW2 4800   0.779   5.823   0.884
 1301SOL     OW 4801   6.627   0.247   0.062
 1301SOL    HW1 4802   6.628   0.208   0.154
 1301SOL    HW2 4803   6.538   0.232   0.019
 1302SOL     OW 4804   6.608   0.019   5.139
 1302SOL    HW1 4805   6.637   6.960   5.091
 1302SOL    HW2 4806   6.535   0.064   5.087
 1303SOL     OW 4807   2.796   6.846   1.686
 1303SOL    HW1 4808   2.893   6.870   1.689
 1303SOL    HW2 4809   2.769   6.800   1.770
 1304SOL     OW 4810   0.312   0.653   1.099
 1304SOL    HW1 4811   0.314   0.583   1.027
 1304SOL    HW2 4812   0.362   0.734   1.068
 1305SOL     OW 4813   3.986   4.555   6.349
 1305SOL    HW1 4814   4.048   4.562   6.271
 1305SOL    HW2 4815   3.892   4.568   6.318
 1306SOL     OW 4816   3.071   6.282   3.675
 1306SOL    HW1 4817   3.150   6.309   3.730
 1306SOL    HW2 4818   3.063   6.343   3.596
 1307SOL     OW 4819   1.943   3.203   4.008
 1307SOL    HW1 4820   1.854   3.249   4.001
 1307SOL    HW2 4821   1.956   3.173   4.102
 1308SOL     OW 4822   6.554   3.615   6.184
 1308SOL    HW1 4823   6.631   3.674   6.161
 1308SOL    HW2 4824   6.508   3.650   6.266
 1309SOL     OW 4825   5.712   3.842   6.646
 1309SOL    HW1 4826   5.682   3.850   6.741
 1309SOL    HW2 4827   5.812   3.838   6.642
 1310SOL     OW 4828   2.022   3.804   3.282
 1310SOL    HW1 4829   2.046   3.737   3.211
 1310SOL    HW2 4830   1.932   3.781   3.319
 1311SOL     OW 4831   5.660   5.218   0.465
 1311SOL    HW1 4832   5.600   5.167   0.404
 1311SOL    HW2 4833   5.639   5.195   0.560
 1312SOL     OW 4834   2.540   1.289   6.336
 1312SOL    HW1 4835   2.445   1.311   6.359
 1312SOL    HW2 4836   2.549   1.191   6.323
 1313SOL     OW 4837   6.196   5.798   1.249
 1313SOL    HW1 4838   6.134   5.854   1.195
 1313SOL    HW2 4839   6.180   5.815   1.346
 1314SOL     OW 4840   1.778   1.610   4.100
 1314SOL    HW1 4841   1.834   1.693   4.105
 1314SOL    HW2 4842   1.784   1.561   4.187
 1315SOL     OW 4843   6.183   0.982   2.863
 1315SOL    HW1 4844   6.263   0.921   2.860
 1315SOL    HW2 4845   6.100   0.928   2.868
 1316SOL     OW 4846   5.335   7.017   6.390
 1316SOL    HW1 4847   5.419   6.977   6.426
 1316SOL    HW2 4848   5.307   0.071   6.448
 1317SOL     OW 4849   2.977   3.086   5.356
 1317SOL    HW1 4850   3.044   3.092   5.430
 1317SOL    HW2 4851   3.009   3.022   5.287
 1318SOL     OW 4852   1.787   1.788   6.123
 1318SOL    HW1 4853   1.743   1.878   6.122
 1318SOL    HW2 4854   1.755   1.736   6.202
 1319SOL     OW 4855   0.138   0.736   0.076
 1319SOL    HW1 4856   0.109   0.658   0.021
 1319SOL    HW2 4857   0.238   0.744   0.073
 1320SOL     OW 4858   2.983   3.165   6.431
 1320SOL    HW1 4859   2.983   3.134   6.336
 1320SOL    HW2 4860   2.956   3.261   6.435
 1321SOL     OW 4861   0.056   2.581   1.024
 1321SOL    HW1 4862   6.999   2.583   1.083
 1321SOL    HW2 4863   0.042   2.515   0.951
 1322SOL     OW 4864   3.509   2.557   0.205
 1322SOL    HW1 4865   3.581   2.548   0.274
 1322SOL    HW2 4866   3.420   2.566   0.251
 1323SOL     OW 4867   4.067   0.353   1.365
 1323SOL    HW1 4868   4.009   0.426   1.400
 1323SOL    HW2 4869   4.149   0.392   1.322
 1324SOL     OW 4870   2.473   4.281   5.717
 1324SOL    HW1 4871   2.508   4.259   5.808
 1324SOL    HW2 4872   2.540   4.253   5.648
 1325SOL     OW 4873   3.394   6.038   5.038
 1325SOL    HW1 4874   3.404   6.109   4.968
 1325SOL    HW2 4875   3.458   6.055   5.112
 1326SOL     OW 4876   5.230   1.628   5.064
 1326SOL    HW1 4877   5.245   1.689   5.143
 1326SOL    HW2 4878   5.175   1.550   5.093
 1327SOL     OW 4879   5.018   5.236   2.531
 1327SOL    HW1 4880   4.968   5.257   2.447
 1327SOL    HW2 4881   5.076   5.314   2.555
 1328SOL     OW 4882   2.403   1.906   6.179
 1328SOL    HW1 4883   2.459   1.836   6.134
 1328SOL    HW2 4884   2.308   1.897   6.149
 1329SOL     OW 4885   1.217   2.811   3.677
 1329SOL    HW1 4886   1.131   2.808   3.728
 1329SOL    HW2 4887   1.294   2.811   3.741
 1330SOL     OW 4888   6.006   2.969   2.946
 1330SOL    HW1 4889   5.972   2.880   2.915
 1330SOL    HW2 4890   6.106   2.966   2.954
 1331SOL     OW 4891   4.728   2.270   3.611
 1331SOL    HW1 4892   4.777   2.200   3.561
 1331SOL    HW2 4893   4.778   2.293   3.695
 1332SOL     OW 4894   2.076   5.800   1.004
 1332SOL    HW1 4895   2.007   5.729   0.991
 1332SOL    HW2 4896   2.088   5.851   0.919
 1333SOL     OW 4897   3.354   3.733   3.024
 1333SOL    HW1 4898   3.364   3.817   2.970
 1333SOL    HW2 4899   3.341   3.655   2.962
 1334SOL     OW 4900   6.917   3.646   1.690
 1334SOL    HW1 4901   6.964   3.625   1.776
 1334SOL    HW2 4902   6.821   3.666   1.709
 1335SOL     OW 4903   0.213   3.737   3.690
 1335SOL    HW1 4904   0.148   3.664   3.671
 1335SOL    HW2 4905   0.282   3.703   3.754
 1336SOL     OW 4906   1.760   0.199   5.531
 1336SOL    HW1 4907   1.786   0.286   5.489
 1336SOL    HW2 4908   1.733   0.214   5.626
 1337SOL     OW 4909   0.288   6.751   2.015
 1337SOL    HW1 4910   0.329   6.669   1.977
 1337SOL    HW2 4911   0.344   6.785   2.091
 1338SOL     OW 4912   6.569   4.194   4.991
 1338SOL    HW1 4913   6.655   4.142   4.991
 1338SOL    HW2 4914   6.548   4.221   4.897
 1339SOL     OW 4915   6.075   0.881   6.589
 1339SOL    HW1 4916   6.030   0.953   6.537
 1339SOL    HW2 4917   6.160   0.917   6.628
 1340SOL     OW 4918   3.648   3.093   1.823
 1340SOL    HW1 4919   3.604   3.139   1.746
 1340SOL    HW2 4920   3.614   2.999   1.830
 1341SOL     OW 4921   4.866   5.380   6.730
 1341SOL    HW1 4922   4.940   5.315   6.747
 1341SOL    HW2 4923   4.869   5.410   6.635
 1342SOL     OW 4924   1.748   6.369   1.304
 1342SOL    HW1 4925   1.838   6.374   1.260
 1342SOL    HW2 4926   1.758   6.329   1.395
 1343SOL     OW 4927   5.147   5.699   2.910
 1343SOL    HW1 4928   5.078   5.684   2.980
 1343SOL    HW2 4929   5.117   5.658   2.824
 1344SOL     OW 4930   0.800   0.721   4.647
 1344SOL    HW1 4931   0.790   0.623   4.627
 1344SOL    HW2 4932   0.709   0.763   4.652
 1345SOL     OW 4933   1.215   6.702   6.409
 1345SOL    HW1 4934   1.282   6.637   6.375
 1345SOL    HW2 4935   1.177   6.754   6.332
 1346SOL     OW 4936   3.033   5.075   4.684
 1346SOL    HW1 4937   3.030   5.055   4.782
 1346SOL    HW2 4938   3.067   5.168   4.669
 1347SOL     OW 4939   1.933   0.453   6.529
 1347SOL    HW1 4940   1.889   0.368   6.556
 1347SOL    HW2 4941   1.999   0.434   6.456
 1348SOL     OW 4942   1.306   6.345   5.419
 1348SOL    HW1 4943   1.390   6.395   5.444
 1348SOL    HW2 4944   1.244   6.407   5.371
 1349SOL     OW 4945   5.319   3.893   4.079
 1349SOL    HW1 4946   5.407   3.849   4.066
 1349SOL    HW2 4947   5.305   3.914   4.175
 1350SOL     OW 4948   4.703   4.963   6.667
 1350SOL    HW1 4949   4.718   4.865   6.677
 1350SOL    HW2 4950   4.607   4.984   6.681
 1351SOL     OW 4951   6.850   2.516   6.022
 1351SOL    HW1 4952   6.899   2.462   6.091
 1351SOL    HW2 4953   6.856   2.471   5.933
 1352SOL     OW 4954   0.151   0.980   2.709
 1352SOL    HW1 4955   0.229   0.919   2.720
 1352SOL    HW2 4956   0.125   1.018   2.798
 1353SOL     OW 4957   6.911   1.280   6.963
 1353SOL    HW1 4958   6.847   1.216   7.006
 1353SOL    HW2 4959   6.867   1.370   6.956
 1354SOL     OW 4960   5.182   5.092   2.210
 1354SOL    HW1 4961   5.214   5.183   2.233
 1354SOL    HW2 4962   5.082   5.091   2.210
 1355SOL     OW 4963   4.494   3.532   5.355
 1355SOL    HW1 4964   4.565   3.525   5.285
 1355SOL    HW2 4965   4.486   3.444   5.403
 1356SOL     OW 4966   2.678   3.043   0.058
 1356SOL    HW1 4967   2.590   3.012   0.023
 1356SOL    HW2 4968   2.727   3.092   7.008
 1357SOL     OW 4969   1.359   2.533   5.776
 1357SOL    HW1 4970   1.389   2.456   5.719
 1357SOL    HW2 4971   1.378   2.618   5.728
 1358SOL     OW 4972   2.087   6.441   6.851
 1358SOL    HW1 4973   2.171   6.402   6.888
 1358SOL    HW2 4974   2.008   6.398   6.895
 1359SOL     OW 4975   6.090   4.043   0.797
 1359SOL    HW1 4976   6.125   4.133   0.820
 1359SOL    HW2 4977   6.125   3.975   0.861
 1360SOL     OW 4978   2.377   2.291   0.405
 1360SOL    HW1 4979   2.296   2.267   0.459
 1360SOL    HW2 4980   2.459   2.259   0.451
 1361SOL     OW 4981   6.746   4.583   4.735
 1361SOL    HW1 4982   6.688   4.572   4.816
 1361SOL    HW2 4983   6.791   4.672   4.738
 1362SOL     OW 4984   3.237   4.100   3.410
 1362SOL    HW1 4985   3.144   4.069   3.390
 1362SOL    HW2 4986   3.251   4.104   3.509
 1363SOL     OW 4987   0.657   6.595   4.238
 1363SOL    HW1 4988   0.597   6.548   4.303
 1363SOL    HW2 4989   0.674   6.688   4.270
 1364SOL     OW 4990   4.657   4.074   0.581
 1364SOL    HW1 4991   4.689   4.145   0.519
 1364SOL    HW2 4992   4.720   4.066   0.658
 1365SOL     OW 4993   6.198   2.724   6.877
 1365SOL    HW1 4994   6.256   2.661   6.824
 1365SOL    HW2 4995   6.253   2.767   6.948
 1366SOL     OW 4996   1.920   0.084   5.904
 1366SOL    HW1 4997   1.997   0.145   5.884
 1366SOL    HW2 4998   1.842   0.110   5.847
 1367SOL     OW 4999   2.746   1.987   2.079
 1367SOL    HW1 5000   2.815   2.044   2.124
 1367SOL    HW2 5001   2.764   1.984   1.981
 1368SOL     OW 5002   6.413   0.131   3.343
 1368SOL    HW1 5003   6.473   0.137   3.422
 1368SOL    HW2 5004   6.465   0.098   3.264
 1369SOL     OW 5005   1.004   0.237   2.533
 1369SOL    HW1 5006   0.924   0.250   2.591
 1369SOL    HW2 5007   1.080   0.292   2.568
 1370SOL     OW 5008   2.354   1.343   2.178
 1370SOL    HW1 5009   2.289   1.324   2.251
 1370SOL    HW2 5010   2.442   1.302   2.201
 1371SOL     OW 5011   3.683   0.626   6.318
 1371SOL    HW1 5012   3.720   0.631   6.411
 1371SOL    HW2 5013   3.612   0.556   6.314
 1372SOL     OW 5014   2.729   2.243   1.802
 1372SOL    HW1 5015   2.641   2.291   1.799
 1372SOL    HW2 5016   2.786   2.283   1.874
 1373SOL     OW 5017   1.608   5.731   6.731
 1373SOL    HW1 5018   1.623   5.809   6.792
 1373SOL    HW2 5019   1.607   5.763   6.636
 1374SOL     OW 5020   4.939   4.451   6.850
 1374SOL    HW1 5021   4.976   4.373   6.901
 1374SOL    HW2 5022   4.881   4.419   6.775
 1375SOL     OW 5023   1.017   4.462   4.771
 1375SOL    HW1 5024   0.967   4.418   4.696
 1375SOL    HW2 5025   1.112   4.474   4.745
 1376SOL     OW 5026   5.247   0.716   2.510
 1376SOL    HW1 5027   5.149   0.722   2.530
 1376SOL    HW2 5028   5.299   0.747   2.589
 1377SOL     OW 5029   0.861   4.761   4.424
 1377SOL    HW1 5030   0.805   4.843   4.422
 1377SOL    HW2 5031   0.815   4.690   4.478
 1378SOL     OW 5032   1.925   2.557   0.160
 1378SOL    HW1 5033   1.983   2.634   0.134
 1378SOL    HW2 5034   1.843   2.557   0.102
 1379SOL     OW 5035   3.729   6.276   1.316
 1379SOL    HW1 5036   3.683   6.215   1.381
 1379SOL    HW2 5037   3.723   6.237   1.224
 1380SOL     OW 5038   5.908   4.902   2.687
 1380SOL    HW1 5039   5.828   4.863   2.733
 1380SOL    HW2 5040   5.985   4.906   2.752
 1381SOL     OW 5041   5.749   6.564   2.287
 1381SOL    HW1 5042   5.718   6.644   2.235
 1381SOL    HW2 5043   5.837   6.533   2.250
 1382SOL     OW 5044   0.326   4.246   6.492
 1382SOL    HW1 5045   0.380   4.248   6.408
 1382SOL    HW2 5046   0.376   4.196   6.563
 1383SOL     OW 5047   2.359   0.120   0.503
 1383SOL    HW1 5048   2.447   0.168   0.503
 1383SOL    HW2 5049   2.373   0.023   0.487
 1384SOL     OW 5050   1.115   1.520   2.217
 1384SOL    HW1 5051   1.157   1.499   2.305
 1384SOL    HW2 5052   1.015   1.515   2.226
 1385SOL     OW 5053   5.218   3.118   4.202
 1385SOL    HW1 5054   5.141   3.148   4.259
 1385SOL    HW2 5055   5.193   3.126   4.106
 1386SOL     OW 5056   2.331   2.707   3.792
 1386SOL    HW1 5057   2.291   2.733   3.704
 1386SOL    HW2 5058   2.407   2.644   3.776
 1387SOL     OW 5059   3.385   0.572   4.228
 1387SOL    HW1 5060   3.484   0.579   4.215
 1387SOL    HW2 5061   3.366   0.508   4.302
 1388SOL     OW 5062   5.364   1.516   3.970
 1388SOL    HW1 5063   5.362   1.601   3.918
 1388SOL    HW2 5064   5.435   1.521   4.040
 1389SOL     OW 5065   6.799   0.271   3.567
 1389SOL    HW1 5066   6.817   0.221   3.482
 1389SOL    HW2 5067   6.823   0.214   3.645
 1390SOL     OW 5068   4.583   2.442   3.085
 1390SOL    HW1 5069   4.651   2.438   3.159
 1390SOL    HW2 5070   4.575   2.353   3.042
 1391SOL     OW 5071   5.547   0.803   4.709
 1391SOL    HW1 5072   5.575   0.864   4.634
 1391SOL    HW2 5073   5.496   0.726   4.672
 1392SOL     OW 5074   4.063   6.744   5.544
 1392SOL    HW1 5075   4.040   6.650   5.519
 1392SOL    HW2 5076   3.988   6.783   5.597
 1393SOL     OW 5077   4.860   0.400   0.006
 1393SOL    HW1 5078   4.883   0.397   6.932
 1393SOL    HW2 5079   4.939   0.432   0.058
 1394SOL     OW 5080   4.177   0.255   4.352
 1394SOL    HW1 5081   4.093   0.239   4.404
 1394SOL    HW2 5082   4.168   0.215   4.261
 1395SOL     OW 5083   0.299   5.116   2.259
 1395SOL    HW1 5084   0.205   5.084   2.243
 1395SOL    HW2 5085   0.360   5.037   2.263
 1396SOL     OW 5086   1.176   2.248   3.481
 1396SOL    HW1 5087   1.078   2.266   3.479
 1396SOL    HW2 5088   1.226   2.330   3.450
 1397SOL     OW 5089   2.024   4.937   4.752
 1397SOL    HW1 5090   2.093   4.899   4.813
 1397SOL    HW2 5091   1.933   4.911   4.785
 1398SOL     OW 5092   2.895   7.017   6.647
 1398SOL    HW1 5093   2.846   6.956   6.585
 1398SOL    HW2 5094   2.903   6.974   6.737
 1399SOL     OW 5095   3.937   6.860   6.745
 1399SOL    HW1 5096   3.962   6.908   6.830
 1399SOL    HW2 5097   4.003   6.883   6.674
 1400SOL     OW 5098   0.564   0.936   5.700
 1400SOL    HW1 5099   0.513   0.910   5.782
 1400SOL    HW2 5100   0.606   1.026   5.714
 1401SOL     OW 5101   5.967   6.998   2.127
 1401SOL    HW1 5102   6.033   6.941   2.176
 1401SOL    HW2 5103   5.936   6.951   2.045
 1402SOL     OW 5104   5.657   4.796   2.254
 1402SOL    HW1 5105   5.700   4.712   2.288
 1402SOL    HW2 5106   5.630   4.854   2.331
 1403SOL     OW 5107   2.813   3.778   6.594
 1403SOL    HW1 5108   2.854   3.851   6.539
 1403SOL    HW2 5109   2.881   3.706   6.610
 1404SOL     OW 5110   3.772   6.395   1.003
 1404SOL    HW1 5111   3.765   6.305   1.045
 1404SOL    HW2 5112   3.786   6.385   0.904
 1405SOL     OW 5113   0.825   3.755   6.914
 1405SOL    HW1 5114   0.751   3.744   6.980
 1405SOL    HW2 5115   0.893   3.683   6.929
 1406SOL     OW 5116   2.200   2.422   7.022
 1406SOL    HW1 5117   2.142   2.487   6.973
 1406SOL    HW2 5118   2.243   2.469   0.077
 1407SOL     OW 5119   0.220   2.362   1.455
 1407SOL    HW1 5120   0.273   2.300   1.398
 1407SOL    HW2 5121   0.124   2.359   1.428
 1408SOL     OW 5122   5.569   6.247   0.299
 1408SOL    HW1 5123   5.555   6.149   0.292
 1408SOL    HW2 5124   5.643   6.266   0.364
 1409SOL     OW 5125   6.209   1.655   5.715
 1409SOL    HW1 5126   6.131   1.670   5.654
 1409SOL    HW2 5127   6.246   1.563   5.700
 1410SOL     OW 5128   2.828   0.834   0.411
 1410SOL    HW1 5129   2.890   0.769   0.367
 1410SOL    HW2 5130   2.780   0.789   0.487
 1411SOL     OW 5131   3.650   5.884   6.695
 1411SOL    HW1 5132   3.575   5.848   6.750
 1411SOL    HW2 5133   3.660   5.982   6.712
 1412SOL     OW 5134   2.480   1.928   0.565
 1412SOL    HW1 5135   2.392   1.930   0.518
 1412SOL    HW2 5136   2.516   1.835   0.566
 1413SOL     OW 5137   2.347   1.694   5.369
 1413SOL    HW1 5138   2.359   1.645   5.283
 1413SOL    HW2 5139   2.320   1.630   5.441
 1414SOL     OW 5140   0.282   5.365   1.920
 1414SOL    HW1 5141   0.216   5.384   1.992
 1414SOL    HW2 5142   0.373   5.393   1.950
 1415SOL     OW 5143   3.646   1.977   4.766
 1415SOL    HW1 5144   3.575   1.925   4.717
 1415SOL    HW2 5145   3.603   2.035   4.835
 1416SOL     OW 5146   4.766   0.414   4.772
 1416SOL    HW1 5147   4.792   0.447   4.681
 1416SOL    HW2 5148   4.841   0.360   4.811
 1417SOL     OW 5149   3.674   3.785   4.442
 1417SOL    HW1 5150   3.758   3.737   4.464
 1417SOL    HW2 5151   3.600   3.752   4.502
 1418SOL     OW 5152   2.979   3.914   4.736
 1418SOL    HW1 5153   3.026   3.990   4.781
 1418SOL    HW2 5154   3.011   3.906   4.641
 1419SOL     OW 5155   1.011   5.994   1.835
 1419SOL    HW1 5156   1.023   5.910   1.888
 1419SOL    HW2 5157   1.032   6.073   1.893
 1420SOL     OW 5158   3.015   6.482   3.191
 1420SOL    HW1 5159   3.093   6.544   3.198
 1420SOL    HW2 5160   2.999   6.458   3.096
 1421SOL     OW 5161   1.739   5.367   0.765
 1421SOL    HW1 5162   1.807   5.418   0.712
 1421SOL    HW2 5163   1.784   5.317   0.839
 1422SOL     OW 5164   1.782   3.859   6.920
 1422SOL    HW1 5165   1.796   3.786   6.986
 1422SOL    HW2 5166   1.786   3.947   6.967
 1423SOL     OW 5167   4.916   0.976   4.721
 1423SOL    HW1 5168   4.904   0.881   4.750
 1423SOL    HW2 5169   4.930   1.034   4.801
 1424SOL     OW 5170   6.661   2.539   1.723
 1424SOL    HW1 5171   6.696   2.453   1.685
 1424SOL    HW2 5172   6.572   2.523   1.766
 1425SOL     OW 5173   5.743   6.572   3.074
 1425SOL    HW1 5174   5.698   6.661   3.068
 1425SOL    HW2 5175   5.680   6.500   3.043
 1426SOL     OW 5176   3.756   0.932   0.858
 1426SOL    HW1 5177   3.856   0.928   0.854
 1426SOL    HW2 5178   3.719   0.839   0.852
 1427SOL     OW 5179   0.889   0.350   4.252
 1427SOL    HW1 5180   0.819   0.323   4.318
 1427SOL    HW2 5181   0.864   0.438   4.211
 1428SOL     OW 5182   2.229   4.146   3.782
 1428SOL    HW1 5183   2.266   4.119   3.693
 1428SOL    HW2 5184   2.147   4.092   3.802
 1429SOL     OW 5185   6.344   0.092   2.187
 1429SOL    HW1 5186   6.278   0.159   2.221
 1429SOL    HW2 5187   6.411   0.138   2.130
 1430SOL     OW 5188   2.407   4.374   4.599
 1430SOL    HW1 5189   2.455   4.449   4.645
 1430SOL    HW2 5190   2.397   4.297   4.661
 1431SOL     OW 5191   3.530   2.130   0.579
 1431SOL    HW1 5192   3.505   2.089   0.492
 1431SOL    HW2 5193   3.493   2.075   0.654
 1432SOL     OW 5194   4.389   6.985   2.877
 1432SOL    HW1 5195   4.335   0.027   2.930
 1432SOL    HW2 5196   4.331   6.940   2.810
 1433SOL     OW 5197   2.952   2.210   3.850
 1433SOL    HW1 5198   2.987   2.194   3.942
 1433SOL    HW2 5199   2.998   2.148   3.786
 1434SOL     OW 5200   5.350   3.642   0.734
 1434SOL    HW1 5201   5.327   3.654   0.831
 1434SOL    HW2 5202   5.267   3.621   0.683
 1435SOL     OW 5203   0.537   6.201   4.117
 1435SOL    HW1 5204   0.545   6.157   4.207
 1435SOL    HW2 5205   0.617   6.177   4.061
 1436SOL     OW 5206   5.019   0.908   0.019
 1436SOL    HW1 5207   5.106   0.857   0.017
 1436SOL    HW2 5208   4.956   0.863   0.082
 1437SOL     OW 5209   4.240   1.341   0.908
 1437SOL    HW1 5210   4.266   1.295   0.824
 1437SOL    HW2 5211   4.186   1.423   0.886
 1438SOL     OW 5212   2.348   0.324   2.691
 1438SOL    HW1 5213   2.248   0.313   2.694
 1438SOL    HW2 5214   2.384   0.329   2.784
 1439SOL     OW 5215   0.648   5.355   5.155
 1439SOL    HW1 5216   0.571   5.418   5.159
 1439SOL    HW2 5217   0.646   5.305   5.069
 1440SOL     OW 5218   3.397   3.436   2.134
 1440SOL    HW1 5219   3.385   3.410   2.038
 1440SOL    HW2 5220   3.324   3.499   2.161
 1441SOL     OW 5221   0.159   2.111   5.974
 1441SOL    HW1 5222   0.177   2.138   6.068
 1441SOL    HW2 5223   0.090   2.038   5.972
 1442SOL     OW 5224   5.268   5.923   0.205
 1442SOL    HW1 5225   5.191   5.939   0.266
 1442SOL    HW2 5226   5.248   5.961   0.115
 1443SOL     OW 5227   1.754   2.775   3.459
 1443SOL    HW1 5228   1.762   2.846   3.389
 1443SOL    HW2 5229   1.791   2.689   3.423
 1444SOL     OW 5230   5.218   6.547   4.799
 1444SOL    HW1 5231   5.182   6.473   4.855
 1444SOL    HW2 5232   5.188   6.635   4.836
 1445SOL     OW 5233   7.015   2.208   0.014
 1445SOL    HW1 5234   6.940   2.263   6.998
 1445SOL    HW2 5235   6.978   2.123   0.050
 1446SOL     OW 5236   3.738   6.185   2.213
 1446SOL    HW1 5237   3.679   6.260   2.243
 1446SOL    HW2 5238   3.689   6.099   2.220
 1447SOL     OW 5239   6.870   0.451   4.307
 1447SOL    HW1 5240   6.849   0.470   4.403
 1447SOL    HW2 5241   6.924   0.526   4.269
 1448SOL     OW 5242   5.274   0.770   7.016
 1448SOL    HW1 5243   5.332   0.784   0.073
 1448SOL    HW2 5244   5.332   0.758   6.935
 1449SOL     OW 5245   4.608   5.485   0.274
 1449SOL    HW1 5246   4.688   5.454   0.223
 1449SOL    HW2 5247   4.601   5.435   0.360
 1450SOL     OW 5248   5.590   1.702   3.639
 1450SOL    HW1 5249   5.506   1.724   3.688
 1450SOL    HW2 5250   5.614   1.606   3.653
 1451SOL     OW 5251   1.066   6.899   1.653
 1451SOL    HW1 5252   1.011   6.856   1.725
 1451SOL    HW2 5253   1.161   6.872   1.664
 1452SOL     OW 5254   2.915   0.186   6.064
 1452SOL    HW1 5255   2.924   0.163   5.967
 1452SOL    HW2 5256   2.883   0.281   6.072
 1453SOL     OW 5257   5.268   4.191   4.314
 1453SOL    HW1 5258   5.312   4.101   4.322
 1453SOL    HW2 5259   5.313   4.255   4.376
 1454SOL     OW 5260   5.575   3.774   1.167
 1454SOL    HW1 5261   5.558   3.756   1.264
 1454SOL    HW2 5262   5.522   3.710   1.112
 1455SOL     OW 5263   1.679   2.029   1.525
 1455SOL    HW1 5264   1.717   2.076   1.604
 1455SOL    HW2 5265   1.588   2.066   1.506
 1456SOL     OW 5266   6.072   5.616   5.328
 1456SOL    HW1 5267   5.975   5.638   5.339
 1456SOL    HW2 5268   6.094   5.608   5.231
 1457SOL     OW 5269   1.703   0.716   4.300
 1457SOL    HW1 5270   1.613   0.672   4.308
 1457SOL    HW2 5271   1.691   0.814   4.283
 1458SOL     OW 5272   0.432   5.209   6.606
 1458SOL    HW1 5273   0.443   5.111   6.624
 1458SOL    HW2 5274   0.456   5.261   6.687
 1459SOL     OW 5275   2.472   0.016   1.345
 1459SOL    HW1 5276   2.555   0.070   1.328
 1459SOL    HW2 5277   2.496   6.959   1.400
 1460SOL     OW 5278   0.318   6.986   0.053
 1460SOL    HW1 5279   0.268   0.048   0.038
 1460SOL    HW2 5280   0.385   6.973   7.003
 1461SOL     OW 5281   4.922   5.361   2.092
 1461SOL    HW1 5282   4.968   5.327   2.010
 1461SOL    HW2 5283   4.866   5.441   2.068
 1462SOL     OW 5284   5.275   0.038   5.044
 1462SOL    HW1 5285   5.368   0.059   5.073
 1462SOL    HW2 5286   5.257   0.080   4.955
 1463SOL     OW 5287   0.540   2.424   5.512
 1463SOL    HW1 5288   0.624   2.408   5.564
 1463SOL    HW2 5289   0.482   2.343   5.517
 1464SOL     OW 5290   0.690   0.835   1.472
 1464SOL    HW1 5291   0.619   0.892   1.432
 1464SOL    HW2 5292   0.709   0.866   1.566
 1465SOL     OW 5293   1.417   1.320   3.492
 1465SOL    HW1 5294   1.404   1.243   3.555
 1465SOL    HW2 5295   1.429   1.286   3.399
 1466SOL     OW 5296   5.727   5.437   4.439
 1466SOL    HW1 5297   5.791   5.388   4.381
 1466SOL    HW2 5298   5.777   5.491   4.507
 1467SOL     OW 5299   6.551   3.877   3.879
 1467SOL    HW1 5300   6.538   3.895   3.977
 1467SOL    HW2 5301   6.505   3.792   3.855
 1468SOL     OW 5302   4.602   0.463   2.503
 1468SOL    HW1 5303   4.589   0.523   2.583
 1468SOL    HW2 5304   4.516   0.456   2.453
 1469SOL     OW 5305   0.792   0.450   2.044
 1469SOL    HW1 5306   0.823   0.440   2.138
 1469SOL    HW2 5307   0.714   0.513   2.042
 1470SOL     OW 5308   0.287   0.051   2.503
 1470SOL    HW1 5309   0.370   0.035   2.556
 1470SOL    HW2 5310   0.265   6.991   2.450
 1471SOL     OW 5311   5.970   0.927   1.293
 1471SOL    HW1 5312   5.906   0.956   1.222
 1471SOL    HW2 5313   6.031   1.003   1.316
 1472SOL     OW 5314   4.825   5.231   4.879
 1472SOL    HW1 5315   4.890   5.261   4.809
 1472SOL    HW2 5316   4.801   5.308   4.937
 1473SOL     OW 5317   6.364   3.603   3.591
 1473SOL    HW1 5318   6.362   3.608   3.690
 1473SOL    HW2 5319   6.458   3.586   3.560
 1474SOL     OW 5320   4.606   5.520   2.995
 1474SOL    HW1 5321   4.668   5.571   3.055
 1474SOL    HW2 5322   4.565   5.583   2.929
 1475SOL     OW 5323   6.497   6.637   3.277
 1475SOL    HW1 5324   6.489   6.612   3.180
 1475SOL    HW2 5325   6.440   6.717   3.296
 1476SOL     OW 5326   0.672   2.297   1.624
 1476SOL    HW1 5327   0.753   2.338   1.665
 1476SOL    HW2 5328   0.677   2.197   1.632
 1477SOL     OW 5329   2.671   6.688   4.459
 1477SOL    HW1 5330   2.624   6.602   4.438
 1477SOL    HW2 5331   2.609   6.764   4.439
 1478SOL     OW 5332   0.091   3.461   1.362
 1478SOL    HW1 5333   0.023   3.528   1.390
 1478SOL    HW2 5334   0.085   3.381   1.421
 1479SOL     OW 5335   0.990   5.536   0.427
 1479SOL    HW1 5336   1.062   5.468   0.417
 1479SOL    HW2 5337   1.015   5.602   0.498
 1480SOL     OW 5338   2.717   0.799   6.925
 1480SOL    HW1 5339   2.636   0.790   6.983
 1480SOL    HW2 5340   2.759   0.888   6.941
 1481SOL     OW 5341   0.275   3.454   0.060
 1481SOL    HW1 5342   0.284   3.413   0.151
 1481SOL    HW2 5343   0.196   3.414   0.014
 1482SOL     OW 5344   5.836   0.347   6.234
 1482SOL    HW1 5345   5.905   0.289   6.277
 1482SOL    HW2 5346   5.746   0.304   6.243
 1483SOL     OW 5347   6.240   1.683   6.386
 1483SOL    HW1 5348   6.157   1.736   6.401
 1483SOL    HW2 5349   6.243   1.651   6.291
 1484SOL     OW 5350   6.140   6.851   2.800
 1484SOL    HW1 5351   6.097   6.764   2.826
 1484SOL    HW2 5352   6.105   6.881   2.712
 1485SOL     OW 5353   5.282   3.386   4.385
 1485SOL    HW1 5354   5.284   3.438   4.300
 1485SOL    HW2 5355   5.191   3.347   4.398
 1486SOL     OW 5356   5.441   2.312   2.265
 1486SOL    HW1 5357   5.446   2.214   2.246
 1486SOL    HW2 5358   5.370   2.329   2.332
 1487SOL     OW 5359   0.052   0.226   5.879
 1487SOL    HW1 5360   0.068   0.128   5.867
 1487SOL    HW2 5361   0.139   0.274   5.879
 1488SOL     OW 5362   5.231   2.160   4.688
 1488SOL    HW1 5363   5.232   2.212   4.773
 1488SOL    HW2 5364   5.148   2.182   4.636
 1489SOL     OW 5365   3.404   5.089   4.612
 1489SOL    HW1 5366   3.470   5.022   4.579
 1489SOL    HW2 5367   3.336   5.108   4.541
 1490SOL     OW 5368   2.386   2.336   1.098
 1490SOL    HW1 5369   2.476   2.375   1.079
 1490SOL    HW2 5370   2.316   2.406   1.083
 1491SOL     OW 5371   0.491   2.391   4.816
 1491SOL    HW1 5372   0.486   2.480   4.769
 1491SOL    HW2 5373   0.399   2.353   4.825
 1492SOL     OW 5374   6.926   2.142   1.736
 1492SOL    HW1 5375   6.988   2.168   1.810
 1492SOL    HW2 5376   6.975   2.147   1.649
 1493SOL     OW 5377   5.858   2.083   5.478
 1493SOL    HW1 5378   5.952   2.054   5.496
 1493SOL    HW2 5379   5.806   2.007   5.438
 1494SOL     OW 5380   5.252   1.531   4.357
 1494SOL    HW1 5381   5.314   1.529   4.279
 1494SOL    HW2 5382   5.298   1.574   4.435
 1495SOL     OW 5383   1.290   3.710   2.298
 1495SOL    HW1 5384   1.360   3.660   2.349
 1495SOL    HW2 5385   1.225   3.750   2.362
 1496SOL     OW 5386   1.197   0.363   2.062
 1496SOL    HW1 5387   1.190   0.383   2.160
 1496SOL    HW2 5388   1.124   0.411   2.013
 1497SOL     OW 5389   5.570   5.249   5.944
 1497SOL    HW1 5390   5.620   5.323   5.898
 1497SOL    HW2 5391   5.563   5.269   6.042
 1498SOL     OW 5392   2.588   5.522   0.551
 1498SOL    HW1 5393   2.687   5.514   0.540
 1498SOL    HW2 5394   2.560   5.617   0.532
 1499SOL     OW 5395   0.923   4.127   4.425
 1499SOL    HW1 5396   0.996   4.120   4.493
 1499SOL    HW2 5397   0.932   4.214   4.376
 1500SOL     OW 5398   3.469   6.800   5.807
 1500SOL    HW1 5399   3.451   6.794   5.709
 1500SOL    HW2 5400   3.536   6.730   5.833
 1501SOL     OW 5401   3.558   0.443   0.794
 1501SOL    HW1 5402   3.637   0.405   0.745
 1501SOL    HW2 5403   3.499   0.368   0.825
 1502SOL     OW 5404   0.689   0.210   5.589
 1502SOL    HW1 5405   0.592   0.201   5.567
 1502SOL    HW2 5406   0.703   0.192   5.687
 1503SOL     OW 5407   3.281   3.851   4.809
 1503SOL    HW1 5408   3.267   3.949   4.796
 1503SOL    HW2 5409   3.221   3.800   4.748
 1504SOL     OW 5410   2.956   6.768   3.954
 1504SOL    HW1 5411   2.996   6.734   4.039
 1504SOL    HW2 5412   2.971   6.702   3.881
 1505SOL     OW 5413   5.136   6.884   2.674
 1505SOL    HW1 5414   5.067   6.884   2.602
 1505SOL    HW2 5415   5.163   6.979   2.694
 1506SOL     OW 5416   0.986   6.327   4.044
 1506SOL    HW1 5417   1.027   6.309   3.954
 1506SOL    HW2 5418   0.900   6.376   4.032
 1507SOL     OW 5419   2.072   2.126   6.791
 1507SOL    HW1 5420   2.002   2.081   6.847
 1507SOL    HW2 5421   2.066   2.225   6.804
 1508SOL     OW 5422   4.577   6.800   1.025
 1508SOL    HW1 5423   4.558   6.712   1.066
 1508SOL    HW2 5424   4.606   6.865   1.095
 1509SOL     OW 5425   5.744   1.454   6.512
 1509SOL    HW1 5426   5.802   1.452   6.430
 1509SOL    HW2 5427   5.802   1.454   6.594
 1510SOL     OW 5428   6.557   1.471   2.705
 1510SOL    HW1 5429   6.551   1.570   2.717
 1510SOL    HW2 5430   6.510   1.445   2.621
 1511SOL     OW 5431   1.239   3.071   6.977
 1511SOL    HW1 5432   1.290   2.990   6.949
 1511SOL    HW2 5433   1.170   3.093   6.908
 1512SOL     OW 5434   6.984   1.350   1.582
 1512SOL    HW1 5435   7.016   1.430   1.530
 1512SOL    HW2 5436   0.038   1.288   1.596
 1513SOL     OW 5437   2.693   0.845   2.883
 1513SOL    HW1 5438   2.645   0.786   2.948
 1513SOL    HW2 5439   2.790   0.819   2.880
 1514SOL     OW 5440   4.739   0.753   5.707
 1514SOL    HW1 5441   4.772   0.823   5.769
 1514SOL    HW2 5442   4.763   0.662   5.742
 1515SOL     OW 5443   5.374   5.305   5.532
 1515SOL    HW1 5444   5.374   5.231   5.464
 1515SOL    HW2 5445   5.317   5.380   5.499
 1516SOL     OW 5446   0.158   1.395   0.690
 1516SOL    HW1 5447   0.238   1.404   0.631
 1516SOL    HW2 5448   0.117   1.485   0.703
 1517SOL     OW 5449   3.247   5.679   2.642
 1517SOL    HW1 5450   3.253   5.596   2.696
 1517SOL    HW2 5451   3.272   5.659   2.547
 1518SOL     OW 5452   0.431   4.797   0.632
 1518SOL    HW1 5453   0.509   4.838   0.586
 1518SOL    HW2 5454   0.372   4.869   0.669
 1519SOL     OW 5455   0.543   4.286   1.054
 1519SOL    HW1 5456   0.603   4.301   1.133
 1519SOL    HW2 5457   0.579   4.337   0.976
 1520SOL     OW 5458   1.190   3.245   2.792
 1520SOL    HW1 5459   1.205   3.340   2.820
 1520SOL    HW2 5460   1.260   3.186   2.834
 1521SOL     OW 5461   2.478   4.661   5.295
 1521SOL    HW1 5462   2.465   4.564   5.272
 1521SOL    HW2 5463   2.575   4.684   5.290
 1522SOL     OW 5464   1.499   1.584   6.268
 1522SOL    HW1 5465   1.561   1.656   6.298
 1522SOL    HW2 5466   1.470   1.602   6.174
 1523SOL     OW 5467   5.772   1.707   1.458
 1523SOL    HW1 5468   5.727   1.669   1.377
 1523SOL    HW2 5469   5.869   1.721   1.438
 1524SOL     OW 5470   0.272   1.297   1.203
 1524SOL    HW1 5471   0.302   1.205   1.227
 1524SOL    HW2 5472   0.231   1.295   1.111
 1525SOL     OW 5473   4.851   1.492   5.968
 1525SOL    HW1 5474   4.908   1.572   5.984
 1525SOL    HW2 5475   4.763   1.521   5.932
 1526SOL     OW 5476   5.799   1.394   0.458
 1526SOL    HW1 5477   5.783   1.391   0.359
 1526SOL    HW2 5478   5.788   1.488   0.491
 1527SOL     OW 5479   2.963   1.120   5.839
 1527SOL    HW1 5480   2.901   1.075   5.774
 1527SOL    HW2 5481   2.996   1.053   5.905
 1528SOL     OW 5482   5.430   5.599   3.795
 1528SOL    HW1 5483   5.371   5.626   3.719
 1528SOL    HW2 5484   5.524   5.628   3.777
 1529SOL     OW 5485   1.703   6.940   5.462
 1529SOL    HW1 5486   1.607   6.920   5.479
 1529SOL    HW2 5487   1.722   0.013   5.484
 1530SOL     OW 5488   2.558   6.450   1.203
 1530SOL    HW1 5489   2.485   6.501   1.157
 1530SOL    HW2 5490   2.517   6.379   1.261
 1531SOL     OW 5491   5.543   0.514   6.612
 1531SOL    HW1 5492   5.549   0.415   6.599
 1531SOL    HW2 5493   5.448   0.540   6.631
 1532SOL     OW 5494   2.958   1.947   5.261
 1532SOL    HW1 5495   2.930   1.902   5.346
 1532SOL    HW2 5496   3.056   1.932   5.247
 1533SOL     OW 5497   4.710   3.208   6.910
 1533SOL    HW1 5498   4.717   3.224   7.008
 1533SOL    HW2 5499   4.617   3.181   6.886
 1534SOL     OW 5500   6.705   0.441   0.824
 1534SOL    HW1 5501   6.610   0.410   0.818
 1534SOL    HW2 5502   6.759   0.373   0.874
 1535SOL     OW 5503   4.975   4.536   4.785
 1535SOL    HW1 5504   5.027   4.526   4.700
 1535SOL    HW2 5505   4.950   4.445   4.819
 1536SOL     OW 5506   3.295   6.647   3.169
 1536SOL    HW1 5507   3.254   6.597   3.093
 1536SOL    HW2 5508   3.330   6.735   3.137
 1537SOL     OW 5509   2.988   5.789   4.648
 1537SOL    HW1 5510   3.013   5.793   4.745
 1537SOL    HW2 5511   3.070   5.777   4.593
 1538SOL     OW 5512   3.185   5.953   6.923
 1538SOL    HW1 5513   3.136   5.972   6.837
 1538SOL    HW2 5514   3.241   6.032   6.948
 1539SOL     OW 5515   2.712   6.447   1.806
 1539SOL    HW1 5516   2.767   6.382   1.753
 1539SOL    HW2 5517   2.630   6.471   1.754
 1540SOL     OW 5518   6.083   6.761   5.139
 1540SOL    HW1 5519   6.025   6.807   5.073
 1540SOL    HW2 5520   6.145   6.827   5.182
 1541SOL     OW 5521   5.090   1.198   1.727
 1541SOL    HW1 5522   5.067   1.286   1.771
 1541SOL    HW2 5523   5.189   1.193   1.713
 1542SOL     OW 5524   7.011   6.495   1.138
 1542SOL    HW1 5525   0.014   6.398   1.140
 1542SOL    HW2 5526   6.992   6.526   1.231
 1543SOL     OW 5527   3.503   3.479   3.193
 1543SOL    HW1 5528   3.482   3.523   3.105
 1543SOL    HW2 5529   3.466   3.386   3.194
 1544SOL     OW 5530   3.456   3.838   2.283
 1544SOL    HW1 5531   3.382   3.895   2.319
 1544SOL    HW2 5532   3.520   3.896   2.232
 1545SOL     OW 5533   6.938   6.947   4.870
 1545SOL    HW1 5534   7.013   6.882   4.864
 1545SOL    HW2 5535   6.948   7.018   4.800
 1546SOL     OW 5536   6.781   6.422   6.506
 1546SOL    HW1 5537   6.838   6.418   6.588
 1546SOL    HW2 5538   6.838   6.406   6.425
 1547SOL     OW 5539   3.570   5.785   0.256
 1547SOL    HW1 5540   3.559   5.686   0.268
 1547SOL    HW2 5541   3.648   5.802   0.196
 1548SOL     OW 5542   6.650   3.927   3.179
 1548SOL    HW1 5543   6.682   3.918   3.274
 1548SOL    HW2 5544   6.729   3.931   3.118
 1549SOL     OW 5545   6.781   2.305   0.951
 1549SOL    HW1 5546   6.804   2.349   1.038
 1549SOL    HW2 5547   6.685   2.322   0.929
 1550SOL     OW 5548   2.902   5.093   2.427
 1550SOL    HW1 5549   2.926   5.157   2.354
 1550SOL    HW2 5550   2.876   5.144   2.509
 1551SOL     OW 5551   0.373   2.381   1.693
 1551SOL    HW1 5552   0.358   2.383   1.594
 1551SOL    HW2 5553   0.460   2.338   1.712
 1552SOL     OW 5554   1.525   6.771   2.274
 1552SOL    HW1 5555   1.589   6.835   2.232
 1552SOL    HW2 5556   1.508   6.798   2.369
 1553SOL     OW 5557   5.888   1.198   5.669
 1553SOL    HW1 5558   5.931   1.153   5.747
 1553SOL    HW2 5559   5.795   1.164   5.658
 1554SOL     OW 5560   2.764   2.729   0.607
 1554SOL    HW1 5561   2.804   2.720   0.516
 1554SOL    HW2 5562   2.701   2.807   0.609
 1555SOL     OW 5563   4.105   1.204   0.672
 1555SOL    HW1 5564   4.091   1.259   0.590
 1555SOL    HW2 5565   4.016   1.182   0.713
 1556SOL     OW 5566   3.238   2.380   0.379
 1556SOL    HW1 5567   3.335   2.362   0.363
 1556SOL    HW2 5568   3.199   2.309   0.437
 1557SOL     OW 5569   1.562   2.989   0.556
 1557SOL    HW1 5570   1.613   3.069   0.526
 1557SOL    HW2 5571   1.534   3.001   0.651
 1558SOL     OW 5572   5.090   2.586   6.612
 1558SOL    HW1 5573   5.029   2.508   6.623
 1558SOL    HW2 5574   5.063   2.638   6.531
 1559SOL     OW 5575   2.814   6.420   3.437
 1559SOL    HW1 5576   2.883   6.487   3.463
 1559SOL    HW2 5577   2.842   6.329   3.470
 1560SOL     OW 5578   4.538   3.128   1.459
 1560SOL    HW1 5579   4.565   3.047   1.407
 1560SOL    HW2 5580   4.591   3.207   1.428
 1561SOL     OW 5581   5.349   6.225   0.541
 1561SOL    HW1 5582   5.257   6.188   0.525
 1561SOL    HW2 5583   5.407   6.204   0.463
 1562SOL     OW 5584   2.467   0.175   2.387
 1562SOL    HW1 5585   2.516   0.218   2.311
 1562SOL    HW2 5586   2.412   0.244   2.435
 1563SOL     OW 5587   2.078   3.488   3.781
 1563SOL    HW1 5588   2.123   3.486   3.870
 1563SOL    HW2 5589   2.009   3.562   3.780
 1564SOL     OW 5590   1.086   2.140   2.584
 1564SOL    HW1 5591   1.162   2.205   2.587
 1564SOL    HW2 5592   1.013   2.177   2.527
 1565SOL     OW 5593   4.928   1.944   4.892
 1565SOL    HW1 5594   4.983   1.862   4.881
 1565SOL    HW2 5595   4.857   1.947   4.822
 1566SOL     OW 5596   0.592   3.616   3.648
 1566SOL    HW1 5597   0.525   3.622   3.721
 1566SOL    HW2 5598   0.552   3.649   3.563
 1567SOL     OW 5599   5.419   0.290   4.928
 1567SOL    HW1 5600   5.453   0.293   5.022
 1567SOL    HW2 5601   5.386   0.380   4.901
 1568SOL     OW 5602   2.199   4.539   0.745
 1568SOL    HW1 5603   2.114   4.588   0.764
 1568SOL    HW2 5604   2.216   4.471   0.816
 1569SOL     OW 5605   2.003   1.232   2.529
 1569SOL    HW1 5606   1.936   1.302   2.553
 1569SOL    HW2 5607   2.093   1.274   2.519
 1570SOL     OW 5608   2.860   5.837   6.633
 1570SOL    HW1 5609   2.826   5.777   6.705
 1570SOL    HW2 5610   2.815   5.815   6.547
 1571SOL     OW 5611   6.835   2.354   4.476
 1571SOL    HW1 5612   6.922   2.397   4.452
 1571SOL    HW2 5613   6.790   2.407   4.547
 1572SOL     OW 5614   2.160   6.220   2.964
 1572SOL    HW1 5615   2.188   6.311   2.931
 1572SOL    HW2 5616   2.195   6.207   3.057
 1573SOL     OW 5617   5.513   5.496   0.358
 1573SOL    HW1 5618   5.605   5.517   0.327
 1573SOL    HW2 5619   5.497   5.398   0.351
 1574SOL     OW 5620   0.383   4.556   3.181
 1574SOL    HW1 5621   0.345   4.483   3.238
 1574SOL    HW2 5622   0.460   4.599   3.228
 1575SOL     OW 5623   6.824   2.300   0.480
 1575SOL    HW1 5624   6.912   2.341   0.454
 1575SOL    HW2 5625   6.833   2.254   0.568
 1576SOL     OW 5626   1.509   6.270   2.155
 1576SOL    HW1 5627   1.414   6.275   2.186
 1576SOL    HW2 5628   1.570   6.304   2.227
 1577SOL     OW 5629   4.464   5.737   4.238
 1577SOL    HW1 5630   4.432   5.768   4.328
 1577SOL    HW2 5631   4.386   5.702   4.186
 1578SOL     OW 5632   5.435   1.977   1.772
 1578SOL    HW1 5633   5.454   1.882   1.795
 1578SOL    HW2 5634   5.365   1.981   1.700
 1579SOL     OW 5635   1.841   3.241   1.877
 1579SOL    HW1 5636   1.926   3.267   1.924
 1579SOL    HW2 5637   1.766   3.239   1.944
 1580SOL     OW 5638   3.479   4.049   3.181
 1580SOL    HW1 5639   3.403   4.064   3.244
 1580SOL    HW2 5640   3.492   3.950   3.167
 1581SOL     OW 5641   5.289   4.469   5.193
 1581SOL    HW1 5642   5.334   4.556   5.214
 1581SOL    HW2 5643   5.196   4.487   5.162
 1582SOL     OW 5644   4.200   6.218   4.740
 1582SOL    HW1 5645   4.249   6.218   4.652
 1582SOL    HW2 5646   4.133   6.144   4.740
 1583SOL     OW 5647   1.074   4.792   5.282
 1583SOL    HW1 5648   1.068   4.830   5.190
 1583SOL    HW2 5649   1.170   4.787   5.310
 1584SOL     OW 5650   0.162   3.970   0.119
 1584SOL    HW1 5651   0.088   4.028   0.083
 1584SOL    HW2 5652   0.250   4.013   0.103
 1585SOL     OW 5653   4.884   6.174   4.661
 1585SOL    HW1 5654   4.952   6.204   4.594
 1585SOL    HW2 5655   4.831   6.253   4.691
 1586SOL     OW 5656   2.471   6.096   3.781
 1586SOL    HW1 5657   2.510   6.134   3.866
 1586SOL    HW2 5658   2.538   6.037   3.737
 1587SOL     OW 5659   3.482   6.260   0.208
 1587SOL    HW1 5660   3.445   6.234   0.119
 1587SOL    HW2 5661   3.562   6.203   0.229
 1588SOL     OW 5662   6.248   2.047   3.418
 1588SOL    HW1 5663   6.193   1.993   3.482
 1588SOL    HW2 5664   6.213   2.033   3.325
 1589SOL     OW 5665   6.864   2.134   4.645
 1589SOL    HW1 5666   6.861   2.210   4.580
 1589SOL    HW2 5667   6.828   2.164   4.733
 1590SOL     OW 5668   5.155   0.582   3.925
 1590SOL    HW1 5669   5.188   0.538   3.841
 1590SOL    HW2 5670   5.082   0.526   3.965
 1591SOL     OW 5671   0.654   5.544   0.476
 1591SOL    HW1 5672   0.731   5.557   0.413
 1591SOL    HW2 5673   0.593   5.622   0.471
 1592SOL     OW 5674   0.019   3.857   4.889
 1592SOL    HW1 5675   0.025   3.854   4.789
 1592SOL    HW2 5676   0.103   3.820   4.928
 1593SOL     OW 5677   3.717   5.849   1.321
 1593SOL    HW1 5678   3.800   5.889   1.283
 1593SOL    HW2 5679   3.702   5.758   1.281
 1594SOL     OW 5680   4.861   0.795   2.764
 1594SOL    HW1 5681   4.901   0.884   2.740
 1594SOL    HW2 5682   4.870   0.779   2.862
 1595SOL     OW 5683   0.851   3.498   6.612
 1595SOL    HW1 5684   0.787   3.423   6.596
 1595SOL    HW2 5685   0.801   3.581   6.634
 1596SOL     OW 5686   5.027   4.182   4.183
 1596SOL    HW1 5687   5.094   4.186   4.258
 1596SOL    HW2 5688   5.074   4.154   4.099
 1597SOL     OW 5689   3.735   6.113   0.251
 1597SOL    HW1 5690   3.810   6.178   0.237
 1597SOL    HW2 5691   3.759   6.049   0.324
 1598SOL     OW 5692   1.331   4.532   6.469
 1598SOL    HW1 5693   1.373   4.601   6.529
 1598SOL    HW2 5694   1.231   4.537   6.478
 1599SOL     OW 5695   4.495   5.586   3.927
 1599SOL    HW1 5696   4.407   5.615   3.966
 1599SOL    HW2 5697   4.541   5.524   3.991
 1600SOL     OW 5698   4.571   0.559   1.513
 1600SOL    HW1 5699   4.512   0.602   1.582
 1600SOL    HW2 5700   4.667   0.580   1.533
 1601SOL     OW 5701   6.233   0.873   4.892
 1601SOL    HW1 5702   6.318   0.838   4.853
 1601SOL    HW2 5703   6.199   0.949   4.837
 1602SOL     OW 5704   4.298   5.390   3.428
 1602SOL    HW1 5705   4.393   5.394   3.459
 1602SOL    HW2 5706   4.287   5.314   3.364
 1603SOL     OW 5707   3.236   5.131   2.113
 1603SOL    HW1 5708   3.161   5.154   2.175
 1603SOL    HW2 5709   3.240   5.032   2.100
 1604SOL     OW 5710   4.183   5.114   2.730
 1604SOL    HW1 5711   4.235   5.177   2.672
 1604SOL    HW2 5712   4.215   5.122   2.824
 1605SOL     OW 5713   4.667   5.313   0.482
 1605SOL    HW1 5714   4.648   5.234   0.423
 1605SOL    HW2 5715   4.764   5.313   0.508
 1606SOL     OW 5716   3.157   5.934   5.131
 1606SOL    HW1 5717   3.113   5.892   5.051
 1606SOL    HW2 5718   3.246   5.971   5.104
 1607SOL     OW 5719   4.828   3.833   3.923
 1607SOL    HW1 5720   4.837   3.744   3.966
 1607SOL    HW2 5721   4.817   3.822   3.824
 1608SOL     OW 5722   5.577   2.862   3.854
 1608SOL    HW1 5723   5.536   2.826   3.770
 1608SOL    HW2 5724   5.508   2.915   3.904
 1609SOL     OW 5725   1.720   6.950   0.774
 1609SOL    HW1 5726   1.706   0.018   0.813
 1609SOL    HW2 5727   1.682   6.881   0.836
 1610SOL     OW 5728   5.834   6.499   0.814
 1610SOL    HW1 5729   5.886   6.416   0.795
 1610SOL    HW2 5730   5.736   6.477   0.816
 1611SOL     OW 5731   0.829   4.051   6.882
 1611SOL    HW1 5732   0.877   4.114   6.942
 1611SOL    HW2 5733   0.857   3.957   6.903
 1612SOL     OW 5734   4.791   1.169   1.808
 1612SOL    HW1 5735   4.814   1.195   1.714
 1612SOL    HW2 5736   4.828   1.078   1.827
 1613SOL     OW 5737   0.267   6.049   2.756
 1613SOL    HW1 5738   0.225   5.961   2.780
 1613SOL    HW2 5739   0.345   6.033   2.696
 1614SOL     OW 5740   6.308   1.865   5.255
 1614SOL    HW1 5741   6.257   1.867   5.169
 1614SOL    HW2 5742   6.361   1.781   5.261
 1615SOL     OW 5743   0.009   3.378   5.340
 1615SOL    HW1 5744   6.987   3.448   5.284
 1615SOL    HW2 5745   0.006   3.290   5.292
 1616SOL     OW 5746   0.880   1.455   3.076
 1616SOL    HW1 5747   0.822   1.529   3.108
 1616SOL    HW2 5748   0.869   1.375   3.135
 1617SOL     OW 5749   6.521   5.667   3.801
 1617SOL    HW1 5750   6.584   5.696   3.873
 1617SOL    HW2 5751   6.428   5.696   3.824
 1618SOL     OW 5752   3.289   5.857   2.903
 1618SOL    HW1 5753   3.247   5.770   2.879
 1618SOL    HW2 5754   3.220   5.918   2.941
 1619SOL     OW 5755   1.055   3.839   6.493
 1619SOL    HW1 5756   0.978   3.808   6.437
 1619SOL    HW2 5757   1.025   3.853   6.587
 1620SOL     OW 5758   3.243   6.879   4.306
 1620SOL    HW1 5759   3.334   6.866   4.268
 1620SOL    HW2 5760   3.212   6.973   4.290
 1621SOL     OW 5761   5.115   5.099   0.849
 1621SOL    HW1 5762   5.182   5.078   0.778
 1621SOL    HW2 5763   5.024   5.106   0.808
 1622SOL     OW 5764   6.225   4.302   3.620
 1622SOL    HW1 5765   6.302   4.240   3.602
 1622SOL    HW2 5766   6.235   4.385   3.565
 1623SOL     OW 5767   0.733   2.524   3.941
 1623SOL    HW1 5768   0.801   2.458   3.970
 1623SOL    HW2 5769   0.723   2.520   3.841
 1624SOL     OW 5770   3.884   2.975   0.762
 1624SOL    HW1 5771   3.971   2.993   0.808
 1624SOL    HW2 5772   3.898   2.971   0.663
 1625SOL     OW 5773   0.866   6.420   0.419
 1625SOL    HW1 5774   0.902   6.374   0.500
 1625SOL    HW2 5775   0.864   6.519   0.434
 1626SOL     OW 5776   2.338   1.984   1.919
 1626SOL    HW1 5777   2.362   1.898   1.875
 1626SOL    HW2 5778   2.422   2.032   1.946
 1627SOL     OW 5779   4.320   1.697   6.098
 1627SOL    HW1 5780   4.259   1.776   6.100
 1627SOL    HW2 5781   4.390   1.711   6.028
 1628SOL     OW 5782   5.394   6.415   1.211
 1628SOL    HW1 5783   5.348   6.437   1.125
 1628SOL    HW2 5784   5.415   6.318   1.214
 1629SOL     OW 5785   1.636   6.935   3.648
 1629SOL    HW1 5786   1.681   7.020   3.619
 1629SOL    HW2 5787   1.539   6.940   3.626
 1630SOL     OW 5788   0.713   3.959   6.019
 1630SOL    HW1 5789   0.790   3.956   6.083
 1630SOL    HW2 5790   0.684   4.054   6.007
 1631SOL     OW 5791   5.399   3.529   0.274
 1631SOL    HW1 5792   5.324   3.463   0.271
 1631SOL    HW2 5793   5.454   3.514   0.356
 1632SOL     OW 5794   6.154   6.180   2.486
 1632SOL    HW1 5795   6.112   6.134   2.408
 1632SOL    HW2 5796   6.133   6.278   2.482
 1633SOL     OW 5797   5.809   3.670   4.861
 1633SOL    HW1 5798   5.782   3.741   4.927
 1633SOL    HW2 5799   5.779   3.697   4.770
 1634SOL     OW 5800   1.275   3.320   5.908
 1634SOL    HW1 5801   1.344   3.254   5.880
 1634SOL    HW2 5802   1.198   3.272   5.949
 1635SOL     OW 5803   2.514   0.271   3.399
 1635SOL    HW1 5804   2.575   0.195   3.379
 1635SOL    HW2 5805   2.481   0.310   3.313
 1636SOL     OW 5806   0.043   5.891   1.498
 1636SOL    HW1 5807   6.999   5.950   1.453
 1636SOL    HW2 5808   0.127   5.942   1.516
 1637SOL     OW 5809   1.370   1.374   2.682
 1637SOL    HW1 5810   1.446   1.383   2.747
 1637SOL    HW2 5811   1.283   1.381   2.732
 1638SOL     OW 5812   5.436   2.582   3.418
 1638SOL    HW1 5813   5.490   2.498   3.411
 1638SOL    HW2 5814   5.339   2.560   3.414
 1639SOL     OW 5815   4.745   2.233   1.702
 1639SOL    HW1 5816   4.712   2.264   1.612
 1639SOL    HW2 5817   4.758   2.312   1.761
 1640SOL     OW 5818   5.941   0.457   6.609
 1640SOL    HW1 5819   6.001   0.505   6.546
 1640SOL    HW2 5820   5.897   0.523   6.670
 1641SOL     OW 5821   5.676   1.198   3.103
 1641SOL    HW1 5822   5.764   1.156   3.081
 1641SOL    HW2 5823   5.635   1.151   3.181
 1642SOL     OW 5824   6.936   3.573   5.996
 1642SOL    HW1 5825   6.958   3.493   6.051
 1642SOL    HW2 5826   6.887   3.545   5.913
 1643SOL     OW 5827   2.239   5.408   3.584
 1643SOL    HW1 5828   2.279   5.331   3.534
 1643SOL    HW2 5829   2.284   5.493   3.556
 1644SOL     OW 5830   6.214   1.330   1.773
 1644SOL    HW1 5831   6.159   1.411   1.756
 1644SOL    HW2 5832   6.240   1.288   1.685
 1645SOL     OW 5833   2.613   0.894   4.877
 1645SOL    HW1 5834   2.578   0.860   4.790
 1645SOL    HW2 5835   2.709   0.868   4.888
 1646SOL     OW 5836   0.168   5.220   1.439
 1646SOL    HW1 5837   0.169   5.198   1.536
 1646SOL    HW2 5838   0.220   5.303   1.423
 1647SOL     OW 5839   6.272   3.315   4.959
 1647SOL    HW1 5840   6.358   3.364   4.973
 1647SOL    HW2 5841   6.277   3.263   4.874
 1648SOL     OW 5842   5.479   5.938   1.481
 1648SOL    HW1 5843   5.393   5.952   1.530
 1648SOL    HW2 5844   5.474   5.851   1.431
 1649SOL     OW 5845   3.516   1.211   2.666
 1649SOL    HW1 5846   3.588   1.279   2.653
 1649SOL    HW2 5847   3.552   1.134   2.719
 1650SOL     OW 5848   2.470   2.516   5.045
 1650SOL    HW1 5849   2.399   2.559   4.990
 1650SOL    HW2 5850   2.501   2.580   5.116
 1651SOL     OW 5851   1.029   1.906   4.109
 1651SOL    HW1 5852   1.023   1.811   4.139
 1651SOL    HW2 5853   0.958   1.924   4.041
 1652SOL     OW 5854   0.283   4.021   1.755
 1652SOL    HW1 5855   0.185   4.034   1.736
 1652SOL    HW2 5856   0.303   3.923   1.756
 1653SOL     OW 5857   6.754   4.318   1.633
 1653SOL    HW1 5858   6.762   4.220   1.651
 1653SOL    HW2 5859   6.667   4.336   1.586
 1654SOL     OW 5860   0.709   3.965   1.525
 1654SOL    HW1 5861   0.786   3.939   1.583
 1654SOL    HW2 5862   0.671   3.883   1.481
 1655SOL     OW 5863   6.987   1.066   5.881
 1655SOL    HW1 5864   0.026   0.994   5.912
 1655SOL    HW2 5865   0.016   1.137   5.834
 1656SOL     OW 5866   1.983   4.240   3.247
 1656SOL    HW1 5867   1.909   4.205   3.189
 1656SOL    HW2 5868   1.945   4.277   3.331
 1657SOL     OW 5869   0.598   0.507   6.075
 1657SOL    HW1 5870   0.637   0.423   6.113
 1657SOL    HW2 5871   0.617   0.512   5.977
 1658SOL     OW 5872   5.477   6.475   6.150
 1658SOL    HW1 5873   5.531   6.559   6.141
 1658SOL    HW2 5874   5.509   6.407   6.084
 1659SOL     OW 5875   3.852   0.119   5.875
 1659SOL    HW1 5876   3.776   0.180   5.899
 1659SOL    HW2 5877   3.817   0.043   5.821
 1660SOL     OW 5878   2.388   0.659   2.065
 1660SOL    HW1 5879   2.359   0.741   2.017
 1660SOL    HW2 5880   2.481   0.672   2.099
 1661SOL     OW 5881   4.959   4.092   3.180
 1661SOL    HW1 5882   4.957   4.021   3.109
 1661SOL    HW2 5883   4.867   4.106   3.216
 1662SOL     OW 5884   0.117   1.535   3.436
 1662SOL    HW1 5885   0.146   1.533   3.340
 1662SOL    HW2 5886   0.036   1.592   3.445
 1663SOL     OW 5887   5.258   3.818   1.362
 1663SOL    HW1 5888   5.352   3.791   1.386
 1663SOL    HW2 5889   5.259   3.910   1.323
 1664SOL     OW 5890   1.184   1.088   6.179
 1664SOL    HW1 5891   1.129   1.165   6.147
 1664SOL    HW2 5892   1.228   1.043   6.100
 1665SOL     OW 5893   2.267   3.742   6.337
 1665SOL    HW1 5894   2.266   3.819   6.401
 1665SOL    HW2 5895   2.174   3.728   6.301
 1666SOL     OW 5896   5.658   6.075   6.314
 1666SOL    HW1 5897   5.679   5.986   6.274
 1666SOL    HW2 5898   5.568   6.073   6.356
 1667SOL     OW 5899   0.100   5.373   0.698
 1667SOL    HW1 5900   0.103   5.274   0.684
 1667SOL    HW2 5901   0.025   5.412   0.646
 1668SOL     OW 5902   5.833   3.053   2.296
 1668SOL    HW1 5903   5.800   2.964   2.329
 1668SOL    HW2 5904   5.911   3.082   2.351
 1669SOL     OW 5905   6.433   2.609   5.503
 1669SOL    HW1 5906   6.348   2.658   5.522
 1669SOL    HW2 5907   6.412   2.522   5.458
 1670SOL     OW 5908   3.451   4.671   5.703
 1670SOL    HW1 5909   3.378   4.739   5.714
 1670SOL    HW2 5910   3.444   4.629   5.613
 1671SOL     OW 5911   5.227   2.265   0.502
 1671SOL    HW1 5912   5.147   2.215   0.469
 1671SOL    HW2 5913   5.197   2.338   0.564
 1672SOL     OW 5914   0.396   1.908   1.440
 1672SOL    HW1 5915   0.337   1.832   1.414
 1672SOL    HW2 5916   0.359   1.993   1.402
 1673SOL     OW 5917   1.457   0.271   4.712
 1673SOL    HW1 5918   1.501   0.195   4.761
 1673SOL    HW2 5919   1.362   0.280   4.743
 1674SOL     OW 5920   4.872   2.081   3.807
 1674SOL    HW1 5921   4.872   2.005   3.742
 1674SOL    HW2 5922   4.966   2.107   3.828
 1675SOL     OW 5923   5.768   0.311   2.069
 1675SOL    HW1 5924   5.722   0.324   2.157
 1675SOL    HW2 5925   5.785   0.399   2.026
 1676SOL     OW 5926   0.836   2.416   3.457
 1676SOL    HW1 5927   0.859   2.319   3.460
 1676SOL    HW2 5928   0.911   2.469   3.497
 1677SOL     OW 5929   2.959   3.506   3.056
 1677SOL    HW1 5930   2.931   3.592   3.014
 1677SOL    HW2 5931   2.977   3.438   2.985
 1678SOL     OW 5932   0.274   6.439   6.939
 1678SOL    HW1 5933   0.370   6.468   6.946
 1678SOL    HW2 5934   0.217   6.498   6.996
 1679SOL     OW 5935   6.003   1.673   0.325
 1679SOL    HW1 5936   5.963   1.697   0.236
 1679SOL    HW2 5937   6.084   1.617   0.312
 1680SOL     OW 5938   6.262   2.896   3.014
 1680SOL    HW1 5939   6.266   2.807   2.969
 1680SOL    HW2 5940   6.310   2.890   3.102
 1681SOL     OW 5941   3.228   5.989   4.610
 1681SOL    HW1 5942   3.213   5.975   4.707
 1681SOL    HW2 5943   3.233   5.901   4.563
 1682SOL     OW 5944   4.551   0.843   4.653
 1682SOL    HW1 5945   4.577   0.764   4.708
 1682SOL    HW2 5946   4.622   0.861   4.585
 1683SOL     OW 5947   0.519   2.699   3.024
 1683SOL    HW1 5948   0.613   2.732   3.027
 1683SOL    HW2 5949   0.457   2.774   3.044
 1684SOL     OW 5950   2.718   5.457   1.225
 1684SOL    HW1 5951   2.639   5.433   1.170
 1684SOL    HW2 5952   2.729   5.557   1.228
 1685SOL     OW 5953   0.160   1.309   5.421
 1685SOL    HW1 5954   0.099   1.277   5.350
 1685SOL    HW2 5955   0.144   1.407   5.438
 1686SOL     OW 5956   3.656   5.429   1.972
 1686SOL    HW1 5957   3.675   5.446   1.875
 1686SOL    HW2 5958   3.564   5.393   1.983
 1687SOL     OW 5959   5.057   3.764   0.809
 1687SOL    HW1 5960   5.105   3.773   0.722
 1687SOL    HW2 5961   4.992   3.839   0.819
 1688SOL     OW 5962   2.722   0.325   2.866
 1688SOL    HW1 5963   2.728   0.363   2.958
 1688SOL    HW2 5964   2.727   0.398   2.798
 1689SOL     OW 5965   3.695   0.859   1.877
 1689SOL    HW1 5966   3.649   0.944   1.851
 1689SOL    HW2 5967   3.647   0.818   1.954
 1690SOL     OW 5968   6.392   4.880   4.184
 1690SOL    HW1 5969   6.303   4.835   4.170
 1690SOL    HW2 5970   6.395   4.965   4.131
 1691SOL     OW 5971   4.120   2.789   5.368
 1691SOL    HW1 5972   4.059   2.837   5.305
 1691SOL    HW2 5973   4.163   2.712   5.321
 1692SOL     OW 5974   5.806   4.910   1.246
 1692SOL    HW1 5975   5.781   4.851   1.169
 1692SOL    HW2 5976   5.727   4.966   1.271
 1693SOL     OW 5977   5.378   6.769   5.801
 1693SOL    HW1 5978   5.455   6.743   5.859
 1693SOL    HW2 5979   5.395   6.739   5.707
 1694SOL     OW 5980   4.678   1.274   6.351
 1694SOL    HW1 5981   4.768   1.281   6.395
 1694SOL    HW2 5982   4.690   1.272   6.252
 1695SOL     OW 5983   3.731   0.561   5.367
 1695SOL    HW1 5984   3.766   0.594   5.454
 1695SOL    HW2 5985   3.804   0.516   5.316
 1696SOL     OW 5986   4.738   0.104   0.798
 1696SOL    HW1 5987   4.802   0.117   0.873
 1696SOL    HW2 5988   4.724   0.190   0.749
 1697SOL     OW 5989   4.485   2.733   1.692
 1697SOL    HW1 5990   4.457   2.827   1.711
 1697SOL    HW2 5991   4.428   2.670   1.746
 1698SOL     OW 5992   4.163   1.412   2.010
 1698SOL    HW1 5993   4.192   1.462   2.092
 1698SOL    HW2 5994   4.185   1.315   2.022
 1699SOL     OW 5995   2.083   0.634   0.674
 1699SOL    HW1 5996   2.032   0.692   0.610
 1699SOL    HW2 5997   2.110   0.550   0.629
 1700SOL     OW 5998   5.398   3.098   3.016
 1700SOL    HW1 5999   5.455   3.100   2.934
 1700SOL    HW2 6000   5.308   3.062   2.992
 1701SOL     OW 6001   1.199   5.748   5.045
 1701SOL    HW1 6002   1.137   5.746   4.966
 1701SOL    HW2 6003   1.172   5.676   5.109
 1702SOL     OW 6004   2.246   2.724   6.459
 1702SOL    HW1 6005   2.223   2.681   6.371
 1702SOL    HW2 6006   2.163   2.733   6.514
 1703SOL     OW 6007   1.116   2.076   2.135
 1703SOL    HW1 6008   1.101   2.022   2.217
 1703SOL    HW2 6009   1.206   2.057   2.098
 1704SOL     OW 6010   3.062   2.816   6.770
 1704SOL    HW1 6011   2.976   2.788   6.727
 1704SOL    HW2 6012   3.042   2.871   6.851
 1705SOL     OW 6013   5.349   3.148   0.671
 1705SOL    HW1 6014   5.283   3.222   0.682
 1705SOL    HW2 6015   5.410   3.145   0.751
 1706SOL     OW 6016   5.396   1.077   6.251
 1706SOL    HW1 6017   5.398   1.155   6.314
 1706SOL    HW2 6018   5.327   1.092   6.181
 1707SOL     OW 6019   3.774   1.109   2.164
 1707SOL    HW1 6020   3.870   1.085   2.172
 1707SOL    HW2 6021   3.751   1.128   2.069
 1708SOL     OW 6022   2.551   4.495   1.883
 1708SOL    HW1 6023   2.647   4.521   1.879
 1708SOL    HW2 6024   2.494   4.571   1.853
 1709SOL     OW 6025   5.246   4.254   1.315
 1709SOL    HW1 6026   5.272   4.347   1.339
 1709SOL    HW2 6027   5.147   4.244   1.322
 1710SOL     OW 6028   4.810   2.825   2.226
 1710SOL    HW1 6029   4.768   2.882   2.154
 1710SOL    HW2 6030   4.865   2.882   2.286
 1711SOL     OW 6031   3.974   5.521   0.063
 1711SOL    HW1 6032   3.937   5.601   0.111
 1711SOL    HW2 6033   3.909   5.445   0.071
 1712SOL     OW 6034   0.226   1.618   1.970
 1712SOL    HW1 6035   0.270   1.707   1.977
 1712SOL    HW2 6036   0.231   1.585   1.876
 1713SOL     OW 6037   2.911   1.546   2.574
 1713SOL    HW1 6038   2.911   1.451   2.540
 1713SOL    HW2 6039   2.904   1.608   2.496
 1714SOL     OW 6040   2.599   4.339   0.716
 1714SOL    HW1 6041   2.602   4.411   0.647
 1714SOL    HW2 6042   2.628   4.377   0.804
 1715SOL     OW 6043   0.934   5.954   0.890
 1715SOL    HW1 6044   0.907   6.036   0.939
 1715SOL    HW2 6045   0.923   5.969   0.791
 1716SOL     OW 6046   5.171   1.693   3.170
 1716SOL    HW1 6047   5.224   1.744   3.237
 1716SOL    HW2 6048   5.227   1.672   3.091
 1717SOL     OW 6049   4.060   6.602   3.638
 1717SOL    HW1 6050   4.058   6.512   3.682
 1717SOL    HW2 6051   4.130   6.603   3.567
 1718SOL     OW 6052   1.646   3.402   1.696
 1718SOL    HW1 6053   1.696   3.476   1.650
 1718SOL    HW2 6054   1.711   3.337   1.735
 1719SOL     OW 6055   1.169   5.487   2.870
 1719SOL    HW1 6056   1.093   5.428   2.844
 1719SOL    HW2 6057   1.147   5.582   2.848
 1720SOL     OW 6058   0.894   3.158   5.554
 1720SOL    HW1 6059   0.977   3.103   5.560
 1720SOL    HW2 6060   0.815   3.101   5.579
 1721SOL     OW 6061   2.094   2.268   0.505
 1721SOL    HW1 6062   2.088   2.348   0.565
 1721SOL    HW2 6063   2.008   2.217   0.509
 1722SOL     OW 6064   2.613   2.469   3.461
 1722SOL    HW1 6065   2.668   2.550   3.482
 1722SOL    HW2 6066   2.636   2.396   3.525
 1723SOL     OW 6067   6.051   4.472   1.318
 1723SOL    HW1 6068   6.036   4.503   1.412
 1723SOL    HW2 6069   6.076   4.375   1.317
 1724SOL     OW 6070   5.849   3.138   0.914
 1724SOL    HW1 6071   5.848   3.133   0.814
 1724SOL    HW2 6072   5.878   3.229   0.943
 1725SOL     OW 6073   2.346   6.665   5.954
 1725SOL    HW1 6074   2.400   6.593   5.997
 1725SOL    HW2 6075   2.257   6.671   5.999
 1726SOL     OW 6076   4.560   4.538   3.686
 1726SOL    HW1 6077   4.599   4.610   3.743
 1726SOL    HW2 6078   4.558   4.452   3.736
 1727SOL     OW 6079   3.497   3.183   3.171
 1727SOL    HW1 6080   3.551   3.099   3.173
 1727SOL    HW2 6081   3.402   3.163   3.197
 1728SOL     OW 6082   5.744   2.088   4.266
 1728SOL    HW1 6083   5.774   2.137   4.348
 1728SOL    HW2 6084   5.656   2.125   4.235
 1729SOL     OW 6085   0.939   2.932   2.751
 1729SOL    HW1 6086   0.952   3.021   2.796
 1729SOL    HW2 6087   1.028   2.890   2.733
 1730SOL     OW 6088   2.569   0.071   4.897
 1730SOL    HW1 6089   2.544   0.165   4.919
 1730SOL    HW2 6090   2.662   0.053   4.929
 1731SOL     OW 6091   4.886   4.332   3.708
 1731SOL    HW1 6092   4.983   4.315   3.725
 1731SOL    HW2 6093   4.876   4.417   3.656
 1732SOL     OW 6094   3.954   3.580   5.107
 1732SOL    HW1 6095   3.944   3.486   5.138
 1732SOL    HW2 6096   4.050   3.601   5.091
 1733SOL     OW 6097   1.635   2.251   6.570
 1733SOL    HW1 6098   1.651   2.348   6.555
 1733SOL    HW2 6099   1.541   2.236   6.599
 1734SOL     OW 6100   0.516   4.138   0.752
 1734SOL    HW1 6101   0.578   4.081   0.806
 1734SOL    HW2 6102   0.562   4.224   0.729
 1735SOL     OW 6103   2.758   5.151   6.081
 1735SOL    HW1 6104   2.816   5.129   6.002
 1735SOL    HW2 6105   2.707   5.070   6.109
 1736SOL     OW 6106   5.342   2.037   6.598
 1736SOL    HW1 6107   5.329   1.940   6.619
 1736SOL    HW2 6108   5.275   2.066   6.530
 1737SOL     OW 6109   2.621   0.797   5.961
 1737SOL    HW1 6110   2.603   0.734   6.036
 1737SOL    HW2 6111   2.713   0.781   5.925
 1738SOL     OW 6112   1.589   4.148   2.219
 1738SOL    HW1 6113   1.588   4.050   2.238
 1738SOL    HW2 6114   1.629   4.163   2.128
 1739SOL     OW 6115   5.187   5.517   2.507
 1739SOL    HW1 6116   5.275   5.525   2.554
 1739SOL    HW2 6117   5.113   5.512   2.574
 1740SOL     OW 6118   0.052   2.672   4.762
 1740SOL    HW1 6119   7.011   2.747   4.780
 1740SOL    HW2 6120   0.070   2.623   4.848
 1741SOL     OW 6121   0.931   3.005   4.673
 1741SOL    HW1 6122   0.996   2.948   4.621
 1741SOL    HW2 6123   0.981   3.074   4.724
 1742SOL     OW 6124   5.969   6.954   6.980
 1742SOL    HW1 6125   6.011   0.003   6.924
 1742SOL    HW2 6126   5.919   6.890   6.922
 1743SOL     OW 6127   1.488   2.395   1.687
 1743SOL    HW1 6128   1.443   2.480   1.714
 1743SOL    HW2 6129   1.571   2.383   1.741
 1744SOL     OW 6130   3.217   2.186   5.342
 1744SOL    HW1 6131   3.205   2.228   5.432
 1744SOL    HW2 6132   3.196   2.254   5.272
 1745SOL     OW 6133   6.742   6.477   0.350
 1745SOL    HW1 6134   6.738   6.575   0.330
 1745SOL    HW2 6135   6.722   6.462   0.447
 1746SOL     OW 6136   2.686   4.922   2.485
 1746SOL    HW1 6137   2.765   4.960   2.437
 1746SOL    HW2 6138   2.641   4.994   2.538
 1747SOL     OW 6139   3.377   0.216   2.186
 1747SOL    HW1 6140   3.395   0.241   2.281
 1747SOL    HW2 6141   3.411   0.124   2.168
 1748SOL     OW 6142   7.003   1.896   3.828
 1748SOL    HW1 6143   6.940   1.966   3.859
 1748SOL    HW2 6144   0.000   1.910   3.731
 1749SOL     OW 6145   6.433   5.396   1.717
 1749SOL    HW1 6146   6.387   5.309   1.737
 1749SOL    HW2 6147   6.389   5.470   1.768
 1750SOL     OW 6148   3.202   1.726   0.607
 1750SOL    HW1 6149   3.239   1.731   0.513
 1750SOL    HW2 6150   3.103   1.718   0.603
 1751SOL     OW 6151   6.139   4.201   5.047
 1751SOL    HW1 6152   6.203   4.271   5.014
 1751SOL    HW2 6153   6.180   4.151   5.123
 1752SOL     OW 6154   6.404   0.464   2.208
 1752SOL    HW1 6155   6.305   0.451   2.199
 1752SOL    HW2 6156   6.437   0.414   2.288
 1753SOL     OW 6157   6.828   1.899   1.707
 1753SOL    HW1 6158   6.903   1.834   1.691
 1753SOL    HW2 6159   6.865   1.991   1.719
 1754SOL     OW 6160   3.092   5.925   3.585
 1754SOL    HW1 6161   3.035   5.967   3.513
 1754SOL    HW2 6162   3.067   5.964   3.674
 1755SOL     OW 6163   6.361   0.107   4.957
 1755SOL    HW1 6164   6.289   0.170   4.988
 1755SOL    HW2 6165   6.389   0.132   4.864
 1756SOL     OW 6166   4.135   6.318   1.516
 1756SOL    HW1 6167   4.218   6.264   1.503
 1756SOL    HW2 6168   4.158   6.404   1.563
 1757SOL     OW 6169   3.085   5.021   4.987
 1757SOL    HW1 6170   3.003   4.965   4.980
 1757SOL    HW2 6171   3.144   4.985   5.059
 1758SOL     OW 6172   1.088   6.270   3.813
 1758SOL    HW1 6173   1.076   6.320   3.728
 1758SOL    HW2 6174   1.171   6.214   3.808
 1759SOL     OW 6175   1.651   5.054   6.710
 1759SOL    HW1 6176   1.660   5.076   6.612
 1759SOL    HW2 6177   1.731   5.089   6.759
 1760SOL     OW 6178   6.042   1.812   4.043
 1760SOL    HW1 6179   6.108   1.797   4.116
 1760SOL    HW2 6180   5.950   1.823   4.083
 1761SOL     OW 6181   5.323   1.721   3.740
 1761SOL    HW1 6182   5.268   1.673   3.672
 1761SOL    HW2 6183   5.312   1.820   3.729
 1762SOL     OW 6184   0.907   1.493   5.901
 1762SOL    HW1 6185   0.901   1.580   5.853
 1762SOL    HW2 6186   0.818   1.471   5.942
 1763SOL     OW 6187   1.901   5.139   3.592
 1763SOL    HW1 6188   1.883   5.131   3.690
 1763SOL    HW2 6189   1.900   5.048   3.551
 1764SOL     OW 6190   1.018   6.431   3.583
 1764SOL    HW1 6191   0.956   6.413   3.506
 1764SOL    HW2 6192   1.107   6.459   3.547
 1765SOL     OW 6193   5.246   3.932   2.049
 1765SOL    HW1 6194   5.148   3.916   2.038
 1765SOL    HW2 6195   5.270   3.921   2.146
 1766SOL     OW 6196   4.670   4.742   4.117
 1766SOL    HW1 6197   4.729   4.703   4.187
 1766SOL    HW2 6198   4.641   4.834   4.145
 1767SOL     OW 6199   0.827   4.553   1.960
 1767SOL    HW1 6200   0.790   4.526   1.871
 1767SOL    HW2 6201   0.764   4.524   2.032
 1768SOL     OW 6202   3.809   5.003   2.720
 1768SOL    HW1 6203   3.898   4.959   2.733
 1768SOL    HW2 6204   3.771   4.977   2.632
 1769SOL     OW 6205   5.304   0.507   0.929
 1769SOL    HW1 6206   5.291   0.595   0.973
 1769SOL    HW2 6207   5.376   0.515   0.860
 1770SOL     OW 6208   2.061   5.269   0.684
 1770SOL    HW1 6209   2.005   5.318   0.616
 1770SOL    HW2 6210   2.046   5.171   0.674
 1771SOL     OW 6211   1.134   2.751   6.265
 1771SOL    HW1 6212   1.040   2.776   6.246
 1771SOL    HW2 6213   1.177   2.715   6.182
 1772SOL     OW 6214   2.206   4.402   3.155
 1772SOL    HW1 6215   2.186   4.406   3.057
 1772SOL    HW2 6216   2.132   4.354   3.203
 1773SOL     OW 6217   2.325   6.518   5.255
 1773SOL    HW1 6218   2.316   6.573   5.338
 1773SOL    HW2 6219   2.421   6.491   5.243
 1774SOL     OW 6220   5.651   5.627   1.821
 1774SOL    HW1 6221   5.652   5.551   1.886
 1774SOL    HW2 6222   5.721   5.612   1.751
 1775SOL     OW 6223   1.220   6.251   0.471
 1775SOL    HW1 6224   1.176   6.305   0.542
 1775SOL    HW2 6225   1.286   6.308   0.421
 1776SOL     OW 6226   4.169   3.580   6.240
 1776SOL    HW1 6227   4.207   3.525   6.165
 1776SOL    HW2 6228   4.075   3.607   6.217
 1777SOL     OW 6229   4.358   6.324   0.227
 1777SOL    HW1 6230   4.445   6.336   0.276
 1777SOL    HW2 6231   4.355   6.388   0.150
 1778SOL     OW 6232   6.833   0.137   3.337
 1778SOL    HW1 6233   6.925   0.113   3.305
 1778SOL    HW2 6234   6.773   0.057   3.330
 1779SOL     OW 6235   6.015   0.306   4.847
 1779SOL    HW1 6236   5.960   0.284   4.766
 1779SOL    HW2 6237   6.034   0.404   4.849
 1780SOL     OW 6238   3.042   6.196   4.593
 1780SOL    HW1 6239   3.069   6.107   4.556
 1780SOL    HW2 6240   2.952   6.221   4.558
 1781SOL     OW 6241   4.490   1.745   5.889
 1781SOL    HW1 6242   4.571   1.753   5.946
 1781SOL    HW2 6243   4.509   1.784   5.798
 1782SOL     OW 6244   5.371   0.490   2.276
 1782SOL    HW1 6245   5.325   0.522   2.359
 1782SOL    HW2 6246   5.432   0.414   2.298
 1783SOL     OW 6247   1.521   3.579   6.512
 1783SOL    HW1 6248   1.434   3.624   6.530
 1783SOL    HW2 6249   1.540   3.580   6.414
 1784SOL     OW 6250   2.407   6.281   1.356
 1784SOL    HW1 6251   2.335   6.294   1.288
 1784SOL    HW2 6252   2.406   6.358   1.421
 1785SOL     OW 6253   1.725   6.190   4.041
 1785SOL    HW1 6254   1.799   6.123   4.038
 1785SOL    HW2 6255   1.647   6.152   4.091
 1786SOL     OW 6256   0.746   6.129   1.776
 1786SOL    HW1 6257   0.806   6.048   1.771
 1786SOL    HW2 6258   0.769   6.192   1.702
 1787SOL     OW 6259   1.941   2.314   5.899
 1787SOL    HW1 6260   2.003   2.260   5.956
 1787SOL    HW2 6261   1.991   2.353   5.822
 1788SOL     OW 6262   3.716   3.930   0.648
 1788SOL    HW1 6263   3.667   3.844   0.659
 1788SOL    HW2 6264   3.766   3.930   0.561
 1789SOL     OW 6265   5.794   2.906   1.754
 1789SOL    HW1 6266   5.705   2.904   1.798
 1789SOL    HW2 6267   5.810   2.998   1.716
 1790SOL     OW 6268   2.374   1.591   4.444
 1790SOL    HW1 6269   2.278   1.562   4.451
 1790SOL    HW2 6270   2.424   1.562   4.525
 1791SOL     OW 6271   5.896   0.417   3.897
 1791SOL    HW1 6272   5.904   0.318   3.900
 1791SOL    HW2 6273   5.986   0.459   3.903
 1792SOL     OW 6274   0.155   2.611   6.495
 1792SOL    HW1 6275   0.088   2.652   6.434
 1792SOL    HW2 6276   0.222   2.679   6.522
 1793SOL     OW 6277   0.180   1.114   4.364
 1793SOL    HW1 6278   0.202   1.187   4.429
 1793SOL    HW2 6279   0.110   1.146   4.301
 1794SOL     OW 6280   6.990   1.596   6.792
 1794SOL    HW1 6281   7.008   1.694   6.797
 1794SOL    HW2 6282   6.915   1.572   6.854
 1795SOL     OW 6283   5.518   5.071   0.305
 1795SOL    HW1 6284   5.426   5.103   0.284
 1795SOL    HW2 6285   5.518   4.971   0.309
 1796SOL     OW 6286   5.931   6.627   0.336
 1796SOL    HW1 6287   5.940   6.626   0.436
 1796SOL    HW2 6288   5.907   6.535   0.304
 1797SOL     OW 6289   2.856   5.968   5.286
 1797SOL    HW1 6290   2.901   6.055   5.269
 1797SOL    HW2 6291   2.918   5.907   5.335
 1798SOL     OW 6292   2.555   3.584   5.933
 1798SOL    HW1 6293   2.631   3.520   5.929
 1798SOL    HW2 6294   2.524   3.592   6.028
 1799SOL     OW 6295   3.425   1.236   2.295
 1799SOL    HW1 6296   3.341   1.234   2.348
 1799SOL    HW2 6297   3.406   1.271   2.203
 1800SOL     OW 6298   6.402   2.669   5.768
 1800SOL    HW1 6299   6.444   2.679   5.678
 1800SOL    HW2 6300   6.326   2.604   5.762
 1801SOL     OW 6301   6.879   1.195   2.570
 1801SOL    HW1 6302   6.864   1.255   2.491
 1801SOL    HW2 6303   6.822   1.114   2.562
 1802SOL     OW 6304   5.939   4.686   4.307
 1802SOL    HW1 6305   5.908   4.777   4.279
 1802SOL    HW2 6306   6.016   4.658   4.249
 1803SOL     OW 6307   0.201   6.347   4.048
 1803SOL    HW1 6308   0.223   6.445   4.052
 1803SOL    HW2 6309   0.217   6.314   3.955
 1804SOL     OW 6310   1.164   2.743   6.547
 1804SOL    HW1 6311   1.140   2.737   6.450
 1804SOL    HW2 6312   1.087   2.783   6.597
 1805SOL     OW 6313   5.957   4.786   6.363
 1805SOL    HW1 6314   5.884   4.768   6.296
 1805SOL    HW2 6315   5.991   4.879   6.351
 1806SOL     OW 6316   0.647   1.821   1.368
 1806SOL    HW1 6317   0.567   1.854   1.417
 1806SOL    HW2 6318   0.696   1.898   1.328
 1807SOL     OW 6319   6.122   2.658   2.182
 1807SOL    HW1 6320   6.204   2.699   2.223
 1807SOL    HW2 6321   6.044   2.717   2.197
 1808SOL     OW 6322   5.668   0.750   6.474
 1808SOL    HW1 6323   5.625   0.674   6.523
 1808SOL    HW2 6324   5.744   0.716   6.419
 1809SOL     OW 6325   5.082   0.421   5.079
 1809SOL    HW1 6326   5.161   0.478   5.102
 1809SOL    HW2 6327   5.051   0.372   5.160
 1810SOL     OW 6328   1.083   1.080   4.492
 1810SOL    HW1 6329   1.020   1.123   4.427
 1810SOL    HW2 6330   1.147   1.150   4.526
 1811SOL     OW 6331   3.251   5.812   2.118
 1811SOL    HW1 6332   3.286   5.729   2.075
 1811SOL    HW2 6333   3.172   5.845   2.067
 1812SOL     OW 6334   4.323   0.588   6.434
 1812SOL    HW1 6335   4.266   0.564   6.355
 1812SOL    HW2 6336   4.376   0.670   6.413
 1813SOL     OW 6337   5.221   3.350   2.027
 1813SOL    HW1 6338   5.255   3.307   1.944
 1813SOL    HW2 6339   5.162   3.285   2.076
 1814SOL     OW 6340   6.654   5.675   0.582
 1814SOL    HW1 6341   6.584   5.688   0.652
 1814SOL    HW2 6342   6.721   5.607   0.614
 1815SOL     OW 6343   6.071   5.169   0.810
 1815SOL    HW1 6344   6.106   5.201   0.898
 1815SOL    HW2 6345   5.979   5.134   0.822
 1816SOL     OW 6346   3.594   4.900   4.498
 1816SOL    HW1 6347   3.527   4.853   4.441
 1816SOL    HW2 6348   3.665   4.941   4.440
 1817SOL     OW 6349   6.792   2.893   3.548
 1817SOL    HW1 6350   6.760   2.798   3.556
 1817SOL    HW2 6351   6.891   2.894   3.537
 1818SOL     OW 6352   2.127   1.402   0.804
 1818SOL    HW1 6353   2.096   1.379   0.711
 1818SOL    HW2 6354   2.148   1.499   0.809
 1819SOL     OW 6355   0.901   3.742   1.270
 1819SOL    HW1 6356   0.937   3.649   1.259
 1819SOL    HW2 6357   0.815   3.738   1.321
 1820SOL     OW 6358   4.011   0.216   5.372
 1820SOL    HW1 6359   4.033   0.254   5.462
 1820SOL    HW2 6360   4.057   0.128   5.361
 1821SOL     OW 6361   4.089   1.639   3.067
 1821SOL    HW1 6362   3.994   1.655   3.040
 1821SOL    HW2 6363   4.097   1.643   3.166
 1822SOL     OW 6364   1.844   3.809   4.415
 1822SOL    HW1 6365   1.939   3.786   4.396
 1822SOL    HW2 6366   1.837   3.906   4.438
 1823SOL     OW 6367   3.732   6.906   3.509
 1823SOL    HW1 6368   3.662   6.843   3.475
 1823SOL    HW2 6369   3.759   6.879   3.601
 1824SOL     OW 6370   4.737   2.790   1.812
 1824SOL    HW1 6371   4.733   2.864   1.879
 1824SOL    HW2 6372   4.646   2.775   1.773
 1825SOL     OW 6373   1.319   3.672   0.170
 1825SOL    HW1 6374   1.313   3.716   0.081
 1825SOL    HW2 6375   1.411   3.686   0.208
 1826SOL     OW 6376   3.552   2.785   0.703
 1826SOL    HW1 6377   3.586   2.827   0.787
 1826SOL    HW2 6378   3.624   2.730   0.661
 1827SOL     OW 6379   5.000   4.407   0.271
 1827SOL    HW1 6380   5.085   4.459   0.283
 1827SOL    HW2 6381   4.989   4.382   0.175
 1828SOL     OW 6382   2.612   4.857   4.794
 1828SOL    HW1 6383   2.712   4.859   4.796
 1828SOL    HW2 6384   2.577   4.951   4.786
 1829SOL     OW 6385   2.358   6.314   1.871
 1829SOL    HW1 6386   2.385   6.396   1.821
 1829SOL    HW2 6387   2.377   6.327   1.969
 1830SOL     OW 6388   4.346   1.307   6.653
 1830SOL    HW1 6389   4.254   1.275   6.674
 1830SOL    HW2 6390   4.393   1.331   6.738
 1831SOL     OW 6391   3.817   4.848   0.386
 1831SOL    HW1 6392   3.890   4.780   0.388
 1831SOL    HW2 6393   3.799   4.876   0.291
 1832SOL     OW 6394   2.064   3.535   5.616
 1832SOL    HW1 6395   2.087   3.613   5.558
 1832SOL    HW2 6396   2.148   3.487   5.642
 1833SOL     OW 6397   5.809   0.881   0.060
 1833SOL    HW1 6398   5.772   0.880   0.153
 1833SOL    HW2 6399   5.863   0.798   0.045
 1834SOL     OW 6400   1.654   3.607   5.957
 1834SOL    HW1 6401   1.664   3.653   5.869
 1834SOL    HW2 6402   1.572   3.550   5.957
 1835SOL     OW 6403   6.284   6.738   0.917
 1835SOL    HW1 6404   6.273   6.788   1.003
 1835SOL    HW2 6405   6.312   6.644   0.937
 1836SOL     OW 6406   6.193   2.078   3.906
 1836SOL    HW1 6407   6.140   2.109   3.827
 1836SOL    HW2 6408   6.200   1.978   3.905
 1837SOL     OW 6409   1.210   1.673   0.210
 1837SOL    HW1 6410   1.273   1.661   0.287
 1837SOL    HW2 6411   1.242   1.620   0.132
 1838SOL     OW 6412   4.885   0.360   0.561
 1838SOL    HW1 6413   4.943   0.437   0.591
 1838SOL    HW2 6414   4.796   0.395   0.534
 1839SOL     OW 6415   6.779   0.881   6.435
 1839SOL    HW1 6416   6.793   0.948   6.362
 1839SOL    HW2 6417   6.828   0.797   6.412
 1840SOL     OW 6418   3.272   0.073   5.233
 1840SOL    HW1 6419   3.366   0.038   5.231
 1840SOL    HW2 6420   3.262   0.137   5.309
 1841SOL     OW 6421   2.023   0.765   1.415
 1841SOL    HW1 6422   2.119   0.793   1.411
 1841SOL    HW2 6423   2.017   0.666   1.415
 1842SOL     OW 6424   6.898   5.220   1.116
 1842SOL    HW1 6425   6.852   5.131   1.110
 1842SOL    HW2 6426   6.838   5.286   1.162
 1843SOL     OW 6427   2.878   1.547   6.625
 1843SOL    HW1 6428   2.836   1.574   6.712
 1843SOL    HW2 6429   2.819   1.482   6.578
 1844SOL     OW 6430   5.194   3.371   0.706
 1844SOL    HW1 6431   5.146   3.423   0.777
 1844SOL    HW2 6432   5.178   3.415   0.617
 1845SOL     OW 6433   1.081   2.783   4.561
 1845SOL    HW1 6434   1.002   2.729   4.532
 1845SOL    HW2 6435   1.134   2.730   4.629
 1846SOL     OW 6436   3.505   1.565   2.321
 1846SOL    HW1 6437   3.538   1.617   2.399
 1846SOL    HW2 6438   3.500   1.624   2.241
 1847SOL     OW 6439   2.426   5.856   0.121
 1847SOL    HW1 6440   2.337   5.859   0.075
 1847SOL    HW2 6441   2.497   5.886   0.057
 1848SOL     OW 6442   3.795   6.264   3.814
 1848SOL    HW1 6443   3.717   6.319   3.842
 1848SOL    HW2 6444   3.880   6.311   3.838
 1849SOL     OW 6445   4.797   2.913   2.675
 1849SOL    HW1 6446   4.721   2.967   2.640
 1849SOL    HW2 6447   4.856   2.971   2.732
 1850SOL     OW 6448   4.510   1.694   0.981
 1850SOL    HW1 6449   4.535   1.601   0.953
 1850SOL    HW2 6450   4.418   1.715   0.949
 1851SOL     OW 6451   0.730   5.139   4.116
 1851SOL    HW1 6452   0.828   5.149   4.095
 1851SOL    HW2 6453   0.719   5.080   4.196
 1852SOL     OW 6454   0.239   6.685   3.506
 1852SOL    HW1 6455   0.332   6.723   3.506
 1852SOL    HW2 6456   0.188   6.721   3.584
 1853SOL     OW 6457   0.838   1.763   5.798
 1853SOL    HW1 6458   0.757   1.789   5.745
 1853SOL    HW2 6459   0.835   1.808   5.887
 1854SOL     OW 6460   0.573   0.032   4.475
 1854SOL    HW1 6461   0.495   0.011   4.535
 1854SOL    HW2 6462   0.594   6.975   4.419
 1855SOL     OW 6463   6.397   1.225   4.928
 1855SOL    HW1 6464   6.427   1.130   4.926
 1855SOL    HW2 6465   6.311   1.235   4.878
 1856SOL     OW 6466   4.868   4.304   6.620
 1856SOL    HW1 6467   4.942   4.335   6.561
 1856SOL    HW2 6468   4.807   4.244   6.567
 1857SOL     OW 6469   4.071   0.960   6.534
 1857SOL    HW1 6470   4.155   0.960   6.480
 1857SOL    HW2 6471   4.025   1.048   6.525
 1858SOL     OW 6472   5.570   1.864   5.009
 1858SOL    HW1 6473   5.593   1.770   5.034
 1858SOL    HW2 6474   5.471   1.872   4.999
 1859SOL     OW 6475   6.991   6.851   2.388
 1859SOL    HW1 6476   0.068   6.846   2.397
 1859SOL    HW2 6477   6.959   6.939   2.424
 1860SOL     OW 6478   2.463   1.000   6.309
 1860SOL    HW1 6479   2.374   1.011   6.354
 1860SOL    HW2 6480   2.515   0.927   6.355
 1861SOL     OW 6481   6.681   6.614   5.368
 1861SOL    HW1 6482   6.660   6.521   5.338
 1861SOL    HW2 6483   6.607   6.675   5.341
 1862SOL     OW 6484   3.377   5.825   6.042
 1862SOL    HW1 6485   3.417   5.890   6.107
 1862SOL    HW2 6486   3.445   5.801   5.973
 1863SOL     OW 6487   6.771   1.300   1.400
 1863SOL    HW1 6488   6.827   1.334   1.475
 1863SOL    HW2 6489   6.677   1.334   1.410
 1864SOL     OW 6490   2.163   6.669   2.307
 1864SOL    HW1 6491   2.072   6.628   2.300
 1864SOL    HW2 6492   2.210   6.660   2.219
 1865SOL     OW 6493   6.307   2.117   6.073
 1865SOL    HW1 6494   6.287   2.023   6.046
 1865SOL    HW2 6495   6.242   2.145   6.144
 1866SOL     OW 6496   6.542   4.487   4.251
 1866SOL    HW1 6497   6.604   4.525   4.320
 1866SOL    HW2 6498   6.596   4.448   4.176
 1867SOL     OW 6499   1.118   1.135   1.498
 1867SOL    HW1 6500   1.125   1.234   1.502
 1867SOL    HW2 6501   1.206   1.096   1.471
 1868SOL     OW 6502   4.961   3.877   5.901
 1868SOL    HW1 6503   4.861   3.884   5.890
 1868SOL    HW2 6504   4.993   3.949   5.962
 1869SOL     OW 6505   5.216   0.856   5.132
 1869SOL    HW1 6506   5.259   0.872   5.043
 1869SOL    HW2 6507   5.240   0.931   5.194
 1870SOL     OW 6508   6.270   0.350   6.058
 1870SOL    HW1 6509   6.255   0.369   6.155
 1870SOL    HW2 6510   6.292   0.253   6.046
 1871SOL     OW 6511   1.768   5.164   0.066
 1871SOL    HW1 6512   1.772   5.150   6.990
 1871SOL    HW2 6513   1.860   5.174   0.103
 1872SOL     OW 6514   2.414   3.287   0.939
 1872SOL    HW1 6515   2.348   3.225   0.983
 1872SOL    HW2 6516   2.506   3.248   0.948
 1873SOL     OW 6517   5.692   2.045   2.492
 1873SOL    HW1 6518   5.688   1.949   2.522
 1873SOL    HW2 6519   5.732   2.050   2.401
 1874SOL     OW 6520   1.624   5.790   6.468
 1874SOL    HW1 6521   1.723   5.800   6.453
 1874SOL    HW2 6522   1.577   5.873   6.438
 1875SOL     OW 6523   0.900   6.275   2.253
 1875SOL    HW1 6524   0.871   6.232   2.338
 1875SOL    HW2 6525   0.921   6.371   2.269
 1876SOL     OW 6526   0.759   4.649   0.265
 1876SOL    HW1 6527   0.773   4.628   0.168
 1876SOL    HW2 6528   0.843   4.632   0.316
 1877SOL     OW 6529   1.147   0.952   3.127
 1877SOL    HW1 6530   1.228   0.991   3.083
 1877SOL    HW2 6531   1.118   1.012   3.202
 1878SOL     OW 6532   5.651   3.780   4.414
 1878SOL    HW1 6533   5.732   3.837   4.427
 1878SOL    HW2 6534   5.629   3.734   4.500
 1879SOL     OW 6535   4.219   6.664   5.256
 1879SOL    HW1 6536   4.315   6.647   5.234
 1879SOL    HW2 6537   4.208   6.672   5.355
 1880SOL     OW 6538   1.231   2.993   4.479
 1880SOL    HW1 6539   1.175   2.911   4.486
 1880SOL    HW2 6540   1.316   2.981   4.530
 1881SOL     OW 6541   2.256   1.405   3.819
 1881SOL    HW1 6542   2.223   1.432   3.910
 1881SOL    HW2 6543   2.179   1.402   3.755
 1882SOL     OW 6544   3.731   5.480   0.822
 1882SOL    HW1 6545   3.650   5.512   0.871
 1882SOL    HW2 6546   3.810   5.477   0.884
 1883SOL     OW 6547   2.108   3.397   2.483
 1883SOL    HW1 6548   2.016   3.385   2.445
 1883SOL    HW2 6549   2.150   3.307   2.495
 1884SOL     OW 6550   5.125   0.650   0.393
 1884SOL    HW1 6551   5.131   0.580   0.465
 1884SOL    HW2 6552   5.217   0.669   0.357
 1885SOL     OW 6553   0.327   1.464   0.388
 1885SOL    HW1 6554   0.318   1.432   0.293
 1885SOL    HW2 6555   0.333   1.563   0.389
 1886SOL     OW 6556   3.362   2.958   5.331
 1886SOL    HW1 6557   3.276   2.907   5.332
 1886SOL    HW2 6558   3.350   3.043   5.279
 1887SOL     OW 6559   0.804   5.937   4.986
 1887SOL    HW1 6560   0.787   5.840   4.968
 1887SOL    HW2 6561   0.834   5.948   5.081
 1888SOL     OW 6562   1.971   1.498   6.337
 1888SOL    HW1 6563   1.952   1.591   6.367
 1888SOL    HW2 6564   2.024   1.500   6.252
 1889SOL     OW 6565   3.672   3.183   0.022
 1889SOL    HW1 6566   3.591   3.123   0.026
 1889SOL    HW2 6567   3.703   3.191   6.950
 1890SOL     OW 6568   6.288   5.848   6.285
 1890SOL    HW1 6569   6.243   5.859   6.196
 1890SOL    HW2 6570   6.328   5.757   6.291
 1891SOL     OW 6571   5.250   3.625   6.858
 1891SOL    HW1 6572   5.333   3.673   6.885
 1891SOL    HW2 6573   5.269   3.527   6.849
 1892SOL     OW 6574   4.723   0.114   3.123
 1892SOL    HW1 6575   4.761   0.097   3.214
 1892SOL    HW2 6576   4.726   0.212   3.103
 1893SOL     OW 6577   2.884   1.191   6.352
 1893SOL    HW1 6578   2.881   1.290   6.363
 1893SOL    HW2 6579   2.799   1.159   6.310
 1894SOL     OW 6580   4.906   3.145   0.634
 1894SOL    HW1 6581   4.821   3.184   0.598
 1894SOL    HW2 6582   4.976   3.216   0.640
 1895SOL     OW 6583   4.587   5.405   3.463
 1895SOL    HW1 6584   4.586   5.503   3.441
 1895SOL    HW2 6585   4.599   5.394   3.562
 1896SOL     OW 6586   6.770   1.675   4.955
 1896SOL    HW1 6587   6.702   1.746   4.936
 1896SOL    HW2 6588   6.769   1.608   4.881
 1897SOL     OW 6589   4.982   5.113   3.388
 1897SOL    HW1 6590   4.945   5.028   3.351
 1897SOL    HW2 6591   4.991   5.105   3.487
 1898SOL     OW 6592   5.579   6.176   6.895
 1898SOL    HW1 6593   5.664   6.226   6.882
 1898SOL    HW2 6594   5.502   6.232   6.864
 1899SOL     OW 6595   2.347   2.831   3.512
 1899SOL    HW1 6596   2.351   2.916   3.565
 1899SOL    HW2 6597   2.309   2.851   3.421
 1900SOL     OW 6598   2.437   5.640   2.123
 1900SOL    HW1 6599   2.488   5.605   2.201
 1900SOL    HW2 6600   2.496   5.642   2.042
 1901SOL     OW 6601   1.423   0.890   5.554
 1901SOL    HW1 6602   1.401   0.801   5.515
 1901SOL    HW2 6603   1.386   0.962   5.495
 1902SOL     OW 6604   0.975   2.898   4.043
 1902SOL    HW1 6605   1.062   2.911   4.091
 1902SOL    HW2 6606   0.906   2.863   4.107
 1903SOL     OW 6607   6.450   4.735   3.712
 1903SOL    HW1 6608   6.534   4.756   3.763
 1903SOL    HW2 6609   6.376   4.794   3.744
 1904SOL     OW 6610   0.840   0.457   3.923
 1904SOL    HW1 6611   0.828   0.485   4.018
 1904SOL    HW2 6612   0.887   0.529   3.872
 1905SOL     OW 6613   6.330   2.917   5.305
 1905SOL    HW1 6614   6.239   2.909   5.347
 1905SOL    HW2 6615   6.365   3.009   5.321
 1906SOL     OW 6616   2.196   6.921   5.489
 1906SOL    HW1 6617   2.098   6.904   5.483
 1906SOL    HW2 6618   2.215   6.975   5.570
 1907SOL     OW 6619   4.300   6.660   2.950
 1907SOL    HW1 6620   4.272   6.613   2.866
 1907SOL    HW2 6621   4.224   6.716   2.984
 1908SOL     OW 6622   4.938   5.638   0.907
 1908SOL    HW1 6623   4.994   5.639   0.990
 1908SOL    HW2 6624   4.976   5.574   0.841
 1909SOL     OW 6625   5.384   5.235   3.520
 1909SOL    HW1 6626   5.333   5.152   3.543
 1909SOL    HW2 6627   5.403   5.287   3.603
 1910SOL     OW 6628   4.861   3.753   4.512
 1910SOL    HW1 6629   4.823   3.770   4.604
 1910SOL    HW2 6630   4.847   3.657   4.488
 1911SOL     OW 6631   0.729   2.305   5.739
 1911SOL    HW1 6632   0.751   2.380   5.802
 1911SOL    HW2 6633   0.780   2.223   5.767
 1912SOL     OW 6634   3.561   6.472   2.995
 1912SOL    HW1 6635   3.511   6.497   2.912
 1912SOL    HW2 6636   3.500   6.475   3.074
 1913SOL     OW 6637   2.743   4.009   5.780
 1913SOL    HW1 6638   2.675   4.016   5.853
 1913SOL    HW2 6639   2.785   4.098   5.766
 1914SOL     OW 6640   4.262   1.436   4.919
 1914SOL    HW1 6641   4.220   1.527   4.911
 1914SOL    HW2 6642   4.312   1.415   4.835
 1915SOL     OW 6643   2.992   6.885   5.482
 1915SOL    HW1 6644   3.024   6.917   5.393
 1915SOL    HW2 6645   3.055   6.917   5.553
 1916SOL     OW 6646   3.339   6.148   2.682
 1916SOL    HW1 6647   3.328   6.053   2.652
 1916SOL    HW2 6648   3.311   6.157   2.777
 1917SOL     OW 6649   3.838   3.741   3.902
 1917SOL    HW1 6650   3.761   3.678   3.900
 1917SOL    HW2 6651   3.805   3.835   3.896
 1918SOL     OW 6652   0.187   6.495   5.112
 1918SOL    HW1 6653   0.232   6.408   5.093
 1918SOL    HW2 6654   0.252   6.570   5.102
 1919SOL     OW 6655   6.224   0.855   2.492
 1919SOL    HW1 6656   6.310   0.885   2.532
 1919SOL    HW2 6657   6.242   0.808   2.406
 1920SOL     OW 6658   6.488   6.595   5.092
 1920SOL    HW1 6659   6.410   6.597   5.030
 1920SOL    HW2 6660   6.482   6.669   5.158
 1921SOL     OW 6661   2.518   6.474   0.063
 1921SOL    HW1 6662   2.444   6.525   0.106
 1921SOL    HW2 6663   2.525   6.501   6.989
 1922SOL     OW 6664   3.778   4.154   0.456
 1922SOL    HW1 6665   3.696   4.144   0.511
 1922SOL    HW2 6666   3.855   4.179   0.515
 1923SOL     OW 6667   1.477   3.081   0.833
 1923SOL    HW1 6668   1.495   2.987   0.863
 1923SOL    HW2 6669   1.551   3.140   0.865
 1924SOL     OW 6670   0.405   3.601   1.026
 1924SOL    HW1 6671   0.494   3.585   1.069
 1924SOL    HW2 6672   0.335   3.548   1.073
 1925SOL     OW 6673   3.107   4.402   0.098
 1925SOL    HW1 6674   3.119   4.308   0.132
 1925SOL    HW2 6675   3.189   4.430   0.050
 1926SOL     OW 6676   0.839   0.978   3.922
 1926SOL    HW1 6677   0.793   1.025   3.997
 1926SOL    HW2 6678   0.934   0.960   3.948
 1927SOL     OW 6679   5.281   3.029   1.469
 1927SOL    HW1 6680   5.343   2.966   1.515
 1927SOL    HW2 6681   5.187   3.000   1.484
 1928SOL     OW 6682   0.436   5.480   4.258
 1928SOL    HW1 6683   0.410   5.438   4.344
 1928SOL    HW2 6684   0.461   5.409   4.192
 1929SOL     OW 6685   1.203   5.541   3.144
 1929SOL    HW1 6686   1.152   5.487   3.211
 1929SOL    HW2 6687   1.195   5.497   3.054
 1930SOL     OW 6688   6.803   5.373   6.072
 1930SOL    HW1 6689   6.777   5.434   6.147
 1930SOL    HW2 6690   6.826   5.282   6.109
 1931SOL     OW 6691   0.932   2.129   4.277
 1931SOL    HW1 6692   0.953   2.057   4.211
 1931SOL    HW2 6693   0.887   2.088   4.357
 1932SOL     OW 6694   6.070   3.694   2.909
 1932SOL    HW1 6695   6.127   3.766   2.951
 1932SOL    HW2 6696   6.070   3.613   2.968
 1933SOL     OW 6697   3.037   5.114   0.333
 1933SOL    HW1 6698   3.038   5.052   0.412
 1933SOL    HW2 6699   3.063   5.063   0.251
 1934SOL     OW 6700   6.978   5.931   2.937
 1934SOL    HW1 6701   6.944   5.977   2.855
 1934SOL    HW2 6702   0.020   5.860   2.911
 1935SOL     OW 6703   1.605   1.246   3.128
 1935SOL    HW1 6704   1.536   1.292   3.073
 1935SOL    HW2 6705   1.631   1.303   3.205
 1936SOL     OW 6706   0.062   6.160   5.026
 1936SOL    HW1 6707   7.020   6.233   5.049
 1936SOL    HW2 6708   0.013   6.083   4.986
 1937SOL     OW 6709   4.179   1.378   3.092
 1937SOL    HW1 6710   4.276   1.359   3.077
 1937SOL    HW2 6711   4.159   1.473   3.069
 1938SOL     OW 6712   5.825   0.177   4.677
 1938SOL    HW1 6713   5.810   0.106   4.608
 1938SOL    HW2 6714   5.743   0.186   4.734
 1939SOL     OW 6715   3.245   0.320   4.429
 1939SOL    HW1 6716   3.203   0.370   4.505
 1939SOL    HW2 6717   3.184   0.245   4.401
 1940SOL     OW 6718   6.327   6.283   6.630
 1940SOL    HW1 6719   6.341   6.346   6.707
 1940SOL    HW2 6720   6.231   6.286   6.602
 1941SOL     OW 6721   4.518   5.280   2.335
 1941SOL    HW1 6722   4.499   5.368   2.292
 1941SOL    HW2 6723   4.465   5.208   2.291
 1942SOL     OW 6724   0.450   3.488   2.974
 1942SOL    HW1 6725   0.509   3.414   2.942
 1942SOL    HW2 6726   0.387   3.454   3.044
 1943SOL     OW 6727   2.930   6.014   3.334
 1943SOL    HW1 6728   2.848   6.055   3.375
 1943SOL    HW2 6729   2.929   6.029   3.236
 1944SOL     OW 6730   0.011   6.466   1.669
 1944SOL    HW1 6731   6.964   6.398   1.647
 1944SOL    HW2 6732   0.039   6.456   1.764
 1945SOL     OW 6733   3.302   5.061   3.267
 1945SOL    HW1 6734   3.296   5.020   3.359
 1945SOL    HW2 6735   3.398   5.064   3.240
 1946SOL     OW 6736   1.432   6.702   6.867
 1946SOL    HW1 6737   1.466   6.780   6.815
 1946SOL    HW2 6738   1.346   6.670   6.827
 1947SOL     OW 6739   4.561   6.931   3.069
 1947SOL    HW1 6740   4.503   6.939   2.989
 1947SOL    HW2 6741   4.624   7.009   3.073
 1948SOL     OW 6742   6.270   3.534   5.358
 1948SOL    HW1 6743   6.216   3.477   5.297
 1948SOL    HW2 6744   6.351   3.567   5.309
 1949SOL     OW 6745   4.365   4.430   6.831
 1949SOL    HW1 6746   4.285   4.388   6.788
 1949SOL    HW2 6747   4.430   4.359   6.857
 1950SOL     OW 6748   3.606   5.197   0.747
 1950SOL    HW1 6749   3.622   5.110   0.793
 1950SOL    HW2 6750   3.680   5.260   0.768
 1951SOL     OW 6751   6.277   2.314   0.500
 1951SOL    HW1 6752   6.185   2.308   0.460
 1951SOL    HW2 6753   6.270   2.334   0.598
 1952SOL     OW 6754   3.424   2.882   4.378
 1952SOL    HW1 6755   3.352   2.951   4.370
 1952SOL    HW2 6756   3.476   2.878   4.292
 1953SOL     OW 6757   0.495   2.904   4.643
 1953SOL    HW1 6758   0.509   2.808   4.665
 1953SOL    HW2 6759   0.560   2.960   4.694
 1954SOL     OW 6760   2.347   1.693   3.905
 1954SOL    HW1 6761   2.354   1.600   3.869
 1954SOL    HW2 6762   2.287   1.693   3.985
 1955SOL     OW 6763   5.940   5.680   2.033
 1955SOL    HW1 6764   5.851   5.672   2.078
 1955SOL    HW2 6765   5.944   5.616   1.956
 1956SOL     OW 6766   4.919   6.060   2.847
 1956SOL    HW1 6767   5.008   6.032   2.883
 1956SOL    HW2 6768   4.903   6.157   2.869
 1957SOL     OW 6769   1.734   6.413   4.603
 1957SOL    HW1 6770   1.819   6.406   4.655
 1957SOL    HW2 6771   1.747   6.479   4.528
 1958SOL     OW 6772   3.929   3.789   5.770
 1958SOL    HW1 6773   3.858   3.733   5.813
 1958SOL    HW2 6774   3.896   3.883   5.760
 1959SOL     OW 6775   2.243   0.793   0.407
 1959SOL    HW1 6776   2.248   0.751   0.316
 1959SOL    HW2 6777   2.310   0.749   0.468
 1960SOL     OW 6778   5.409   5.735   3.012
 1960SOL    HW1 6779   5.435   5.815   3.065
 1960SOL    HW2 6780   5.311   5.738   2.993
 1961SOL     OW 6781   5.747   5.216   5.519
 1961SOL    HW1 6782   5.754   5.117   5.508
 1961SOL    HW2 6783   5.787   5.261   5.439
 1962SOL     OW 6784   6.987   6.614   3.954
 1962SOL    HW1 6785   6.975   6.515   3.968
 1962SOL    HW2 6786   0.047   6.630   3.900
 1963SOL     OW 6787   1.827   1.047   3.611
 1963SOL    HW1 6788   1.776   1.106   3.673
 1963SOL    HW2 6789   1.924   1.067   3.618
 1964SOL     OW 6790   6.077   3.191   2.670
 1964SOL    HW1 6791   6.129   3.124   2.723
 1964SOL    HW2 6792   6.126   3.277   2.667
 1965SOL     OW 6793   2.029   6.718   3.286
 1965SOL    HW1 6794   2.086   6.793   3.253
 1965SOL    HW2 6795   1.936   6.753   3.303
 1966SOL     OW 6796   6.446   0.222   6.616
 1966SOL    HW1 6797   6.377   0.163   6.658
 1966SOL    HW2 6798   6.537   0.192   6.642
 1967SOL     OW 6799   5.629   3.659   5.162
 1967SOL    HW1 6800   5.676   3.728   5.107
 1967SOL    HW2 6801   5.531   3.681   5.166
 1968SOL     OW 6802   3.712   5.260   4.829
 1968SOL    HW1 6803   3.644   5.316   4.782
 1968SOL    HW2 6804   3.736   5.182   4.772
 1969SOL     OW 6805   6.497   1.417   1.465
 1969SOL    HW1 6806   6.531   1.374   1.549
 1969SOL    HW2 6807   6.422   1.479   1.487
 1970SOL     OW 6808   1.634   0.545   3.573
 1970SOL    HW1 6809   1.560   0.565   3.508
 1970SOL    HW2 6810   1.625   0.605   3.652
 1971SOL     OW 6811   0.524   1.688   6.059
 1971SOL    HW1 6812   0.428   1.715   6.068
 1971SOL    HW2 6813   0.582   1.769   6.062
 1972SOL     OW 6814   1.524   0.294   3.693
 1972SOL    HW1 6815   1.458   0.300   3.768
 1972SOL    HW2 6816   1.556   0.386   3.669
 1973SOL     OW 6817   2.615   3.329   0.141
 1973SOL    HW1 6818   2.668   3.386   0.079
 1973SOL    HW2 6819   2.633   3.232   0.120
 1974SOL     OW 6820   5.836   6.969   4.523
 1974SOL    HW1 6821   5.903   6.945   4.453
 1974SOL    HW2 6822   5.821   6.890   4.583
 1975SOL     OW 6823   2.668   0.468   3.136
 1975SOL    HW1 6824   2.595   0.476   3.203
 1975SOL    HW2 6825   2.742   0.531   3.158
 1976SOL     OW 6826   6.518   3.988   6.220
 1976SOL    HW1 6827   6.557   4.005   6.311
 1976SOL    HW2 6828   6.454   3.912   6.225
 1977SOL     OW 6829   3.229   1.932   5.602
 1977SOL    HW1 6830   3.200   1.876   5.524
 1977SOL    HW2 6831   3.149   1.974   5.644
 1978SOL     OW 6832   6.854   2.563   5.260
 1978SOL    HW1 6833   6.840   2.654   5.299
 1978SOL    HW2 6834   6.945   2.558   5.219
 1979SOL     OW 6835   6.252   4.148   2.303
 1979SOL    HW1 6836   6.256   4.160   2.403
 1979SOL    HW2 6837   6.345   4.150   2.266
 1980SOL     OW 6838   2.589   1.205   2.234
 1980SOL    HW1 6839   2.684   1.230   2.257
 1980SOL    HW2 6840   2.590   1.121   2.179
 1981SOL     OW 6841   4.929   3.159   1.977
 1981SOL    HW1 6842   4.854   3.093   1.985
 1981SOL    HW2 6843   4.988   3.152   2.057
 1982SOL     OW 6844   6.925   0.056   5.131
 1982SOL    HW1 6845   6.909   6.993   5.178
 1982SOL    HW2 6846   6.924   0.042   5.032
 1983SOL     OW 6847   0.629   4.662   2.487
 1983SOL    HW1 6848   0.702   4.719   2.525
 1983SOL    HW2 6849   0.560   4.720   2.445
 1984SOL     OW 6850   4.899   0.715   4.841
 1984SOL    HW1 6851   4.853   0.718   4.930
 1984SOL    HW2 6852   4.857   0.644   4.784
 1985SOL     OW 6853   1.500   6.106   1.017
 1985SOL    HW1 6854   1.468   6.036   1.081
 1985SOL    HW2 6855   1.487   6.197   1.057
 1986SOL     OW 6856   0.019   2.594   0.146
 1986SOL    HW1 6857   0.074   2.537   0.207
 1986SOL    HW2 6858   6.946   2.563   0.150
 1987SOL     OW 6859   2.397   4.260   6.582
 1987SOL    HW1 6860   2.380   4.357   6.562
 1987SOL    HW2 6861   2.494   4.240   6.567
 1988SOL     OW 6862   4.675   3.015   0.415
 1988SOL    HW1 6863   4.767   2.987   0.388
 1988SOL    HW2 6864   4.668   3.115   0.412
 1989SOL     OW 6865   2.077   2.260   4.248
 1989SOL    HW1 6866   2.163   2.307   4.229
 1989SOL    HW2 6867   2.011   2.280   4.176
 1990SOL     OW 6868   1.396   0.454   3.168
 1990SOL    HW1 6869   1.493   0.479   3.164
 1990SOL    HW2 6870   1.340   0.532   3.140
 1991SOL     OW 6871   4.727   6.138   2.618
 1991SOL    HW1 6872   4.634   6.145   2.653
 1991SOL    HW2 6873   4.788   6.110   2.692
 1992SOL     OW 6874   2.273   6.315   5.695
 1992SOL    HW1 6875   2.213   6.379   5.742
 1992SOL    HW2 6876   2.367   6.348   5.699
 1993SOL     OW 6877   3.030   3.560   4.278
 1993SOL    HW1 6878   3.117   3.604   4.300
 1993SOL    HW2 6879   2.970   3.563   4.358
 1994SOL     OW 6880   6.431   2.275   2.229
 1994SOL    HW1 6881   6.442   2.318   2.140
 1994SOL    HW2 6882   6.507   2.300   2.289
 1995SOL     OW 6883   3.922   2.321   1.185
 1995SOL    HW1 6884   3.869   2.308   1.269
 1995SOL    HW2 6885   4.020   2.314   1.205
 1996SOL     OW 6886   2.877   4.382   5.416
 1996SOL    HW1 6887   2.923   4.293   5.414
 1996SOL    HW2 6888   2.887   4.427   5.327
 1997SOL     OW 6889   5.564   6.180   3.506
 1997SOL    HW1 6890   5.464   6.177   3.512
 1997SOL    HW2 6891   5.597   6.260   3.557
 1998SOL     OW 6892   3.272   4.959   5.208
 1998SOL    HW1 6893   3.263   4.886   5.275
 1998SOL    HW2 6894   3.365   4.960   5.171
 1999SOL     OW 6895   2.384   1.714   1.819
 1999SOL    HW1 6896   2.306   1.659   1.852
 1999SOL    HW2 6897   2.457   1.711   1.887
 2000SOL     OW 6898   3.268   0.943   5.090
 2000SOL    HW1 6899   3.354   0.904   5.055
 2000SOL    HW2 6900   3.192   0.883   5.065
 2001SOL     OW 6901   2.295   3.174   0.177
 2001SOL    HW1 6902   2.197   3.172   0.158
 2001SOL    HW2 6903   2.318   3.260   0.224
 2002SOL     OW 6904   1.242   5.158   4.952
 2002SOL    HW1 6905   1.260   5.198   4.862
 2002SOL    HW2 6906   1.145   5.169   4.975
 2003SOL     OW 6907   6.566   4.308   3.460
 2003SOL    HW1 6908   6.536   4.275   3.370
 2003SOL    HW2 6909   6.571   4.408   3.458
 2004SOL     OW 6910   3.461   6.900   6.676
 2004SOL    HW1 6911   3.366   6.929   6.676
 2004SOL    HW2 6912   3.465   6.800   6.685
 2005SOL     OW 6913   2.821   6.590   5.221
 2005SOL    HW1 6914   2.908   6.615   5.178
 2005SOL    HW2 6915   2.839   6.552   5.312
 2006SOL     OW 6916   4.939   6.359   3.301
 2006SOL    HW1 6917   4.887   6.273   3.306
 2006SOL    HW2 6918   4.968   6.374   3.206
 2007SOL     OW 6919   6.432   5.620   6.829
 2007SOL    HW1 6920   6.483   5.540   6.858
 2007SOL    HW2 6921   6.358   5.638   6.895
 2008SOL     OW 6922   0.302   6.180   5.349
 2008SOL    HW1 6923   0.204   6.176   5.334
 2008SOL    HW2 6924   0.326   6.270   5.386
 2009SOL     OW 6925   1.168   0.075   6.707
 2009SOL    HW1 6926   1.098   0.003   6.714
 2009SOL    HW2 6927   1.182   0.116   6.797
 2010SOL     OW 6928   1.779   1.058   1.134
 2010SOL    HW1 6929   1.759   0.987   1.202
 2010SOL    HW2 6930   1.811   1.014   1.049
 2011SOL     OW 6931   0.253   2.165   4.990
 2011SOL    HW1 6932   0.165   2.204   5.018
 2011SOL    HW2 6933   0.241   2.113   4.906
 2012SOL     OW 6934   6.790   2.683   1.010
 2012SOL    HW1 6935   6.772   2.779   1.030
 2012SOL    HW2 6936   6.839   2.676   0.923
 2013SOL     OW 6937   4.257   2.318   2.051
 2013SOL    HW1 6938   4.257   2.294   2.148
 2013SOL    HW2 6939   4.164   2.321   2.017
 2014SOL     OW 6940   3.275   6.177   3.305
 2014SOL    HW1 6941   3.267   6.096   3.363
 2014SOL    HW2 6942   3.349   6.164   3.239
 2015SOL     OW 6943   3.399   6.452   0.447
 2015SOL    HW1 6944   3.486   6.475   0.491
 2015SOL    HW2 6945   3.417   6.393   0.368
 2016SOL     OW 6946   6.244   5.982   3.973
 2016SOL    HW1 6947   6.317   6.039   4.012
 2016SOL    HW2 6948   6.236   6.000   3.875
 2017SOL     OW 6949   2.217   4.946   1.922
 2017SOL    HW1 6950   2.170   4.995   1.995
 2017SOL    HW2 6951   2.316   4.949   1.937
 2018SOL     OW 6952   0.680   3.499   5.952
 2018SOL    HW1 6953   0.612   3.509   5.879
 2018SOL    HW2 6954   0.741   3.422   5.931
 2019SOL     OW 6955   5.521   1.460   2.673
 2019SOL    HW1 6956   5.602   1.500   2.716
 2019SOL    HW2 6957   5.537   1.362   2.658
 2020SOL     OW 6958   2.027   5.427   3.069
 2020SOL    HW1 6959   1.930   5.445   3.086
 2020SOL    HW2 6960   2.056   5.476   2.987
 2021SOL     OW 6961   2.299   0.222   2.009
 2021SOL    HW1 6962   2.228   0.262   1.950
 2021SOL    HW2 6963   2.347   0.151   1.958
 2022SOL     OW 6964   2.843   5.062   1.042
 2022SOL    HW1 6965   2.877   5.040   0.950
 2022SOL    HW2 6966   2.763   5.006   1.062
 2023SOL     OW 6967   6.289   1.562   6.145
 2023SOL    HW1 6968   6.377   1.594   6.109
 2023SOL    HW2 6969   6.217   1.583   6.079
 2024SOL     OW 6970   5.945   0.398   3.013
 2024SOL    HW1 6971   6.024   0.338   3.021
 2024SOL    HW2 6972   5.922   0.410   2.917
 2025SOL     OW 6973   6.253   0.608   0.851
 2025SOL    HW1 6974   6.250   0.708   0.858
 2025SOL    HW2 6975   6.274   0.568   0.940
 2026SOL     OW 6976   1.864   1.763   4.971
 2026SOL    HW1 6977   1.812   1.751   4.886
 2026SOL    HW2 6978   1.835   1.696   5.038
 2027SOL     OW 6979   0.240   0.900   2.245
 2027SOL    HW1 6980   0.220   0.997   2.230
 2027SOL    HW2 6981   0.164   0.858   2.296
 2028SOL     OW 6982   3.663   3.999   5.966
 2028SOL    HW1 6983   3.641   4.004   5.869
 2028SOL    HW2 6984   3.679   4.091   6.002
 2029SOL     OW 6985   1.742   0.372   0.536
 2029SOL    HW1 6986   1.654   0.415   0.557
 2029SOL    HW2 6987   1.804   0.440   0.497
 2030SOL     OW 6988   1.878   2.673   3.212
 2030SOL    HW1 6989   1.856   2.595   3.153
 2030SOL    HW2 6990   1.914   2.639   3.299
 2031SOL     OW 6991   5.736   0.194   2.947
 2031SOL    HW1 6992   5.808   0.241   2.999
 2031SOL    HW2 6993   5.779   0.132   2.881
 2032SOL     OW 6994   4.419   6.292   1.723
 2032SOL    HW1 6995   4.372   6.204   1.715
 2032SOL    HW2 6996   4.442   6.308   1.819
 2033SOL     OW 6997   0.024   5.034   6.879
 2033SOL    HW1 6998   6.987   4.955   6.874
 2033SOL    HW2 6999   0.097   5.026   6.811
 2034SOL     OW 7000   2.247   6.289   3.384
 2034SOL    HW1 7001   2.274   6.384   3.369
 2034SOL    HW2 7002   2.270   6.262   3.478
 2035SOL     OW 7003   0.261   2.139   2.005
 2035SOL    HW1 7004   0.213   2.195   1.938
 2035SOL    HW2 7005   0.297   2.197   2.078
 2036SOL     OW 7006   0.583   4.398   0.670
 2036SOL    HW1 7007   0.580   4.423   0.573
 2036SOL    HW2 7008   0.636   4.465   0.721
 2037SOL     OW 7009   0.358   1.885   6.943
 2037SOL    HW1 7010   0.259   1.899   6.936
 2037SOL    HW2 7011   0.377   1.788   6.958
 2038SOL     OW 7012   1.087   0.089   4.820
 2038SOL    HW1 7013   0.990   0.062   4.818
 2038SOL    HW2 7014   1.144   0.008   4.805
 2039SOL     OW 7015   1.356   5.352   1.898
 2039SOL    HW1 7016   1.282   5.381   1.837
 2039SOL    HW2 7017   1.325   5.276   1.955
 2040SOL     OW 7018   4.022   3.941   4.196
 2040SOL    HW1 7019   4.046   3.968   4.289
 2040SOL    HW2 7020   4.025   3.841   4.189
 2041SOL     OW 7021   5.664   2.891   6.877
 2041SOL    HW1 7022   5.736   2.919   6.814
 2041SOL    HW2 7023   5.701   2.884   6.970
 2042SOL     OW 7024   3.353   5.944   0.331
 2042SOL    HW1 7025   3.266   5.894   0.328
 2042SOL    HW2 7026   3.428   5.881   0.306
 2043SOL     OW 7027   4.476   5.082   2.715
 2043SOL    HW1 7028   4.542   5.018   2.754
 2043SOL    HW2 7029   4.520   5.171   2.700
 2044SOL     OW 7030   6.576   0.898   1.908
 2044SOL    HW1 7031   6.570   0.806   1.871
 2044SOL    HW2 7032   6.570   0.964   1.833
 2045SOL     OW 7033   2.839   6.384   6.304
 2045SOL    HW1 7034   2.828   6.300   6.250
 2045SOL    HW2 7035   2.874   6.456   6.245
 2046SOL     OW 7036   6.366   0.079   5.412
 2046SOL    HW1 7037   6.305   0.137   5.466
 2046SOL    HW2 7038   6.460   0.090   5.445
 2047SOL     OW 7039   5.003   2.552   0.280
 2047SOL    HW1 7040   4.987   2.619   0.208
 2047SOL    HW2 7041   4.915   2.514   0.311
 2048SOL     OW 7042   4.859   6.244   5.763
 2048SOL    HW1 7043   4.872   6.285   5.673
 2048SOL    HW2 7044   4.793   6.298   5.815
 2049SOL     OW 7045   5.012   6.005   0.286
 2049SOL    HW1 7046   4.989   6.100   0.262
 2049SOL    HW2 7047   4.951   5.943   0.237
 2050SOL     OW 7048   5.445   0.390   4.094
 2050SOL    HW1 7049   5.519   0.433   4.042
 2050SOL    HW2 7050   5.414   0.452   4.166
 2051SOL     OW 7051   2.885   5.315   0.684
 2051SOL    HW1 7052   2.829   5.303   0.602
 2051SOL    HW2 7053   2.832   5.362   0.754
 2052SOL     OW 7054   1.252   3.037   0.489
 2052SOL    HW1 7055   1.310   3.019   0.569
 2052SOL    HW2 7056   1.163   3.071   0.520
 2053SOL     OW 7057   5.452   1.653   0.593
 2053SOL    HW1 7058   5.367   1.616   0.631
 2053SOL    HW2 7059   5.521   1.655   0.665
 2054SOL     OW 7060   6.904   3.628   1.400
 2054SOL    HW1 7061   6.918   3.664   1.492
 2054SOL    HW2 7062   6.926   3.699   1.333
 2055SOL     OW 7063   6.478   1.745   3.896
 2055SOL    HW1 7064   6.536   1.705   3.967
 2055SOL    HW2 7065   6.535   1.796   3.832
 2056SOL     OW 7066   1.254   6.804   1.841
 2056SOL    HW1 7067   1.186   6.877   1.854
 2056SOL    HW2 7068   1.290   6.776   1.930
 2057SOL     OW 7069   5.579   2.411   4.423
 2057SOL    HW1 7070   5.549   2.368   4.508
 2057SOL    HW2 7071   5.536   2.501   4.415
 2058SOL     OW 7072   0.587   1.713   1.690
 2058SOL    HW1 7073   0.539   1.797   1.716
 2058SOL    HW2 7074   0.648   1.685   1.765
 2059SOL     OW 7075   1.647   0.543   6.482
 2059SOL    HW1 7076   1.745   0.531   6.467
 2059SOL    HW2 7077   1.632   0.581   6.573
 2060SOL     OW 7078   0.092   5.485   2.096
 2060SOL    HW1 7079   0.023   5.515   2.030
 2060SOL    HW2 7080   0.059   5.501   2.189
 2061SOL     OW 7081   1.020   0.892   1.411
 2061SOL    HW1 7082   1.058   0.981   1.436
 2061SOL    HW2 7083   0.983   0.897   1.318
 2062SOL     OW 7084   4.103   0.313   3.974
 2062SOL    HW1 7085   4.097   0.390   4.038
 2062SOL    HW2 7086   4.109   0.227   4.026
 2063SOL     OW 7087   2.004   1.853   0.703
 2063SOL    HW1 7088   2.041   1.916   0.636
 2063SOL    HW2 7089   1.906   1.841   0.686
 2064SOL     OW 7090   1.155   1.929   0.295
 2064SOL    HW1 7091   1.200   1.947   0.383
 2064SOL    HW2 7092   1.177   1.837   0.264
 2065SOL     OW 7093   6.765   3.787   2.593
 2065SOL    HW1 7094   6.711   3.713   2.554
 2065SOL    HW2 7095   6.738   3.802   2.689
 2066SOL     OW 7096   1.167   6.507   3.079
 2066SOL    HW1 7097   1.212   6.535   2.994
 2066SOL    HW2 7098   1.232   6.511   3.155
 2067SOL     OW 7099   0.025   0.126   0.811
 2067SOL    HW1 7100   0.078   0.147   0.893
 2067SOL    HW2 7101   0.059   0.181   0.735
 2068SOL     OW 7102   2.013   1.491   5.324
 2068SOL    HW1 7103   2.072   1.573   5.323
 2068SOL    HW2 7104   1.972   1.479   5.233
 2069SOL     OW 7105   1.223   2.306   1.596
 2069SOL    HW1 7106   1.318   2.329   1.618
 2069SOL    HW2 7107   1.210   2.207   1.600
 2070SOL     OW 7108   0.877   1.049   2.658
 2070SOL    HW1 7109   0.916   1.135   2.688
 2070SOL    HW2 7110   0.849   1.056   2.563
 2071SOL     OW 7111   2.295   6.223   5.212
 2071SOL    HW1 7112   2.280   6.322   5.206
 2071SOL    HW2 7113   2.392   6.205   5.224
 2072SOL     OW 7114   4.971   4.651   2.114
 2072SOL    HW1 7115   5.049   4.680   2.058
 2072SOL    HW2 7116   4.978   4.553   2.133
 2073SOL     OW 7117   3.055   6.412   4.916
 2073SOL    HW1 7118   3.045   6.507   4.947
 2073SOL    HW2 7119   3.117   6.409   4.837
 2074SOL     OW 7120   6.232   2.629   2.841
 2074SOL    HW1 7121   6.326   2.658   2.858
 2074SOL    HW2 7122   6.231   2.561   2.767
 2075SOL     OW 7123   3.452   3.616   5.871
 2075SOL    HW1 7124   3.383   3.551   5.905
 2075SOL    HW2 7125   3.435   3.636   5.775
 2076SOL     OW 7126   5.207   0.333   1.100
 2076SOL    HW1 7127   5.112   0.355   1.118
 2076SOL    HW2 7128   5.242   0.392   1.027
 2077SOL     OW 7129   5.035   1.259   3.597
 2077SOL    HW1 7130   5.123   1.295   3.566
 2077SOL    HW2 7131   5.027   1.270   3.696
 2078SOL     OW 7132   3.948   5.418   4.924
 2078SOL    HW1 7133   4.033   5.452   4.884
 2078SOL    HW2 7134   3.873   5.432   4.860
 2079SOL     OW 7135   5.538   0.439   3.770
 2079SOL    HW1 7136   5.564   0.473   3.680
 2079SOL    HW2 7137   5.590   0.488   3.840
 2080SOL     OW 7138   3.066   1.824   4.057
 2080SOL    HW1 7139   3.132   1.855   3.988
 2080SOL    HW2 7140   3.026   1.737   4.028
 2081SOL     OW 7141   1.154   6.492   4.194
 2081SOL    HW1 7142   1.103   6.475   4.110
 2081SOL    HW2 7143   1.230   6.428   4.200
 2082SOL     OW 7144   4.830   0.561   2.138
 2082SOL    HW1 7145   4.790   0.637   2.086
 2082SOL    HW2 7146   4.789   0.475   2.108
 2083SOL     OW 7147   3.993   4.565   5.760
 2083SOL    HW1 7148   3.958   4.508   5.685
 2083SOL    HW2 7149   3.920   4.582   5.826
 2084SOL     OW 7150   6.748   2.129   2.727
 2084SOL    HW1 7151   6.763   2.041   2.681
 2084SOL    HW2 7152   6.695   2.189   2.667
 2085SOL     OW 7153   5.694   5.752   6.621
 2085SOL    HW1 7154   5.738   5.697   6.550
 2085SOL    HW2 7155   5.757   5.826   6.648
 2086SOL     OW 7156   3.815   5.322   0.182
 2086SOL    HW1 7157   3.771   5.291   0.097
 2086SOL    HW2 7158   3.814   5.248   0.249
 2087SOL     OW 7159   6.282   5.806   3.540
 2087SOL    HW1 7160   6.193   5.849   3.554
 2087SOL    HW2 7161   6.271   5.706   3.541
 2088SOL     OW 7162   2.220   0.149   1.074
 2088SOL    HW1 7163   2.248   0.243   1.093
 2088SOL    HW2 7164   2.132   0.150   1.025
 2089SOL     OW 7165   2.665   0.972   0.207
 2089SOL    HW1 7166   2.710   0.926   0.283
 2089SOL    HW2 7167   2.734   1.005   0.142
 2090SOL     OW 7168   3.010   3.171   3.989
 2090SOL    HW1 7169   2.955   3.227   4.051
 2090SOL    HW2 7170   2.996   3.201   3.895
 2091SOL     OW 7171   2.519   4.882   0.682
 2091SOL    HW1 7172   2.461   4.959   0.655
 2091SOL    HW2 7173   2.476   4.796   0.654
 2092SOL     OW 7174   0.020   6.229   1.194
 2092SOL    HW1 7175   0.105   6.177   1.199
 2092SOL    HW2 7176   6.969   6.175   1.233
 2093SOL     OW 7177   1.153   2.795   1.359
 2093SOL    HW1 7178   1.217   2.730   1.318
 2093SOL    HW2 7179   1.185   2.888   1.340
 2094SOL     OW 7180   6.314   0.349   1.833
 2094SOL    HW1 7181   6.295   0.447   1.822
 2094SOL    HW2 7182   6.234   0.305   1.874
 2095SOL     OW 7183   6.866   4.809   4.753
 2095SOL    HW1 7184   6.807   4.861   4.691
 2095SOL    HW2 7185   6.907   4.872   4.819
 2096SOL     OW 7186   4.860   3.673   3.391
 2096SOL    HW1 7187   4.944   3.667   3.445
 2096SOL    HW2 7188   4.873   3.629   3.303
 2097SOL     OW 7189   6.198   3.744   6.678
 2097SOL    HW1 7190   6.239   3.689   6.751
 2097SOL    HW2 7191   6.165   3.683   6.606
 2098SOL     OW 7192   4.060   6.930   3.726
 2098SOL    HW1 7193   3.961   6.939   3.734
 2098SOL    HW2 7194   4.093   6.865   3.794
 2099SOL     OW 7195   3.031   1.824   3.072
 2099SOL    HW1 7196   3.030   1.853   3.168
 2099SOL    HW2 7197   3.042   1.725   3.067
 2100SOL     OW 7198   3.741   4.880   0.090
 2100SOL    HW1 7199   3.726   4.811   0.019
 2100SOL    HW2 7200   3.672   4.952   0.082
 2101SOL     OW 7201   0.263   0.762   1.872
 2101SOL    HW1 7202   0.260   0.753   1.772
 2101SOL    HW2 7203   0.325   0.693   1.909
 2102SOL     OW 7204   0.206   5.125   1.717
 2102SOL    HW1 7205   0.233   5.198   1.781
 2102SOL    HW2 7206   0.269   5.048   1.727
 2103SOL     OW 7207   3.010   3.402   6.251
 2103SOL    HW1 7208   3.002   3.494   6.289
 2103SOL    HW2 7209   3.105   3.372   6.254
 2104SOL     OW 7210   1.477   3.980   5.737
 2104SOL    HW1 7211   1.511   3.900   5.787
 2104SOL    HW2 7212   1.379   3.992   5.756
 2105SOL     OW 7213   5.911   5.738   1.434
 2105SOL    HW1 7214   5.897   5.717   1.337
 2105SOL    HW2 7215   6.008   5.754   1.451
 2106SOL     OW 7216   6.021   5.438   6.573
 2106SOL    HW1 7217   5.923   5.420   6.575
 2106SOL    HW2 7218   6.044   5.507   6.642
 2107SOL     OW 7219   2.836   4.643   0.311
 2107SOL    HW1 7220   2.777   4.717   0.344
 2107SOL    HW2 7221   2.929   4.657   0.344
 2108SOL     OW 7222   5.674   4.186   6.112
 2108SOL    HW1 7223   5.710   4.128   6.039
 2108SOL    HW2 7224   5.739   4.261   6.129
 2109SOL     OW 7225   5.641   5.949   2.897
 2109SOL    HW1 7226   5.546   5.931   2.872
 2109SOL    HW2 7227   5.660   5.906   2.986
 2110SOL     OW 7228   1.826   4.861   4.950
 2110SOL    HW1 7229   1.792   4.894   5.038
 2110SOL    HW2 7230   1.799   4.765   4.937
 2111SOL     OW 7231   2.080   2.775   0.067
 2111SOL    HW1 7232   2.084   2.834   0.148
 2111SOL    HW2 7233   2.101   2.830   7.008
 2112SOL     OW 7234   5.678   3.386   0.485
 2112SOL    HW1 7235   5.636   3.302   0.517
 2112SOL    HW2 7236   5.611   3.460   0.487
 2113SOL     OW 7237   6.397   1.483   3.043
 2113SOL    HW1 7238   6.303   1.501   3.012
 2113SOL    HW2 7239   6.462   1.521   2.978
 2114SOL     OW 7240   2.012   3.131   0.175
 2114SOL    HW1 7241   2.041   3.044   0.215
 2114SOL    HW2 7242   1.928   3.117   0.123
 2115SOL     OW 7243   3.243   5.798   1.569
 2115SOL    HW1 7244   3.327   5.808   1.516
 2115SOL    HW2 7245   3.215   5.702   1.570
 2116SOL     OW 7246   0.510   4.307   3.301
 2116SOL    HW1 7247   0.505   4.301   3.201
 2116SOL    HW2 7248   0.555   4.226   3.337
 2117SOL     OW 7249   0.277   5.994   6.248
 2117SOL    HW1 7250   0.187   6.036   6.262
 2117SOL    HW2 7251   0.335   6.012   6.327
 2118SOL     OW 7252   0.145   3.269   2.163
 2118SOL    HW1 7253   0.173   3.301   2.254
 2118SOL    HW2 7254   0.046   3.257   2.162
 2119SOL     OW 7255   3.667   6.758   0.957
 2119SOL    HW1 7256   3.703   6.723   1.044
 2119SOL    HW2 7257   3.722   6.721   0.882
 2120SOL     OW 7258   6.450   4.410   2.533
 2120SOL    HW1 7259   6.416   4.356   2.611
 2120SOL    HW2 7260   6.436   4.507   2.552
 2121SOL     OW 7261   0.606   4.001   4.698
 2121SOL    HW1 7262   0.666   3.939   4.748
 2121SOL    HW2 7263   0.572   4.073   4.759
 2122SOL     OW 7264   4.626   5.044   5.568
 2122SOL    HW1 7265   4.536   5.012   5.599
 2122SOL    HW2 7266   4.614   5.113   5.497
 2123SOL     OW 7267   4.304   4.634   3.799
 2123SOL    HW1 7268   4.337   4.602   3.888
 2123SOL    HW2 7269   4.340   4.574   3.727
 2124SOL     OW 7270   3.284   1.870   1.624
 2124SOL    HW1 7271   3.366   1.853   1.570
 2124SOL    HW2 7272   3.210   1.811   1.592
 2125SOL     OW 7273   4.581   6.503   0.677
 2125SOL    HW1 7274   4.530   6.578   0.635
 2125SOL    HW2 7275   4.535   6.417   0.658
 2126SOL     OW 7276   3.033   1.188   1.897
 2126SOL    HW1 7277   2.934   1.196   1.887
 2126SOL    HW2 7278   3.059   1.092   1.907
 2127SOL     OW 7279   5.997   2.832   5.166
 2127SOL    HW1 7280   5.997   2.909   5.103
 2127SOL    HW2 7281   5.945   2.756   5.126
 2128SOL     OW 7282   0.800   4.427   4.364
 2128SOL    HW1 7283   0.741   4.433   4.284
 2128SOL    HW2 7284   0.892   4.398   4.336
 2129SOL     OW 7285   4.089   2.156   5.825
 2129SOL    HW1 7286   4.119   2.188   5.735
 2129SOL    HW2 7287   4.135   2.070   5.847
 2130SOL     OW 7288   5.125   0.739   3.276
 2130SOL    HW1 7289   5.038   0.768   3.314
 2130SOL    HW2 7290   5.111   0.704   3.183
 2131SOL     OW 7291   5.316   1.467   6.727
 2131SOL    HW1 7292   5.265   1.501   6.806
 2131SOL    HW2 7293   5.272   1.498   6.642
 2132SOL     OW 7294   1.735   3.651   1.038
 2132SOL    HW1 7295   1.771   3.667   0.946
 2132SOL    HW2 7296   1.672   3.725   1.063
 2133SOL     OW 7297   2.292   4.011   5.907
 2133SOL    HW1 7298   2.265   3.949   5.834
 2133SOL    HW2 7299   2.392   4.022   5.906
 2134SOL     OW 7300   0.153   6.731   1.137
 2134SOL    HW1 7301   0.093   6.672   1.084
 2134SOL    HW2 7302   0.196   6.678   1.211
 2135SOL     OW 7303   6.828   4.385   5.297
 2135SOL    HW1 7304   6.831   4.336   5.210
 2135SOL    HW2 7305   6.877   4.472   5.288
 2136SOL     OW 7306   1.168   5.352   0.425
 2136SOL    HW1 7307   1.130   5.269   0.468
 2136SOL    HW2 7308   1.267   5.344   0.420
 2137SOL     OW 7309   1.588   6.450   4.005
 2137SOL    HW1 7310   1.529   6.447   4.086
 2137SOL    HW2 7311   1.669   6.394   4.022
 2138SOL     OW 7312   5.008   2.037   2.360
 2138SOL    HW1 7313   5.035   2.048   2.456
 2138SOL    HW2 7314   4.947   2.112   2.334
 2139SOL     OW 7315   2.804   0.065   5.260
 2139SOL    HW1 7316   2.733   0.135   5.253
 2139SOL    HW2 7317   2.763   6.998   5.250
 2140SOL     OW 7318   2.618   1.583   4.176
 2140SOL    HW1 7319   2.566   1.666   4.195
 2140SOL    HW2 7320   2.556   1.509   4.150
 2141SOL     OW 7321   6.662   3.207   3.221
 2141SOL    HW1 7322   6.569   3.168   3.225
 2141SOL    HW2 7323   6.657   3.299   3.184
 2142SOL     OW 7324   1.290   2.354   2.454
 2142SOL    HW1 7325   1.267   2.452   2.451
 2142SOL    HW2 7326   1.334   2.327   2.368
 2143SOL     OW 7327   0.465   5.248   5.775
 2143SOL    HW1 7328   0.461   5.332   5.720
 2143SOL    HW2 7329   0.483   5.170   5.716
 2144SOL     OW 7330   6.461   4.513   3.075
 2144SOL    HW1 7331   6.501   4.427   3.042
 2144SOL    HW2 7332   6.503   4.590   3.028
 2145SOL     OW 7333   4.256   1.140   3.538
 2145SOL    HW1 7334   4.321   1.128   3.613
 2145SOL    HW2 7335   4.298   1.114   3.451
 2146SOL     OW 7336   2.531   2.188   6.557
 2146SOL    HW1 7337   2.553   2.156   6.465
 2146SOL    HW2 7338   2.526   2.288   6.557
 2147SOL     OW 7339   5.891   6.651   4.166
 2147SOL    HW1 7340   5.920   6.622   4.075
 2147SOL    HW2 7341   5.906   6.577   4.231
 2148SOL     OW 7342   0.254   2.525   5.485
 2148SOL    HW1 7343   0.329   2.516   5.551
 2148SOL    HW2 7344   0.274   2.600   5.422
 2149SOL     OW 7345   0.889   6.579   0.018
 2149SOL    HW1 7346   0.795   6.608   0.039
 2149SOL    HW2 7347   0.946   6.592   0.099
 2150SOL     OW 7348   1.642   3.402   0.966
 2150SOL    HW1 7349   1.546   3.404   0.997
 2150SOL    HW2 7350   1.689   3.484   0.998
 2151SOL     OW 7351   0.909   4.635   0.009
 2151SOL    HW1 7352   0.990   4.695   0.011
 2151SOL    HW2 7353   0.852   4.659   6.954
 2152SOL     OW 7354   5.273   6.030   3.841
 2152SOL    HW1 7355   5.345   6.089   3.875
 2152SOL    HW2 7356   5.311   5.965   3.775
 2153SOL     OW 7357   5.196   6.630   4.486
 2153SOL    HW1 7358   5.230   6.632   4.580
 2153SOL    HW2 7359   5.116   6.570   4.480
 2154SOL     OW 7360   2.438   6.936   2.330
 2154SOL    HW1 7361   2.441   0.010   2.355
 2154SOL    HW2 7362   2.355   6.895   2.367
 2155SOL     OW 7363   4.125   0.704   0.925
 2155SOL    HW1 7364   4.093   0.610   0.943
 2155SOL    HW2 7365   4.072   0.768   0.980
 2156SOL     OW 7366   5.687   2.437   4.964
 2156SOL    HW1 7367   5.683   2.375   5.042
 2156SOL    HW2 7368   5.745   2.399   4.893
 2157SOL     OW 7369   3.609   6.410   4.575
 2157SOL    HW1 7370   3.635   6.372   4.664
 2157SOL    HW2 7371   3.602   6.510   4.582
 2158SOL     OW 7372   3.029   6.850   0.517
 2158SOL    HW1 7373   2.954   6.827   0.456
 2158SOL    HW2 7374   3.113   6.864   0.464
 2159SOL     OW 7375   0.637   1.239   5.782
 2159SOL    HW1 7376   0.552   1.291   5.795
 2159SOL    HW2 7377   0.687   1.277   5.704
 2160SOL     OW 7378   5.668   0.137   6.935
 2160SOL    HW1 7379   5.735   0.149   7.009
 2160SOL    HW2 7380   5.633   0.227   6.908
 2161SOL     OW 7381   1.617   3.583   0.554
 2161SOL    HW1 7382   1.710   3.593   0.590
 2161SOL    HW2 7383   1.621   3.553   0.459
 2162SOL     OW 7384   1.989   0.343   1.248
 2162SOL    HW1 7385   1.952   0.386   1.331
 2162SOL    HW2 7386   2.080   0.381   1.229
 2163SOL     OW 7387   1.716   3.431   3.215
 2163SOL    HW1 7388   1.636   3.382   3.182
 2163SOL    HW2 7389   1.780   3.445   3.140
 2164SOL     OW 7390   2.104   3.528   2.229
 2164SOL    HW1 7391   2.163   3.505   2.151
 2164SOL    HW2 7392   2.129   3.472   2.308
 2165SOL     OW 7393   6.542   1.100   4.546
 2165SOL    HW1 7394   6.566   1.173   4.482
 2165SOL    HW2 7395   6.444   1.103   4.564
 2166SOL     OW 7396   6.943   3.104   2.059
 2166SOL    HW1 7397   6.906   3.121   1.968
 2166SOL    HW2 7398   7.000   3.021   2.056
 2167SOL     OW 7399   1.607   2.114   3.102
 2167SOL    HW1 7400   1.566   2.031   3.140
 2167SOL    HW2 7401   1.553   2.146   3.024
 2168SOL     OW 7402   1.974   1.963   3.322
 2168SOL    HW1 7403   1.945   2.034   3.387
 2168SOL    HW2 7404   1.991   1.878   3.372
 2169SOL     OW 7405   6.634   6.935   1.300
 2169SOL    HW1 7406   6.548   6.947   1.250
 2169SOL    HW2 7407   6.621   6.958   1.396
 2170SOL     OW 7408   1.338   3.563   5.974
 2170SOL    HW1 7409   1.339   3.464   5.959
 2170SOL    HW2 7410   1.304   3.582   6.066
 2171SOL     OW 7411   6.810   6.094   0.907
 2171SOL    HW1 7412   6.799   6.057   0.999
 2171SOL    HW2 7413   6.776   6.028   0.841
 2172SOL     OW 7414   2.612   1.730   5.289
 2172SOL    HW1 7415   2.537   1.712   5.352
 2172SOL    HW2 7416   2.599   1.820   5.246
 2173SOL     OW 7417   5.082   0.459   4.534
 2173SOL    HW1 7418   5.001   0.449   4.591
 2173SOL    HW2 7419   5.112   0.368   4.503
 2174SOL     OW 7420   5.788   0.573   6.035
 2174SOL    HW1 7421   5.857   0.583   5.963
 2174SOL    HW2 7422   5.790   0.479   6.070
 2175SOL     OW 7423   3.156   3.767   5.471
 2175SOL    HW1 7424   3.140   3.785   5.374
 2175SOL    HW2 7425   3.082   3.806   5.525
 2176SOL     OW 7426   5.869   2.108   3.194
 2176SOL    HW1 7427   5.968   2.103   3.178
 2176SOL    HW2 7428   5.837   2.201   3.178
 2177SOL     OW 7429   1.199   1.287   4.859
 2177SOL    HW1 7430   1.199   1.310   4.762
 2177SOL    HW2 7431   1.230   1.192   4.871
 2178SOL     OW 7432   1.185   2.624   2.525
 2178SOL    HW1 7433   1.127   2.576   2.590
 2178SOL    HW2 7434   1.153   2.606   2.432
 2179SOL     OW 7435   1.516   3.778   6.968
 2179SOL    HW1 7436   1.591   3.814   6.914
 2179SOL    HW2 7437   1.460   3.717   6.912
 2180SOL     OW 7438   0.712   5.753   2.614
 2180SOL    HW1 7439   0.725   5.782   2.519
 2180SOL    HW2 7440   0.615   5.736   2.631
 2181SOL     OW 7441   4.074   4.870   4.548
 2181SOL    HW1 7442   4.136   4.837   4.477
 2181SOL    HW2 7443   3.995   4.810   4.556
 2182SOL     OW 7444   0.280   6.626   1.344
 2182SOL    HW1 7445   0.379   6.637   1.343
 2182SOL    HW2 7446   0.244   6.664   1.429
 2183SOL     OW 7447   3.266   3.284   6.581
 2183SOL    HW1 7448   3.191   3.340   6.616
 2183SOL    HW2 7449   3.243   3.187   6.591
 2184SOL     OW 7450   6.417   1.370   0.552
 2184SOL    HW1 7451   6.504   1.323   0.569
 2184SOL    HW2 7452   6.347   1.302   0.528
 2185SOL     OW 7453   0.883   1.088   5.917
 2185SOL    HW1 7454   0.799   1.136   5.891
 2185SOL    HW2 7455   0.959   1.123   5.863
 2186SOL     OW 7456   6.619   6.321   5.354
 2186SOL    HW1 7457   6.569   6.341   5.439
 2186SOL    HW2 7458   6.615   6.222   5.337
 2187SOL     OW 7459   5.910   4.833   1.542
 2187SOL    HW1 7460   5.884   4.853   1.448
 2187SOL    HW2 7461   5.843   4.875   1.604
 2188SOL     OW 7462   2.677   0.915   0.695
 2188SOL    HW1 7463   2.723   0.974   0.761
 2188SOL    HW2 7464   2.727   0.829   0.685
 2189SOL     OW 7465   1.823   0.879   1.896
 2189SOL    HW1 7466   1.827   0.887   1.797
 2189SOL    HW2 7467   1.746   0.821   1.922
 2190SOL     OW 7468   6.689   4.528   1.808
 2190SOL    HW1 7469   6.715   4.436   1.779
 2190SOL    HW2 7470   6.686   4.531   1.908
 2191SOL     OW 7471   3.391   0.555   6.726
 2191SOL    HW1 7472   3.376   0.543   6.824
 2191SOL    HW2 7473   3.482   0.594   6.711
 2192SOL     OW 7474   4.935   1.767   2.242
 2192SOL    HW1 7475   4.931   1.844   2.306
 2192SOL    HW2 7476   4.843   1.747   2.209
 2193SOL     OW 7477   2.422   0.280   4.986
 2193SOL    HW1 7478   2.344   0.281   5.048
 2193SOL    HW2 7479   2.432   0.370   4.944
 2194SOL     OW 7480   0.523   3.875   6.259
 2194SOL    HW1 7481   0.522   3.777   6.236
 2194SOL    HW2 7482   0.511   3.928   6.175
 2195SOL     OW 7483   0.184   3.944   4.352
 2195SOL    HW1 7484   0.141   3.873   4.296
 2195SOL    HW2 7485   0.279   3.954   4.325
 2196SOL     OW 7486   3.649   0.852   6.993
 2196SOL    HW1 7487   3.567   0.907   7.013
 2196SOL    HW2 7488   3.693   0.887   6.910
 2197SOL     OW 7489   3.522   5.498   5.927
 2197SOL    HW1 7490   3.564   5.527   6.014
 2197SOL    HW2 7491   3.522   5.574   5.863
 2198SOL     OW 7492   1.156   1.066   6.624
 2198SOL    HW1 7493   1.218   1.082   6.701
 2198SOL    HW2 7494   1.144   0.967   6.611
 2199SOL     OW 7495   4.237   6.847   3.513
 2199SOL    HW1 7496   4.198   6.906   3.583
 2199SOL    HW2 7497   4.329   6.878   3.489
 2200SOL     OW 7498   2.540   2.509   3.822
 2200SOL    HW1 7499   2.529   2.410   3.823
 2200SOL    HW2 7500   2.637   2.532   3.810
 2201SOL     OW 7501   5.778   3.888   5.036
 2201SOL    HW1 7502   5.719   3.968   5.046
 2201SOL    HW2 7503   5.872   3.913   5.056
 2202SOL     OW 7504   3.435   0.135   3.334
 2202SOL    HW1 7505   3.465   0.224   3.367
 2202SOL    HW2 7506   3.467   0.122   3.240
 2203SOL     OW 7507   1.737   5.576   1.358
 2203SOL    HW1 7508   1.710   5.618   1.271
 2203SOL    HW2 7509   1.761   5.480   1.343
 2204SOL     OW 7510   5.828   2.416   0.980
 2204SOL    HW1 7511   5.896   2.469   0.929
 2204SOL    HW2 7512   5.749   2.398   0.922
 2205SOL     OW 7513   6.404   5.617   1.196
 2205SOL    HW1 7514   6.321   5.671   1.209
 2205SOL    HW2 7515   6.384   5.541   1.134
 2206SOL     OW 7516   3.654   2.475   5.885
 2206SOL    HW1 7517   3.700   2.475   5.797
 2206SOL    HW2 7518   3.694   2.545   5.944
 2207SOL     OW 7519   4.584   5.900   1.768
 2207SOL    HW1 7520   4.625   5.809   1.757
 2207SOL    HW2 7521   4.654   5.964   1.799
 2208SOL     OW 7522   6.966   6.731   3.401
 2208SOL    HW1 7523   0.024   6.706   3.347
 2208SOL    HW2 7524   6.888   6.678   3.370
 2209SOL     OW 7525   3.123   5.655   3.551
 2209SOL    HW1 7526   3.039   5.609   3.582
 2209SOL    HW2 7527   3.107   5.753   3.546
 2210SOL     OW 7528   5.045   0.116   1.674
 2210SOL    HW1 7529   5.064   0.059   1.594
 2210SOL    HW2 7530   4.985   0.191   1.648
 2211SOL     OW 7531   1.550   1.892   1.089
 2211SOL    HW1 7532   1.626   1.950   1.121
 2211SOL    HW2 7533   1.511   1.932   1.006
 2212SOL     OW 7534   2.749   5.800   6.398
 2212SOL    HW1 7535   2.764   5.820   6.302
 2212SOL    HW2 7536   2.657   5.826   6.424
 2213SOL     OW 7537   3.417   1.731   5.173
 2213SOL    HW1 7538   3.372   1.816   5.200
 2213SOL    HW2 7539   3.502   1.752   5.125
 2214SOL     OW 7540   4.148   4.293   6.725
 2214SOL    HW1 7541   4.073   4.297   6.660
 2214SOL    HW2 7542   4.182   4.199   6.731
 2215SOL     OW 7543   4.957   6.419   0.695
 2215SOL    HW1 7544   4.954   6.344   0.762
 2215SOL    HW2 7545   4.928   6.504   0.740
 2216SOL     OW 7546   0.558   6.101   6.830
 2216SOL    HW1 7547   0.594   6.033   6.766
 2216SOL    HW2 7548   0.628   6.170   6.849
 2217SOL     OW 7549   4.479   1.253   3.808
 2217SOL    HW1 7550   4.502   1.195   3.730
 2217SOL    HW2 7551   4.545   1.328   3.814
 2218SOL     OW 7552   6.859   5.288   5.383
 2218SOL    HW1 7553   6.880   5.273   5.479
 2218SOL    HW2 7554   6.864   5.385   5.362
 2219SOL     OW 7555   5.402   1.329   0.977
 2219SOL    HW1 7556   5.345   1.396   1.025
 2219SOL    HW2 7557   5.499   1.346   0.999
 2220SOL     OW 7558   6.974   5.954   4.187
 2220SOL    HW1 7559   6.879   5.986   4.178
 2220SOL    HW2 7560   6.993   5.887   4.115
 2221SOL     OW 7561   6.006   1.069   4.333
 2221SOL    HW1 7562   6.034   1.112   4.247
 2221SOL    HW2 7563   6.074   1.000   4.359
 2222SOL     OW 7564   4.220   0.155   2.999
 2222SOL    HW1 7565   4.282   0.214   2.948
 2222SOL    HW2 7566   4.126   0.186   2.985
 2223SOL     OW 7567   0.785   0.035   5.151
 2223SOL    HW1 7568   0.793   0.130   5.123
 2223SOL    HW2 7569   0.813   0.025   5.247
 2224SOL     OW 7570   5.039   4.292   0.022
 2224SOL    HW1 7571   4.997   4.209   0.059
 2224SOL    HW2 7572   5.138   4.279   0.013
 2225SOL     OW 7573   6.821   6.654   1.337
 2225SOL    HW1 7574   6.742   6.715   1.334
 2225SOL    HW2 7575   6.811   6.590   1.413
 2226SOL     OW 7576   2.517   4.033   6.912
 2226SOL    HW1 7577   2.487   4.111   6.966
 2226SOL    HW2 7578   2.609   4.050   6.876
 2227SOL     OW 7579   4.009   1.959   2.313
 2227SOL    HW1 7580   3.956   1.877   2.337
 2227SOL    HW2 7581   3.968   2.003   2.233
 2228SOL     OW 7582   5.751   5.373   6.578
 2228SOL    HW1 7583   5.777   5.276   6.573
 2228SOL    HW2 7584   5.728   5.396   6.673
 2229SOL     OW 7585   2.887   3.388   4.140
 2229SOL    HW1 7586   2.800   3.354   4.176
 2229SOL    HW2 7587   2.925   3.456   4.203
 2230SOL     OW 7588   6.074   0.651   6.452
 2230SOL    HW1 7589   6.071   0.729   6.514
 2230SOL    HW2 7590   5.995   0.654   6.390
 2231SOL     OW 7591   1.764   0.423   6.187
 2231SOL    HW1 7592   1.805   0.382   6.269
 2231SOL    HW2 7593   1.824   0.494   6.151
 2232SOL     OW 7594   1.914   0.612   6.043
 2232SOL    HW1 7595   1.899   0.708   6.069
 2232SOL    HW2 7596   2.002   0.604   5.996
 2233SOL     OW 7597   3.145   4.730   0.900
 2233SOL    HW1 7598   3.230   4.730   0.847
 2233SOL    HW2 7599   3.067   4.731   0.837
 2234SOL     OW 7600   4.883   2.198   2.029
 2234SOL    HW1 7601   4.981   2.205   2.047
 2234SOL    HW2 7602   4.865   2.119   1.970
 2235SOL     OW 7603   0.811   2.001   2.806
 2235SOL    HW1 7604   0.772   2.093   2.810
 2235SOL    HW2 7605   0.738   1.934   2.819
 2236SOL     OW 7606   2.645   5.011   5.504
 2236SOL    HW1 7607   2.639   4.911   5.513
 2236SOL    HW2 7608   2.553   5.049   5.495
 2237SOL     OW 7609   6.059   6.204   5.696
 2237SOL    HW1 7610   6.014   6.180   5.782
 2237SOL    HW2 7611   6.140   6.260   5.715
 2238SOL     OW 7612   5.994   3.510   2.288
 2238SOL    HW1 7613   5.961   3.544   2.377
 2238SOL    HW2 7614   6.023   3.415   2.298
 2239SOL     OW 7615   4.716   6.640   2.930
 2239SOL    HW1 7616   4.636   6.623   2.988
 2239SOL    HW2 7617   4.703   6.725   2.880
 2240SOL     OW 7618   5.160   5.348   2.244
 2240SOL    HW1 7619   5.145   5.408   2.322
 2240SOL    HW2 7620   5.102   5.377   2.168
 2241SOL     OW 7621   0.214   1.653   2.605
 2241SOL    HW1 7622   0.132   1.601   2.581
 2241SOL    HW2 7623   0.294   1.593   2.599
 2242SOL     OW 7624   5.306   2.216   4.265
 2242SOL    HW1 7625   5.394   2.229   4.220
 2242SOL    HW2 7626   5.287   2.294   4.325
 2243SOL     OW 7627   2.369   6.608   0.581
 2243SOL    HW1 7628   2.320   6.626   0.495
 2243SOL    HW2 7629   2.303   6.595   0.655
 2244SOL     OW 7630   2.197   1.676   0.791
 2244SOL    HW1 7631   2.283   1.705   0.747
 2244SOL    HW2 7632   2.127   1.745   0.776
 2245SOL     OW 7633   0.316   0.591   0.319
 2245SOL    HW1 7634   0.346   0.519   0.381
 2245SOL    HW2 7635   0.285   0.670   0.373
 2246SOL     OW 7636   4.068   1.819   5.201
 2246SOL    HW1 7637   4.130   1.743   5.221
 2246SOL    HW2 7638   3.983   1.807   5.251
 2247SOL     OW 7639   3.048   3.242   2.159
 2247SOL    HW1 7640   2.975   3.190   2.114
 2247SOL    HW2 7641   3.022   3.338   2.164
 2248SOL     OW 7642   5.069   3.785   5.331
 2248SOL    HW1 7643   5.008   3.817   5.404
 2248SOL    HW2 7644   5.044   3.829   5.245
 2249SOL     OW 7645   2.369   6.728   3.125
 2249SOL    HW1 7646   2.349   6.822   3.096
 2249SOL    HW2 7647   2.459   6.701   3.089
 2250SOL     OW 7648   4.455   6.121   6.451
 2250SOL    HW1 7649   4.472   6.138   6.354
 2250SOL    HW2 7650   4.451   6.208   6.500
 2251SOL     OW 7651   4.632   6.300   4.906
 2251SOL    HW1 7652   4.670   6.209   4.922
 2251SOL    HW2 7653   4.694   6.352   4.847
 2252SOL     OW 7654   3.728   0.595   2.640
 2252SOL    HW1 7655   3.698   0.640   2.724
 2252SOL    HW2 7656   3.649   0.577   2.582
 2253SOL     OW 7657   0.265   3.270   1.651
 2253SOL    HW1 7658   0.311   3.358   1.657
 2253SOL    HW2 7659   0.329   3.196   1.672
 2254SOL     OW 7660   4.055   3.234   2.734
 2254SOL    HW1 7661   4.061   3.156   2.795
 2254SOL    HW2 7662   4.020   3.313   2.784
 2255SOL     OW 7663   1.612   2.538   6.266
 2255SOL    HW1 7664   1.605   2.527   6.167
 2255SOL    HW2 7665   1.707   2.524   6.294
 2256SOL     OW 7666   5.696   0.012   0.947
 2256SOL    HW1 7667   5.784   6.988   0.937
 2256SOL    HW2 7668   5.699   0.072   1.027
 2257SOL     OW 7669   6.715   0.484   5.365
 2257SOL    HW1 7670   6.729   0.426   5.285
 2257SOL    HW2 7671   6.794   0.543   5.378
 2258SOL     OW 7672   2.192   6.754   4.055
 2258SOL    HW1 7673   2.213   6.809   3.974
 2258SOL    HW2 7674   2.093   6.737   4.059
 2259SOL     OW 7675   6.105   1.727   4.770
 2259SOL    HW1 7676   6.160   1.646   4.788
 2259SOL    HW2 7677   6.116   1.754   4.674
 2260SOL     OW 7678   0.893   3.466   1.205
 2260SOL    HW1 7679   0.932   3.427   1.288
 2260SOL    HW2 7680   0.885   3.394   1.135
 2261SOL     OW 7681   5.312   4.238   0.082
 2261SOL    HW1 7682   5.316   4.141   0.059
 2261SOL    HW2 7683   5.333   4.250   0.179
 2262SOL     OW 7684   6.474   6.860   4.366
 2262SOL    HW1 7685   6.530   6.781   4.342
 2262SOL    HW2 7686   6.377   6.837   4.354
 2263SOL     OW 7687   2.290   4.111   6.360
 2263SOL    HW1 7688   2.200   4.068   6.358
 2263SOL    HW2 7689   2.306   4.150   6.450
 2264SOL     OW 7690   2.410   0.194   5.564
 2264SOL    HW1 7691   2.324   0.160   5.524
 2264SOL    HW2 7692   2.393   0.223   5.658
 2265SOL     OW 7693   6.901   6.408   4.185
 2265SOL    HW1 7694   6.989   6.367   4.210
 2265SOL    HW2 7695   6.842   6.411   4.266
 2266SOL     OW 7696   4.102   2.796   6.655
 2266SOL    HW1 7697   4.027   2.744   6.696
 2266SOL    HW2 7698   4.188   2.770   6.699
 2267SOL     OW 7699   5.636   2.788   4.723
 2267SOL    HW1 7700   5.714   2.823   4.776
 2267SOL    HW2 7701   5.658   2.698   4.687
 2268SOL     OW 7702   1.611   6.541   4.938
 2268SOL    HW1 7703   1.642   6.451   4.969
 2268SOL    HW2 7704   1.645   6.611   5.001
 2269SOL     OW 7705   1.770   2.518   5.573
 2269SOL    HW1 7706   1.736   2.604   5.534
 2269SOL    HW2 7707   1.844   2.482   5.517
 2270SOL     OW 7708   4.726   1.260   6.081
 2270SOL    HW1 7709   4.720   1.359   6.079
 2270SOL    HW2 7710   4.703   1.223   5.991
 2271SOL     OW 7711   4.376   5.643   5.327
 2271SOL    HW1 7712   4.323   5.680   5.404
 2271SOL    HW2 7713   4.317   5.586   5.270
 2272SOL     OW 7714   5.435   1.362   5.800
 2272SOL    HW1 7715   5.499   1.436   5.780
 2272SOL    HW2 7716   5.351   1.400   5.839
 2273SOL     OW 7717   1.129   2.821   3.389
 2273SOL    HW1 7718   1.216   2.850   3.350
 2273SOL    HW2 7719   1.135   2.820   3.489
 2274SOL     OW 7720   1.363   0.969   7.015
 2274SOL    HW1 7721   1.291   1.038   7.017
 2274SOL    HW2 7722   1.331   0.885   0.037
 2275SOL     OW 7723   5.210   4.055   2.650
 2275SOL    HW1 7724   5.297   4.067   2.697
 2275SOL    HW2 7725   5.136   4.092   2.706
 2276SOL     OW 7726   1.917   1.844   0.996
 2276SOL    HW1 7727   1.905   1.800   1.085
 2276SOL    HW2 7728   1.928   1.775   0.925
 2277SOL     OW 7729   3.625   2.851   3.443
 2277SOL    HW1 7730   3.586   2.834   3.533
 2277SOL    HW2 7731   3.683   2.932   3.446
 2278SOL     OW 7732   0.282   2.787   3.968
 2278SOL    HW1 7733   0.381   2.768   3.965
 2278SOL    HW2 7734   0.232   2.710   3.929
 2279SOL     OW 7735   1.068   5.525   5.820
 2279SOL    HW1 7736   1.076   5.429   5.794
 2279SOL    HW2 7737   1.152   5.554   5.866
 2280SOL     OW 7738   4.830   1.762   5.651
 2280SOL    HW1 7739   4.846   1.830   5.723
 2280SOL    HW2 7740   4.874   1.792   5.567
 2281SOL     OW 7741   5.776   6.754   2.486
 2281SOL    HW1 7742   5.768   6.853   2.473
 2281SOL    HW2 7743   5.760   6.707   2.400
 2282SOL     OW 7744   3.643   6.209   6.110
 2282SOL    HW1 7745   3.606   6.278   6.048
 2282SOL    HW2 7746   3.707   6.252   6.174
 2283SOL     OW 7747   0.119   0.870   4.221
 2283SOL    HW1 7748   0.173   0.862   4.137
 2283SOL    HW2 7749   0.146   0.954   4.270
 2284SOL     OW 7750   1.380   2.918   6.561
 2284SOL    HW1 7751   1.340   3.010   6.557
 2284SOL    HW2 7752   1.308   2.850   6.559
 2285SOL     OW 7753   1.892   4.159   6.675
 2285SOL    HW1 7754   1.828   4.235   6.677
 2285SOL    HW2 7755   1.851   4.081   6.629
 2286SOL     OW 7756   4.678   5.074   2.981
 2286SOL    HW1 7757   4.756   5.131   3.006
 2286SOL    HW2 7758   4.595   5.108   3.026
 2287SOL     OW 7759   1.199   1.432   3.617
 2287SOL    HW1 7760   1.218   1.408   3.712
 2287SOL    HW2 7761   1.280   1.414   3.561
 2288SOL     OW 7762   0.146   5.438   2.638
 2288SOL    HW1 7763   0.092   5.468   2.718
 2288SOL    HW2 7764   0.084   5.417   2.563
 2289SOL     OW 7765   0.426   5.763   0.927
 2289SOL    HW1 7766   0.379   5.746   0.840
 2289SOL    HW2 7767   0.524   5.756   0.913
 2290SOL     OW 7768   1.303   5.251   6.938
 2290SOL    HW1 7769   1.267   5.323   6.998
 2290SOL    HW2 7770   1.282   5.161   6.978
 2291SOL     OW 7771   2.018   1.461   6.905
 2291SOL    HW1 7772   2.030   1.522   6.826
 2291SOL    HW2 7773   1.941   1.493   6.960
 2292SOL     OW 7774   2.542   1.316   4.422
 2292SOL    HW1 7775   2.502   1.342   4.510
 2292SOL    HW2 7776   2.625   1.370   4.406
 2293SOL     OW 7777   5.413   3.805   2.420
 2293SOL    HW1 7778   5.376   3.784   2.510
 2293SOL    HW2 7779   5.381   3.896   2.391
 2294SOL     OW 7780   3.952   6.277   0.223
 2294SOL    HW1 7781   3.957   6.269   0.124
 2294SOL    HW2 7782   3.965   6.373   0.249
 2295SOL     OW 7783   0.414   1.954   1.718
 2295SOL    HW1 7784   0.415   1.943   1.619
 2295SOL    HW2 7785   0.489   2.015   1.745
 2296SOL     OW 7786   3.351   6.981   0.862
 2296SOL    HW1 7787   3.278   6.914   0.876
 2296SOL    HW2 7788   3.334   0.038   0.920
 2297SOL     OW 7789   4.547   6.366   6.676
 2297SOL    HW1 7790   4.475   6.417   6.628
 2297SOL    HW2 7791   4.510   6.329   6.761
 2298SOL     OW 7792   4.120   2.975   6.182
 2298SOL    HW1 7793   4.153   2.920   6.259
 2298SOL    HW2 7794   4.168   3.063   6.181
 2299SOL     OW 7795   4.318   6.905   0.030
 2299SOL    HW1 7796   4.280   6.873   6.966
 2299SOL    HW2 7797   4.331   7.004   0.025
 2300SOL     OW 7798   1.102   4.390   1.197
 2300SOL    HW1 7799   1.076   4.420   1.288
 2300SOL    HW2 7800   1.117   4.469   1.138
 2301SOL     OW 7801   4.141   3.475   1.857
 2301SOL    HW1 7802   4.171   3.551   1.915
 2301SOL    HW2 7803   4.048   3.449   1.883
 2302SOL     OW 7804   2.537   5.621   3.054
 2302SOL    HW1 7805   2.568   5.565   3.131
 2302SOL    HW2 7806   2.503   5.709   3.088
 2303SOL     OW 7807   0.182   3.254   5.029
 2303SOL    HW1 7808   0.140   3.189   5.092
 2303SOL    HW2 7809   0.265   3.292   5.071
 2304SOL     OW 7810   2.443   0.988   4.582
 2304SOL    HW1 7811   2.493   0.902   4.590
 2304SOL    HW2 7812   2.503   1.064   4.604
 2305SOL     OW 7813   4.300   4.842   1.886
 2305SOL    HW1 7814   4.229   4.833   1.817
 2305SOL    HW2 7815   4.377   4.783   1.863
 2306SOL     OW 7816   0.238   4.260   0.408
 2306SOL    HW1 7817   0.261   4.301   0.497
 2306SOL    HW2 7818   0.220   4.162   0.420
 2307SOL     OW 7819   0.037   1.391   2.849
 2307SOL    HW1 7820   6.968   1.382   2.811
 2307SOL    HW2 7821   0.036   1.368   2.946
 2308SOL     OW 7822   0.125   0.063   0.493
 2308SOL    HW1 7823   0.206   0.094   0.543
 2308SOL    HW2 7824   0.143   6.998   0.449
 2309SOL     OW 7825   3.319   5.140   6.007
 2309SOL    HW1 7826   3.223   5.136   6.035
 2309SOL    HW2 7827   3.348   5.049   5.977
 2310SOL     OW 7828   5.941   1.939   2.895
 2310SOL    HW1 7829   5.978   1.878   2.964
 2310SOL    HW2 7830   5.954   1.899   2.804
 2311SOL     OW 7831   2.674   0.528   2.685
 2311SOL    HW1 7832   2.741   0.587   2.730
 2311SOL    HW2 7833   2.649   0.566   2.596
 2312SOL     OW 7834   2.637   1.208   2.824
 2312SOL    HW1 7835   2.581   1.140   2.777
 2312SOL    HW2 7836   2.597   1.298   2.812
 2313SOL     OW 7837   5.022   3.778   1.513
 2313SOL    HW1 7838   4.999   3.688   1.476
 2313SOL    HW2 7839   5.119   3.796   1.498
 2314SOL     OW 7840   6.759   6.592   3.323
 2314SOL    HW1 7841   6.792   6.545   3.241
 2314SOL    HW2 7842   6.660   6.603   3.317
 2315SOL     OW 7843   4.028   5.978   4.766
 2315SOL    HW1 7844   4.102   5.914   4.747
 2315SOL    HW2 7845   3.965   5.937   4.832
 2316SOL     OW 7846   2.727   1.731   6.253
 2316SOL    HW1 7847   2.715   1.754   6.350
 2316SOL    HW2 7848   2.823   1.743   6.228
 2317SOL     OW 7849   6.720   5.451   3.052
 2317SOL    HW1 7850   6.636   5.434   2.999
 2317SOL    HW2 7851   6.761   5.537   3.021
 2318SOL     OW 7852   1.504   4.533   5.532
 2318SOL    HW1 7853   1.408   4.524   5.506
 2318SOL    HW2 7854   1.536   4.449   5.575
 2319SOL     OW 7855   1.985   4.929   3.255
 2319SOL    HW1 7856   1.949   4.846   3.214
 2319SOL    HW2 7857   1.964   5.007   3.196
 2320SOL     OW 7858   1.035   2.047   5.021
 2320SOL    HW1 7859   1.130   2.043   5.052
 2320SOL    HW2 7860   0.978   2.085   5.094
 2321SOL     OW 7861   2.341   4.792   5.922
 2321SOL    HW1 7862   2.417   4.729   5.936
 2321SOL    HW2 7863   2.264   4.744   5.879
 2322SOL     OW 7864   1.714   3.845   1.508
 2322SOL    HW1 7865   1.770   3.851   1.591
 2322SOL    HW2 7866   1.661   3.929   1.497
 2323SOL     OW 7867   2.470   5.149   1.071
 2323SOL    HW1 7868   2.497   5.244   1.059
 2323SOL    HW2 7869   2.395   5.127   1.009
 2324SOL     OW 7870   6.878   5.248   2.838
 2324SOL    HW1 7871   6.821   5.171   2.808
 2324SOL    HW2 7872   6.824   5.309   2.895
 2325SOL     OW 7873   6.582   5.405   1.492
 2325SOL    HW1 7874   6.512   5.421   1.562
 2325SOL    HW2 7875   6.648   5.338   1.526
 2326SOL     OW 7876   1.741   0.735   0.176
 2326SOL    HW1 7877   1.755   0.708   0.271
 2326SOL    HW2 7878   1.794   0.818   0.157
 2327SOL     OW 7879   0.084   0.184   2.633
 2327SOL    HW1 7880   0.069   0.257   2.567
 2327SOL    HW2 7881   0.143   0.114   2.593
 2328SOL     OW 7882   2.051   3.247   2.876
 2328SOL    HW1 7883   2.096   3.224   2.962
 2328SOL    HW2 7884   1.960   3.285   2.895
 2329SOL     OW 7885   0.387   5.402   2.857
 2329SOL    HW1 7886   0.319   5.469   2.829
 2329SOL    HW2 7887   0.461   5.399   2.790
 2330SOL     OW 7888   6.440   2.988   0.623
 2330SOL    HW1 7889   6.341   2.997   0.636
 2330SOL    HW2 7890   6.464   3.017   0.531
 2331SOL     OW 7891   4.656   5.846   1.329
 2331SOL    HW1 7892   4.721   5.780   1.368
 2331SOL    HW2 7893   4.707   5.916   1.278
 2332SOL     OW 7894   5.885   6.685   5.948
 2332SOL    HW1 7895   5.962   6.734   5.988
 2332SOL    HW2 7896   5.834   6.746   5.888
 2333SOL     OW 7897   0.245   4.495   2.314
 2333SOL    HW1 7898   0.186   4.414   2.317
 2333SOL    HW2 7899   0.338   4.468   2.289
 2334SOL     OW 7900   3.041   1.760   6.604
 2334SOL    HW1 7901   2.995   1.844   6.577
 2334SOL    HW2 7902   2.981   1.682   6.585
 2335SOL     OW 7903   6.324   1.240   3.203
 2335SOL    HW1 7904   6.351   1.321   3.152
 2335SOL    HW2 7905   6.377   1.233   3.287
 2336SOL     OW 7906   1.822   1.939   2.827
 2336SOL    HW1 7907   1.892   1.947   2.755
 2336SOL    HW2 7908   1.841   2.006   2.898
 2337SOL     OW 7909   4.395   1.897   1.595
 2337SOL    HW1 7910   4.419   1.974   1.655
 2337SOL    HW2 7911   4.362   1.821   1.650
 2338SOL     OW 7912   6.891   3.658   3.388
 2338SOL    HW1 7913   6.849   3.749   3.387
 2338SOL    HW2 7914   6.920   3.636   3.481
 2339SOL     OW 7915   3.507   2.935   2.900
 2339SOL    HW1 7916   3.555   2.975   2.823
 2339SOL    HW2 7917   3.557   2.955   2.985
 2340SOL     OW 7918   2.141   4.878   6.587
 2340SOL    HW1 7919   2.138   4.977   6.573
 2340SOL    HW2 7920   2.099   4.856   6.675
 2341SOL     OW 7921   2.620   4.656   3.358
 2341SOL    HW1 7922   2.560   4.589   3.314
 2341SOL    HW2 7923   2.565   4.734   3.389
 2342SOL     OW 7924   3.339   0.402   3.989
 2342SOL    HW1 7925   3.376   0.467   4.055
 2342SOL    HW2 7926   3.413   0.350   3.947
 2343SOL     OW 7927   1.180   0.167   1.884
 2343SOL    HW1 7928   1.092   0.123   1.895
 2343SOL    HW2 7929   1.204   0.216   1.969
 2344SOL     OW 7930   5.850   3.809   0.448
 2344SOL    HW1 7931   5.852   3.730   0.509
 2344SOL    HW2 7932   5.814   3.888   0.498
 2345SOL     OW 7933   2.428   5.335   4.833
 2345SOL    HW1 7934   2.484   5.333   4.916
 2345SOL    HW2 7935   2.400   5.429   4.814
 2346SOL     OW 7936   3.851   3.940   6.593
 2346SOL    HW1 7937   3.895   4.009   6.535
 2346SOL    HW2 7938   3.920   3.891   6.645
 2347SOL     OW 7939   1.003   1.860   1.970
 2347SOL    HW1 7940   0.986   1.945   2.021
 2347SOL    HW2 7941   1.094   1.825   1.994
 2348SOL     OW 7942   0.198   5.165   2.692
 2348SOL    HW1 7943   0.141   5.128   2.765
 2348SOL    HW2 7944   0.170   5.258   2.672
 2349SOL     OW 7945   0.650   4.236   6.034
 2349SOL    HW1 7946   0.606   4.295   5.966
 2349SOL    HW2 7947   0.745   4.219   6.006
 2350SOL     OW 7948   5.826   3.564   0.087
 2350SOL    HW1 7949   5.871   3.583   0.000
 2350SOL    HW2 7950   5.873   3.489   0.134
 2351SOL     OW 7951   2.880   5.447   2.661
 2351SOL    HW1 7952   2.846   5.353   2.663
 2351SOL    HW2 7953   2.900   5.473   2.567
 2352SOL     OW 7954   0.041   2.866   3.563
 2352SOL    HW1 7955   0.088   2.849   3.476
 2352SOL    HW2 7956   0.106   2.903   3.629
 2353SOL     OW 7957   3.434   5.601   4.565
 2353SOL    HW1 7958   3.508   5.654   4.525
 2353SOL    HW2 7959   3.428   5.620   4.663
 2354SOL     OW 7960   2.097   2.571   3.891
 2354SOL    HW1 7961   2.068   2.604   3.982
 2354SOL    HW2 7962   2.174   2.626   3.859
 2355SOL     OW 7963   2.464   5.990   5.156
 2355SOL    HW1 7964   2.531   6.027   5.092
 2355SOL    HW2 7965   2.378   5.971   5.108
 2356SOL     OW 7966   6.501   3.188   6.995
 2356SOL    HW1 7967   6.431   3.238   6.943
 2356SOL    HW2 7968   6.538   3.248   0.043
 2357SOL     OW 7969   2.343   6.460   2.421
 2357SOL    HW1 7970   2.270   6.526   2.405
 2357SOL    HW2 7971   2.416   6.503   2.473
 2358SOL     OW 7972   3.842   5.028   6.752
 2358SOL    HW1 7973   3.809   4.949   6.700
 2358SOL    HW2 7974   3.770   5.095   6.760
 2359SOL     OW 7975   1.549   0.053   4.875
 2359SOL    HW1 7976   1.583   6.990   4.837
 2359SOL    HW2 7977   1.462   0.037   4.921
 2360SOL     OW 7978   6.840   3.473   0.259
 2360SOL    HW1 7979   6.787   3.554   0.283
 2360SOL    HW2 7980   6.861   3.475   0.161
 2361SOL     OW 7981   3.362   1.206   6.446
 2361SOL    HW1 7982   3.279   1.175   6.401
 2361SOL    HW2 7983   3.406   1.276   6.390
 2362SOL     OW 7984   3.570   5.946   3.063
 2362SOL    HW1 7985   3.517   5.878   3.113
 2362SOL    HW2 7986   3.539   5.949   2.968
 2363SOL     OW 7987   3.762   0.668   4.377
 2363SOL    HW1 7988   3.775   0.719   4.462
 2363SOL    HW2 7989   3.848   0.621   4.354
 2364SOL     OW 7990   1.222   2.800   0.951
 2364SOL    HW1 7991   1.168   2.722   0.983
 2364SOL    HW2 7992   1.166   2.883   0.954
 2365SOL     OW 7993   5.644   2.322   6.471
 2365SOL    HW1 7994   5.621   2.277   6.384
 2365SOL    HW2 7995   5.565   2.318   6.533
 2366SOL     OW 7996   3.977   5.512   0.579
 2366SOL    HW1 7997   3.886   5.518   0.620
 2366SOL    HW2 7998   4.046   5.517   0.652
 2367SOL     OW 7999   2.716   3.042   6.122
 2367SOL    HW1 8000   2.676   3.007   6.037
 2367SOL    HW2 8001   2.669   3.000   6.200
 2368SOL     OW 8002   6.732   5.737   2.693
 2368SOL    HW1 8003   6.642   5.774   2.670
 2368SOL    HW2 8004   6.794   5.750   2.616
 2369SOL     OW 8005   2.231   0.908   3.429
 2369SOL    HW1 8006   2.297   0.840   3.398
 2369SOL    HW2 8007   2.274   0.999   3.431
 2370SOL     OW 8008   6.139   2.060   6.803
 2370SOL    HW1 8009   6.145   2.064   6.903
 2370SOL    HW2 8010   6.118   1.967   6.775
 2371SOL     OW 8011   2.510   6.560   1.450
 2371SOL    HW1 8012   2.531   6.550   1.352
 2371SOL    HW2 8013   2.525   6.654   1.478
 2372SOL     OW 8014   6.662   3.424   2.931
 2372SOL    HW1 8015   6.612   3.442   3.016
 2372SOL    HW2 8016   6.702   3.332   2.935
 2373SOL     OW 8017   2.248   3.257   6.318
 2373SOL    HW1 8018   2.160   3.235   6.361
 2373SOL    HW2 8019   2.233   3.286   6.224
 2374SOL     OW 8020   5.840   3.054   4.995
 2374SOL    HW1 8021   5.754   3.094   5.026
 2374SOL    HW2 8022   5.898   3.126   4.956
 2375SOL     OW 8023   3.269   6.479   5.120
 2375SOL    HW1 8024   3.210   6.560   5.124
 2375SOL    HW2 8025   3.219   6.404   5.077
 2376SOL     OW 8026   6.485   3.240   4.668
 2376SOL    HW1 8027   6.530   3.265   4.754
 2376SOL    HW2 8028   6.483   3.319   4.606
 2377SOL     OW 8029   3.621   3.557   3.923
 2377SOL    HW1 8030   3.546   3.570   3.858
 2377SOL    HW2 8031   3.686   3.491   3.885
 2378SOL     OW 8032   5.423   2.599   6.535
 2378SOL    HW1 8033   5.410   2.502   6.553
 2378SOL    HW2 8034   5.478   2.639   6.608
 2379SOL     OW 8035   6.653   0.135   0.320
 2379SOL    HW1 8036   6.722   0.074   0.359
 2379SOL    HW2 8037   6.635   0.210   0.384
 2380SOL     OW 8038   6.238   1.827   2.175
 2380SOL    HW1 8039   6.275   1.742   2.137
 2380SOL    HW2 8040   6.284   1.905   2.132
 2381SOL     OW 8041   1.734   6.854   3.290
 2381SOL    HW1 8042   1.725   6.808   3.378
 2381SOL    HW2 8043   1.728   6.953   3.302
 2382SOL     OW 8044   1.806   3.808   5.172
 2382SOL    HW1 8045   1.876   3.776   5.108
 2382SOL    HW2 8046   1.777   3.733   5.231
 2383SOL     OW 8047   6.151   5.850   1.516
 2383SOL    HW1 8048   6.118   5.912   1.587
 2383SOL    HW2 8049   6.239   5.812   1.543
 2384SOL     OW 8050   4.517   2.080   1.781
 2384SOL    HW1 8051   4.563   2.022   1.849
 2384SOL    HW2 8052   4.583   2.142   1.740
 2385SOL     OW 8053   0.779   2.118   6.165
 2385SOL    HW1 8054   0.689   2.111   6.206
 2385SOL    HW2 8055   0.825   2.200   6.198
 2386SOL     OW 8056   4.574   5.506   4.191
 2386SOL    HW1 8057   4.542   5.593   4.228
 2386SOL    HW2 8058   4.672   5.511   4.174
 2387SOL     OW 8059   2.010   1.351   3.688
 2387SOL    HW1 8060   2.027   1.264   3.641
 2387SOL    HW2 8061   1.932   1.397   3.645
 2388SOL     OW 8062   6.507   1.868   4.359
 2388SOL    HW1 8063   6.580   1.861   4.291
 2388SOL    HW2 8064   6.460   1.780   4.367
 2389SOL     OW 8065   4.405   5.849   2.679
 2389SOL    HW1 8066   4.426   5.753   2.699
 2389SOL    HW2 8067   4.308   5.857   2.654
 2390SOL     OW 8068   3.052   4.275   1.449
 2390SOL    HW1 8069   3.001   4.331   1.383
 2390SOL    HW2 8070   3.117   4.218   1.399
 2391SOL     OW 8071   4.096   5.143   5.354
 2391SOL    HW1 8072   4.093   5.192   5.267
 2391SOL    HW2 8073   4.131   5.051   5.339
 2392SOL     OW 8074   3.725   1.282   6.911
 2392SOL    HW1 8075   3.626   1.289   6.927
 2392SOL    HW2 8076   3.760   1.372   6.885
 2393SOL     OW 8077   4.205   4.991   5.596
 2393SOL    HW1 8078   4.122   4.995   5.540
 2393SOL    HW2 8079   4.233   5.084   5.621
 2394SOL     OW 8080   0.204   4.420   5.248
 2394SOL    HW1 8081   0.291   4.371   5.246
 2394SOL    HW2 8082   0.217   4.513   5.212
 2395SOL     OW 8083   3.981   0.360   5.909
 2395SOL    HW1 8084   3.940   0.270   5.899
 2395SOL    HW2 8085   3.979   0.388   6.005
 2396SOL     OW 8086   4.067   4.395   0.874
 2396SOL    HW1 8087   4.133   4.335   0.918
 2396SOL    HW2 8088   4.054   4.477   0.930
 2397SOL     OW 8089   0.078   3.754   4.184
 2397SOL    HW1 8090   0.161   3.763   4.129
 2397SOL    HW2 8091   0.031   3.670   4.160
 2398SOL     OW 8092   4.115   4.820   5.802
 2398SOL    HW1 8093   4.137   4.861   5.713
 2398SOL    HW2 8094   4.075   4.729   5.788
 2399SOL     OW 8095   4.261   2.105   1.820
 2399SOL    HW1 8096   4.217   2.148   1.899
 2399SOL    HW2 8097   4.359   2.095   1.838
 2400SOL     OW 8098   2.339   5.242   1.396
 2400SOL    HW1 8099   2.307   5.185   1.473
 2400SOL    HW2 8100   2.356   5.184   1.317
 2401SOL     OW 8101   6.942   6.335   6.150
 2401SOL    HW1 8102   6.979   6.415   6.198
 2401SOL    HW2 8103   7.013   6.295   6.092
 2402SOL     OW 8104   6.864   6.606   4.422
 2402SOL    HW1 8105   6.818   6.623   4.508
 2402SOL    HW2 8106   6.922   6.524   4.430
 2403SOL     OW 8107   0.379   1.585   4.956
 2403SOL    HW1 8108   0.361   1.681   4.936
 2403SOL    HW2 8109   0.295   1.541   4.986
 2404SOL     OW 8110   1.127   0.389   0.305
 2404SOL    HW1 8111   1.185   0.313   0.334
 2404SOL    HW2 8112   1.153   0.418   0.214
 2405SOL     OW 8113   2.909   4.012   1.545
 2405SOL    HW1 8114   2.815   4.044   1.559
 2405SOL    HW2 8115   2.973   4.086   1.563
 2406SOL     OW 8116   4.737   1.102   1.334
 2406SOL    HW1 8117   4.697   1.194   1.327
 2406SOL    HW2 8118   4.704   1.046   1.259
 2407SOL     OW 8119   4.699   0.648   3.819
 2407SOL    HW1 8120   4.673   0.740   3.790
 2407SOL    HW2 8121   4.742   0.600   3.741
 2408SOL     OW 8122   4.575   4.483   2.202
 2408SOL    HW1 8123   4.528   4.560   2.158
 2408SOL    HW2 8124   4.563   4.401   2.146
 2409SOL     OW 8125   1.333   4.200   0.491
 2409SOL    HW1 8126   1.329   4.269   0.563
 2409SOL    HW2 8127   1.386   4.121   0.523
 2410SOL     OW 8128   3.295   2.927   2.646
 2410SOL    HW1 8129   3.266   2.840   2.687
 2410SOL    HW2 8130   3.382   2.956   2.686
 2411SOL     OW 8131   4.891   6.603   4.433
 2411SOL    HW1 8132   4.883   6.683   4.493
 2411SOL    HW2 8133   4.898   6.632   4.338
 2412SOL     OW 8134   4.409   3.310   0.960
 2412SOL    HW1 8135   4.452   3.397   0.982
 2412SOL    HW2 8136   4.465   3.235   0.997
 2413SOL     OW 8137   4.973   6.858   2.481
 2413SOL    HW1 8138   4.925   6.945   2.474
 2413SOL    HW2 8139   4.909   6.783   2.463
 2414SOL     OW 8140   5.600   3.752   4.128
 2414SOL    HW1 8141   5.632   3.843   4.105
 2414SOL    HW2 8142   5.603   3.739   4.227
 2415SOL     OW 8143   4.560   1.040   3.165
 2415SOL    HW1 8144   4.486   1.021   3.100
 2415SOL    HW2 8145   4.529   1.022   3.258
 2416SOL     OW 8146   5.431   1.679   6.315
 2416SOL    HW1 8147   5.345   1.723   6.342
 2416SOL    HW2 8148   5.434   1.587   6.354
 2417SOL     OW 8149   3.442   4.193   4.258
 2417SOL    HW1 8150   3.369   4.181   4.325
 2417SOL    HW2 8151   3.530   4.173   4.301
 2418SOL     OW 8152   3.257   2.886   2.975
 2418SOL    HW1 8153   3.351   2.886   2.940
 2418SOL    HW2 8154   3.259   2.901   3.074
 2419SOL     OW 8155   0.171   0.114   2.896
 2419SOL    HW1 8156   0.144   0.099   2.801
 2419SOL    HW2 8157   0.091   0.139   2.950
 2420SOL     OW 8158   2.087   0.148   2.178
 2420SOL    HW1 8159   2.008   0.154   2.117
 2420SOL    HW2 8160   2.171   0.169   2.128
 2421SOL     OW 8161   3.451   2.123   3.789
 2421SOL    HW1 8162   3.504   2.047   3.751
 2421SOL    HW2 8163   3.441   2.194   3.720
 2422SOL     OW 8164   4.933   1.502   0.736
 2422SOL    HW1 8165   4.926   1.496   0.835
 2422SOL    HW2 8166   4.991   1.429   0.702
 2423SOL     OW 8167   1.955   4.765   2.154
 2423SOL    HW1 8168   1.965   4.666   2.159
 2423SOL    HW2 8169   2.019   4.809   2.218
 2424SOL     OW 8170   6.281   0.188   1.064
 2424SOL    HW1 8171   6.274   0.288   1.072
 2424SOL    HW2 8172   6.232   0.158   0.982
 2425SOL     OW 8173   6.969   6.764   4.190
 2425SOL    HW1 8174   6.920   6.715   4.261
 2425SOL    HW2 8175   6.969   6.711   4.106
 2426SOL     OW 8176   2.542   4.471   4.123
 2426SOL    HW1 8177   2.523   4.374   4.107
 2426SOL    HW2 8178   2.543   4.489   4.221
 2427SOL     OW 8179   6.050   0.246   5.711
 2427SOL    HW1 8180   5.958   0.260   5.748
 2427SOL    HW2 8181   6.068   0.148   5.703
 2428SOL     OW 8182   6.256   0.697   0.531
 2428SOL    HW1 8183   6.254   0.795   0.552
 2428SOL    HW2 8184   6.189   0.650   0.589
 2429SOL     OW 8185   5.135   5.466   1.935
 2429SOL    HW1 8186   5.103   5.427   1.848
 2429SOL    HW2 8187   5.150   5.564   1.924
 2430SOL     OW 8188   5.154   0.170   2.565
 2430SOL    HW1 8189   5.151   0.115   2.481
 2430SOL    HW2 8190   5.215   0.248   2.553
 2431SOL     OW 8191   4.425   0.305   2.155
 2431SOL    HW1 8192   4.425   0.222   2.211
 2431SOL    HW2 8193   4.349   0.301   2.090
 2432SOL     OW 8194   2.427   6.126   2.731
 2432SOL    HW1 8195   2.402   6.061   2.803
 2432SOL    HW2 8196   2.523   6.112   2.706
 2433SOL     OW 8197   4.220   0.226   0.708
 2433SOL    HW1 8198   4.147   0.279   0.665
 2433SOL    HW2 8199   4.307   0.242   0.660
 2434SOL     OW 8200   3.928   3.300   5.104
 2434SOL    HW1 8201   4.003   3.254   5.152
 2434SOL    HW2 8202   3.860   3.231   5.076
 2435SOL     OW 8203   6.406   5.735   5.629
 2435SOL    HW1 8204   6.430   5.805   5.561
 2435SOL    HW2 8205   6.368   5.655   5.582
 2436SOL     OW 8206   2.985   5.090   0.788
 2436SOL    HW1 8207   2.937   5.163   0.739
 2436SOL    HW2 8208   3.026   5.027   0.722
 2437SOL     OW 8209   7.005   0.351   6.116
 2437SOL    HW1 8210   0.035   0.331   6.034
 2437SOL    HW2 8211   6.949   0.432   6.102
 2438SOL     OW 8212   2.837   3.116   0.747
 2438SOL    HW1 8213   2.900   3.038   0.746
 2438SOL    HW2 8214   2.859   3.178   0.672
 2439SOL     OW 8215   5.835   4.004   5.941
 2439SOL    HW1 8216   5.867   3.909   5.941
 2439SOL    HW2 8217   5.807   4.029   5.848
 2440SOL     OW 8218   5.919   4.979   5.600
 2440SOL    HW1 8219   5.962   5.056   5.553
 2440SOL    HW2 8220   5.989   4.919   5.638
 2441SOL     OW 8221   6.561   2.016   0.967
 2441SOL    HW1 8222   6.596   1.957   0.894
 2441SOL    HW2 8223   6.541   2.107   0.930
 2442SOL     OW 8224   0.096   2.284   5.541
 2442SOL    HW1 8225   0.083   2.283   5.640
 2442SOL    HW2 8226   0.126   2.375   5.512
 2443SOL     OW 8227   2.758   4.744   5.287
 2443SOL    HW1 8228   2.784   4.678   5.217
 2443SOL    HW2 8229   2.812   4.827   5.276
 2444SOL     OW 8230   3.463   2.723   5.271
 2444SOL    HW1 8231   3.395   2.655   5.246
 2444SOL    HW2 8232   3.418   2.801   5.316
 2445SOL     OW 8233   0.761   0.055   0.907
 2445SOL    HW1 8234   0.823   0.119   0.861
 2445SOL    HW2 8235   0.809   6.992   0.925
 2446SOL     OW 8236   5.292   3.267   6.149
 2446SOL    HW1 8237   5.272   3.365   6.137
 2446SOL    HW2 8238   5.294   3.223   6.060
 2447SOL     OW 8239   0.390   3.008   6.331
 2447SOL    HW1 8240   0.416   3.022   6.236
 2447SOL    HW2 8241   0.329   2.929   6.338
 2448SOL     OW 8242   6.931   0.001   4.097
 2448SOL    HW1 8243   6.986   6.947   4.130
 2448SOL    HW2 8244   6.970   0.035   4.011
 2449SOL     OW 8245   0.888   3.313   4.853
 2449SOL    HW1 8246   0.895   3.351   4.761
 2449SOL    HW2 8247   0.793   3.318   4.884
 2450SOL     OW 8248   2.150   2.796   1.805
 2450SOL    HW1 8249   2.167   2.882   1.853
 2450SOL    HW2 8250   2.136   2.815   1.707
 2451SOL     OW 8251   2.286   6.346   4.450
 2451SOL    HW1 8252   2.285   6.258   4.403
 2451SOL    HW2 8253   2.355   6.405   4.408
 2452SOL     OW 8254   2.160   2.625   4.203
 2452SOL    HW1 8255   2.215   2.700   4.167
 2452SOL    HW2 8256   2.219   2.546   4.220
 2453SOL     OW 8257   0.485   3.251   1.356
 2453SOL    HW1 8258   0.579   3.235   1.384
 2453SOL    HW2 8259   0.426   3.179   1.392
 2454SOL     OW 8260   2.289   0.206   1.523
 2454SOL    HW1 8261   2.356   0.172   1.456
 2454SOL    HW2 8262   2.328   0.284   1.573
 2455SOL     OW 8263   5.437   3.259   1.519
 2455SOL    HW1 8264   5.465   3.164   1.508
 2455SOL    HW2 8265   5.489   3.301   1.594
 2456SOL     OW 8266   2.688   0.106   1.003
 2456SOL    HW1 8267   2.756   0.040   0.970
 2456SOL    HW2 8268   2.604   0.058   1.026
 2457SOL     OW 8269   5.757   6.213   1.348
 2457SOL    HW1 8270   5.844   6.233   1.302
 2457SOL    HW2 8271   5.774   6.151   1.425
 2458SOL     OW 8272   0.251   6.202   1.891
 2458SOL    HW1 8273   0.330   6.189   1.951
 2458SOL    HW2 8274   0.282   6.231   1.800
 2459SOL     OW 8275   0.990   1.576   0.660
 2459SOL    HW1 8276   0.970   1.498   0.601
 2459SOL    HW2 8277   1.009   1.657   0.604
 2460SOL     OW 8278   2.945   4.653   1.344
 2460SOL    HW1 8279   2.922   4.592   1.420
 2460SOL    HW2 8280   2.890   4.736   1.350
 2461SOL     OW 8281   5.011   1.015   2.696
 2461SOL    HW1 8282   4.980   1.106   2.723
 2461SOL    HW2 8283   5.027   1.012   2.597
 2462SOL     OW 8284   2.577   3.894   5.995
 2462SOL    HW1 8285   2.653   3.870   6.056
 2462SOL    HW2 8286   2.539   3.810   5.955
 2463SOL     OW 8287   0.781   2.709   5.146
 2463SOL    HW1 8288   0.784   2.761   5.232
 2463SOL    HW2 8289   0.754   2.615   5.165
 2464SOL     OW 8290   1.125   3.489   0.570
 2464SOL    HW1 8291   1.093   3.508   0.478
 2464SOL    HW2 8292   1.221   3.461   0.567
 2465SOL     OW 8293   5.991   5.215   1.923
 2465SOL    HW1 8294   5.908   5.161   1.940
 2465SOL    HW2 8295   6.042   5.225   2.008
 2466SOL     OW 8296   3.868   1.349   1.596
 2466SOL    HW1 8297   3.937   1.355   1.668
 2466SOL    HW2 8298   3.806   1.427   1.602
 2467SOL     OW 8299   0.629   1.114   4.568
 2467SOL    HW1 8300   0.572   1.097   4.648
 2467SOL    HW2 8301   0.720   1.144   4.596
 2468SOL     OW 8302   6.167   4.707   6.640
 2468SOL    HW1 8303   6.208   4.719   6.730
 2468SOL    HW2 8304   6.189   4.786   6.582
 2469SOL     OW 8305   3.351   2.571   5.943
 2469SOL    HW1 8306   3.377   2.488   5.893
 2469SOL    HW2 8307   3.415   2.587   6.018
 2470SOL     OW 8308   5.237   2.856   0.699
 2470SOL    HW1 8309   5.173   2.846   0.623
 2470SOL    HW2 8310   5.324   2.893   0.665
 2471SOL     OW 8311   0.264   1.273   2.772
 2471SOL    HW1 8312   0.193   1.310   2.831
 2471SOL    HW2 8313   0.244   1.297   2.677
 2472SOL     OW 8314   5.664   1.450   3.736
 2472SOL    HW1 8315   5.621   1.365   3.766
 2472SOL    HW2 8316   5.699   1.438   3.643
 2473SOL     OW 8317   0.532   6.357   5.231
 2473SOL    HW1 8318   0.544   6.351   5.331
 2473SOL    HW2 8319   0.622   6.366   5.188
 2474SOL     OW 8320   6.191   6.820   4.401
 2474SOL    HW1 8321   6.205   6.862   4.490
 2474SOL    HW2 8322   6.104   6.851   4.362
 2475SOL     OW 8323   4.350   1.907   6.430
 2475SOL    HW1 8324   4.305   1.878   6.515
 2475SOL    HW2 8325   4.306   1.862   6.353
 2476SOL     OW 8326   0.748   1.536   3.501
 2476SOL    HW1 8327   0.649   1.524   3.492
 2476SOL    HW2 8328   0.795   1.450   3.479
 2477SOL     OW 8329   4.297   4.939   2.524
 2477SOL    HW1 8330   4.300   4.994   2.607
 2477SOL    HW2 8331   4.390   4.921   2.492
 2478SOL     OW 8332   0.240   6.837   2.388
 2478SOL    HW1 8333   0.289   6.774   2.448
 2478SOL    HW2 8334   0.291   6.847   2.302
 2479SOL     OW 8335   0.874   2.390   6.998
 2479SOL    HW1 8336   0.803   2.452   6.963
 2479SOL    HW2 8337   0.963   2.433   6.987
 2480SOL     OW 8338   6.577   5.004   1.752
 2480SOL    HW1 8339   6.571   5.035   1.847
 2480SOL    HW2 8340   6.611   5.078   1.694
 2481SOL     OW 8341   3.864   5.268   2.311
 2481SOL    HW1 8342   3.895   5.348   2.259
 2481SOL    HW2 8343   3.766   5.257   2.300
 2482SOL     OW 8344   4.791   2.397   5.384
 2482SOL    HW1 8345   4.724   2.451   5.435
 2482SOL    HW2 8346   4.743   2.333   5.324
 2483SOL     OW 8347   0.625   3.085   6.873
 2483SOL    HW1 8348   0.652   2.989   6.879
 2483SOL    HW2 8349   0.586   3.114   6.960
 2484SOL     OW 8350   3.905   4.053   5.779
 2484SOL    HW1 8351   3.989   4.099   5.807
 2484SOL    HW2 8352   3.833   4.121   5.764
 2485SOL     OW 8353   0.860   5.763   6.959
 2485SOL    HW1 8354   0.877   5.683   7.016
 2485SOL    HW2 8355   0.768   5.759   6.920
 2486SOL     OW 8356   0.704   5.427   3.785
 2486SOL    HW1 8357   0.610   5.405   3.761
 2486SOL    HW2 8358   0.712   5.440   3.884
 2487SOL     OW 8359   3.687   1.566   1.672
 2487SOL    HW1 8360   3.596   1.540   1.641
 2487SOL    HW2 8361   3.701   1.664   1.657
 2488SOL     OW 8362   3.287   5.953   6.555
 2488SOL    HW1 8363   3.320   6.046   6.538
 2488SOL    HW2 8364   3.320   5.921   6.644
 2489SOL     OW 8365   0.294   5.880   4.292
 2489SOL    HW1 8366   0.350   5.916   4.218
 2489SOL    HW2 8367   0.277   5.953   4.359
 2490SOL     OW 8368   5.972   2.695   1.562
 2490SOL    HW1 8369   5.916   2.745   1.628
 2490SOL    HW2 8370   6.007   2.611   1.603
 2491SOL     OW 8371   0.055   4.399   3.223
 2491SOL    HW1 8372   0.062   4.419   3.126
 2491SOL    HW2 8373   0.062   4.300   3.237
 2492SOL     OW 8374   4.629   1.604   6.458
 2492SOL    HW1 8375   4.670   1.587   6.369
 2492SOL    HW2 8376   4.595   1.519   6.497
 2493SOL     OW 8377   6.532   0.693   5.031
 2493SOL    HW1 8378   6.624   0.715   5.066
 2493SOL    HW2 8379   6.463   0.735   5.090
 2494SOL     OW 8380   4.250   5.353   1.277
 2494SOL    HW1 8381   4.272   5.298   1.197
 2494SOL    HW2 8382   4.282   5.306   1.359
 2495SOL     OW 8383   6.754   0.963   2.542
 2495SOL    HW1 8384   6.779   0.917   2.456
 2495SOL    HW2 8385   6.781   0.905   2.619
 2496SOL     OW 8386   1.695   5.238   0.487
 2496SOL    HW1 8387   1.651   5.239   0.397
 2496SOL    HW2 8388   1.794   5.245   0.475
 2497SOL     OW 8389   5.578   0.276   6.536
 2497SOL    HW1 8390   5.618   0.274   6.444
 2497SOL    HW2 8391   5.600   0.191   6.584
 2498SOL     OW 8392   0.819   3.464   4.582
 2498SOL    HW1 8393   0.757   3.535   4.548
 2498SOL    HW2 8394   0.780   3.374   4.562
 2499SOL     OW 8395   5.174   1.126   0.497
 2499SOL    HW1 8396   5.136   1.102   0.407
 2499SOL    HW2 8397   5.242   1.199   0.486
 2500SOL     OW 8398   4.479   4.012   6.294
 2500SOL    HW1 8399   4.444   3.919   6.279
 2500SOL    HW2 8400   4.446   4.072   6.221
 2501SOL     OW 8401   6.753   4.951   1.083
 2501SOL    HW1 8402   6.769   4.854   1.105
 2501SOL    HW2 8403   6.661   4.962   1.047
 2502SOL     OW 8404   0.667   0.628   3.704
 2502SOL    HW1 8405   0.684   0.708   3.760
 2502SOL    HW2 8406   0.679   0.545   3.759
 2503SOL     OW 8407   5.574   6.434   4.097
 2503SOL    HW1 8408   5.553   6.524   4.135
 2503SOL    HW2 8409   5.673   6.426   4.085
 2504SOL     OW 8410   2.449   4.488   3.201
 2504SOL    HW1 8411   2.355   4.454   3.206
 2504SOL    HW2 8412   2.486   4.471   3.109
 2505SOL     OW 8413   4.844   4.271   5.159
 2505SOL    HW1 8414   4.859   4.254   5.061
 2505SOL    HW2 8415   4.766   4.217   5.190
 2506SOL     OW 8416   0.881   1.004   0.540
 2506SOL    HW1 8417   0.942   1.051   0.603
 2506SOL    HW2 8418   0.828   1.071   0.488
 2507SOL     OW 8419   6.377   6.466   6.825
 2507SOL    HW1 8420   6.455   6.436   6.881
 2507SOL    HW2 8421   6.358   6.562   6.845
 2508SOL     OW 8422   1.708   2.460   1.899
 2508SOL    HW1 8423   1.803   2.445   1.926
 2508SOL    HW2 8424   1.689   2.558   1.898
 2509SOL     OW 8425   5.837   0.751   3.534
 2509SOL    HW1 8426   5.858   0.776   3.439
 2509SOL    HW2 8427   5.759   0.805   3.566
 2510SOL     OW 8428   4.230   6.038   2.426
 2510SOL    HW1 8429   4.167   6.033   2.349
 2510SOL    HW2 8430   4.233   6.131   2.462
 2511SOL     OW 8431   0.684   6.601   3.807
 2511SOL    HW1 8432   0.661   6.686   3.856
 2511SOL    HW2 8433   0.783   6.593   3.798
 2512SOL     OW 8434   6.094   4.114   4.468
 2512SOL    HW1 8435   6.085   4.014   4.469
 2512SOL    HW2 8436   6.121   4.146   4.558
 2513SOL     OW 8437   0.057   4.559   0.864
 2513SOL    HW1 8438   7.003   4.545   0.926
 2513SOL    HW2 8439   0.037   4.635   0.802
 2514SOL     OW 8440   6.900   2.175   3.536
 2514SOL    HW1 8441   6.966   2.211   3.602
 2514SOL    HW2 8442   6.935   2.089   3.498
 2515SOL     OW 8443   1.036   4.547   6.500
 2515SOL    HW1 8444   1.001   4.619   6.440
 2515SOL    HW2 8445   0.967   4.475   6.510
 2516SOL     OW 8446   5.188   6.396   3.937
 2516SOL    HW1 8447   5.136   6.479   3.958
 2516SOL    HW2 8448   5.198   6.387   3.838
 2517SOL     OW 8449   2.036   5.523   0.858
 2517SOL    HW1 8450   2.060   5.436   0.815
 2517SOL    HW2 8451   2.100   5.542   0.932
 2518SOL     OW 8452   2.328   2.690   0.074
 2518SOL    HW1 8453   2.362   2.645   0.156
 2518SOL    HW2 8454   2.229   2.701   0.081
 2519SOL     OW 8455   5.658   4.141   5.361
 2519SOL    HW1 8456   5.634   4.135   5.264
 2519SOL    HW2 8457   5.646   4.235   5.393
 2520SOL     OW 8458   3.442   5.456   1.456
 2520SOL    HW1 8459   3.485   5.437   1.368
 2520SOL    HW2 8460   3.362   5.396   1.467
 2521SOL     OW 8461   5.577   6.566   5.769
 2521SOL    HW1 8462   5.568   6.622   5.687
 2521SOL    HW2 8463   5.527   6.480   5.757
 2522SOL     OW 8464   2.025   5.176   4.603
 2522SOL    HW1 8465   2.017   5.090   4.654
 2522SOL    HW2 8466   2.087   5.164   4.526
 2523SOL     OW 8467   1.082   1.740   5.686
 2523SOL    HW1 8468   0.994   1.747   5.733
 2523SOL    HW2 8469   1.072   1.769   5.591
 2524SOL     OW 8470   1.762   0.078   4.254
 2524SOL    HW1 8471   1.805   0.042   4.337
 2524SOL    HW2 8472   1.801   0.032   4.174
 2525SOL     OW 8473   2.596   4.595   2.252
 2525SOL    HW1 8474   2.620   4.653   2.174
 2525SOL    HW2 8475   2.579   4.501   2.220
 2526SOL     OW 8476   1.247   2.699   4.758
 2526SOL    HW1 8477   1.264   2.741   4.846
 2526SOL    HW2 8478   1.322   2.637   4.735
 2527SOL     OW 8479   6.530   0.194   3.938
 2527SOL    HW1 8480   6.472   0.269   3.909
 2527SOL    HW2 8481   6.589   0.224   4.012
 2528SOL     OW 8482   5.295   5.629   0.269
 2528SOL    HW1 8483   5.290   5.723   0.235
 2528SOL    HW2 8484   5.386   5.612   0.307
 2529SOL     OW 8485   5.024   4.326   5.480
 2529SOL    HW1 8486   4.984   4.416   5.462
 2529SOL    HW2 8487   4.977   4.257   5.426
 2530SOL     OW 8488   0.904   6.354   3.324
 2530SOL    HW1 8489   0.967   6.278   3.310
 2530SOL    HW2 8490   0.861   6.378   3.237
 2531SOL     OW 8491   5.574   1.525   6.766
 2531SOL    HW1 8492   5.620   1.451   6.815
 2531SOL    HW2 8493   5.477   1.503   6.755
 2532SOL     OW 8494   0.968   5.022   5.586
 2532SOL    HW1 8495   1.004   4.930   5.604
 2532SOL    HW2 8496   1.003   5.055   5.498
 2533SOL     OW 8497   5.545   0.692   5.283
 2533SOL    HW1 8498   5.505   0.690   5.374
 2533SOL    HW2 8499   5.643   0.709   5.289
 2534SOL     OW 8500   6.384   1.449   3.540
 2534SOL    HW1 8501   6.392   1.512   3.618
 2534SOL    HW2 8502   6.431   1.364   3.561
 2535SOL     OW 8503   2.843   1.305   2.292
 2535SOL    HW1 8504   2.910   1.283   2.363
 2535SOL    HW2 8505   2.890   1.344   2.212
 2536SOL     OW 8506   0.194   0.473   4.130
 2536SOL    HW1 8507   0.127   0.399   4.142
 2536SOL    HW2 8508   0.208   0.491   4.033
 2537SOL     OW 8509   3.319   6.252   2.418
 2537SOL    HW1 8510   3.327   6.215   2.511
 2537SOL    HW2 8511   3.308   6.177   2.353
 2538SOL     OW 8512   0.564   4.948   5.347
 2538SOL    HW1 8513   0.584   5.045   5.362
 2538SOL    HW2 8514   0.650   4.897   5.346
 2539SOL     OW 8515   2.104   0.453   5.601
 2539SOL    HW1 8516   2.194   0.496   5.616
 2539SOL    HW2 8517   2.032   0.518   5.626
 2540SOL     OW 8518   4.952   2.283   2.707
 2540SOL    HW1 8519   4.972   2.187   2.686
 2540SOL    HW2 8520   4.893   2.321   2.636
 2541SOL     OW 8521   0.886   1.686   6.637
 2541SOL    HW1 8522   0.819   1.632   6.586
 2541SOL    HW2 8523   0.976   1.676   6.595
 2542SOL     OW 8524   3.904   1.680   3.703
 2542SOL    HW1 8525   3.946   1.732   3.778
 2542SOL    HW2 8526   3.972   1.666   3.630
 2543SOL     OW 8527   5.911   0.741   5.225
 2543SOL    HW1 8528   5.945   0.717   5.315
 2543SOL    HW2 8529   5.986   0.745   5.160
 2544SOL     OW 8530   6.996   6.878   1.437
 2544SOL    HW1 8531   6.940   6.810   1.389
 2544SOL    HW2 8532   0.050   6.832   1.481
 2545SOL     OW 8533   7.018   1.339   0.183
 2545SOL    HW1 8534   0.081   1.295   0.209
 2545SOL    HW2 8535   6.996   1.316   0.088
 2546SOL     OW 8536   6.318   3.618   2.542
 2546SOL    HW1 8537   6.305   3.693   2.606
 2546SOL    HW2 8538   6.310   3.651   2.448
 2547SOL     OW 8539   5.512   3.378   0.920
 2547SOL    HW1 8540   5.462   3.443   0.862
 2547SOL    HW2 8541   5.603   3.415   0.940
 2548SOL     OW 8542   6.455   0.534   5.305
 2548SOL    HW1 8543   6.534   0.477   5.327
 2548SOL    HW2 8544   6.429   0.587   5.386
 2549SOL     OW 8545   2.801   5.266   0.440
 2549SOL    HW1 8546   2.864   5.226   0.374
 2549SOL    HW2 8547   2.722   5.206   0.453
 2550SOL     OW 8548   3.729   0.010   1.405
 2550SOL    HW1 8549   3.639   7.000   1.434
 2550SOL    HW2 8550   3.759   0.084   1.465
 2551SOL     OW 8551   3.686   4.628   1.384
 2551SOL    HW1 8552   3.767   4.578   1.356
 2551SOL    HW2 8553   3.626   4.568   1.437
 2552SOL     OW 8554   2.385   4.509   1.474
 2552SOL    HW1 8555   2.376   4.420   1.519
 2552SOL    HW2 8556   2.443   4.501   1.394
 2553SOL     OW 8557   4.829   1.229   0.206
 2553SOL    HW1 8558   4.822   1.319   0.249
 2553SOL    HW2 8559   4.752   1.216   0.144
 2554SOL     OW 8560   0.761   5.399   0.986
 2554SOL    HW1 8561   0.804   5.345   1.058
 2554SOL    HW2 8562   0.753   5.494   1.016
 2555SOL     OW 8563   0.716   6.700   5.168
 2555SOL    HW1 8564   0.647   6.763   5.134
 2555SOL    HW2 8565   0.759   6.739   5.250
 2556SOL     OW 8566   5.094   0.061   0.815
 2556SOL    HW1 8567   5.131   0.019   0.898
 2556SOL    HW2 8568   5.115   0.159   0.815
 2557SOL     OW 8569   2.574   1.371   6.990
 2557SOL    HW1 8570   2.592   1.290   6.934
 2557SOL    HW2 8571   2.476   1.379   7.007
 2558SOL     OW 8572   5.228   2.045   1.629
 2558SOL    HW1 8573   5.169   2.021   1.552
 2558SOL    HW2 8574   5.225   2.144   1.644
 2559SOL     OW 8575   6.231   5.127   3.661
 2559SOL    HW1 8576   6.278   5.165   3.582
 2559SOL    HW2 8577   6.210   5.201   3.726
 2560SOL     OW 8578   4.480   2.458   2.504
 2560SOL    HW1 8579   4.529   2.532   2.458
 2560SOL    HW2 8580   4.539   2.419   2.575
 2561SOL     OW 8581   3.401   0.075   4.754
 2561SOL    HW1 8582   3.321   0.116   4.798
 2561SOL    HW2 8583   3.372   0.027   4.671
 2562SOL     OW 8584   1.795   6.935   5.210
 2562SOL    HW1 8585   1.764   6.940   5.305
 2562SOL    HW2 8586   1.769   6.847   5.170
 2563SOL     OW 8587   3.901   2.621   6.404
 2563SOL    HW1 8588   3.849   2.536   6.398
 2563SOL    HW2 8589   3.921   2.641   6.500
 2564SOL     OW 8590   1.180   1.224   0.502
 2564SOL    HW1 8591   1.086   1.247   0.478
 2564SOL    HW2 8592   1.221   1.300   0.552
 2565SOL     OW 8593   0.634   0.849   0.691
 2565SOL    HW1 8594   0.730   0.853   0.660
 2565SOL    HW2 8595   0.575   0.890   0.621
 2566SOL     OW 8596   3.069   1.407   0.873
 2566SOL    HW1 8597   3.047   1.465   0.795
 2566SOL    HW2 8598   3.151   1.353   0.853
 2567SOL     OW 8599   1.876   0.704   6.614
 2567SOL    HW1 8600   1.880   0.733   6.519
 2567SOL    HW2 8601   1.924   0.616   6.624
 2568SOL     OW 8602   2.048   5.609   1.256
 2568SOL    HW1 8603   2.057   5.695   1.205
 2568SOL    HW2 8604   2.011   5.628   1.347
 2569SOL     OW 8605   1.709   6.339   6.737
 2569SOL    HW1 8606   1.652   6.421   6.724
 2569SOL    HW2 8607   1.750   6.312   6.650
 2570SOL     OW 8608   0.455   6.660   3.966
 2570SOL    HW1 8609   0.490   6.578   3.922
 2570SOL    HW2 8610   0.462   6.649   4.065
 2571SOL     OW 8611   3.740   3.679   2.933
 2571SOL    HW1 8612   3.797   3.760   2.917
 2571SOL    HW2 8613   3.665   3.678   2.867
 2572SOL     OW 8614   2.136   5.960   2.538
 2572SOL    HW1 8615   2.149   5.913   2.450
 2572SOL    HW2 8616   2.189   6.045   2.538
 2573SOL     OW 8617   6.985   0.972   2.980
 2573SOL    HW1 8618   6.967   0.942   3.073
 2573SOL    HW2 8619   0.054   1.012   2.975
 2574SOL     OW 8620   0.340   3.440   1.991
 2574SOL    HW1 8621   0.310   3.527   1.950
 2574SOL    HW2 8622   0.265   3.402   2.045
 2575SOL     OW 8623   4.375   3.854   5.446
 2575SOL    HW1 8624   4.328   3.923   5.500
 2575SOL    HW2 8625   4.445   3.810   5.502
 2576SOL     OW 8626   0.814   0.188   3.018
 2576SOL    HW1 8627   0.771   0.139   3.094
 2576SOL    HW2 8628   0.782   0.148   2.931
 2577SOL     OW 8629   1.846   4.518   1.364
 2577SOL    HW1 8630   1.761   4.556   1.327
 2577SOL    HW2 8631   1.889   4.586   1.424
 2578SOL     OW 8632   4.595   2.695   5.185
 2578SOL    HW1 8633   4.592   2.723   5.089
 2578SOL    HW2 8634   4.690   2.688   5.215
 2579SOL     OW 8635   0.354   1.151   6.704
 2579SOL    HW1 8636   0.339   1.247   6.724
 2579SOL    HW2 8637   0.448   1.138   6.671
 2580SOL     OW 8638   1.734   1.972   5.393
 2580SOL    HW1 8639   1.732   2.056   5.447
 2580SOL    HW2 8640   1.709   1.993   5.298
 2581SOL     OW 8641   5.921   6.470   4.369
 2581SOL    HW1 8642   5.902   6.397   4.302
 2581SOL    HW2 8643   5.972   6.432   4.446
 2582SOL     OW 8644   6.856   4.642   3.133
 2582SOL    HW1 8645   6.885   4.558   3.088
 2582SOL    HW2 8646   6.758   4.638   3.152
 2583SOL     OW 8647   2.819   1.045   6.985
 2583SOL    HW1 8648   2.760   1.106   6.933
 2583SOL    HW2 8649   2.912   1.080   6.986
 2584SOL     OW 8650   4.333   0.908   3.344
 2584SOL    HW1 8651   4.368   0.860   3.423
 2584SOL    HW2 8652   4.234   0.919   3.352
 2585SOL     OW 8653   3.745   0.610   2.174
 2585SOL    HW1 8654   3.668   0.671   2.155
 2585SOL    HW2 8655   3.719   0.516   2.152
 2586SOL     OW 8656   0.648   1.658   3.992
 2586SOL    HW1 8657   0.557   1.616   3.994
 2586SOL    HW2 8658   0.658   1.711   3.908
 2587SOL     OW 8659   6.744   5.029   2.794
 2587SOL    HW1 8660   6.795   4.986   2.869
 2587SOL    HW2 8661   6.731   4.962   2.721
 2588SOL     OW 8662   4.002   6.625   2.938
 2588SOL    HW1 8663   4.021   6.563   3.014
 2588SOL    HW2 8664   3.995   6.718   2.973
 2589SOL     OW 8665   4.327   6.573   1.589
 2589SOL    HW1 8666   4.420   6.538   1.606
 2589SOL    HW2 8667   4.332   6.665   1.551
 2590SOL     OW 8668   3.683   5.913   3.682
 2590SOL    HW1 8669   3.664   5.888   3.587
 2590SOL    HW2 8670   3.634   5.998   3.704
 2591SOL     OW 8671   5.939   0.461   0.134
 2591SOL    HW1 8672   6.000   0.485   0.210
 2591SOL    HW2 8673   5.989   0.405   0.068
 2592SOL     OW 8674   2.714   4.712   1.674
 2592SOL    HW1 8675   2.619   4.691   1.697
 2592SOL    HW2 8676   2.775   4.660   1.734
 2593SOL     OW 8677   3.322   0.058   3.758
 2593SOL    HW1 8678   3.357   7.013   3.694
 2593SOL    HW2 8679   3.398   0.112   3.795
 2594SOL     OW 8680   1.772   5.501   6.746
 2594SOL    HW1 8681   1.711   5.578   6.730
 2594SOL    HW2 8682   1.719   5.422   6.776
 2595SOL     OW 8683   6.977   3.025   4.486
 2595SOL    HW1 8684   6.948   2.990   4.397
 2595SOL    HW2 8685   0.053   3.014   4.495
 2596SOL     OW 8686   4.256   1.745   0.902
 2596SOL    HW1 8687   4.257   1.837   0.942
 2596SOL    HW2 8688   4.178   1.694   0.939
 2597SOL     OW 8689   2.395   2.374   6.203
 2597SOL    HW1 8690   2.431   2.281   6.209
 2597SOL    HW2 8691   2.375   2.396   6.108
 2598SOL     OW 8692   6.835   0.878   2.778
 2598SOL    HW1 8693   6.855   0.782   2.760
 2598SOL    HW2 8694   6.908   0.917   2.834
 2599SOL     OW 8695   5.018   5.641   6.502
 2599SOL    HW1 8696   4.970   5.636   6.590
 2599SOL    HW2 8697   5.063   5.553   6.484
 2600SOL     OW 8698   0.564   2.221   4.525
 2600SOL    HW1 8699   0.467   2.238   4.541
 2600SOL    HW2 8700   0.601   2.291   4.464
 2601SOL     OW 8701   4.267   3.472   5.207
 2601SOL    HW1 8702   4.355   3.502   5.244
 2601SOL    HW2 8703   4.260   3.498   5.111
 2602SOL     OW 8704   6.015   6.472   6.222
 2602SOL    HW1 8705   5.977   6.433   6.306
 2602SOL    HW2 8706   5.943   6.480   6.153
 2603SOL     OW 8707   1.431   1.890   6.691
 2603SOL    HW1 8708   1.410   1.923   6.599
 2603SOL    HW2 8709   1.347   1.882   6.744
 2604SOL     OW 8710   5.560   1.835   1.071
 2604SOL    HW1 8711   5.581   1.920   1.120
 2604SOL    HW2 8712   5.481   1.849   1.011
 2605SOL     OW 8713   5.666   3.037   4.549
 2605SOL    HW1 8714   5.765   3.025   4.541
 2605SOL    HW2 8715   5.633   2.988   4.630
 2606SOL     OW 8716   6.511   4.443   1.461
 2606SOL    HW1 8717   6.590   4.471   1.406
 2606SOL    HW2 8718   6.427   4.463   1.412
 2607SOL     OW 8719   1.141   1.166   4.123
 2607SOL    HW1 8720   1.126   1.084   4.067
 2607SOL    HW2 8721   1.224   1.154   4.177
 2608SOL     OW 8722   4.940   0.177   0.238
 2608SOL    HW1 8723   4.933   0.164   0.337
 2608SOL    HW2 8724   4.859   0.142   0.193
 2609SOL     OW 8725   0.653   2.991   3.167
 2609SOL    HW1 8726   0.665   3.007   3.069
 2609SOL    HW2 8727   0.706   2.911   3.194
 2610SOL     OW 8728   5.426   5.926   4.636
 2610SOL    HW1 8729   5.422   5.967   4.544
 2610SOL    HW2 8730   5.509   5.956   4.682
 2611SOL     OW 8731   2.757   5.741   2.105
 2611SOL    HW1 8732   2.835   5.767   2.048
 2611SOL    HW2 8733   2.683   5.807   2.094
 2612SOL     OW 8734   0.402   0.260   5.681
 2612SOL    HW1 8735   0.383   0.162   5.669
 2612SOL    HW2 8736   0.426   0.278   5.777
 2613SOL     OW 8737   3.832   0.876   0.500
 2613SOL    HW1 8738   3.790   0.966   0.484
 2613SOL    HW2 8739   3.931   0.886   0.505
 2614SOL     OW 8740   6.455   5.904   6.853
 2614SOL    HW1 8741   6.448   5.957   6.769
 2614SOL    HW2 8742   6.448   5.806   6.832
 2615SOL     OW 8743   5.937   3.972   1.674
 2615SOL    HW1 8744   5.860   3.942   1.730
 2615SOL    HW2 8745   5.906   4.045   1.613
 2616SOL     OW 8746   3.979   3.672   2.011
 2616SOL    HW1 8747   3.897   3.624   2.041
 2616SOL    HW2 8748   3.969   3.770   2.028
 2617SOL     OW 8749   2.120   6.602   1.119
 2617SOL    HW1 8750   2.029   6.605   1.161
 2617SOL    HW2 8751   2.122   6.662   1.040
 2618SOL     OW 8752   1.341   6.599   0.296
 2618SOL    HW1 8753   1.417   6.572   0.355
 2618SOL    HW2 8754   1.365   6.682   0.246
 2619SOL     OW 8755   6.080   1.210   1.335
 2619SOL    HW1 8756   6.102   1.263   1.253
 2619SOL    HW2 8757   6.123   1.252   1.415
 2620SOL     OW 8758   1.352   5.891   4.054
 2620SOL    HW1 8759   1.258   5.888   4.086
 2620SOL    HW2 8760   1.377   5.803   4.013
 2621SOL     OW 8761   0.843   5.601   4.535
 2621SOL    HW1 8762   0.796   5.599   4.446
 2621SOL    HW2 8763   0.923   5.660   4.529
 2622SOL     OW 8764   2.371   2.252   4.969
 2622SOL    HW1 8765   2.405   2.345   4.979
 2622SOL    HW2 8766   2.311   2.246   4.889
 2623SOL     OW 8767   3.379   0.390   6.288
 2623SOL    HW1 8768   3.451   0.386   6.219
 2623SOL    HW2 8769   3.420   0.394   6.379
 2624SOL     OW 8770   6.048   2.119   4.115
 2624SOL    HW1 8771   6.125   2.094   4.055
 2624SOL    HW2 8772   5.985   2.042   4.122
 2625SOL     OW 8773   3.193   0.291   6.049
 2625SOL    HW1 8774   3.105   0.244   6.057
 2625SOL    HW2 8775   3.184   0.384   6.085
 2626SOL     OW 8776   1.666   0.042   2.940
 2626SOL    HW1 8777   1.609   7.011   3.002
 2626SOL    HW2 8778   1.674   0.135   2.976
 2627SOL     OW 8779   0.398   0.050   5.228
 2627SOL    HW1 8780   0.429   0.140   5.257
 2627SOL    HW2 8781   0.306   0.032   5.264
 2628SOL     OW 8782   4.083   6.052   0.297
 2628SOL    HW1 8783   4.042   6.140   0.274
 2628SOL    HW2 8784   4.055   6.025   0.389
 2629SOL     OW 8785   2.916   3.775   1.894
 2629SOL    HW1 8786   2.970   3.848   1.852
 2629SOL    HW2 8787   2.949   3.759   1.987
 2630SOL     OW 8788   2.873   2.247   2.667
 2630SOL    HW1 8789   2.816   2.285   2.740
 2630SOL    HW2 8790   2.968   2.242   2.699
 2631SOL     OW 8791   3.999   6.118   4.523
 2631SOL    HW1 8792   4.031   6.053   4.592
 2631SOL    HW2 8793   3.901   6.106   4.508
 2632SOL     OW 8794   4.928   1.444   0.995
 2632SOL    HW1 8795   4.992   1.422   1.069
 2632SOL    HW2 8796   4.838   1.404   1.016
 2633SOL     OW 8797   6.792   2.736   6.720
 2633SOL    HW1 8798   6.839   2.750   6.807
 2633SOL    HW2 8799   6.768   2.825   6.680
 2634SOL     OW 8800   3.361   4.713   0.740
 2634SOL    HW1 8801   3.390   4.775   0.812
 2634SOL    HW2 8802   3.428   4.714   0.666
 2635SOL     OW 8803   6.225   4.958   3.371
 2635SOL    HW1 8804   6.207   4.904   3.452
 2635SOL    HW2 8805   6.231   5.055   3.396
 2636SOL     OW 8806   5.884   5.802   5.687
 2636SOL    HW1 8807   5.973   5.846   5.688
 2636SOL    HW2 8808   5.863   5.772   5.594
 2637SOL     OW 8809   5.280   6.467   2.398
 2637SOL    HW1 8810   5.305   6.426   2.486
 2637SOL    HW2 8811   5.218   6.544   2.414
 2638SOL     OW 8812   4.972   6.009   1.160
 2638SOL    HW1 8813   4.883   6.052   1.154
 2638SOL    HW2 8814   5.025   6.031   1.078
 2639SOL     OW 8815   7.016   6.165   6.838
 2639SOL    HW1 8816   6.934   6.128   6.880
 2639SOL    HW2 8817   0.070   6.158   6.902
 2640SOL     OW 8818   6.640   0.017   6.127
 2640SOL    HW1 8819   6.645   0.012   6.227
 2640SOL    HW2 8820   6.568   6.979   6.094
 2641SOL     OW 8821   6.755   5.920   0.686
 2641SOL    HW1 8822   6.831   5.941   0.625
 2641SOL    HW2 8823   6.729   5.824   0.676
 2642SOL     OW 8824   6.331   0.718   4.021
 2642SOL    HW1 8825   6.408   0.671   4.065
 2642SOL    HW2 8826   6.321   0.809   4.060
 2643SOL     OW 8827   2.507   0.300   2.170
 2643SOL    HW1 8828   2.425   0.261   2.129
 2643SOL    HW2 8829   2.513   0.397   2.149
 2644SOL     OW 8830   6.885   5.937   4.985
 2644SOL    HW1 8831   6.887   5.878   4.904
 2644SOL    HW2 8832   6.921   5.886   5.064
 2645SOL     OW 8833   5.946   6.024   6.161
 2645SOL    HW1 8834   6.046   6.021   6.167
 2645SOL    HW2 8835   5.909   6.069   6.242
 2646SOL     OW 8836   5.890   5.921   6.761
 2646SOL    HW1 8837   5.827   5.925   6.838
 2646SOL    HW2 8838   5.956   5.996   6.766
 2647SOL     OW 8839   2.924   3.420   6.979
 2647SOL    HW1 8840   2.970   3.376   0.034
 2647SOL    HW2 8841   2.919   3.519   6.995
 2648SOL     OW 8842   4.154   1.390   3.536
 2648SOL    HW1 8843   4.209   1.331   3.477
 2648SOL    HW2 8844   4.212   1.429   3.608
 2649SOL     OW 8845   2.856   3.544   5.117
 2649SOL    HW1 8846   2.893   3.593   5.038
 2649SOL    HW2 8847   2.912   3.464   5.137
 2650SOL     OW 8848   0.165   6.646   2.845
 2650SOL    HW1 8849   0.207   6.586   2.913
 2650SOL    HW2 8850   0.169   6.603   2.755
 2651SOL     OW 8851   0.896   0.254   3.318
 2651SOL    HW1 8852   0.910   0.353   3.305
 2651SOL    HW2 8853   0.951   0.222   3.395
 2652SOL     OW 8854   3.058   3.360   2.850
 2652SOL    HW1 8855   3.095   3.271   2.876
 2652SOL    HW2 8856   3.014   3.354   2.760
 2653SOL     OW 8857   6.923   6.076   0.377
 2653SOL    HW1 8858   6.945   6.160   0.427
 2653SOL    HW2 8859   6.984   6.003   0.405
 2654SOL     OW 8860   6.555   1.656   6.124
 2654SOL    HW1 8861   6.644   1.618   6.101
 2654SOL    HW2 8862   6.553   1.754   6.101
 2655SOL     OW 8863   5.456   5.141   4.909
 2655SOL    HW1 8864   5.484   5.168   5.001
 2655SOL    HW2 8865   5.533   5.148   4.846
 2656SOL     OW 8866   5.905   3.467   5.017
 2656SOL    HW1 8867   5.839   3.440   5.087
 2656SOL    HW2 8868   5.862   3.532   4.954
 2657SOL     OW 8869   3.586   1.701   6.250
 2657SOL    HW1 8870   3.488   1.705   6.233
 2657SOL    HW2 8871   3.634   1.683   6.164
 2658SOL     OW 8872   5.916   4.167   5.258
 2658SOL    HW1 8873   5.836   4.145   5.314
 2658SOL    HW2 8874   5.971   4.085   5.243
 2659SOL     OW 8875   6.722   1.629   3.602
 2659SOL    HW1 8876   6.693   1.539   3.568
 2659SOL    HW2 8877   6.767   1.618   3.691
 2660SOL     OW 8878   0.099   2.020   3.216
 2660SOL    HW1 8879   0.148   2.099   3.179
 2660SOL    HW2 8880   0.002   2.027   3.193
 2661SOL     OW 8881   3.512   0.123   3.018
 2661SOL    HW1 8882   3.561   0.089   2.938
 2661SOL    HW2 8883   3.510   0.223   3.016
 2662SOL     OW 8884   3.458   1.301   3.691
 2662SOL    HW1 8885   3.434   1.265   3.781
 2662SOL    HW2 8886   3.539   1.360   3.699
 2663SOL     OW 8887   0.379   4.374   2.958
 2663SOL    HW1 8888   0.393   4.455   3.014
 2663SOL    HW2 8889   0.452   4.308   2.974
 2664SOL     OW 8890   3.978   3.944   1.919
 2664SOL    HW1 8891   4.063   3.993   1.901
 2664SOL    HW2 8892   3.930   3.987   1.996
 2665SOL     OW 8893   4.621   0.149   5.055
 2665SOL    HW1 8894   4.550   0.090   5.095
 2665SOL    HW2 8895   4.579   0.234   5.023
 2666SOL     OW 8896   4.708   6.250   1.637
 2666SOL    HW1 8897   4.733   6.165   1.683
 2666SOL    HW2 8898   4.623   6.286   1.677
 2667SOL     OW 8899   1.773   5.386   3.154
 2667SOL    HW1 8900   1.827   5.364   3.235
 2667SOL    HW2 8901   1.689   5.433   3.181
 2668SOL     OW 8902   6.536   2.127   5.468
 2668SOL    HW1 8903   6.442   2.159   5.475
 2668SOL    HW2 8904   6.583   2.179   5.396
 2669SOL     OW 8905   3.695   5.802   5.132
 2669SOL    HW1 8906   3.750   5.805   5.049
 2669SOL    HW2 8907   3.693   5.892   5.175
 2670SOL     OW 8908   2.868   6.494   4.215
 2670SOL    HW1 8909   2.813   6.494   4.298
 2670SOL    HW2 8910   2.945   6.557   4.226
 2671SOL     OW 8911   3.305   4.088   6.449
 2671SOL    HW1 8912   3.357   4.054   6.371
 2671SOL    HW2 8913   3.252   4.169   6.422
 2672SOL     OW 8914   0.754   4.396   6.879
 2672SOL    HW1 8915   0.853   4.410   6.880
 2672SOL    HW2 8916   0.725   4.379   6.785
 2673SOL     OW 8917   3.610   2.116   3.461
 2673SOL    HW1 8918   3.614   2.139   3.363
 2673SOL    HW2 8919   3.701   2.125   3.501
 2674SOL     OW 8920   6.528   5.530   5.235
 2674SOL    HW1 8921   6.585   5.564   5.160
 2674SOL    HW2 8922   6.438   5.574   5.230
 2675SOL     OW 8923   0.403   4.677   5.696
 2675SOL    HW1 8924   0.430   4.585   5.666
 2675SOL    HW2 8925   0.304   4.681   5.706
 2676SOL     OW 8926   4.594   0.250   1.780
 2676SOL    HW1 8927   4.504   0.283   1.750
 2676SOL    HW2 8928   4.582   0.173   1.842
 2677SOL     OW 8929   2.387   4.454   2.118
 2677SOL    HW1 8930   2.345   4.545   2.119
 2677SOL    HW2 8931   2.439   4.442   2.033
 2678SOL     OW 8932   0.276   6.280   6.347
 2678SOL    HW1 8933   0.337   6.266   6.269
 2678SOL    HW2 8934   0.236   6.193   6.375
 2679SOL     OW 8935   2.566   5.173   1.722
 2679SOL    HW1 8936   2.636   5.193   1.653
 2679SOL    HW2 8937   2.480   5.153   1.676
 2680SOL     OW 8938   1.262   2.534   1.371
 2680SOL    HW1 8939   1.278   2.455   1.430
 2680SOL    HW2 8940   1.230   2.503   1.282
 2681SOL     OW 8941   1.811   1.778   2.078
 2681SOL    HW1 8942   1.810   1.852   2.146
 2681SOL    HW2 8943   1.779   1.814   1.990
 2682SOL     OW 8944   6.448   2.822   4.240
 2682SOL    HW1 8945   6.405   2.793   4.154
 2682SOL    HW2 8946   6.547   2.816   4.231
 2683SOL     OW 8947   1.704   6.823   0.254
 2683SOL    HW1 8948   1.797   6.833   0.218
 2683SOL    HW2 8949   1.662   6.740   0.217
 2684SOL     OW 8950   2.505   5.724   2.695
 2684SOL    HW1 8951   2.474   5.734   2.601
 2684SOL    HW2 8952   2.463   5.643   2.736
 2685SOL     OW 8953   5.460   5.838   5.460
 2685SOL    HW1 8954   5.387   5.892   5.503
 2685SOL    HW2 8955   5.548   5.881   5.478
 2686SOL     OW 8956   1.316   3.115   4.819
 2686SOL    HW1 8957   1.402   3.157   4.846
 2686SOL    HW2 8958   1.286   3.152   4.731
 2687SOL     OW 8959   4.720   4.816   3.443
 2687SOL    HW1 8960   4.750   4.777   3.356
 2687SOL    HW2 8961   4.620   4.812   3.448
 2688SOL     OW 8962   3.749   4.416   5.987
 2688SOL    HW1 8963   3.788   4.364   6.063
 2688SOL    HW2 8964   3.776   4.373   5.901
 2689SOL     OW 8965   6.472   3.023   4.491
 2689SOL    HW1 8966   6.502   3.111   4.527
 2689SOL    HW2 8967   6.382   3.033   4.450
 2690SOL     OW 8968   2.984   3.205   3.451
 2690SOL    HW1 8969   2.977   3.133   3.381
 2690SOL    HW2 8970   2.972   3.294   3.407
 2691SOL     OW 8971   1.265   6.562   1.711
 2691SOL    HW1 8972   1.275   6.619   1.793
 2691SOL    HW2 8973   1.339   6.495   1.709
 2692SOL     OW 8974   0.175   4.954   3.299
 2692SOL    HW1 8975   0.142   5.048   3.310
 2692SOL    HW2 8976   0.101   4.890   3.320
 2693SOL     OW 8977   1.654   3.547   2.762
 2693SOL    HW1 8978   1.720   3.571   2.691
 2693SOL    HW2 8979   1.594   3.625   2.780
 2694SOL     OW 8980   1.969   1.545   2.810
 2694SOL    HW1 8981   1.953   1.525   2.906
 2694SOL    HW2 8982   2.001   1.640   2.800
 2695SOL     OW 8983   4.096   2.147   2.862
 2695SOL    HW1 8984   4.129   2.058   2.893
 2695SOL    HW2 8985   4.163   2.189   2.801
 2696SOL     OW 8986   4.000   3.901   5.346
 2696SOL    HW1 8987   4.011   3.976   5.281
 2696SOL    HW2 8988   4.083   3.845   5.348
 2697SOL     OW 8989   2.527   1.106   5.051
 2697SOL    HW1 8990   2.430   1.105   5.076
 2697SOL    HW2 8991   2.544   1.037   4.979
 2698SOL     OW 8992   1.990   2.645   6.556
 2698SOL    HW1 8993   1.923   2.639   6.482
 2698SOL    HW2 8994   2.023   2.553   6.579
 2699SOL     OW 8995   1.496   5.850   2.894
 2699SOL    HW1 8996   1.575   5.794   2.918
 2699SOL    HW2 8997   1.489   5.927   2.958
 2700SOL     OW 8998   1.933   4.430   3.028
 2700SOL    HW1 8999   1.997   4.386   2.965
 2700SOL    HW2 9000   1.947   4.395   3.120
 2701SOL     OW 9001   3.327   0.538   5.749
 2701SOL    HW1 9002   3.385   0.547   5.668
 2701SOL    HW2 9003   3.305   0.629   5.785
 2702SOL     OW 9004   6.773   6.482   2.640
 2702SOL    HW1 9005   6.801   6.389   2.662
 2702SOL    HW2 9006   6.715   6.518   2.714
 2703SOL     OW 9007   1.436   1.941   3.218
 2703SOL    HW1 9008   1.444   1.841   3.226
 2703SOL    HW2 9009   1.349   1.970   3.257
 2704SOL     OW 9010   1.650   5.957   0.595
 2704SOL    HW1 9011   1.605   5.943   0.684
 2704SOL    HW2 9012   1.582   5.990   0.529
 2705SOL     OW 9013   0.304   3.852   2.887
 2705SOL    HW1 9014   0.289   3.834   2.789
 2705SOL    HW2 9015   0.257   3.783   2.941
 2706SOL     OW 9016   6.480   2.363   3.285
 2706SOL    HW1 9017   6.481   2.338   3.382
 2706SOL    HW2 9018   6.573   2.367   3.251
 2707SOL     OW 9019   2.808   1.450   6.298
 2707SOL    HW1 9020   2.836   1.541   6.330
 2707SOL    HW2 9021   2.789   1.454   6.200
 2708SOL     OW 9022   1.254   4.578   0.369
 2708SOL    HW1 9023   1.249   4.525   0.284
 2708SOL    HW2 9024   1.326   4.647   0.361
 2709SOL     OW 9025   4.690   6.704   1.498
 2709SOL    HW1 9026   4.642   6.701   1.586
 2709SOL    HW2 9027   4.684   6.615   1.453
 2710SOL     OW 9028   6.561   4.024   2.598
 2710SOL    HW1 9029   6.609   4.042   2.684
 2710SOL    HW2 9030   6.592   3.937   2.560
 2711SOL     OW 9031   1.294   6.975   2.374
 2711SOL    HW1 9032   1.226   6.907   2.345
 2711SOL    HW2 9033   1.285   6.992   2.472
 2712SOL     OW 9034   3.617   5.493   2.700
 2712SOL    HW1 9035   3.661   5.517   2.787
 2712SOL    HW2 9036   3.592   5.576   2.651
 2713SOL     OW 9037   2.069   2.706   5.392
 2713SOL    HW1 9038   2.060   2.765   5.472
 2713SOL    HW2 9039   2.050   2.611   5.418
 2714SOL     OW 9040   5.702   7.011   6.125
 2714SOL    HW1 9041   5.717   6.944   6.198
 2714SOL    HW2 9042   5.789   0.031   6.100
 2715SOL     OW 9043   6.025   0.263   6.954
 2715SOL    HW1 9044   5.969   0.211   7.020
 2715SOL    HW2 9045   5.990   0.248   6.862
 2716SOL     OW 9046   6.592   6.586   2.476
 2716SOL    HW1 9047   6.652   6.615   2.401
 2716SOL    HW2 9048   6.643   6.530   2.541
 2717SOL     OW 9049   0.741   0.037   3.293
 2717SOL    HW1 9050   0.791   6.985   3.250
 2717SOL    HW2 9051   0.799   0.119   3.294
 2718SOL     OW 9052   0.804   4.266   3.570
 2718SOL    HW1 9053   0.768   4.195   3.509
 2718SOL    HW2 9054   0.825   4.348   3.517
 2719SOL     OW 9055   4.342   4.874   2.852
 2719SOL    HW1 9056   4.377   4.898   2.942
 2719SOL    HW2 9057   4.365   4.947   2.787
 2720SOL     OW 9058   1.208   6.190   4.209
 2720SOL    HW1 9059   1.131   6.211   4.150
 2720SOL    HW2 9060   1.184   6.114   4.269
 2721SOL     OW 9061   4.776   6.220   3.940
 2721SOL    HW1 9062   4.740   6.303   3.983
 2721SOL    HW2 9063   4.819   6.162   4.010
 2722SOL     OW 9064   1.432   6.049   1.445
 2722SOL    HW1 9065   1.448   6.004   1.357
 2722SOL    HW2 9066   1.508   6.029   1.507
 2723SOL     OW 9067   2.238   1.960   4.699
 2723SOL    HW1 9068   2.251   1.912   4.786
 2723SOL    HW2 9069   2.173   2.035   4.712
 2724SOL     OW 9070   3.993   6.008   6.085
 2724SOL    HW1 9071   4.011   6.095   6.039
 2724SOL    HW2 9072   4.077   5.954   6.088
 2725SOL     OW 9073   2.691   4.790   3.775
 2725SOL    HW1 9074   2.651   4.730   3.705
 2725SOL    HW2 9075   2.650   4.770   3.864
 2726SOL     OW 9076   4.831   6.647   2.421
 2726SOL    HW1 9077   4.880   6.566   2.454
 2726SOL    HW2 9078   4.767   6.620   2.349
 2727SOL     OW 9079   2.243   5.930   3.492
 2727SOL    HW1 9080   2.268   5.873   3.414
 2727SOL    HW2 9081   2.156   5.975   3.474
 2728SOL     OW 9082   3.063   6.942   5.208
 2728SOL    HW1 9083   3.147   6.997   5.212
 2728SOL    HW2 9084   2.988   6.998   5.174
 2729SOL     OW 9085   0.110   4.697   2.831
 2729SOL    HW1 9086   0.044   4.663   2.764
 2729SOL    HW2 9087   0.106   4.797   2.833
 2730SOL     OW 9088   1.200   4.714   1.244
 2730SOL    HW1 9089   1.251   4.659   1.310
 2730SOL    HW2 9090   1.222   4.684   1.151
 2731SOL     OW 9091   2.905   3.674   0.850
 2731SOL    HW1 9092   2.822   3.729   0.857
 2731SOL    HW2 9093   2.947   3.665   0.941
 2732SOL     OW 9094   5.191   3.380   4.863
 2732SOL    HW1 9095   5.130   3.374   4.784
 2732SOL    HW2 9096   5.175   3.466   4.911
 2733SOL     OW 9097   2.160   0.873   6.428
 2733SOL    HW1 9098   2.239   0.813   6.446
 2733SOL    HW2 9099   2.082   0.817   6.399
 2734SOL     OW 9100   2.335   0.280   4.124
 2734SOL    HW1 9101   2.248   0.324   4.100
 2734SOL    HW2 9102   2.347   0.282   4.223
 2735SOL     OW 9103   1.306   5.501   1.362
 2735SOL    HW1 9104   1.225   5.449   1.388
 2735SOL    HW2 9105   1.374   5.496   1.435
 2736SOL     OW 9106   3.839   6.815   6.404
 2736SOL    HW1 9107   3.802   6.728   6.438
 2736SOL    HW2 9108   3.768   6.886   6.411
 2737SOL     OW 9109   4.162   3.415   5.715
 2737SOL    HW1 9110   4.125   3.482   5.651
 2737SOL    HW2 9111   4.115   3.327   5.704
 2738SOL     OW 9112   5.663   4.034   4.052
 2738SOL    HW1 9113   5.690   4.090   4.131
 2738SOL    HW2 9114   5.606   4.089   3.991
 2739SOL     OW 9115   4.778   4.272   0.426
 2739SOL    HW1 9116   4.765   4.359   0.474
 2739SOL    HW2 9117   4.872   4.264   0.395
 2740SOL     OW 9118   6.047   2.659   4.051
 2740SOL    HW1 9119   5.958   2.689   4.017
 2740SOL    HW2 9120   6.048   2.560   4.062
 2741SOL     OW 9121   2.175   3.310   4.628
 2741SOL    HW1 9122   2.144   3.328   4.721
 2741SOL    HW2 9123   2.183   3.211   4.614
 2742SOL     OW 9124   2.572   6.337   5.630
 2742SOL    HW1 9125   2.524   6.287   5.558
 2742SOL    HW2 9126   2.605   6.273   5.699
 2743SOL     OW 9127   6.175   4.525   0.065
 2743SOL    HW1 9128   6.236   4.475   0.004
 2743SOL    HW2 9129   6.227   4.597   0.112
 2744SOL     OW 9130   4.649   0.092   0.481
 2744SOL    HW1 9131   4.578   0.160   0.498
 2744SOL    HW2 9132   4.640   0.057   0.388
 2745SOL     OW 9133   2.718   6.130   1.866
 2745SOL    HW1 9134   2.692   6.146   1.771
 2745SOL    HW2 9135   2.788   6.196   1.893
 2746SOL     OW 9136   1.136   2.058   6.186
 2746SOL    HW1 9137   1.121   2.024   6.093
 2746SOL    HW2 9138   1.049   2.062   6.234
 2747SOL     OW 9139   5.716   5.686   3.763
 2747SOL    HW1 9140   5.721   5.679   3.663
 2747SOL    HW2 9141   5.732   5.781   3.790
 2748SOL     OW 9142   5.141   0.712   4.739
 2748SOL    HW1 9143   5.133   0.647   4.663
 2748SOL    HW2 9144   5.060   0.706   4.797
 2749SOL     OW 9145   4.863   4.566   3.546
 2749SOL    HW1 9146   4.947   4.620   3.556
 2749SOL    HW2 9147   4.784   4.627   3.547
 2750SOL     OW 9148   0.601   6.694   0.443
 2750SOL    HW1 9149   0.547   6.658   0.519
 2750SOL    HW2 9150   0.541   6.736   0.376
 2751SOL     OW 9151   1.859   0.206   6.622
 2751SOL    HW1 9152   1.770   0.180   6.661
 2751SOL    HW2 9153   1.929   0.199   6.694
 2752SOL     OW 9154   0.140   6.711   6.169
 2752SOL    HW1 9155   0.130   6.615   6.197
 2752SOL    HW2 9156   0.067   6.766   6.210
 2753SOL     OW 9157   3.617   5.384   5.305
 2753SOL    HW1 9158   3.701   5.431   5.277
 2753SOL    HW2 9159   3.629   5.348   5.398
 2754SOL     OW 9160   0.946   6.016   4.302
 2754SOL    HW1 9161   0.851   6.016   4.273
 2754SOL    HW2 9162   0.963   6.095   4.361
 2755SOL     OW 9163   4.848   5.891   2.493
 2755SOL    HW1 9164   4.934   5.923   2.452
 2755SOL    HW2 9165   4.795   5.970   2.524
 2756SOL     OW 9166   0.446   3.054   5.425
 2756SOL    HW1 9167   0.403   2.964   5.415
 2756SOL    HW2 9168   0.504   3.071   5.345
 2757SOL     OW 9169   5.003   4.078   6.452
 2757SOL    HW1 9170   5.030   4.035   6.538
 2757SOL    HW2 9171   5.007   4.177   6.462
 2758SOL     OW 9172   0.007   6.758   2.111
 2758SOL    HW1 9173   0.009   6.689   2.183
 2758SOL    HW2 9174   0.100   6.792   2.096
 2759SOL     OW 9175   3.371   3.724   5.034
 2759SOL    HW1 9176   3.290   3.739   5.091
 2759SOL    HW2 9177   3.349   3.742   4.939
 2760SOL     OW 9178   5.707   5.438   2.737
 2760SOL    HW1 9179   5.798   5.415   2.771
 2760SOL    HW2 9180   5.647   5.458   2.815
 2761SOL     OW 9181   1.226   3.199   4.049
 2761SOL    HW1 9182   1.285   3.182   3.970
 2761SOL    HW2 9183   1.233   3.294   4.077
 2762SOL     OW 9184   4.064   1.376   1.769
 2762SOL    HW1 9185   4.144   1.373   1.709
 2762SOL    HW2 9186   4.090   1.415   1.858
 2763SOL     OW 9187   5.931   1.190   4.044
 2763SOL    HW1 9188   6.003   1.142   3.995
 2763SOL    HW2 9189   5.904   1.271   3.992
 2764SOL     OW 9190   0.179   2.760   3.341
 2764SOL    HW1 9191   0.209   2.797   3.253
 2764SOL    HW2 9192   0.156   2.663   3.330
 2765SOL     OW 9193   6.664   6.457   6.181
 2765SOL    HW1 9194   6.750   6.417   6.150
 2765SOL    HW2 9195   6.598   6.383   6.198
 2766SOL     OW 9196   4.636   7.013   0.223
 2766SOL    HW1 9197   4.661   7.008   0.126
 2766SOL    HW2 9198   4.541   6.982   0.234
 2767SOL     OW 9199   0.761   5.675   5.660
 2767SOL    HW1 9200   0.708   5.590   5.659
 2767SOL    HW2 9201   0.790   5.695   5.753
 2768SOL     OW 9202   3.382   6.205   1.561
 2768SOL    HW1 9203   3.353   6.110   1.565
 2768SOL    HW2 9204   3.473   6.215   1.602
 2769SOL     OW 9205   0.593   5.031   5.657
 2769SOL    HW1 9206   0.622   5.103   5.593
 2769SOL    HW2 9207   0.635   4.944   5.630
 2770SOL     OW 9208   2.125   6.634   0.424
 2770SOL    HW1 9209   2.158   6.728   0.410
 2770SOL    HW2 9210   2.124   6.614   0.522
 2771SOL     OW 9211   4.135   7.007   5.384
 2771SOL    HW1 9212   4.124   6.913   5.416
 2771SOL    HW2 9213   4.232   0.004   5.374
 2772SOL     OW 9214   5.178   1.608   3.519
 2772SOL    HW1 9215   5.098   1.668   3.517
 2772SOL    HW2 9216   5.172   1.541   3.445
 2773SOL     OW 9217   5.674   2.604   6.372
 2773SOL    HW1 9218   5.582   2.631   6.402
 2773SOL    HW2 9219   5.705   2.525   6.426
 2774SOL     OW 9220   6.580   0.504   4.111
 2774SOL    HW1 9221   6.544   0.510   4.018
 2774SOL    HW2 9222   6.648   0.431   4.116
 2775SOL     OW 9223   0.314   2.332   4.559
 2775SOL    HW1 9224   0.265   2.273   4.496
 2775SOL    HW2 9225   0.291   2.428   4.541
 2776SOL     OW 9226   4.681   4.173   6.446
 2776SOL    HW1 9227   4.637   4.162   6.535
 2776SOL    HW2 9228   4.624   4.131   6.375
 2777SOL     OW 9229   2.027   2.303   0.238
 2777SOL    HW1 9230   1.998   2.383   0.185
 2777SOL    HW2 9231   2.040   2.330   0.334
 2778SOL     OW 9232   3.421   0.301   5.928
 2778SOL    HW1 9233   3.396   0.367   5.857
 2778SOL    HW2 9234   3.343   0.288   5.990
 2779SOL     OW 9235   5.609   0.877   2.606
 2779SOL    HW1 9236   5.604   0.921   2.517
 2779SOL    HW2 9237   5.699   0.835   2.618
 2780SOL     OW 9238   0.197   0.902   4.619
 2780SOL    HW1 9239   0.217   0.941   4.709
 2780SOL    HW2 9240   0.252   0.820   4.605
 2781SOL     OW 9241   0.350   0.431   2.948
 2781SOL    HW1 9242   0.309   0.510   2.994
 2781SOL    HW2 9243   0.337   0.439   2.849
 2782SOL     OW 9244   5.552   0.137   5.187
 2782SOL    HW1 9245   5.490   0.096   5.253
 2782SOL    HW2 9246   5.603   0.064   5.139
 2783SOL     OW 9247   5.640   2.704   1.370
 2783SOL    HW1 9248   5.719   2.642   1.376
 2783SOL    HW2 9249   5.673   2.798   1.359
 2784SOL     OW 9250   0.252   2.821   1.753
 2784SOL    HW1 9251   0.238   2.743   1.691
 2784SOL    HW2 9252   0.175   2.884   1.745
 2785SOL     OW 9253   4.919   3.620   3.134
 2785SOL    HW1 9254   5.019   3.614   3.141
 2785SOL    HW2 9255   4.887   3.551   3.068
 2786SOL     OW 9256   0.433   5.765   0.493
 2786SOL    HW1 9257   0.387   5.710   0.562
 2786SOL    HW2 9258   0.403   5.736   0.402
 2787SOL     OW 9259   0.494   6.356   5.565
 2787SOL    HW1 9260   0.487   6.259   5.589
 2787SOL    HW2 9261   0.530   6.408   5.643
 2788SOL     OW 9262   3.011   6.653   0.733
 2788SOL    HW1 9263   3.038   6.736   0.685
 2788SOL    HW2 9264   3.083   6.585   0.726
 2789SOL     OW 9265   1.970   2.245   3.967
 2789SOL    HW1 9266   1.888   2.201   3.931
 2789SOL    HW2 9267   1.950   2.342   3.984
 2790SOL     OW 9268   0.083   5.438   1.721
 2790SOL    HW1 9269   0.038   5.394   1.799
 2790SOL    HW2 9270   0.180   5.451   1.740
 2791SOL     OW 9271   0.668   3.375   4.983
 2791SOL    HW1 9272   0.633   3.378   5.076
 2791SOL    HW2 9273   0.647   3.460   4.936
 2792SOL     OW 9274   2.957   1.747   6.121
 2792SOL    HW1 9275   3.001   1.834   6.100
 2792SOL    HW2 9276   3.022   1.686   6.166
 2793SOL     OW 9277   4.091   3.459   6.546
 2793SOL    HW1 9278   4.022   3.529   6.530
 2793SOL    HW2 9279   4.068   3.376   6.494
 2794SOL     OW 9280   1.786   2.221   6.817
 2794SOL    HW1 9281   1.729   2.255   6.742
 2794SOL    HW2 9282   1.796   2.293   6.886
 2795SOL     OW 9283   1.372   6.537   0.710
 2795SOL    HW1 9284   1.294   6.597   0.694
 2795SOL    HW2 9285   1.409   6.555   0.801
 2796SOL     OW 9286   2.639   5.925   6.927
 2796SOL    HW1 9287   2.610   5.979   6.848
 2796SOL    HW2 9288   2.733   5.948   6.950
 2797SOL     OW 9289   5.055   3.686   4.203
 2797SOL    HW1 9290   5.118   3.698   4.280
 2797SOL    HW2 9291   4.999   3.769   4.193
 2798SOL     OW 9292   5.201   1.859   2.353
 2798SOL    HW1 9293   5.286   1.880   2.402
 2798SOL    HW2 9294   5.144   1.941   2.350
 2799SOL     OW 9295   3.384   6.532   5.352
 2799SOL    HW1 9296   3.334   6.618   5.357
 2799SOL    HW2 9297   3.389   6.501   5.257
 2800SOL     OW 9298   4.866   1.105   6.914
 2800SOL    HW1 9299   4.923   1.044   6.969
 2800SOL    HW2 9300   4.771   1.099   6.946
 2801SOL     OW 9301   0.510   4.512   3.885
 2801SOL    HW1 9302   0.427   4.537   3.935
 2801SOL    HW2 9303   0.486   4.457   3.805
 2802SOL     OW 9304   1.353   5.230   4.713
 2802SOL    HW1 9305   1.307   5.253   4.627
 2802SOL    HW2 9306   1.427   5.296   4.729
 2803SOL     OW 9307   3.621   2.325   6.373
 2803SOL    HW1 9308   3.653   2.231   6.386
 2803SOL    HW2 9309   3.536   2.324   6.321
 2804SOL     OW 9310   6.504   2.910   3.812
 2804SOL    HW1 9311   6.432   2.974   3.838
 2804SOL    HW2 9312   6.474   2.856   3.733
 2805SOL     OW 9313   4.366   4.170   0.782
 2805SOL    HW1 9314   4.363   4.136   0.688
 2805SOL    HW2 9315   4.297   4.124   0.837
 2806SOL     OW 9316   0.464   3.680   4.953
 2806SOL    HW1 9317   0.424   3.745   4.888
 2806SOL    HW2 9318   0.563   3.677   4.940
 2807SOL     OW 9319   4.735   1.437   3.862
 2807SOL    HW1 9320   4.738   1.351   3.914
 2807SOL    HW2 9321   4.704   1.511   3.922
 2808SOL     OW 9322   1.491   5.946   5.813
 2808SOL    HW1 9323   1.395   5.938   5.841
 2808SOL    HW2 9324   1.521   5.861   5.769
 2809SOL     OW 9325   0.403   5.651   1.177
 2809SOL    HW1 9326   0.377   5.558   1.151
 2809SOL    HW2 9327   0.378   5.715   1.104
 2810SOL     OW 9328   0.533   6.146   2.913
 2810SOL    HW1 9329   0.565   6.051   2.919
 2810SOL    HW2 9330   0.433   6.148   2.915
 2811SOL     OW 9331   0.731   1.210   0.444
 2811SOL    HW1 9332   0.683   1.249   0.366
 2811SOL    HW2 9333   0.697   1.252   0.529
 2812SOL     OW 9334   1.896   1.351   0.920
 2812SOL    HW1 9335   1.880   1.368   1.017
 2812SOL    HW2 9336   1.981   1.395   0.892
 2813SOL     OW 9337   6.868   2.177   0.723
 2813SOL    HW1 9338   6.835   2.220   0.807
 2813SOL    HW2 9339   6.924   2.098   0.746
 2814SOL     OW 9340   2.688   4.285   6.617
 2814SOL    HW1 9341   2.708   4.217   6.687
 2814SOL    HW2 9342   2.736   4.370   6.639
 2815SOL     OW 9343   0.074   5.388   4.556
 2815SOL    HW1 9344   7.006   5.347   4.557
 2815SOL    HW2 9345   0.130   5.347   4.628
 2816SOL     OW 9346   0.934   4.819   4.889
 2816SOL    HW1 9347   0.845   4.864   4.894
 2816SOL    HW2 9348   0.986   4.839   4.972
 2817SOL     OW 9349   2.941   0.876   2.302
 2817SOL    HW1 9350   2.924   0.927   2.386
 2817SOL    HW2 9351   2.903   0.784   2.310
 2818SOL     OW 9352   1.444   1.044   0.592
 2818SOL    HW1 9353   1.416   0.948   0.589
 2818SOL    HW2 9354   1.469   1.074   0.500
 2819SOL     OW 9355   0.331   0.709   6.568
 2819SOL    HW1 9356   0.420   0.753   6.556
 2819SOL    HW2 9357   0.323   0.674   6.662
 2820SOL     OW 9358   2.293   1.850   0.068
 2820SOL    HW1 9359   2.384   1.879   0.098
 2820SOL    HW2 9360   2.226   1.922   0.089
 2821SOL     OW 9361   3.411   2.296   6.220
 2821SOL    HW1 9362   3.393   2.392   6.197
 2821SOL    HW2 9363   3.325   2.250   6.240
 2822SOL     OW 9364   4.300   3.099   0.676
 2822SOL    HW1 9365   4.351   3.150   0.606
 2822SOL    HW2 9366   4.363   3.063   0.744
 2823SOL     OW 9367   5.841   3.644   2.104
 2823SOL    HW1 9368   5.765   3.694   2.145
 2823SOL    HW2 9369   5.895   3.600   2.175
 2824SOL     OW 9370   0.678   4.774   5.592
 2824SOL    HW1 9371   0.587   4.733   5.588
 2824SOL    HW2 9372   0.730   4.750   5.511
 2825SOL     OW 9373   5.393   2.041   5.938
 2825SOL    HW1 9374   5.377   2.073   5.844
 2825SOL    HW2 9375   5.454   1.963   5.936
 2826SOL     OW 9376   2.448   3.506   6.871
 2826SOL    HW1 9377   2.512   3.468   6.804
 2826SOL    HW2 9378   2.404   3.432   6.921
 2827SOL     OW 9379   6.213   1.527   6.654
 2827SOL    HW1 9380   6.255   1.601   6.602
 2827SOL    HW2 9381   6.220   1.547   6.752
 2828SOL     OW 9382   1.582   4.083   0.680
 2828SOL    HW1 9383   1.624   4.152   0.738
 2828SOL    HW2 9384   1.550   4.007   0.736
 2829SOL     OW 9385   3.422   4.077   2.019
 2829SOL    HW1 9386   3.390   4.099   1.927
 2829SOL    HW2 9387   3.345   4.052   2.076
 2830SOL     OW 9388   3.217   5.750   4.503
 2830SOL    HW1 9389   3.194   5.762   4.406
 2830SOL    HW2 9390   3.295   5.688   4.510
 2831SOL     OW 9391   6.561   1.605   1.696
 2831SOL    HW1 9392   6.551   1.672   1.623
 2831SOL    HW2 9393   6.658   1.598   1.722
 2832SOL     OW 9394   0.974   3.686   1.972
 2832SOL    HW1 9395   0.928   3.770   2.002
 2832SOL    HW2 9396   0.986   3.625   2.049
 2833SOL     OW 9397   6.680   3.145   3.499
 2833SOL    HW1 9398   6.690   3.168   3.403
 2833SOL    HW2 9399   6.700   3.048   3.513
 2834SOL     OW 9400   3.349   0.629   4.609
 2834SOL    HW1 9401   3.256   0.664   4.619
 2834SOL    HW2 9402   3.414   0.706   4.613
 2835SOL     OW 9403   6.741   1.089   0.046
 2835SOL    HW1 9404   6.741   1.074   0.145
 2835SOL    HW2 9405   6.789   1.015   0.001
 2836SOL     OW 9406   2.947   5.872   1.622
 2836SOL    HW1 9407   2.935   5.945   1.689
 2836SOL    HW2 9408   3.045   5.856   1.608
 2837SOL     OW 9409   5.569   3.669   2.220
 2837SOL    HW1 9410   5.506   3.709   2.287
 2837SOL    HW2 9411   5.535   3.578   2.195
 2838SOL     OW 9412   6.581   3.925   5.916
 2838SOL    HW1 9413   6.674   3.908   5.882
 2838SOL    HW2 9414   6.585   3.950   6.013
 2839SOL     OW 9415   6.010   3.068   6.076
 2839SOL    HW1 9416   5.986   3.104   5.986
 2839SOL    HW2 9417   6.105   3.094   6.097
 2840SOL     OW 9418   5.806   6.636   5.206
 2840SOL    HW1 9419   5.815   6.557   5.267
 2840SOL    HW2 9420   5.896   6.680   5.195
 2841SOL     OW 9421   5.331   3.704   2.673
 2841SOL    HW1 9422   5.287   3.615   2.656
 2841SOL    HW2 9423   5.280   3.753   2.744
 2842SOL     OW 9424   0.528   6.918   3.899
 2842SOL    HW1 9425   0.507   6.826   3.932
 2842SOL    HW2 9426   0.614   6.917   3.848
 2843SOL     OW 9427   1.794   3.136   4.529
 2843SOL    HW1 9428   1.796   3.177   4.621
 2843SOL    HW2 9429   1.717   3.173   4.478
 2844SOL     OW 9430   5.187   3.812   0.563
 2844SOL    HW1 9431   5.278   3.849   0.579
 2844SOL    HW2 9432   5.144   3.858   0.486
 2845SOL     OW 9433   3.524   1.842   1.445
 2845SOL    HW1 9434   3.506   1.933   1.409
 2845SOL    HW2 9435   3.599   1.846   1.510
 2846SOL     OW 9436   5.034   6.634   6.685
 2846SOL    HW1 9437   5.018   6.732   6.698
 2846SOL    HW2 9438   4.966   6.581   6.736
 2847SOL     OW 9439   5.183   4.780   2.015
 2847SOL    HW1 9440   5.166   4.846   1.942
 2847SOL    HW2 9441   5.256   4.814   2.074
 2848SOL     OW 9442   0.229   3.751   6.946
 2848SOL    HW1 9443   0.233   3.659   6.984
 2848SOL    HW2 9444   0.178   3.810   7.008
 2849SOL     OW 9445   5.597   0.410   1.603
 2849SOL    HW1 9446   5.542   0.329   1.583
 2849SOL    HW2 9447   5.550   0.492   1.571
 2850SOL     OW 9448   0.774   1.152   1.343
 2850SOL    HW1 9449   0.683   1.121   1.371
 2850SOL    HW2 9450   0.828   1.072   1.316
 2851SOL     OW 9451   3.604   3.483   1.793
 2851SOL    HW1 9452   3.619   3.448   1.700
 2851SOL    HW2 9453   3.524   3.438   1.833
 2852SOL     OW 9454   0.323   5.858   5.163
 2852SOL    HW1 9455   0.406   5.912   5.177
 2852SOL    HW2 9456   0.322   5.823   5.069
 2853SOL     OW 9457   0.596   4.157   4.912
 2853SOL    HW1 9458   0.689   4.166   4.947
 2853SOL    HW2 9459   0.554   4.247   4.903
 2854SOL     OW 9460   3.173   0.370   6.722
 2854SOL    HW1 9461   3.256   0.426   6.727
 2854SOL    HW2 9462   3.165   0.314   6.805
 2855SOL     OW 9463   2.058   1.855   4.516
 2855SOL    HW1 9464   2.022   1.924   4.454
 2855SOL    HW2 9465   2.148   1.882   4.548
 2856SOL     OW 9466   1.445   5.877   4.864
 2856SOL    HW1 9467   1.380   5.824   4.919
 2856SOL    HW2 9468   1.537   5.840   4.875
 2857SOL     OW 9469   0.067   4.297   0.761
 2857SOL    HW1 9470   0.046   4.390   0.793
 2857SOL    HW2 9471   0.136   4.302   0.689
 2858SOL     OW 9472   5.662   4.483   3.387
 2858SOL    HW1 9473   5.608   4.425   3.326
 2858SOL    HW2 9474   5.759   4.474   3.365
 2859SOL     OW 9475   6.315   4.523   1.718
 2859SOL    HW1 9476   6.393   4.514   1.655
 2859SOL    HW2 9477   6.292   4.620   1.728
 2860SOL     OW 9478   1.530   6.572   3.482
 2860SOL    HW1 9479   1.626   6.582   3.507
 2860SOL    HW2 9480   1.472   6.596   3.560
 2861SOL     OW 9481   5.275   4.200   5.388
 2861SOL    HW1 9482   5.336   4.259   5.334
 2861SOL    HW2 9483   5.219   4.257   5.448
 2862SOL     OW 9484   4.270   1.042   7.015
 2862SOL    HW1 9485   4.288   0.984   6.935
 2862SOL    HW2 9486   4.217   0.990   0.059
 2863SOL     OW 9487   5.555   1.827   5.957
 2863SOL    HW1 9488   5.569   1.835   6.055
 2863SOL    HW2 9489   5.635   1.863   5.908
 2864SOL     OW 9490   4.267   4.046   1.163
 2864SOL    HW1 9491   4.262   4.099   1.079
 2864SOL    HW2 9492   4.242   3.951   1.145
 2865SOL     OW 9493   5.833   4.862   6.075
 2865SOL    HW1 9494   5.925   4.888   6.101
 2865SOL    HW2 9495   5.800   4.921   6.002
 2866SOL     OW 9496   3.873   5.065   1.112
 2866SOL    HW1 9497   3.852   5.029   1.022
 2866SOL    HW2 9498   3.962   5.110   1.111
 2867SOL     OW 9499   0.050   6.210   2.721
 2867SOL    HW1 9500   0.130   6.150   2.722
 2867SOL    HW2 9501   0.070   6.290   2.664
 2868SOL     OW 9502   6.904   0.038   5.560
 2868SOL    HW1 9503   6.999   0.008   5.567
 2868SOL    HW2 9504   6.852   0.004   5.639
 2869SOL     OW 9505   5.674   4.843   5.547
 2869SOL    HW1 9506   5.668   4.743   5.552
 2869SOL    HW2 9507   5.768   4.872   5.568
 2870SOL     OW 9508   0.724   1.348   1.517
 2870SOL    HW1 9509   0.783   1.300   1.452
 2870SOL    HW2 9510   0.748   1.320   1.610
 2871SOL     OW 9511   4.916   1.431   3.444
 2871SOL    HW1 9512   4.938   1.364   3.515
 2871SOL    HW2 9513   4.983   1.425   3.370
 2872SOL     OW 9514   3.315   1.821   2.465
 2872SOL    HW1 9515   3.296   1.911   2.428
 2872SOL    HW2 9516   3.265   1.752   2.413
 2873SOL     OW 9517   0.813   6.779   2.840
 2873SOL    HW1 9518   0.896   6.830   2.818
 2873SOL    HW2 9519   0.761   6.764   2.756
 2874SOL     OW 9520   2.237   1.338   3.268
 2874SOL    HW1 9521   2.209   1.433   3.252
 2874SOL    HW2 9522   2.170   1.277   3.225
 2875SOL     OW 9523   2.303   0.482   2.489
 2875SOL    HW1 9524   2.212   0.522   2.498
 2875SOL    HW2 9525   2.329   0.439   2.576
 2876SOL     OW 9526   0.713   6.610   0.739
 2876SOL    HW1 9527   0.762   6.523   0.740
 2876SOL    HW2 9528   0.667   6.623   0.827
 2877SOL     OW 9529   1.864   3.175   5.685
 2877SOL    HW1 9530   1.891   3.170   5.781
 2877SOL    HW2 9531   1.829   3.267   5.666
 2878SOL     OW 9532   3.085   3.058   4.657
 2878SOL    HW1 9533   3.036   3.044   4.571
 2878SOL    HW2 9534   3.165   2.997   4.659
 2879SOL     OW 9535   5.308   5.234   0.338
 2879SOL    HW1 9536   5.300   5.269   0.432
 2879SOL    HW2 9537   5.223   5.251   0.289
 2880SOL     OW 9538   1.447   2.171   2.913
 2880SOL    HW1 9539   1.410   2.079   2.928
 2880SOL    HW2 9540   1.399   2.214   2.836
 2881SOL     OW 9541   5.224   5.008   0.606
 2881SOL    HW1 9542   5.151   4.973   0.548
 2881SOL    HW2 9543   5.290   4.935   0.625
 2882SOL     OW 9544   4.279   6.511   6.822
 2882SOL    HW1 9545   4.329   6.542   6.741
 2882SOL    HW2 9546   4.180   6.521   6.806
 2883SOL     OW 9547   5.666   5.969   3.744
 2883SOL    HW1 9548   5.575   5.951   3.706
 2883SOL    HW2 9549   5.658   5.996   3.840
 2884SOL     OW 9550   6.281   5.533   3.490
 2884SOL    HW1 9551   6.191   5.489   3.498
 2884SOL    HW2 9552   6.298   5.557   3.395
 2885SOL     OW 9553   0.426   3.396   3.513
 2885SOL    HW1 9554   0.438   3.493   3.493
 2885SOL    HW2 9555   0.514   3.350   3.510
 2886SOL     OW 9556   2.385   4.425   4.949
 2886SOL    HW1 9557   2.404   4.494   4.879
 2886SOL    HW2 9558   2.396   4.333   4.910
 2887SOL     OW 9559   7.006   5.550   2.861
 2887SOL    HW1 9560   6.966   5.613   2.926
 2887SOL    HW2 9561   6.934   5.500   2.813
 2888SOL     OW 9562   4.626   6.484   6.964
 2888SOL    HW1 9563   4.657   6.393   6.995
 2888SOL    HW2 9564   4.541   6.508   7.010
 2889SOL     OW 9565   3.751   6.103   4.416
 2889SOL    HW1 9566   3.744   6.067   4.323
 2889SOL    HW2 9567   3.669   6.077   4.467
 2890SOL     OW 9568   1.765   2.511   6.944
 2890SOL    HW1 9569   1.722   2.442   7.002
 2890SOL    HW2 9570   1.709   2.594   6.943
 2891SOL     OW 9571   1.253   1.287   5.158
 2891SOL    HW1 9572   1.180   1.222   5.179
 2891SOL    HW2 9573   1.236   1.327   5.067
 2892SOL     OW 9574   5.379   4.189   2.155
 2892SOL    HW1 9575   5.346   4.114   2.212
 2892SOL    HW2 9576   5.366   4.276   2.203
 2893SOL     OW 9577   6.975   5.017   4.880
 2893SOL    HW1 9578   6.944   5.103   4.921
 2893SOL    HW2 9579   0.034   5.035   4.825
 2894SOL     OW 9580   1.473   5.357   1.028
 2894SOL    HW1 9581   1.407   5.286   1.006
 2894SOL    HW2 9582   1.433   5.447   1.009
 2895SOL     OW 9583   4.765   6.859   6.090
 2895SOL    HW1 9584   4.732   6.801   6.164
 2895SOL    HW2 9585   4.695   6.865   6.019
 2896SOL     OW 9586   6.275   0.480   5.128
 2896SOL    HW1 9587   6.351   0.508   5.188
 2896SOL    HW2 9588   6.209   0.428   5.182
 2897SOL     OW 9589   3.850   5.921   3.104
 2897SOL    HW1 9590   3.753   5.941   3.089
 2897SOL    HW2 9591   3.903   6.006   3.095
 2898SOL     OW 9592   5.162   3.072   3.504
 2898SOL    HW1 9593   5.251   3.115   3.490
 2898SOL    HW2 9594   5.175   2.986   3.554
 2899SOL     OW 9595   6.460   2.569   0.789
 2899SOL    HW1 9596   6.540   2.535   0.739
 2899SOL    HW2 9597   6.465   2.538   0.884
 2900SOL     OW 9598   2.620   2.863   5.848
 2900SOL    HW1 9599   2.662   2.934   5.791
 2900SOL    HW2 9600   2.656   2.773   5.821
 2901SOL     OW 9601   1.506   3.872   1.995
 2901SOL    HW1 9602   1.416   3.901   2.028
 2901SOL    HW2 9603   1.499   3.846   1.899
 2902SOL     OW 9604   5.801   5.902   3.526
 2902SOL    HW1 9605   5.762   5.955   3.602
 2902SOL    HW2 9606   5.795   5.956   3.442
 2903SOL     OW 9607   0.422   5.146   0.750
 2903SOL    HW1 9608   0.457   5.189   0.667
 2903SOL    HW2 9609   0.333   5.105   0.731
 2904SOL     OW 9610   2.838   4.889   4.965
 2904SOL    HW1 9611   2.760   4.950   4.979
 2904SOL    HW2 9612   2.831   4.811   5.026
 2905SOL     OW 9613   0.775   5.021   1.561
 2905SOL    HW1 9614   0.770   4.932   1.605
 2905SOL    HW2 9615   0.828   5.084   1.619
 2906SOL     OW 9616   0.140   6.217   6.033
 2906SOL    HW1 9617   0.096   6.134   6.000
 2906SOL    HW2 9618   0.238   6.212   6.018
 2907SOL     OW 9619   6.891   0.899   5.343
 2907SOL    HW1 9620   6.969   0.863   5.395
 2907SOL    HW2 9621   6.925   0.964   5.274
 2908SOL     OW 9622   4.151   6.748   3.932
 2908SOL    HW1 9623   4.197   6.721   3.847
 2908SOL    HW2 9624   4.099   6.670   3.968
 2909SOL     OW 9625   6.861   0.100   1.435
 2909SOL    HW1 9626   6.865   0.111   1.336
 2909SOL    HW2 9627   6.889   0.007   1.459
 2910SOL     OW 9628   1.278   0.925   4.162
 2910SOL    HW1 9629   1.285   0.907   4.260
 2910SOL    HW2 9630   1.288   0.839   4.112
 2911SOL     OW 9631   0.077   3.948   4.595
 2911SOL    HW1 9632   7.001   3.937   4.589
 2911SOL    HW2 9633   0.117   3.941   4.504
 2912SOL     OW 9634   0.632   1.648   2.161
 2912SOL    HW1 9635   0.569   1.646   2.239
 2912SOL    HW2 9636   0.602   1.717   2.095
 2913SOL     OW 9637   0.775   6.886   3.794
 2913SOL    HW1 9638   0.739   6.890   3.701
 2913SOL    HW2 9639   0.868   6.924   3.796
 2914SOL     OW 9640   3.640   4.203   1.412
 2914SOL    HW1 9641   3.596   4.268   1.474
 2914SOL    HW2 9642   3.738   4.200   1.430
 2915SOL     OW 9643   1.782   1.071   4.124
 2915SOL    HW1 9644   1.861   1.087   4.183
 2915SOL    HW2 9645   1.709   1.028   4.177
 2916SOL     OW 9646   0.769   5.342   6.498
 2916SOL    HW1 9647   0.712   5.415   6.535
 2916SOL    HW2 9648   0.758   5.259   6.553
 2917SOL     OW 9649   1.927   0.635   3.310
 2917SOL    HW1 9650   1.996   0.681   3.255
 2917SOL    HW2 9651   1.837   0.644   3.266
 2918SOL     OW 9652   5.214   2.424   1.509
 2918SOL    HW1 9653   5.260   2.491   1.568
 2918SOL    HW2 9654   5.126   2.398   1.549
 2919SOL     OW 9655   0.911   6.329   4.729
 2919SOL    HW1 9656   1.005   6.360   4.740
 2919SOL    HW2 9657   0.850   6.408   4.724
 2920SOL     OW 9658   2.795   2.605   1.722
 2920SOL    HW1 9659   2.854   2.648   1.654
 2920SOL    HW2 9660   2.845   2.532   1.768
 2921SOL     OW 9661   0.720   6.182   3.467
 2921SOL    HW1 9662   0.794   6.118   3.445
 2921SOL    HW2 9663   0.736   6.269   3.419
 2922SOL     OW 9664   3.621   5.197   3.443
 2922SOL    HW1 9665   3.599   5.264   3.373
 2922SOL    HW2 9666   3.595   5.232   3.533
 2923SOL     OW 9667   1.630   5.727   4.478
 2923SOL    HW1 9668   1.564   5.779   4.531
 2923SOL    HW2 9669   1.631   5.759   4.384
 2924SOL     OW 9670   5.346   1.194   6.512
 2924SOL    HW1 9671   5.378   1.286   6.537
 2924SOL    HW2 9672   5.410   1.126   6.546
 2925SOL     OW 9673   5.934   6.649   4.784
 2925SOL    HW1 9674   5.890   6.668   4.872
 2925SOL    HW2 9675   5.995   6.724   4.760
 2926SOL     OW 9676   6.324   2.772   4.791
 2926SOL    HW1 9677   6.412   2.807   4.759
 2926SOL    HW2 9678   6.325   2.767   4.891
 2927SOL     OW 9679   1.357   2.005   2.629
 2927SOL    HW1 9680   1.395   1.988   2.720
 2927SOL    HW2 9681   1.340   2.103   2.618
 2928SOL     OW 9682   5.361   4.170   0.568
 2928SOL    HW1 9683   5.367   4.072   0.587
 2928SOL    HW2 9684   5.271   4.204   0.593
 2929SOL     OW 9685   2.004   1.693   3.440
 2929SOL    HW1 9686   2.039   1.657   3.526
 2929SOL    HW2 9687   2.054   1.652   3.364
 2930SOL     OW 9688   0.750   3.470   4.208
 2930SOL    HW1 9689   0.727   3.521   4.291
 2930SOL    HW2 9690   0.825   3.407   4.228
 2931SOL     OW 9691   6.071   4.514   6.372
 2931SOL    HW1 9692   6.068   4.613   6.360
 2931SOL    HW2 9693   6.032   4.490   6.462
 2932SOL     OW 9694   6.502   5.649   0.797
 2932SOL    HW1 9695   6.404   5.633   0.796
 2932SOL    HW2 9696   6.526   5.704   0.878
 2933SOL     OW 9697   0.796   6.981   7.019
 2933SOL    HW1 9698   0.875   6.960   6.962
 2933SOL    HW2 9699   0.748   0.037   6.980
 2934SOL     OW 9700   5.596   5.091   1.303
 2934SOL    HW1 9701   5.549   5.160   1.249
 2934SOL    HW2 9702   5.550   5.079   1.391
 2935SOL     OW 9703   0.583   3.816   5.576
 2935SOL    HW1 9704   0.594   3.826   5.675
 2935SOL    HW2 9705   0.647   3.746   5.543
 2936SOL     OW 9706   4.081   6.453   1.960
 2936SOL    HW1 9707   4.124   6.532   1.916
 2936SOL    HW2 9708   3.990   6.477   1.991
 2937SOL     OW 9709   6.025   3.710   3.254
 2937SOL    HW1 9710   5.999   3.765   3.174
 2937SOL    HW2 9711   6.036   3.615   3.227
 2938SOL     OW 9712   0.615   5.055   0.250
 2938SOL    HW1 9713   0.643   4.976   0.303
 2938SOL    HW2 9714   0.539   5.030   0.190
 2939SOL     OW 9715   6.597   6.381   1.768
 2939SOL    HW1 9716   6.681   6.344   1.809
 2939SOL    HW2 9717   6.565   6.318   1.697
 2940SOL     OW 9718   4.494   6.565   4.085
 2940SOL    HW1 9719   4.535   6.609   4.005
 2940SOL    HW2 9720   4.505   6.626   4.165
 2941SOL     OW 9721   2.876   4.749   2.957
 2941SOL    HW1 9722   2.943   4.777   3.026
 2941SOL    HW2 9723   2.920   4.746   2.867
 2942SOL     OW 9724   3.521   2.290   1.644
 2942SOL    HW1 9725   3.447   2.357   1.646
 2942SOL    HW2 9726   3.591   2.314   1.712
 2943SOL     OW 9727   0.383   3.981   3.565
 2943SOL    HW1 9728   0.453   3.978   3.636
 2943SOL    HW2 9729   0.313   3.911   3.583
 2944SOL     OW 9730   1.034   6.114   3.228
 2944SOL    HW1 9731   1.131   6.091   3.226
 2944SOL    HW2 9732   0.982   6.038   3.267
 2945SOL     OW 9733   5.901   3.386   1.172
 2945SOL    HW1 9734   5.828   3.398   1.105
 2945SOL    HW2 9735   5.982   3.437   1.143
 2946SOL     OW 9736   3.446   3.374   4.349
 2946SOL    HW1 9737   3.470   3.319   4.269
 2946SOL    HW2 9738   3.365   3.429   4.329
 2947SOL     OW 9739   6.480   5.376   0.108
 2947SOL    HW1 9740   6.491   5.381   0.009
 2947SOL    HW2 9741   6.529   5.452   0.151
 2948SOL     OW 9742   6.531   4.171   1.065
 2948SOL    HW1 9743   6.446   4.129   1.097
 2948SOL    HW2 9744   6.607   4.139   1.121
 2949SOL     OW 9745   1.540   6.273   0.745
 2949SOL    HW1 9746   1.458   6.290   0.690
 2949SOL    HW2 9747   1.515   6.229   0.831
 2950SOL     OW 9748   5.969   5.343   2.529
 2950SOL    HW1 9749   5.952   5.245   2.537
 2950SOL    HW2 9750   5.906   5.382   2.461
 2951SOL     OW 9751   0.773   2.284   1.268
 2951SOL    HW1 9752   0.699   2.346   1.295
 2951SOL    HW2 9753   0.836   2.273   1.344
 2952SOL     OW 9754   0.219   1.323   3.763
 2952SOL    HW1 9755   0.251   1.311   3.857
 2952SOL    HW2 9756   0.161   1.245   3.737
 2953SOL     OW 9757   1.473   6.038   3.058
 2953SOL    HW1 9758   1.465   6.135   3.037
 2953SOL    HW2 9759   1.400   6.012   3.123
 2954SOL     OW 9760   0.852   4.186   6.299
 2954SOL    HW1 9761   0.885   4.272   6.259
 2954SOL    HW2 9762   0.887   4.109   6.246
 2955SOL     OW 9763   1.709   4.711   6.692
 2955SOL    HW1 9764   1.777   4.641   6.710
 2955SOL    HW2 9765   1.671   4.744   6.779
 2956SOL     OW 9766   5.393   3.865   4.612
 2956SOL    HW1 9767   5.315   3.858   4.675
 2956SOL    HW2 9768   5.453   3.939   4.642
 2957SOL     OW 9769   1.601   5.669   2.413
 2957SOL    HW1 9770   1.676   5.735   2.406
 2957SOL    HW2 9771   1.563   5.672   2.506
 2958SOL     OW 9772   1.574   4.678   1.952
 2958SOL    HW1 9773   1.672   4.680   1.973
 2958SOL    HW2 9774   1.560   4.655   1.856
 2959SOL     OW 9775   6.721   4.351   4.068
 2959SOL    HW1 9776   6.781   4.274   4.090
 2959SOL    HW2 9777   6.742   4.384   3.976
 2960SOL     OW 9778   4.479   6.572   1.209
 2960SOL    HW1 9779   4.394   6.523   1.189
 2960SOL    HW2 9780   4.472   6.614   1.300
 2961SOL     OW 9781   6.040   2.422   1.633
 2961SOL    HW1 9782   6.063   2.373   1.549
 2961SOL    HW2 9783   5.955   2.385   1.670
 2962SOL     OW 9784   0.344   0.112   3.791
 2962SOL    HW1 9785   0.411   0.041   3.812
 2962SOL    HW2 9786   0.389   0.202   3.797
 2963SOL     OW 9787   2.066   0.868   5.720
 2963SOL    HW1 9788   2.028   0.937   5.782
 2963SOL    HW2 9789   2.163   0.887   5.704
 2964SOL     OW 9790   1.441   6.982   6.464
 2964SOL    HW1 9791   1.454   0.053   6.494
 2964SOL    HW2 9792   1.344   6.968   6.443
 2965SOL     OW 9793   5.845   0.609   6.300
 2965SOL    HW1 9794   5.852   0.509   6.304
 2965SOL    HW2 9795   5.836   0.637   6.204
 2966SOL     OW 9796   3.828   5.586   2.890
 2966SOL    HW1 9797   3.828   5.588   2.990
 2966SOL    HW2 9798   3.790   5.672   2.856
 2967SOL     OW 9799   5.662   6.728   4.996
 2967SOL    HW1 9800   5.582   6.673   4.972
 2967SOL    HW2 9801   5.702   6.694   5.081
 2968SOL     OW 9802   1.597   4.091   1.480
 2968SOL    HW1 9803   1.508   4.108   1.437
 2968SOL    HW2 9804   1.642   4.178   1.499
 2969SOL     OW 9805   4.825   3.034   4.528
 2969SOL    HW1 9806   4.789   2.944   4.550
 2969SOL    HW2 9807   4.908   3.051   4.583
 2970SOL     OW 9808   2.542   2.731   6.081
 2970SOL    HW1 9809   2.579   2.778   6.002
 2970SOL    HW2 9810   2.461   2.780   6.114
 2971SOL     OW 9811   4.569   3.821   6.536
 2971SOL    HW1 9812   4.544   3.914   6.563
 2971SOL    HW2 9813   4.634   3.824   6.461
 2972SOL     OW 9814   0.351   5.716   6.589
 2972SOL    HW1 9815   0.432   5.774   6.600
 2972SOL    HW2 9816   0.333   5.701   6.492
 2973SOL     OW 9817   5.413   0.703   3.952
 2973SOL    HW1 9818   5.330   0.649   3.946
 2973SOL    HW2 9819   5.390   0.800   3.955
 2974SOL     OW 9820   5.685   6.147   2.328
 2974SOL    HW1 9821   5.638   6.162   2.241
 2974SOL    HW2 9822   5.771   6.099   2.312
 2975SOL     OW 9823   6.893   3.293   4.825
 2975SOL    HW1 9824   6.917   3.361   4.896
 2975SOL    HW2 9825   6.976   3.245   4.796
 2976SOL     OW 9826   3.733   0.668   1.660
 2976SOL    HW1 9827   3.749   0.710   1.749
 2976SOL    HW2 9828   3.648   0.704   1.621
 2977SOL     OW 9829   1.680   1.471   1.745
 2977SOL    HW1 9830   1.726   1.428   1.667
 2977SOL    HW2 9831   1.729   1.448   1.829
 2978SOL     OW 9832   3.455   5.824   0.661
 2978SOL    HW1 9833   3.406   5.802   0.745
 2978SOL    HW2 9834   3.391   5.826   0.584
 2979SOL     OW 9835   2.859   1.114   5.483
 2979SOL    HW1 9836   2.805   1.196   5.459
 2979SOL    HW2 9837   2.837   1.087   5.577
 2980SOL     OW 9838   3.478   2.891   3.948
 2980SOL    HW1 9839   3.379   2.886   3.965
 2980SOL    HW2 9840   3.525   2.911   4.033
 2981SOL     OW 9841   3.293   2.129   1.676
 2981SOL    HW1 9842   3.301   2.033   1.650
 2981SOL    HW2 9843   3.384   2.170   1.681
 2982SOL     OW 9844   1.504   0.835   0.974
 2982SOL    HW1 9845   1.496   0.932   0.996
 2982SOL    HW2 9846   1.449   0.781   1.038
 2983SOL     OW 9847   6.563   2.793   6.393
 2983SOL    HW1 9848   6.522   2.845   6.467
 2983SOL    HW2 9849   6.553   2.695   6.411
 2984SOL     OW 9850   0.450   6.229   1.319
 2984SOL    HW1 9851   0.405   6.140   1.305
 2984SOL    HW2 9852   0.386   6.292   1.361
 2985SOL     OW 9853   6.351   0.660   5.578
 2985SOL    HW1 9854   6.381   0.596   5.648
 2985SOL    HW2 9855   6.343   0.751   5.618
 2986SOL     OW 9856   3.184   3.321   2.374
 2986SOL    HW1 9857   3.224   3.242   2.421
 2986SOL    HW2 9858   3.120   3.289   2.304
 2987SOL     OW 9859   2.415   5.629   4.761
 2987SOL    HW1 9860   2.345   5.657   4.826
 2987SOL    HW2 9861   2.405   5.680   4.676
 2988SOL     OW 9862   0.201   1.719   6.435
 2988SOL    HW1 9863   0.158   1.629   6.432
 2988SOL    HW2 9864   0.178   1.765   6.521
 2989SOL     OW 9865   5.866   3.574   5.688
 2989SOL    HW1 9866   5.793   3.602   5.626
 2989SOL    HW2 9867   5.949   3.557   5.635
 2990SOL     OW 9868   5.252   1.044   5.366
 2990SOL    HW1 9869   5.213   1.061   5.457
 2990SOL    HW2 9870   5.237   1.124   5.308
 2991SOL     OW 9871   6.546   2.944   6.875
 2991SOL    HW1 9872   6.524   3.014   6.943
 2991SOL    HW2 9873   6.581   2.987   6.792
 2992SOL     OW 9874   0.927   4.070   5.445
 2992SOL    HW1 9875   0.988   4.107   5.375
 2992SOL    HW2 9876   0.850   4.024   5.401
 2993SOL     OW 9877   3.399   5.075   0.345
 2993SOL    HW1 9878   3.419   5.009   0.418
 2993SOL    HW2 9879   3.310   5.054   0.305
 2994SOL     OW 9880   2.368   5.016   4.963
 2994SOL    HW1 9881   2.286   5.045   5.013
 2994SOL    HW2 9882   2.342   4.949   4.893
 2995SOL     OW 9883   4.838   0.300   1.620
 2995SOL    HW1 9884   4.895   0.383   1.618
 2995SOL    HW2 9885   4.767   0.311   1.690
 2996SOL     OW 9886   6.690   1.011   3.822
 2996SOL    HW1 9887   6.773   1.058   3.793
 2996SOL    HW2 9888   6.633   0.991   3.742
 2997SOL     OW 9889   4.404   5.773   4.512
 2997SOL    HW1 9890   4.411   5.675   4.527
 2997SOL    HW2 9891   4.434   5.822   4.594
 2998SOL     OW 9892   2.667   0.522   2.058
 2998SOL    HW1 9893   2.685   0.619   2.038
 2998SOL    HW2 9894   2.731   0.489   2.127
 2999SOL     OW 9895   0.975   4.593   0.406
 2999SOL    HW1 9896   0.949   4.511   0.455
 2999SOL    HW2 9897   1.075   4.596   0.397
 3000SOL     OW 9898   2.402   3.694   5.565
 3000SOL    HW1 9899   2.374   3.635   5.640
 3000SOL    HW2 9900   2.323   3.718   5.510
 3001SOL     OW 9901   4.143   0.765   6.277
 3001SOL    HW1 9902   4.118   0.780   6.372
 3001SOL    HW2 9903   4.061   0.742   6.224
 3002SOL     OW 9904   1.068   1.963   2.383
 3002SOL    HW1 9905   1.124   1.881   2.380
 3002SOL    HW2 9906   1.095   2.019   2.461
 3003SOL     OW 9907   0.662   5.967   0.490
 3003SOL    HW1 9908   0.706   5.926   0.410
 3003SOL    HW2 9909   0.589   5.906   0.523
 3004SOL     OW 9910   3.274   6.824   3.932
 3004SOL    HW1 9911   3.236   6.861   3.847
 3004SOL    HW2 9912   3.316   6.898   3.985
 3005SOL     OW 9913   2.700   1.987   1.011
 3005SOL    HW1 9914   2.614   2.025   1.045
 3005SOL    HW2 9915   2.777   2.023   1.065
 3006SOL     OW 9916   5.606   1.357   5.512
 3006SOL    HW1 9917   5.618   1.269   5.465
 3006SOL    HW2 9918   5.554   1.419   5.453
 3007SOL     OW 9919   6.402   5.868   5.887
 3007SOL    HW1 9920   6.394   5.858   5.788
 3007SOL    HW2 9921   6.474   5.934   5.908
 3008SOL     OW 9922   5.202   4.092   5.759
 3008SOL    HW1 9923   5.199   4.156   5.836
 3008SOL    HW2 9924   5.113   4.047   5.749
 3009SOL     OW 9925   5.627   3.222   2.203
 3009SOL    HW1 9926   5.599   3.178   2.117
 3009SOL    HW2 9927   5.707   3.175   2.240
 3010SOL     OW 9928   4.876   5.138   1.903
 3010SOL    HW1 9929   4.789   5.174   1.871
 3010SOL    HW2 9930   4.861   5.052   1.952
 3011SOL     OW 9931   5.812   6.900   0.195
 3011SOL    HW1 9932   5.868   6.899   0.112
 3011SOL    HW2 9933   5.855   6.842   0.264
 3012SOL     OW 9934   2.381   1.366   4.661
 3012SOL    HW1 9935   2.456   1.414   4.705
 3012SOL    HW2 9936   2.357   1.285   4.714
 3013SOL     OW 9937   0.993   5.123   5.326
 3013SOL    HW1 9938   0.967   5.198   5.386
 3013SOL    HW2 9939   1.077   5.147   5.277
 3014SOL     OW 9940   4.028   0.408   6.999
 3014SOL    HW1 9941   4.048   0.501   6.968
 3014SOL    HW2 9942   4.091   0.344   6.953
 3015SOL     OW 9943   2.168   0.015   5.754
 3015SOL    HW1 9944   2.132   0.107   5.771
 3015SOL    HW2 9945   2.242   7.018   5.818
 3016SOL     OW 9946   2.834   0.705   3.992
 3016SOL    HW1 9947   2.877   0.795   4.001
 3016SOL    HW2 9948   2.734   0.717   3.989
 3017SOL     OW 9949   0.952   5.975   0.069
 3017SOL    HW1 9950   0.895   6.052   0.042
 3017SOL    HW2 9951   0.924   5.893   0.019
 3018SOL     OW 9952   2.908   2.552   1.442
 3018SOL    HW1 9953   2.947   2.460   1.450
 3018SOL    HW2 9954   2.838   2.553   1.372
 3019SOL     OW 9955   1.300   0.683   5.408
 3019SOL    HW1 9956   1.225   0.632   5.451
 3019SOL    HW2 9957   1.316   0.646   5.316
 3020SOL     OW 9958   4.708   4.724   0.305
 3020SOL    HW1 9959   4.663   4.640   0.276
 3020SOL    HW2 9960   4.793   4.737   0.254
 3021SOL     OW 9961   4.580   6.298   4.458
 3021SOL    HW1 9962   4.667   6.297   4.508
 3021SOL    HW2 9963   4.590   6.243   4.375
 3022SOL     OW 9964   4.316   6.915   4.095
 3022SOL    HW1 9965   4.416   6.908   4.097
 3022SOL    HW2 9966   4.281   6.878   4.009
 3023SOL     OW 9967   5.562   4.758   5.268
 3023SOL    HW1 9968   5.491   4.737   5.335
 3023SOL    HW2 9969   5.522   4.761   5.176
 3024SOL     OW 9970   6.752   1.332   0.281
 3024SOL    HW1 9971   6.829   1.348   0.219
 3024SOL    HW2 9972   6.785   1.330   0.375
 3025SOL     OW 9973   4.349   5.338   0.935
 3025SOL    HW1 9974   4.421   5.389   0.983
 3025SOL    HW2 9975   4.375   5.328   0.839
 3026SOL     OW 9976   0.366   0.315   2.533
 3026SOL    HW1 9977   0.427   0.326   2.454
 3026SOL    HW2 9978   0.325   0.224   2.530
 3027SOL     OW 9979   4.083   6.891   1.001
 3027SOL    HW1 9980   4.003   6.947   1.022
 3027SOL    HW2 9981   4.058   6.823   0.932
 3028SOL     OW 9982   3.757   3.295   4.778
 3028SOL    HW1 9983   3.806   3.358   4.838
 3028SOL    HW2 9984   3.698   3.346   4.717
 3029SOL     OW 9985   0.412   2.678   5.150
 3029SOL    HW1 9986   0.464   2.693   5.066
 3029SOL    HW2 9987   0.392   2.580   5.159
 3030SOL     OW 9988   0.887   2.848   6.173
 3030SOL    HW1 9989   0.933   2.847   6.084
 3030SOL    HW2 9990   0.837   2.934   6.184
 3031SOL     OW 9991   0.752   4.781   6.843
 3031SOL    HW1 9992   0.734   4.878   6.859
 3031SOL    HW2 9993   0.679   4.726   6.883
 3032SOL     OW 9994   3.768   6.944   3.783
 3032SOL    HW1 9995   3.775   0.017   3.752
 3032SOL    HW2 9996   3.731   6.942   3.875
 3033SOL     OW 9997   2.123   1.474   6.571
 3033SOL    HW1 9998   2.061   1.481   6.492
 3033SOL    HW2 9999   2.103   1.548   6.635
 3034SOL     OW10000   5.357   3.627   3.512
 3034SOL    HW110001   5.418   3.696   3.474
 3034SOL    HW210002   5.370   3.620   3.611
 3035SOL     OW10003   0.044   3.382   6.931
 3035SOL    HW110004   6.981   3.422   6.962
 3035SOL    HW210005   0.064   3.416   6.839
 3036SOL     OW10006   3.222   2.201   6.402
 3036SOL    HW110007   3.269   2.245   6.479
 3036SOL    HW210008   3.280   2.128   6.366
 3037SOL     OW10009   0.459   5.039   6.238
 3037SOL    HW110010   0.557   5.026   6.223
 3037SOL    HW210011   0.427   5.115   6.181
 3038SOL     OW10012   6.148   4.809   5.400
 3038SOL    HW110013   6.170   4.714   5.378
 3038SOL    HW210014   6.143   4.821   5.499
 3039SOL     OW10015   5.588   3.248   6.221
 3039SOL    HW110016   5.517   3.221   6.156
 3039SOL    HW210017   5.638   3.327   6.185
 3040SOL     OW10018   4.082   6.517   6.438
 3040SOL    HW110019   4.046   6.581   6.370
 3040SOL    HW210020   4.086   6.425   6.398
 3041SOL     OW10021   2.231   5.326   6.945
 3041SOL    HW110022   2.152   5.346   6.889
 3041SOL    HW210023   2.267   5.411   6.985
 3042SOL     OW10024   0.091   5.000   4.116
 3042SOL    HW110025   0.123   5.038   4.203
 3042SOL    HW210026   0.042   4.915   4.133
 3043SOL     OW10027   2.989   4.036   1.251
 3043SOL    HW110028   2.961   3.945   1.282
 3043SOL    HW210029   2.931   4.105   1.294
 3044SOL     OW10030   4.156   3.617   4.736
 3044SOL    HW110031   4.106   3.530   4.736
 3044SOL    HW210032   4.236   3.610   4.677
 3045SOL     OW10033   5.338   0.464   2.736
 3045SOL    HW110034   5.367   0.558   2.756
 3045SOL    HW210035   5.243   0.451   2.764
 3046SOL     OW10036   5.906   5.746   0.904
 3046SOL    HW110037   5.826   5.796   0.871
 3046SOL    HW210038   5.946   5.695   0.829
 3047SOL     OW10039   5.932   1.542   4.043
 3047SOL    HW110040   5.942   1.639   4.025
 3047SOL    HW210041   5.853   1.526   4.101
 3048SOL     OW10042   4.294   4.588   1.609
 3048SOL    HW110043   4.218   4.653   1.605
 3048SOL    HW210044   4.324   4.567   1.516
 3049SOL     OW10045   0.199   1.398   2.119
 3049SOL    HW110046   0.195   1.486   2.072
 3049SOL    HW210047   0.252   1.407   2.204
 3050SOL     OW10048   3.875   1.899   6.194
 3050SOL    HW110049   3.777   1.884   6.181
 3050SOL    HW210050   3.907   1.846   6.273
 3051SOL     OW10051   2.384   5.179   6.439
 3051SOL    HW110052   2.296   5.145   6.472
 3051SOL    HW210053   2.414   5.124   6.361
 3052SOL     OW10054   5.843   6.309   3.628
 3052SOL    HW110055   5.883   6.324   3.538
 3052SOL    HW210056   5.910   6.265   3.688
 3053SOL     OW10057   0.727   4.963   6.247
 3053SOL    HW110058   0.759   4.904   6.173
 3053SOL    HW210059   0.794   4.962   6.321
 3054SOL     OW10060   6.029   6.810   3.261
 3054SOL    HW110061   5.954   6.869   3.291
 3054SOL    HW210062   6.016   6.718   3.298
 3055SOL     OW10063   5.045   6.679   0.230
 3055SOL    HW110064   4.955   6.721   0.215
 3055SOL    HW210065   5.037   6.610   0.302
 3056SOL     OW10066   4.416   2.185   1.085
 3056SOL    HW110067   4.481   2.242   1.036
 3056SOL    HW210068   4.464   2.112   1.133
 3057SOL     OW10069   6.643   3.544   3.427
 3057SOL    HW110070   6.683   3.499   3.507
 3057SOL    HW210071   6.703   3.617   3.395
 3058SOL     OW10072   0.081   5.032   6.001
 3058SOL    HW110073   0.112   5.104   5.939
 3058SOL    HW210074   0.159   4.975   6.028
 3059SOL     OW10075   1.240   2.818   3.002
 3059SOL    HW110076   1.263   2.906   2.958
 3059SOL    HW210077   1.325   2.771   3.027
 3060SOL     OW10078   5.765   3.734   3.356
 3060SOL    HW110079   5.727   3.663   3.415
 3060SOL    HW210080   5.863   3.721   3.347
 3061SOL     OW10081   5.933   6.612   2.671
 3061SOL    HW110082   5.876   6.665   2.609
 3061SOL    HW210083   5.905   6.630   2.765
 3062SOL     OW10084   3.695   5.128   1.530
 3062SOL    HW110085   3.663   5.140   1.436
 3062SOL    HW210086   3.673   5.036   1.562
 3063SOL     OW10087   6.747   4.559   0.222
 3063SOL    HW110088   6.681   4.521   0.157
 3063SOL    HW210089   6.755   4.498   0.301
 3064SOL     OW10090   4.822   1.887   6.365
 3064SOL    HW110091   4.837   1.950   6.289
 3064SOL    HW210092   4.726   1.890   6.392
 3065SOL     OW10093   5.649   0.908   6.221
 3065SOL    HW110094   5.581   0.980   6.231
 3065SOL    HW210095   5.680   0.879   6.311
 3066SOL     OW10096   5.413   0.344   5.879
 3066SOL    HW110097   5.456   0.256   5.896
 3066SOL    HW210098   5.314   0.335   5.889
 3067SOL     OW10099   1.845   1.689   4.510
 3067SOL    HW110100   1.916   1.758   4.494
 3067SOL    HW210101   1.838   1.629   4.430
 3068SOL     OW10102   6.153   0.154   0.805
 3068SOL    HW110103   6.144   0.057   0.783
 3068SOL    HW210104   6.095   0.207   0.743
 3069SOL     OW10105   5.498   6.178   3.894
 3069SOL    HW110106   5.560   6.172   3.972
 3069SOL    HW210107   5.527   6.253   3.834
 3070SOL     OW10108   2.874   1.049   1.154
 3070SOL    HW110109   2.840   0.957   1.135
 3070SOL    HW210110   2.974   1.048   1.151
 3071SOL     OW10111   5.817   4.676   5.177
 3071SOL    HW110112   5.867   4.597   5.213
 3071SOL    HW210113   5.722   4.672   5.209
 3072SOL     OW10114   1.357   6.674   4.994
 3072SOL    HW110115   1.373   6.718   5.082
 3072SOL    HW210116   1.435   6.615   4.971
 3073SOL     OW10117   6.758   5.491   2.754
 3073SOL    HW110118   6.755   5.591   2.755
 3073SOL    HW210119   6.667   5.455   2.771
 3074SOL     OW10120   3.255   2.787   1.914
 3074SOL    HW110121   3.310   2.817   1.992
 3074SOL    HW210122   3.168   2.836   1.915
 3075SOL     OW10123   3.912   4.902   1.381
 3075SOL    HW110124   3.861   4.963   1.441
 3075SOL    HW210125   3.900   4.931   1.286
 3076SOL     OW10126   1.916   1.894   4.112
 3076SOL    HW110127   1.868   1.935   4.035
 3076SOL    HW210128   1.937   1.965   4.179
 3077SOL     OW10129   6.974   3.495   1.989
 3077SOL    HW110130   7.011   3.423   1.930
 3077SOL    HW210131   6.879   3.474   2.011
 3078SOL     OW10132   6.782   4.166   1.223
 3078SOL    HW110133   6.786   4.258   1.262
 3078SOL    HW210134   6.860   4.153   1.162
 3079SOL     OW10135   0.913   3.999   4.029
 3079SOL    HW110136   0.992   3.960   3.981
 3079SOL    HW210137   0.938   4.088   4.066
 3080SOL     OW10138   3.914   4.649   1.766
 3080SOL    HW110139   3.944   4.554   1.763
 3080SOL    HW210140   3.820   4.653   1.800
 3081SOL     OW10141   2.220   2.807   6.188
 3081SOL    HW110142   2.240   2.805   6.286
 3081SOL    HW210143   2.249   2.894   6.150
 3082SOL     OW10144   5.618   4.097   5.092
 3082SOL    HW110145   5.542   4.043   5.057
 3082SOL    HW210146   5.632   4.177   5.034
 3083SOL     OW10147   4.145   5.856   1.290
 3083SOL    HW110148   4.237   5.858   1.251
 3083SOL    HW210149   4.141   5.788   1.363
 3084SOL     OW10150   6.781   5.228   4.164
 3084SOL    HW110151   6.711   5.262   4.101
 3084SOL    HW210152   6.835   5.304   4.200
 3085SOL     OW10153   6.742   5.902   6.921
 3085SOL    HW110154   6.642   5.895   6.923
 3085SOL    HW210155   6.777   5.913   7.014
 3086SOL     OW10156   6.112   6.600   6.471
 3086SOL    HW110157   6.013   6.602   6.459
 3086SOL    HW210158   6.141   6.682   6.521
 3087SOL     OW10159   3.133   0.369   2.143
 3087SOL    HW110160   3.178   0.333   2.225
 3087SOL    HW210161   3.132   0.299   2.072
 3088SOL     OW10162   2.683   3.444   5.310
 3088SOL    HW110163   2.665   3.512   5.381
 3088SOL    HW210164   2.747   3.481   5.244
 3089SOL     OW10165   4.010   6.319   6.688
 3089SOL    HW110166   4.046   6.259   6.617
 3089SOL    HW210167   4.038   6.413   6.669
 3090SOL     OW10168   1.636   2.528   2.532
 3090SOL    HW110169   1.633   2.457   2.462
 3090SOL    HW210170   1.715   2.588   2.517
 3091SOL     OW10171   1.303   2.574   6.943
 3091SOL    HW110172   1.315   2.493   6.886
 3091SOL    HW210173   1.208   2.580   6.973
 3092SOL     OW10174   5.314   1.084   2.978
 3092SOL    HW110175   5.328   1.047   3.070
 3092SOL    HW210176   5.375   1.162   2.963
 3093SOL     OW10177   6.505   5.274   6.534
 3093SOL    HW110178   6.574   5.220   6.581
 3093SOL    HW210179   6.547   5.323   6.457
 3094SOL     OW10180   2.149   1.478   6.146
 3094SOL    HW110181   2.197   1.390   6.146
 3094SOL    HW210182   2.215   1.552   6.160
 3095SOL     OW10183   1.670   4.036   5.222
 3095SOL    HW110184   1.717   3.950   5.200
 3095SOL    HW210185   1.630   4.030   5.313
 3096SOL     OW10186   1.701   2.736   3.920
 3096SOL    HW110187   1.725   2.640   3.931
 3096SOL    HW210188   1.640   2.764   3.995
 3097SOL     OW10189   5.441   2.653   6.017
 3097SOL    HW110190   5.380   2.666   5.939
 3097SOL    HW210191   5.420   2.720   6.088
 3098SOL     OW10192   1.502   3.236   2.289
 3098SOL    HW110193   1.428   3.169   2.293
 3098SOL    HW210194   1.550   3.238   2.376
 3099SOL     OW10195   0.923   6.786   5.409
 3099SOL    HW110196   0.966   6.699   5.385
 3099SOL    HW210197   0.986   6.861   5.391
 3100SOL     OW10198   6.158   4.472   2.449
 3100SOL    HW110199   6.252   4.480   2.482
 3100SOL    HW210200   6.157   4.477   2.349
 3101SOL     OW10201   4.604   0.205   4.625
 3101SOL    HW110202   4.508   0.210   4.598
 3101SOL    HW210203   4.631   0.291   4.669
 3102SOL     OW10204   5.528   4.179   2.514
 3102SOL    HW110205   5.507   4.137   2.603
 3102SOL    HW210206   5.546   4.108   2.447
 3103SOL     OW10207   1.492   1.762   2.256
 3103SOL    HW110208   1.525   1.678   2.301
 3103SOL    HW210209   1.425   1.738   2.186
 3104SOL     OW10210   5.761   1.935   5.835
 3104SOL    HW110211   5.725   2.016   5.788
 3104SOL    HW210212   5.835   1.963   5.897
 3105SOL     OW10213   5.639   4.152   0.578
 3105SOL    HW110214   5.539   4.142   0.576
 3105SOL    HW210215   5.675   4.147   0.485
 3106SOL     OW10216   5.138   1.852   6.393
 3106SOL    HW110217   5.047   1.813   6.409
 3106SOL    HW210218   5.135   1.912   6.314
 3107SOL     OW10219   4.167   2.233   4.723
 3107SOL    HW110220   4.192   2.248   4.819
 3107SOL    HW210221   4.069   2.216   4.716
 3108SOL     OW10222   1.933   4.351   3.500
 3108SOL    HW110223   2.005   4.417   3.523
 3108SOL    HW210224   1.844   4.387   3.528
 3109SOL     OW10225   6.583   5.762   3.131
 3109SOL    HW110226   6.578   5.797   3.225
 3109SOL    HW210227   6.678   5.760   3.100
 3110SOL     OW10228   1.176   6.069   4.587
 3110SOL    HW110229   1.103   6.124   4.546
 3110SOL    HW210230   1.258   6.075   4.530
 3111SOL     OW10231   6.583   4.156   3.857
 3111SOL    HW110232   6.628   4.207   3.931
 3111SOL    HW210233   6.573   4.060   3.885
 3112SOL     OW10234   4.659   0.444   0.395
 3112SOL    HW110235   4.666   0.417   0.299
 3112SOL    HW210236   4.630   0.539   0.400
 3113SOL     OW10237   1.318   0.385   3.517
 3113SOL    HW110238   1.227   0.397   3.557
 3113SOL    HW210239   1.377   0.338   3.583
 3114SOL     OW10240   4.811   6.244   5.481
 3114SOL    HW110241   4.715   6.236   5.506
 3114SOL    HW210242   4.827   6.195   5.395
 3115SOL     OW10243   4.449   5.518   4.589
 3115SOL    HW110244   4.514   5.523   4.665
 3115SOL    HW210245   4.477   5.447   4.525
 3116SOL     OW10246   0.768   1.920   6.587
 3116SOL    HW110247   0.823   1.838   6.598
 3116SOL    HW210248   0.719   1.916   6.500
 3117SOL     OW10249   3.831   6.982   1.106
 3117SOL    HW110250   3.757   6.965   1.170
 3117SOL    HW210251   3.905   0.007   1.152
 3118SOL     OW10252   0.655   2.020   3.215
 3118SOL    HW110253   0.727   1.962   3.177
 3118SOL    HW210254   0.610   2.070   3.141
 3119SOL     OW10255   4.508   6.221   3.784
 3119SOL    HW110256   4.446   6.275   3.840
 3119SOL    HW210257   4.603   6.238   3.813
 3120SOL     OW10258   2.943   6.023   0.320
 3120SOL    HW110259   2.981   6.114   0.338
 3120SOL    HW210260   2.901   5.987   0.403
 3121SOL     OW10261   3.916   2.197   3.481
 3121SOL    HW110262   3.945   2.278   3.533
 3121SOL    HW210263   3.994   2.135   3.470
 3122SOL     OW10264   5.931   3.998   6.187
 3122SOL    HW110265   5.868   3.948   6.247
 3122SOL    HW210266   5.891   4.006   6.096
 3123SOL     OW10267   2.176   2.622   2.541
 3123SOL    HW110268   2.148   2.625   2.637
 3123SOL    HW210269   2.272   2.649   2.533
 3124SOL     OW10270   4.890   6.954   5.460
 3124SOL    HW110271   4.964   6.901   5.500
 3124SOL    HW210272   4.917   6.985   5.369
 3125SOL     OW10273   1.721   1.606   5.151
 3125SOL    HW110274   1.773   1.521   5.161
 3125SOL    HW210275   1.697   1.640   5.242
 3126SOL     OW10276   4.632   4.493   5.752
 3126SOL    HW110277   4.594   4.573   5.798
 3126SOL    HW210278   4.589   4.482   5.662
 3127SOL     OW10279   6.811   1.786   5.560
 3127SOL    HW110280   6.883   1.839   5.515
 3127SOL    HW210281   6.754   1.847   5.615
 3128SOL     OW10282   3.521   0.913   1.079
 3128SOL    HW110283   3.538   0.997   1.131
 3128SOL    HW210284   3.587   0.906   1.004
 3129SOL     OW10285   4.107   4.062   0.526
 3129SOL    HW110286   4.191   4.109   0.551
 3129SOL    HW210287   4.044   4.062   0.604
 3130SOL     OW10288   6.811   6.015   1.844
 3130SOL    HW110289   6.876   5.941   1.825
 3130SOL    HW210290   6.742   5.983   1.909
 3131SOL     OW10291   6.919   2.885   2.660
 3131SOL    HW110292   6.973   2.934   2.728
 3131SOL    HW210293   6.887   2.949   2.590
 3132SOL     OW10294   4.700   4.493   6.987
 3132SOL    HW110295   4.799   4.484   6.971
 3132SOL    HW210296   4.670   4.419   0.024
 3133SOL     OW10297   5.303   6.127   3.506
 3133SOL    HW110298   5.246   6.085   3.436
 3133SOL    HW210299   5.255   6.205   3.547
 3134SOL     OW10300   5.297   4.395   2.956
 3134SOL    HW110301   5.254   4.310   2.984
 3134SOL    HW210302   5.240   4.473   2.984
 3135SOL     OW10303   3.813   0.262   6.564
 3135SOL    HW110304   3.796   0.220   6.654
 3135SOL    HW210305   3.856   0.195   6.504
 3136SOL     OW10306   6.676   6.898   2.661
 3136SOL    HW110307   6.590   6.905   2.612
 3136SOL    HW210308   6.752   6.897   2.596
 3137SOL     OW10309   4.409   5.225   0.262
 3137SOL    HW110310   4.382   5.287   0.335
 3137SOL    HW210311   4.362   5.251   0.177
 3138SOL     OW10312   6.823   6.825   4.606
 3138SOL    HW110313   6.732   6.783   4.597
 3138SOL    HW210314   6.826   6.909   4.553
 3139SOL     OW10315   1.765   5.244   2.010
 3139SOL    HW110316   1.858   5.267   2.038
 3139SOL    HW210317   1.760   5.147   1.985
 3140SOL     OW10318   5.460   5.910   6.874
 3140SOL    HW110319   5.484   5.841   6.942
 3140SOL    HW210320   5.503   5.997   6.898
 3141SOL     OW10321   5.890   1.417   6.838
 3141SOL    HW110322   5.949   1.419   6.758
 3141SOL    HW210323   5.870   1.323   6.863
 3142SOL     OW10324   4.797   1.191   4.046
 3142SOL    HW110325   4.741   1.118   4.008
 3142SOL    HW210326   4.738   1.261   4.086
 3143SOL     OW10327   0.011   1.215   0.543
 3143SOL    HW110328   0.041   1.125   0.577
 3143SOL    HW210329   0.053   1.287   0.599
 3144SOL     OW10330   3.986   4.767   0.100
 3144SOL    HW110331   3.910   4.831   0.094
 3144SOL    HW210332   3.978   4.699   0.027
 3145SOL     OW10333   0.970   5.460   6.307
 3145SOL    HW110334   0.898   5.403   6.266
 3145SOL    HW210335   1.037   5.484   6.237
 3146SOL     OW10336   6.151   2.052   4.361
 3146SOL    HW110337   6.116   2.089   4.276
 3146SOL    HW210338   6.137   2.118   4.435
 3147SOL     OW10339   4.504   6.957   0.806
 3147SOL    HW110340   4.533   6.882   0.866
 3147SOL    HW210341   4.577   0.001   0.798
 3148SOL     OW10342   6.303   4.886   0.318
 3148SOL    HW110343   6.337   4.809   0.265
 3148SOL    HW210344   6.361   4.966   0.301
 3149SOL     OW10345   3.943   2.803   0.071
 3149SOL    HW110346   3.884   2.856   0.132
 3149SOL    HW210347   4.031   2.849   0.062
 3150SOL     OW10348   0.077   0.224   5.500
 3150SOL    HW110349   7.005   0.196   5.517
 3150SOL    HW210350   0.137   0.181   5.568
 3151SOL     OW10351   6.765   0.905   6.003
 3151SOL    HW110352   6.808   0.932   5.917
 3151SOL    HW210353   6.668   0.931   6.002
 3152SOL     OW10354   2.159   2.132   5.890
 3152SOL    HW110355   2.161   2.063   5.963
 3152SOL    HW210356   2.252   2.155   5.864
 3153SOL     OW10357   5.693   5.897   1.898
 3153SOL    HW110358   5.689   5.798   1.887
 3153SOL    HW210359   5.601   5.933   1.913
 3154SOL     OW10360   3.695   2.145   0.858
 3154SOL    HW110361   3.614   2.089   0.844
 3154SOL    HW210362   3.668   2.237   0.885
 3155SOL     OW10363   0.172   5.350   6.575
 3155SOL    HW110364   0.102   5.342   6.504
 3155SOL    HW210365   0.252   5.297   6.548
 3156SOL     OW10366   3.709   4.298   1.126
 3156SOL    HW110367   3.626   4.349   1.104
 3156SOL    HW210368   3.698   4.255   1.216
 3157SOL     OW10369   1.276   1.420   4.072
 3157SOL    HW110370   1.241   1.346   4.130
 3157SOL    HW210371   1.333   1.481   4.126
 3158SOL     OW10372   2.523   0.674   6.197
 3158SOL    HW110373   2.530   0.713   6.289
 3158SOL    HW210374   2.544   0.576   6.201
 3159SOL     OW10375   5.059   6.995   1.452
 3159SOL    HW110376   5.113   6.965   1.373
 3159SOL    HW210377   5.041   6.917   1.511
 3160SOL     OW10378   2.053   0.976   4.760
 3160SOL    HW110379   2.029   0.881   4.780
 3160SOL    HW210380   2.005   1.005   4.677
 3161SOL     OW10381   1.587   2.838   2.217
 3161SOL    HW110382   1.554   2.890   2.139
 3161SOL    HW210383   1.569   2.740   2.202
 3162SOL     OW10384   1.152   5.977   1.343
 3162SOL    HW110385   1.154   5.911   1.268
 3162SOL    HW210386   1.152   5.928   1.430
 3163SOL     OW10387   4.921   4.191   1.196
 3163SOL    HW110388   4.825   4.217   1.188
 3163SOL    HW210389   4.939   4.156   1.288
 3164SOL     OW10390   2.471   6.894   4.420
 3164SOL    HW110391   2.453   6.945   4.504
 3164SOL    HW210392   2.398   6.913   4.354
 3165SOL     OW10393   0.697   5.962   6.643
 3165SOL    HW110394   0.713   5.978   6.545
 3165SOL    HW210395   0.778   5.989   6.694
 3166SOL     OW10396   4.144   2.240   4.408
 3166SOL    HW110397   4.077   2.251   4.481
 3166SOL    HW210398   4.141   2.145   4.375
 3167SOL     OW10399   6.272   2.754   1.738
 3167SOL    HW110400   6.240   2.679   1.796
 3167SOL    HW210401   6.350   2.723   1.683
 3168SOL     OW10402   5.660   1.380   1.069
 3168SOL    HW110403   5.714   1.337   1.142
 3168SOL    HW210404   5.719   1.403   0.992
 3169SOL     OW10405   1.238   3.926   2.075
 3169SOL    HW110406   1.189   3.999   2.027
 3169SOL    HW210407   1.173   3.868   2.123
 3170SOL     OW10408   2.238   4.095   3.519
 3170SOL    HW110409   2.235   4.046   3.432
 3170SOL    HW210410   2.288   4.180   3.509
 3171SOL     OW10411   5.341   1.317   4.735
 3171SOL    HW110412   5.372   1.400   4.781
 3171SOL    HW210413   5.280   1.266   4.796
 3172SOL     OW10414   5.617   4.215   1.127
 3172SOL    HW110415   5.589   4.171   1.213
 3172SOL    HW210416   5.713   4.195   1.109
 3173SOL     OW10417   5.601   3.216   0.108
 3173SOL    HW110418   5.556   3.128   0.121
 3173SOL    HW210419   5.539   3.279   0.061
 3174SOL     OW10420   3.690   2.059   6.449
 3174SOL    HW110421   3.778   2.031   6.410
 3174SOL    HW210422   3.649   1.981   6.496
 3175SOL     OW10423   6.224   6.344   5.170
 3175SOL    HW110424   6.303   6.283   5.177
 3175SOL    HW210425   6.141   6.291   5.155
 3176SOL     OW10426   0.375   4.862   4.093
 3176SOL    HW110427   0.469   4.836   4.115
 3176SOL    HW210428   0.370   4.961   4.077
 3177SOL     OW10429   4.881   2.935   3.069
 3177SOL    HW110430   4.852   2.960   3.161
 3177SOL    HW210431   4.923   2.844   3.070
 3178SOL     OW10432   0.994   6.986   2.517
 3178SOL    HW110433   1.038   0.049   2.490
 3178SOL    HW210434   0.916   6.968   2.457
 3179SOL     OW10435   0.714   3.193   2.167
 3179SOL    HW110436   0.811   3.212   2.151
 3179SOL    HW210437   0.704   3.129   2.243
 3180SOL     OW10438   6.744   6.849   6.652
 3180SOL    HW110439   6.756   6.801   6.565
 3180SOL    HW210440   6.831   6.851   6.701
 3181SOL     OW10441   0.737   6.129   4.779
 3181SOL    HW110442   0.746   6.058   4.849
 3181SOL    HW210443   0.802   6.203   4.798
 3182SOL     OW10444   1.147   6.769   1.399
 3182SOL    HW110445   1.200   6.847   1.367
 3182SOL    HW210446   1.114   6.788   1.492
 3183SOL     OW10447   4.009   3.568   0.955
 3183SOL    HW110448   4.022   3.560   1.054
 3183SOL    HW210449   4.044   3.486   0.910
 3184SOL     OW10450   6.221   1.617   4.193
 3184SOL    HW110451   6.207   1.538   4.133
 3184SOL    HW210452   6.308   1.607   4.241
 3185SOL     OW10453   0.879   6.617   5.879
 3185SOL    HW110454   0.889   6.692   5.814
 3185SOL    HW210455   0.970   6.590   5.912
 3186SOL     OW10456   0.292   2.749   5.700
 3186SOL    HW110457   0.201   2.749   5.657
 3186SOL    HW210458   0.324   2.843   5.709
 3187SOL     OW10459   5.434   6.971   3.221
 3187SOL    HW110460   5.512   0.000   3.255
 3187SOL    HW210461   5.392   7.020   3.145
 3188SOL     OW10462   1.631   6.475   0.920
 3188SOL    HW110463   1.589   6.419   0.849
 3188SOL    HW210464   1.582   6.462   1.006
 3189SOL     OW10465   2.556   1.729   6.627
 3189SOL    HW110466   2.594   1.662   6.690
 3189SOL    HW210467   2.510   1.682   6.552
 3190SOL     OW10468   5.929   6.515   3.911
 3190SOL    HW110469   5.957   6.419   3.913
 3190SOL    HW210470   5.877   6.533   3.828
 3191SOL     OW10471   3.727   4.854   1.571
 3191SOL    HW110472   3.763   4.794   1.643
 3191SOL    HW210473   3.747   4.814   1.482
 3192SOL     OW10474   5.399   0.748   2.762
 3192SOL    HW110475   5.317   0.798   2.791
 3192SOL    HW210476   5.464   0.812   2.723
 3193SOL     OW10477   3.008   5.509   5.366
 3193SOL    HW110478   3.083   5.459   5.409
 3193SOL    HW210479   3.026   5.607   5.371
 3194SOL     OW10480   1.939   6.833   5.485
 3194SOL    HW110481   1.942   6.743   5.444
 3194SOL    HW210482   1.846   6.870   5.480
 3195SOL     OW10483   0.710   6.894   0.625
 3195SOL    HW110484   0.680   6.801   0.648
 3195SOL    HW210485   0.795   6.914   0.672
 3196SOL     OW10486   6.139   6.963   3.051
 3196SOL    HW110487   6.089   6.901   3.112
 3196SOL    HW210488   6.155   6.919   2.963
 3197SOL     OW10489   2.954   0.401   0.060
 3197SOL    HW110490   2.868   0.391   0.110
 3197SOL    HW210491   2.982   0.313   0.023
 3198SOL     OW10492   5.188   2.838   4.140
 3198SOL    HW110493   5.242   2.759   4.169
 3198SOL    HW210494   5.118   2.858   4.208
 3199SOL     OW10495   4.920   3.929   3.387
 3199SOL    HW110496   4.889   3.839   3.355
 3199SOL    HW210497   4.941   3.987   3.308
 3200SOL     OW10498   5.911   3.986   4.717
 3200SOL    HW110499   5.931   4.064   4.777
 3200SOL    HW210500   5.960   3.906   4.750
 3201SOL     OW10501   6.533   4.159   2.226
 3201SOL    HW110502   6.563   4.065   2.244
 3201SOL    HW210503   6.575   4.220   2.292
 3202SOL     OW10504   2.699   2.834   6.334
 3202SOL    HW110505   2.681   2.749   6.284
 3202SOL    HW210506   2.768   2.819   6.404
 3203SOL     OW10507   3.289   6.950   1.931
 3203SOL    HW110508   3.327   6.891   2.003
 3203SOL    HW210509   3.352   6.953   1.854
 3204SOL     OW10510   4.263   0.449   3.799
 3204SOL    HW110511   4.308   0.524   3.848
 3204SOL    HW210512   4.181   0.421   3.850
 3205SOL     OW10513   4.390   3.016   6.034
 3205SOL    HW110514   4.369   3.033   5.938
 3205SOL    HW210515   4.369   2.921   6.056
 3206SOL     OW10516   3.270   4.234   0.973
 3206SOL    HW110517   3.308   4.318   0.934
 3206SOL    HW210518   3.330   4.157   0.951
 3207SOL     OW10519   2.596   6.512   3.594
 3207SOL    HW110520   2.656   6.451   3.543
 3207SOL    HW210521   2.640   6.601   3.604
 3208SOL     OW10522   6.800   4.685   6.107
 3208SOL    HW110523   6.896   4.665   6.124
 3208SOL    HW210524   6.767   4.751   6.174
 3209SOL     OW10525   5.020   6.836   6.016
 3209SOL    HW110526   5.084   6.836   6.093
 3209SOL    HW210527   4.928   6.858   6.049
 3210SOL     OW10528   5.057   5.294   1.721
 3210SOL    HW110529   5.034   5.230   1.795
 3210SOL    HW210530   5.002   5.271   1.640
 3211SOL     OW10531   2.010   6.464   6.523
 3211SOL    HW110532   2.072   6.528   6.477
 3211SOL    HW210533   1.991   6.497   6.615
 3212SOL     OW10534   3.462   6.765   4.150
 3212SOL    HW110535   3.544   6.820   4.138
 3212SOL    HW210536   3.401   6.778   4.072
 3213SOL     OW10537   1.332   0.492   5.669
 3213SOL    HW110538   1.255   0.522   5.614
 3213SOL    HW210539   1.401   0.563   5.672
 3214SOL     OW10540   3.203   0.755   2.909
 3214SOL    HW110541   3.266   0.678   2.911
 3214SOL    HW210542   3.216   0.807   2.825
 3215SOL     OW10543   2.164   3.034   1.932
 3215SOL    HW110544   2.148   3.105   2.000
 3215SOL    HW210545   2.213   3.072   1.854
 3216SOL     OW10546   6.482   5.401   0.618
 3216SOL    HW110547   6.466   5.499   0.607
 3216SOL    HW210548   6.395   5.352   0.618
 3217SOL     OW10549   6.665   5.492   3.999
 3217SOL    HW110550   6.579   5.445   4.017
 3217SOL    HW210551   6.724   5.431   3.945
 3218SOL     OW10552   5.464   1.297   2.941
 3218SOL    HW110553   5.546   1.290   2.998
 3218SOL    HW210554   5.485   1.348   2.858
 3219SOL     OW10555   5.807   1.949   4.919
 3219SOL    HW110556   5.820   1.936   4.820
 3219SOL    HW210557   5.711   1.937   4.942
 3220SOL     OW10558   0.525   3.869   5.864
 3220SOL    HW110559   0.604   3.896   5.919
 3220SOL    HW210560   0.454   3.832   5.924
 3221SOL     OW10561   4.278   1.538   2.223
 3221SOL    HW110562   4.355   1.475   2.212
 3221SOL    HW210563   4.241   1.528   2.316
 3222SOL     OW10564   3.536   1.309   3.324
 3222SOL    HW110565   3.573   1.345   3.410
 3222SOL    HW210566   3.606   1.317   3.252
 3223SOL     OW10567   1.624   5.619   0.556
 3223SOL    HW110568   1.712   5.593   0.597
 3223SOL    HW210569   1.625   5.717   0.535
 3224SOL     OW10570   4.626   2.771   4.919
 3224SOL    HW110571   4.552   2.823   4.878
 3224SOL    HW210572   4.655   2.698   4.857
 3225SOL     OW10573   4.727   1.294   4.909
 3225SOL    HW110574   4.651   1.359   4.919
 3225SOL    HW210575   4.806   1.342   4.870
 3226SOL     OW10576   6.324   0.955   0.630
 3226SOL    HW110577   6.294   0.931   0.723
 3226SOL    HW210578   6.424   0.954   0.626
 3227SOL     OW10579   5.969   4.446   5.664
 3227SOL    HW110580   6.064   4.464   5.638
 3227SOL    HW210581   5.966   4.384   5.742
 3228SOL     OW10582   2.428   4.289   7.016
 3228SOL    HW110583   2.409   4.372   6.963
 3228SOL    HW210584   2.497   4.309   0.063
 3229SOL     OW10585   1.726   1.621   0.832
 3229SOL    HW110586   1.773   1.594   0.748
 3229SOL    HW210587   1.700   1.717   0.826
 3230SOL     OW10588   2.710   6.109   5.062
 3230SOL    HW110589   2.722   6.053   5.144
 3230SOL    HW210590   2.800   6.126   5.020
 3231SOL     OW10591   2.061   2.863   2.331
 3231SOL    HW110592   2.095   2.826   2.417
 3231SOL    HW210593   2.112   2.947   2.309
 3232SOL     OW10594   3.076   4.839   3.168
 3232SOL    HW110595   3.003   4.810   3.230
 3232SOL    HW210596   3.104   4.933   3.191
 3233SOL     OW10597   2.400   7.002   6.876
 3233SOL    HW110598   2.367   0.031   6.954
 3233SOL    HW210599   2.323   6.961   6.828
 3234SOL     OW10600   3.271   3.358   0.879
 3234SOL    HW110601   3.286   3.439   0.936
 3234SOL    HW210602   3.348   3.295   0.891
 3235SOL     OW10603   6.808   1.392   2.737
 3235SOL    HW110604   6.725   1.447   2.739
 3235SOL    HW210605   6.792   1.308   2.685
 3236SOL     OW10606   5.081   0.537   0.655
 3236SOL    HW110607   5.102   0.578   0.743
 3236SOL    HW210608   5.150   0.468   0.633
 3237SOL     OW10609   5.719   1.303   4.919
 3237SOL    HW110610   5.790   1.302   4.990
 3237SOL    HW210611   5.727   1.386   4.864
 3238SOL     OW10612   6.615   4.869   1.396
 3238SOL    HW110613   6.653   4.789   1.443
 3238SOL    HW210614   6.528   4.844   1.353
 3239SOL     OW10615   5.882   0.632   4.902
 3239SOL    HW110616   5.961   0.670   4.951
 3239SOL    HW210617   5.813   0.704   4.889
 3240SOL     OW10618   0.721   1.674   0.752
 3240SOL    HW110619   0.816   1.647   0.738
 3240SOL    HW210620   0.716   1.773   0.766
 3241SOL     OW10621   6.999   3.140   5.216
 3241SOL    HW110622   6.987   3.042   5.231
 3241SOL    HW210623   6.909   3.184   5.210
 3242SOL     OW10624   6.895   4.143   4.919
 3242SOL    HW110625   6.865   4.166   4.826
 3242SOL    HW210626   6.909   4.044   4.926
 3243SOL     OW10627   5.756   5.241   4.002
 3243SOL    HW110628   5.802   5.170   3.948
 3243SOL    HW210629   5.762   5.328   3.955
 3244SOL     OW10630   4.738   0.092   7.011
 3244SOL    HW110631   4.804   0.164   6.992
 3244SOL    HW210632   4.762   0.010   6.959
 3245SOL     OW10633   3.450   6.551   4.330
 3245SOL    HW110634   3.494   6.606   4.401
 3245SOL    HW210635   3.443   6.604   4.245
 3246SOL     OW10636   6.434   6.048   3.128
 3246SOL    HW110637   6.503   5.975   3.122
 3246SOL    HW210638   6.353   6.013   3.175
 3247SOL     OW10639   2.097   4.613   3.891
 3247SOL    HW110640   2.191   4.620   3.925
 3247SOL    HW210641   2.050   4.538   3.939
 3248SOL     OW10642   5.897   2.725   3.367
 3248SOL    HW110643   5.845   2.808   3.389
 3248SOL    HW210644   5.891   2.662   3.444
 3249SOL     OW10645   3.315   4.083   3.702
 3249SOL    HW110646   3.359   4.116   3.786
 3249SOL    HW210647   3.216   4.076   3.717
 3250SOL     OW10648   4.815   6.006   3.793
 3250SOL    HW110649   4.733   5.949   3.789
 3250SOL    HW210650   4.796   6.089   3.845
 3251SOL     OW10651   2.747   2.199   2.423
 3251SOL    HW110652   2.682   2.134   2.462
 3251SOL    HW210653   2.801   2.240   2.497
 3252SOL     OW10654   1.878   2.074   3.086
 3252SOL    HW110655   1.907   2.020   3.165
 3252SOL    HW210656   1.779   2.086   3.088
 3253SOL     OW10657   6.650   3.855   0.151
 3253SOL    HW110658   6.750   3.846   0.150
 3253SOL    HW210659   6.625   3.944   0.113
 3254SOL     OW10660   6.007   6.535   0.618
 3254SOL    HW110661   5.942   6.563   0.688
 3254SOL    HW210662   6.084   6.599   0.616
 3255SOL     OW10663   3.583   5.967   2.252
 3255SOL    HW110664   3.644   5.922   2.187
 3255SOL    HW210665   3.581   5.914   2.337
 3256SOL     OW10666   5.395   2.589   1.268
 3256SOL    HW110667   5.348   2.507   1.300
 3256SOL    HW210668   5.474   2.607   1.326
 3257SOL     OW10669   3.595   1.534   3.004
 3257SOL    HW110670   3.537   1.600   3.052
 3257SOL    HW210671   3.642   1.476   3.070
 3258SOL     OW10672   2.022   5.650   3.424
 3258SOL    HW110673   2.073   5.718   3.372
 3258SOL    HW210674   2.050   5.558   3.396
 3259SOL     OW10675   5.430   4.298   4.493
 3259SOL    HW110676   5.382   4.373   4.537
 3259SOL    HW210677   5.520   4.285   4.535
 3260SOL     OW10678   1.559   4.735   2.811
 3260SOL    HW110679   1.617   4.805   2.771
 3260SOL    HW210680   1.616   4.668   2.859
 3261SOL     OW10681   6.050   0.244   4.530
 3261SOL    HW110682   6.067   0.342   4.525
 3261SOL    HW210683   5.969   0.226   4.585
 3262SOL     OW10684   3.224   1.816   3.498
 3262SOL    HW110685   3.169   1.892   3.465
 3262SOL    HW210686   3.168   1.755   3.554
 3263SOL     OW10687   6.701   0.703   0.991
 3263SOL    HW110688   6.635   0.708   1.066
 3263SOL    HW210689   6.723   0.796   0.960
 3264SOL     OW10690   1.719   4.379   6.689
 3264SOL    HW110691   1.645   4.364   6.623
 3264SOL    HW210692   1.681   4.398   6.779
 3265SOL     OW10693   0.163   5.761   6.120
 3265SOL    HW110694   0.064   5.776   6.127
 3265SOL    HW210695   0.211   5.834   6.169
 3266SOL     OW10696   3.449   4.676   6.108
 3266SOL    HW110697   3.507   4.596   6.126
 3266SOL    HW210698   3.477   4.719   6.022
 3267SOL     OW10699   3.507   6.944   1.109
 3267SOL    HW110700   3.483   6.963   1.013
 3267SOL    HW210701   3.528   6.847   1.119
 3268SOL     OW10702   5.695   4.670   1.847
 3268SOL    HW110703   5.682   4.606   1.771
 3268SOL    HW210704   5.624   4.655   1.916
 3269SOL     OW10705   2.055   5.271   1.446
 3269SOL    HW110706   2.088   5.199   1.385
 3269SOL    HW210707   1.962   5.250   1.475
 3270SOL     OW10708   1.207   2.649   6.012
 3270SOL    HW110709   1.217   2.579   5.942
 3270SOL    HW210710   1.127   2.706   5.991
 3271SOL     OW10711   1.261   3.755   1.060
 3271SOL    HW110712   1.222   3.809   1.135
 3271SOL    HW210713   1.190   3.737   0.992
 3272SOL     OW10714   3.830   6.668   1.195
 3272SOL    HW110715   3.822   6.658   1.294
 3272SOL    HW210716   3.925   6.650   1.168
 3273SOL     OW10717   3.897   4.286   6.596
 3273SOL    HW110718   3.847   4.238   6.668
 3273SOL    HW210719   3.833   4.320   6.528
 3274SOL     OW10720   4.896   6.951   1.793
 3274SOL    HW110721   4.802   6.970   1.765
 3274SOL    HW210722   4.956   0.002   1.763
 3275SOL     OW10723   4.834   0.688   1.470
 3275SOL    HW110724   4.874   0.670   1.559
 3275SOL    HW210725   4.764   0.759   1.478
 3276SOL     OW10726   6.243   5.793   0.027
 3276SOL    HW110727   6.307   5.853   0.075
 3276SOL    HW210728   6.150   5.828   0.038
 3277SOL     OW10729   3.049   1.941   2.461
 3277SOL    HW110730   2.985   1.999   2.513
 3277SOL    HW210731   3.010   1.850   2.451
 3278SOL     OW10732   5.029   0.717   6.181
 3278SOL    HW110733   5.003   0.812   6.165
 3278SOL    HW210734   5.128   0.707   6.170
 3279SOL     OW10735   3.778   0.068   2.559
 3279SOL    HW110736   3.703   0.003   2.570
 3279SOL    HW210737   3.849   0.027   2.501
 3280SOL     OW10738   0.227   2.971   3.747
 3280SOL    HW110739   0.294   3.045   3.740
 3280SOL    HW210740   0.259   2.904   3.814
 3281SOL     OW10741   5.659   1.825   1.983
 3281SOL    HW110742   5.599   1.808   2.061
 3281SOL    HW210743   5.624   1.778   1.903
 3282SOL     OW10744   0.041   5.034   5.274
 3282SOL    HW110745   6.974   4.994   5.257
 3282SOL    HW210746   0.038   5.132   5.253
 3283SOL     OW10747   2.966   1.824   0.407
 3283SOL    HW110748   2.946   1.863   0.497
 3283SOL    HW210749   2.927   1.883   0.336
 3284SOL     OW10750   1.853   0.254   4.890
 3284SOL    HW110751   1.857   0.354   4.882
 3284SOL    HW210752   1.804   0.217   4.811
 3285SOL     OW10753   3.868   2.104   4.299
 3285SOL    HW110754   3.794   2.079   4.361
 3285SOL    HW210755   3.906   2.192   4.325
 3286SOL     OW10756   1.534   3.201   3.133
 3286SOL    HW110757   1.464   3.264   3.098
 3286SOL    HW210758   1.558   3.135   3.062
 3287SOL     OW10759   2.572   1.004   1.041
 3287SOL    HW110760   2.553   1.102   1.055
 3287SOL    HW210761   2.671   0.991   1.034
 3288SOL     OW10762   2.799   6.234   2.232
 3288SOL    HW110763   2.771   6.307   2.171
 3288SOL    HW210764   2.739   6.232   2.312
 3289SOL     OW10765   4.545   0.706   6.821
 3289SOL    HW110766   4.568   0.747   6.732
 3289SOL    HW210767   4.571   0.609   6.820
 3290SOL     OW10768   0.734   5.254   0.156
 3290SOL    HW110769   0.700   5.177   0.211
 3290SOL    HW210770   0.656   5.304   0.118
 3291SOL     OW10771   4.903   6.522   4.922
 3291SOL    HW110772   4.910   6.622   4.913
 3291SOL    HW210773   4.897   6.498   5.019
 3292SOL     OW10774   0.005   2.473   6.919
 3292SOL    HW110775   0.087   2.418   6.928
 3292SOL    HW210776   0.004   2.544   6.989
 3293SOL     OW10777   6.865   4.894   3.052
 3293SOL    HW110778   6.803   4.950   3.108
 3293SOL    HW210779   6.861   4.799   3.082
 3294SOL     OW10780   3.760   3.066   5.597
 3294SOL    HW110781   3.779   3.158   5.564
 3294SOL    HW210782   3.669   3.037   5.566
 3295SOL     OW10783   1.552   2.677   3.159
 3295SOL    HW110784   1.535   2.578   3.161
 3295SOL    HW210785   1.576   2.704   3.066
 3296SOL     OW10786   2.372   1.063   6.770
 3296SOL    HW110787   2.323   1.033   6.852
 3296SOL    HW210788   2.315   1.126   6.718
 3297SOL     OW10789   3.841   0.856   5.010
 3297SOL    HW110790   3.917   0.921   5.018
 3297SOL    HW210791   3.755   0.906   5.015
 3298SOL     OW10792   3.581   4.763   5.451
 3298SOL    HW110793   3.550   4.840   5.507
 3298SOL    HW210794   3.504   4.703   5.431
 3299SOL     OW10795   3.077   6.918   3.757
 3299SOL    HW110796   3.035   6.878   3.838
 3299SOL    HW210797   3.079   7.018   3.767
 3300SOL     OW10798   1.628   0.881   3.420
 3300SOL    HW110799   1.649   0.785   3.442
 3300SOL    HW210800   1.697   0.940   3.462
 3301SOL     OW10801   1.172   1.290   2.901
 3301SOL    HW110802   1.228   1.219   2.945
 3301SOL    HW210803   1.180   1.375   2.952
 3302SOL     OW10804   1.266   5.034   5.375
 3302SOL    HW110805   1.340   4.974   5.343
 3302SOL    HW210806   1.210   4.985   5.442
 3303SOL     OW10807   3.710   3.820   0.167
 3303SOL    HW110808   3.773   3.817   0.245
 3303SOL    HW210809   3.762   3.839   0.084
 3304SOL     OW10810   2.197   4.293   0.300
 3304SOL    HW110811   2.147   4.367   0.254
 3304SOL    HW210812   2.177   4.294   0.398
 3305SOL     OW10813   2.987   2.650   0.045
 3305SOL    HW110814   2.899   2.623   0.006
 3305SOL    HW210815   3.000   2.748   0.032
 3306SOL     OW10816   2.747   6.791   0.429
 3306SOL    HW110817   2.792   6.819   0.344
 3306SOL    HW210818   2.729   6.693   0.427
 3307SOL     OW10819   1.991   5.800   4.306
 3307SOL    HW110820   1.975   5.820   4.402
 3307SOL    HW210821   1.910   5.758   4.265
 3308SOL     OW10822   4.139   5.136   1.756
 3308SOL    HW110823   4.116   5.039   1.764
 3308SOL    HW210824   4.157   5.158   1.660
 3309SOL     OW10825   5.179   3.581   3.182
 3309SOL    HW110826   5.253   3.647   3.193
 3309SOL    HW210827   5.202   3.496   3.230
 3310SOL     OW10828   6.266   4.357   6.069
 3310SOL    HW110829   6.212   4.283   6.109
 3310SOL    HW210830   6.360   4.326   6.054
 3311SOL     OW10831   2.047   2.885   0.343
 3311SOL    HW110832   2.077   2.883   0.438
 3311SOL    HW210833   1.985   2.808   0.325
 3312SOL     OW10834   4.795   2.938   6.893
 3312SOL    HW110835   4.796   2.894   6.803
 3312SOL    HW210836   4.762   3.032   6.884
 3313SOL     OW10837   0.182   0.071   4.395
 3313SOL    HW110838   0.252   0.128   4.438
 3313SOL    HW210839   0.224   0.003   4.337
 3314SOL     OW10840   3.620   6.171   2.642
 3314SOL    HW110841   3.664   6.112   2.710
 3314SOL    HW210842   3.521   6.160   2.647
 3315SOL     OW10843   1.845   6.556   3.817
 3315SOL    HW110844   1.851   6.497   3.897
 3315SOL    HW210845   1.750   6.562   3.787
 3316SOL     OW10846   3.881   2.406   0.104
 3316SOL    HW110847   3.820   2.457   0.044
 3316SOL    HW210848   3.974   2.444   0.097
 3317SOL     OW10849   5.802   2.225   1.653
 3317SOL    HW110850   5.783   2.129   1.632
 3317SOL    HW210851   5.739   2.283   1.602
 3318SOL     OW10852   3.641   3.101   0.693
 3318SOL    HW110853   3.564   3.118   0.755
 3318SOL    HW210854   3.714   3.054   0.743
 3319SOL     OW10855   6.448   6.435   4.266
 3319SOL    HW110856   6.357   6.475   4.271
 3319SOL    HW210857   6.515   6.507   4.249
 3320SOL     OW10858   6.621   0.645   2.106
 3320SOL    HW110859   6.543   0.583   2.115
 3320SOL    HW210860   6.627   0.678   2.012
 3321SOL     OW10861   4.974   1.870   0.058
 3321SOL    HW110862   4.985   1.942   7.013
 3321SOL    HW210863   4.888   1.885   0.108
 3322SOL     OW10864   6.212   2.676   0.707
 3322SOL    HW110865   6.223   2.668   0.608
 3322SOL    HW210866   6.292   2.637   0.753
 3323SOL     OW10867   1.753   1.754   1.503
 3323SOL    HW110868   1.721   1.842   1.538
 3323SOL    HW210869   1.674   1.694   1.488
 3324SOL     OW10870   6.077   5.239   6.008
 3324SOL    HW110871   6.069   5.318   5.947
 3324SOL    HW210872   6.021   5.254   6.090
 3325SOL     OW10873   2.767   5.059   5.276
 3325SOL    HW110874   2.706   5.040   5.198
 3325SOL    HW210875   2.713   5.058   5.360
 3326SOL     OW10876   3.530   2.021   2.124
 3326SOL    HW110877   3.430   2.027   2.119
 3326SOL    HW210878   3.570   2.092   2.066
 3327SOL     OW10879   1.293   5.625   5.953
 3327SOL    HW110880   1.302   5.655   6.048
 3327SOL    HW210881   1.338   5.536   5.942
 3328SOL     OW10882   5.052   2.626   5.420
 3328SOL    HW110883   5.079   2.720   5.439
 3328SOL    HW210884   5.128   2.565   5.440
 3329SOL     OW10885   0.069   6.397   5.594
 3329SOL    HW110886   0.046   6.331   5.522
 3329SOL    HW210887   0.160   6.433   5.578
 3330SOL     OW10888   7.018   3.346   2.921
 3330SOL    HW110889   0.058   3.345   2.998
 3330SOL    HW210890   6.929   3.310   2.950
 3331SOL     OW10891   1.812   3.171   0.597
 3331SOL    HW110892   1.746   3.236   0.634
 3331SOL    HW210893   1.850   3.207   0.512
 3332SOL     OW10894   6.598   3.909   1.288
 3332SOL    HW110895   6.678   3.968   1.300
 3332SOL    HW210896   6.626   3.813   1.293
 3333SOL     OW10897   2.729   5.825   5.868
 3333SOL    HW110898   2.804   5.814   5.803
 3333SOL    HW210899   2.653   5.766   5.840
 3334SOL     OW10900   1.423   3.394   1.350
 3334SOL    HW110901   1.439   3.433   1.259
 3334SOL    HW210902   1.511   3.384   1.397
 3335SOL     OW10903   5.657   4.308   4.920
 3335SOL    HW110904   5.659   4.408   4.919
 3335SOL    HW210905   5.588   4.275   4.855
 3336SOL     OW10906   2.969   6.222   5.861
 3336SOL    HW110907   3.021   6.206   5.945
 3336SOL    HW210908   3.024   6.275   5.797
 3337SOL     OW10909   3.496   1.933   0.872
 3337SOL    HW110910   3.400   1.943   0.901
 3337SOL    HW210911   3.553   1.921   0.953
 3338SOL     OW10912   6.983   4.501   0.081
 3338SOL    HW110913   0.039   4.513   0.141
 3338SOL    HW210914   6.899   4.520   0.132
 3339SOL     OW10915   1.220   5.388   6.154
 3339SOL    HW110916   1.145   5.323   6.168
 3339SOL    HW210917   1.270   5.364   6.071
 3340SOL     OW10918   4.000   0.684   2.284
 3340SOL    HW110919   4.065   0.722   2.218
 3340SOL    HW210920   3.914   0.663   2.236
 3341SOL     OW10921   0.503   6.971   0.909
 3341SOL    HW110922   0.499   6.995   1.006
 3341SOL    HW210923   0.589   7.003   0.870
 3342SOL     OW10924   2.807   0.403   5.342
 3342SOL    HW110925   2.851   0.340   5.406
 3342SOL    HW210926   2.751   0.351   5.277
 3343SOL     OW10927   0.412   2.368   1.184
 3343SOL    HW110928   0.482   2.398   1.250
 3343SOL    HW210929   0.388   2.273   1.202
 3344SOL     OW10930   0.218   2.409   6.057
 3344SOL    HW110931   0.305   2.445   6.024
 3344SOL    HW210932   0.161   2.383   5.979
 3345SOL     OW10933   1.931   3.571   5.339
 3345SOL    HW110934   1.971   3.634   5.406
 3345SOL    HW210935   1.957   3.477   5.363
 3346SOL     OW10936   1.643   6.040   2.392
 3346SOL    HW110937   1.568   6.041   2.326
 3346SOL    HW210938   1.612   5.998   2.477
 3347SOL     OW10939   5.783   3.818   3.753
 3347SOL    HW110940   5.703   3.771   3.790
 3347SOL    HW210941   5.842   3.849   3.828
 3348SOL     OW10942   3.952   3.620   3.140
 3348SOL    HW110943   3.863   3.611   3.095
 3348SOL    HW210944   4.022   3.574   3.086
 3349SOL     OW10945   5.412   3.497   6.401
 3349SOL    HW110946   5.360   3.436   6.461
 3349SOL    HW210947   5.441   3.446   6.320
 3350SOL     OW10948   1.302   2.396   0.824
 3350SOL    HW110949   1.276   2.356   0.912
 3350SOL    HW210950   1.388   2.445   0.834
 3351SOL     OW10951   5.494   2.908   0.527
 3351SOL    HW110952   5.469   2.819   0.488
 3351SOL    HW210953   5.591   2.925   0.512
 3352SOL     OW10954   0.477   3.165   0.075
 3352SOL    HW110955   0.388   3.122   0.062
 3352SOL    HW210956   0.467   3.264   0.070
 3353SOL     OW10957   1.741   6.598   6.068
 3353SOL    HW110958   1.672   6.614   6.139
 3353SOL    HW210959   1.697   6.562   5.986
 3354SOL     OW10960   1.173   1.035   1.747
 3354SOL    HW110961   1.100   0.968   1.751
 3354SOL    HW210962   1.185   1.067   1.653
 3355SOL     OW10963   6.377   0.802   2.797
 3355SOL    HW110964   6.437   0.778   2.873
 3355SOL    HW210965   6.430   0.847   2.726
 3356SOL     OW10966   1.462   3.612   5.485
 3356SOL    HW110967   1.495   3.526   5.523
 3356SOL    HW210968   1.526   3.646   5.416
 3357SOL     OW10969   2.582   5.219   2.158
 3357SOL    HW110970   2.497   5.217   2.212
 3357SOL    HW210971   2.657   5.183   2.214
 3358SOL     OW10972   6.901   4.821   3.749
 3358SOL    HW110973   6.971   4.760   3.712
 3358SOL    HW210974   6.887   4.897   3.685
 3359SOL     OW10975   2.068   1.495   1.830
 3359SOL    HW110976   2.011   1.424   1.871
 3359SOL    HW210977   2.127   1.535   1.900
 3360SOL     OW10978   2.367   0.650   6.528
 3360SOL    HW110979   2.414   0.709   6.594
 3360SOL    HW210980   2.303   0.591   6.577
 3361SOL     OW10981   3.809   0.910   3.097
 3361SOL    HW110982   3.859   0.984   3.141
 3361SOL    HW210983   3.712   0.916   3.122
 3362SOL     OW10984   2.852   1.866   4.257
 3362SOL    HW110985   2.928   1.849   4.195
 3362SOL    HW210986   2.788   1.931   4.214
 3363SOL     OW10987   6.909   0.697   6.285
 3363SOL    HW110988   6.932   0.600   6.279
 3363SOL    HW210989   6.884   0.731   6.194
 3364SOL     OW10990   2.585   4.684   6.045
 3364SOL    HW110991   2.551   4.593   6.067
 3364SOL    HW210992   2.682   4.679   6.020
 3365SOL     OW10993   6.331   2.256   5.788
 3365SOL    HW110994   6.353   2.158   5.792
 3365SOL    HW210995   6.283   2.275   5.702
 3366SOL     OW10996   5.429   1.094   6.800
 3366SOL    HW110997   5.405   1.012   6.749
 3366SOL    HW210998   5.352   1.157   6.801
 3367SOL     OW10999   1.645   0.262   2.220
 3367SOL    HW111000   1.722   0.254   2.156
 3367SOL    HW211001   1.561   0.279   2.169
 3368SOL     OW11002   6.650   1.723   5.332
 3368SOL    HW111003   6.661   1.740   5.430
 3368SOL    HW211004   6.571   1.664   5.317
 3369SOL     OW11005   3.604   6.281   6.414
 3369SOL    HW111006   3.542   6.326   6.350
 3369SOL    HW211007   3.552   6.215   6.469
 3370SOL     OW11008   5.796   6.931   5.759
 3370SOL    HW111009   5.793   6.890   5.667
 3370SOL    HW211010   5.745   7.017   5.758
 3371SOL     OW11011   6.880   4.983   1.415
 3371SOL    HW111012   6.797   4.955   1.366
 3371SOL    HW211013   6.960   4.956   1.362
 3372SOL     OW11014   0.420   2.159   2.703
 3372SOL    HW111015   0.327   2.129   2.682
 3372SOL    HW211016   0.420   2.257   2.720
 3373SOL     OW11017   0.653   2.230   6.848
 3373SOL    HW111018   0.643   2.131   6.863
 3373SOL    HW211019   0.746   2.258   6.873
 3374SOL     OW11020   3.988   5.916   5.542
 3374SOL    HW111021   3.928   5.883   5.469
 3374SOL    HW211022   3.965   5.868   5.627
 3375SOL     OW11023   3.691   3.865   4.755
 3375SOL    HW111024   3.645   3.888   4.841
 3375SOL    HW211025   3.707   3.948   4.702
 3376SOL     OW11026   2.847   3.117   1.884
 3376SOL    HW111027   2.834   3.215   1.867
 3376SOL    HW211028   2.797   3.065   1.814
 3377SOL     OW11029   2.575   5.449   5.345
 3377SOL    HW111030   2.602   5.417   5.435
 3377SOL    HW211031   2.476   5.465   5.343
 3378SOL     OW11032   0.481   1.314   0.558
 3378SOL    HW111033   0.432   1.363   0.485
 3378SOL    HW211034   0.529   1.379   0.616
 3379SOL     OW11035   6.423   4.978   5.570
 3379SOL    HW111036   6.374   5.062   5.548
 3379SOL    HW211037   6.496   4.998   5.636
 3380SOL     OW11038   1.020   3.828   5.074
 3380SOL    HW111039   1.062   3.767   5.007
 3380SOL    HW211040   0.971   3.773   5.142
 3381SOL     OW11041   3.531   2.843   1.834
 3381SOL    HW111042   3.577   2.755   1.819
 3381SOL    HW211043   3.439   2.827   1.870
 3382SOL     OW11044   6.953   6.424   6.717
 3382SOL    HW111045   6.941   6.480   6.799
 3382SOL    HW211046   7.010   6.345   6.740
 3383SOL     OW11047   0.554   4.438   2.337
 3383SOL    HW111048   0.596   4.513   2.387
 3383SOL    HW211049   0.560   4.457   2.239
 3384SOL     OW11050   2.885   3.331   4.571
 3384SOL    HW111051   2.900   3.316   4.669
 3384SOL    HW211052   2.861   3.427   4.556
 3385SOL     OW11053   6.760   4.439   3.793
 3385SOL    HW111054   6.837   4.487   3.752
 3385SOL    HW211055   6.676   4.462   3.744
 3386SOL     OW11056   6.064   3.860   5.085
 3386SOL    HW111057   6.076   3.877   5.183
 3386SOL    HW211058   6.100   3.771   5.061
 3387SOL     OW11059   3.289   2.174   3.007
 3387SOL    HW111060   3.242   2.187   2.920
 3387SOL    HW211061   3.388   2.186   2.994
 3388SOL     OW11062   5.543   2.387   1.847
 3388SOL    HW111063   5.563   2.458   1.914
 3388SOL    HW211064   5.616   2.318   1.850
 3389SOL     OW11065   4.211   5.198   3.023
 3389SOL    HW111066   4.286   5.240   3.074
 3389SOL    HW211067   4.210   5.100   3.042
 3390SOL     OW11068   4.605   2.741   5.887
 3390SOL    HW111069   4.652   2.680   5.952
 3390SOL    HW211070   4.554   2.810   5.938
 3391SOL     OW11071   3.542   2.098   4.211
 3391SOL    HW111072   3.579   2.039   4.140
 3391SOL    HW211073   3.606   2.103   4.287
 3392SOL     OW11074   5.200   6.019   3.217
 3392SOL    HW111075   5.174   5.998   3.122
 3392SOL    HW211076   5.127   5.988   3.278
 3393SOL     OW11077   6.838   0.422   0.048
 3393SOL    HW111078   6.754   0.368   0.038
 3393SOL    HW211079   6.844   0.457   0.142
 3394SOL     OW11080   5.686   1.770   2.533
 3394SOL    HW111081   5.611   1.709   2.506
 3394SOL    HW211082   5.761   1.715   2.569
 3395SOL     OW11083   1.143   3.956   5.277
 3395SOL    HW111084   1.196   3.892   5.332
 3395SOL    HW211085   1.110   3.911   5.195
 3396SOL     OW11086   6.165   3.254   4.545
 3396SOL    HW111087   6.230   3.328   4.567
 3396SOL    HW211088   6.212   3.182   4.494
 3397SOL     OW11089   3.142   5.963   6.308
 3397SOL    HW111090   3.212   5.946   6.378
 3397SOL    HW211091   3.075   6.028   6.342
 3398SOL     OW11092   0.753   0.739   3.270
 3398SOL    HW111093   0.729   0.708   3.179
 3398SOL    HW211094   0.694   0.695   3.338
 3399SOL     OW11095   4.225   5.509   5.103
 3399SOL    HW111096   4.223   5.414   5.132
 3399SOL    HW211097   4.224   5.514   5.003
 3400SOL     OW11098   5.039   2.253   6.923
 3400SOL    HW111099   5.074   2.160   6.907
 3400SOL    HW211100   5.058   2.280   7.017
 3401SOL     OW11101   6.806   4.484   6.899
 3401SOL    HW111102   6.899   4.455   6.923
 3401SOL    HW211103   6.791   4.473   6.801
 3402SOL     OW11104   5.308   5.089   1.928
 3402SOL    HW111105   5.229   5.044   1.886
 3402SOL    HW211106   5.279   5.138   2.010
 3403SOL     OW11107   3.250   2.031   5.005
 3403SOL    HW111108   3.218   2.119   5.041
 3403SOL    HW211109   3.186   1.998   4.936
 3404SOL     OW11110   4.506   0.354   1.304
 3404SOL    HW111111   4.448   0.300   1.365
 3404SOL    HW211112   4.559   0.420   1.357
 3405SOL     OW11113   6.175   3.236   0.412
 3405SOL    HW111114   6.150   3.248   0.316
 3405SOL    HW211115   6.266   3.276   0.428
 3406SOL     OW11116   1.008   4.281   1.565
 3406SOL    HW111117   0.924   4.284   1.510
 3406SOL    HW211118   1.044   4.188   1.564
 3407SOL     OW11119   1.551   5.361   2.751
 3407SOL    HW111120   1.497   5.379   2.834
 3407SOL    HW211121   1.490   5.327   2.679
 3408SOL     OW11122   5.089   3.824   2.778
 3408SOL    HW111123   5.156   3.871   2.721
 3408SOL    HW211124   5.039   3.756   2.724
 3409SOL     OW11125   3.010   0.873   5.394
 3409SOL    HW111126   2.941   0.807   5.365
 3409SOL    HW211127   2.966   0.960   5.418
 3410SOL     OW11128   0.193   1.154   0.311
 3410SOL    HW111129   0.164   1.064   0.344
 3410SOL    HW211130   0.175   1.223   0.381
 3411SOL     OW11131   4.639   2.411   2.728
 3411SOL    HW111132   4.629   2.498   2.776
 3411SOL    HW211133   4.716   2.416   2.665
 3412SOL     OW11134   4.027   5.475   6.831
 3412SOL    HW111135   4.021   5.507   6.926
 3412SOL    HW211136   3.960   5.524   6.775
 3413SOL     OW11137   4.540   1.568   2.405
 3413SOL    HW111138   4.471   1.640   2.403
 3413SOL    HW211139   4.508   1.492   2.462
 3414SOL     OW11140   3.277   1.184   5.255
 3414SOL    HW111141   3.298   1.115   5.186
 3414SOL    HW211142   3.261   1.140   5.343
 3415SOL     OW11143   1.237   5.670   4.515
 3415SOL    HW111144   1.149   5.661   4.468
 3415SOL    HW211145   1.306   5.616   4.467
 3416SOL     OW11146   2.566   4.529   6.357
 3416SOL    HW111147   2.658   4.500   6.387
 3416SOL    HW211148   2.551   4.500   6.263
 3417SOL     OW11149   5.756   0.797   1.438
 3417SOL    HW111150   5.821   0.817   1.365
 3417SOL    HW211151   5.700   0.718   1.412
 3418SOL     OW11152   2.958   2.216   6.094
 3418SOL    HW111153   3.001   2.300   6.060
 3418SOL    HW211154   2.938   2.225   6.191
 3419SOL     OW11155   4.579   3.492   0.521
 3419SOL    HW111156   4.648   3.543   0.572
 3419SOL    HW211157   4.489   3.533   0.537
 3420SOL     OW11158   4.303   1.480   3.756
 3420SOL    HW111159   4.291   1.553   3.824
 3420SOL    HW211160   4.324   1.394   3.803
 3421SOL     OW11161   0.100   6.834   3.047
 3421SOL    HW111162   0.123   6.791   3.134
 3421SOL    HW211163   0.129   6.775   2.972
 3422SOL     OW11164   3.191   2.178   2.742
 3422SOL    HW111165   3.178   2.079   2.744
 3422SOL    HW211166   3.227   2.205   2.652
 3423SOL     OW11167   2.773   0.782   2.021
 3423SOL    HW111168   2.785   0.792   1.922
 3423SOL    HW211169   2.860   0.796   2.067
 3424SOL     OW11170   4.263   0.890   2.162
 3424SOL    HW111171   4.286   0.978   2.203
 3424SOL    HW211172   4.195   0.903   2.090
 3425SOL     OW11173   4.687   4.036   1.698
 3425SOL    HW111174   4.663   4.131   1.718
 3425SOL    HW211175   4.615   3.995   1.642
 3426SOL     OW11176   4.699   3.662   0.873
 3426SOL    HW111177   4.771   3.641   0.806
 3426SOL    HW211178   4.667   3.756   0.859
 3427SOL     OW11179   1.106   1.439   0.874
 3427SOL    HW111180   1.047   1.381   0.930
 3427SOL    HW211181   1.049   1.501   0.820
 3428SOL     OW11182   4.271   4.715   3.260
 3428SOL    HW111183   4.249   4.734   3.356
 3428SOL    HW211184   4.346   4.649   3.256
 3429SOL     OW11185   0.059   2.813   0.359
 3429SOL    HW111186   7.008   2.817   0.426
 3429SOL    HW211187   0.067   2.719   0.325
 3430SOL     OW11188   1.315   5.661   6.626
 3430SOL    HW111189   1.380   5.698   6.692
 3430SOL    HW211190   1.317   5.561   6.630
 3431SOL     OW11191   1.477   6.226   6.793
 3431SOL    HW111192   1.420   6.291   6.843
 3431SOL    HW211193   1.569   6.263   6.781
 3432SOL     OW11194   2.616   1.940   0.008
 3432SOL    HW111195   2.607   1.977   6.938
 3432SOL    HW211196   2.568   2.000   0.072
 3433SOL     OW11197   4.794   0.636   4.142
 3433SOL    HW111198   4.833   0.559   4.093
 3433SOL    HW211199   4.750   0.604   4.226
 3434SOL     OW11200   4.423   1.995   3.498
 3434SOL    HW111201   4.451   2.036   3.411
 3434SOL    HW211202   4.491   2.018   3.568
 3435SOL     OW11203   0.426   1.111   6.991
 3435SOL    HW111204   0.375   1.086   6.909
 3435SOL    HW211205   0.522   1.126   6.968
 3436SOL     OW11206   4.781   6.838   3.195
 3436SOL    HW111207   4.761   6.784   3.277
 3436SOL    HW211208   4.695   6.868   3.153
 3437SOL     OW11209   4.971   0.610   6.591
 3437SOL    HW111210   4.957   0.678   6.663
 3437SOL    HW211211   4.919   0.637   6.510
 3438SOL     OW11212   1.445   4.713   6.629
 3438SOL    HW111213   1.544   4.706   6.639
 3438SOL    HW211214   1.411   4.788   6.686
 3439SOL     OW11215   2.719   0.088   3.385
 3439SOL    HW111216   2.805   0.092   3.435
 3439SOL    HW211217   2.679   7.019   3.394
 3440SOL     OW11218   3.314   2.400   0.749
 3440SOL    HW111219   3.307   2.327   0.681
 3440SOL    HW211220   3.244   2.387   0.820
 3441SOL     OW11221   4.124   0.584   4.587
 3441SOL    HW111222   4.051   0.620   4.645
 3441SOL    HW211223   4.201   0.556   4.645
 3442SOL     OW11224   0.832   4.942   3.387
 3442SOL    HW111225   0.854   5.031   3.346
 3442SOL    HW211226   0.815   4.953   3.484
 3443SOL     OW11227   5.982   6.985   4.022
 3443SOL    HW111228   5.945   0.046   3.983
 3443SOL    HW211229   5.959   6.907   3.964
 3444SOL     OW11230   4.186   5.104   0.380
 3444SOL    HW111231   4.279   5.105   0.343
 3444SOL    HW211232   4.187   5.062   0.471
 3445SOL     OW11233   5.641   5.065   4.727
 3445SOL    HW111234   5.579   4.999   4.685
 3445SOL    HW211235   5.714   5.017   4.775
 3446SOL     OW11236   3.194   6.530   2.952
 3446SOL    HW111237   3.166   6.597   2.883
 3446SOL    HW211238   3.212   6.442   2.908
 3447SOL     OW11239   6.476   4.738   5.825
 3447SOL    HW111240   6.388   4.749   5.873
 3447SOL    HW211241   6.532   4.819   5.841
 3448SOL     OW11242   3.559   2.563   1.035
 3448SOL    HW111243   3.558   2.538   0.938
 3448SOL    HW211244   3.649   2.598   1.060
 3449SOL     OW11245   6.208   6.062   2.927
 3449SOL    HW111246   6.116   6.088   2.957
 3449SOL    HW211247   6.276   6.110   2.984
 3450SOL     OW11248   0.812   1.991   1.244
 3450SOL    HW111249   0.795   2.089   1.258
 3450SOL    HW211250   0.909   1.972   1.254
 3451SOL     OW11251   1.502   5.123   4.176
 3451SOL    HW111252   1.520   5.149   4.271
 3451SOL    HW211253   1.425   5.060   4.172
 3452SOL     OW11254   6.684   2.270   0.236
 3452SOL    HW111255   6.731   2.293   0.322
 3452SOL    HW211256   6.694   2.172   0.219
 3453SOL     OW11257   6.154   6.660   5.773
 3453SOL    HW111258   6.103   6.690   5.692
 3453SOL    HW211259   6.188   6.740   5.823
 3454SOL     OW11260   1.214   0.945   0.330
 3454SOL    HW111261   1.133   0.983   0.375
 3454SOL    HW211262   1.282   1.017   0.316
 3455SOL     OW11263   2.341   2.824   4.415
 3455SOL    HW111264   2.383   2.747   4.367
 3455SOL    HW211265   2.269   2.863   4.357
 3456SOL     OW11266   6.595   0.115   0.991
 3456SOL    HW111267   6.554   0.029   1.022
 3456SOL    HW211268   6.528   0.189   0.997
 3457SOL     OW11269   2.293   6.560   3.649
 3457SOL    HW111270   2.246   6.497   3.710
 3457SOL    HW211271   2.387   6.529   3.635
 3458SOL     OW11272   5.284   5.283   0.595
 3458SOL    HW111273   5.353   5.301   0.665
 3458SOL    HW211274   5.260   5.186   0.596
 3459SOL     OW11275   6.795   6.336   3.532
 3459SOL    HW111276   6.837   6.422   3.502
 3459SOL    HW211277   6.782   6.277   3.452
 3460SOL     OW11278   3.447   3.026   5.619
 3460SOL    HW111279   3.476   2.936   5.652
 3460SOL    HW211280   3.404   3.015   5.529
 3461SOL     OW11281   2.518   5.896   3.118
 3461SOL    HW111282   2.555   5.981   3.156
 3461SOL    HW211283   2.456   5.918   3.042
 3462SOL     OW11284   5.131   3.028   2.990
 3462SOL    HW111285   5.131   3.126   2.974
 3462SOL    HW211286   5.037   2.997   3.007
 3463SOL     OW11287   1.963   2.703   1.281
 3463SOL    HW111288   1.957   2.661   1.372
 3463SOL    HW211289   2.058   2.731   1.265
 3464SOL     OW11290   5.015   2.336   6.288
 3464SOL    HW111291   4.925   2.369   6.315
 3464SOL    HW211292   5.075   2.414   6.267
 3465SOL     OW11293   2.174   4.675   1.409
 3465SOL    HW111294   2.250   4.618   1.443
 3465SOL    HW211295   2.099   4.671   1.475
 3466SOL     OW11296   6.227   4.151   4.011
 3466SOL    HW111297   6.235   4.235   3.957
 3466SOL    HW211298   6.144   4.156   4.067
 3467SOL     OW11299   2.921   3.138   1.153
 3467SOL    HW111300   2.850   3.151   1.222
 3467SOL    HW211301   2.878   3.124   1.064
 3468SOL     OW11302   3.564   1.789   0.562
 3468SOL    HW111303   3.566   1.815   0.658
 3468SOL    HW211304   3.497   1.844   0.513
 3469SOL     OW11305   3.758   6.017   5.837
 3469SOL    HW111306   3.726   5.932   5.880
 3469SOL    HW211307   3.718   6.095   5.883
 3470SOL     OW11308   1.102   2.929   1.725
 3470SOL    HW111309   1.181   2.874   1.699
 3470SOL    HW211310   1.080   2.993   1.652
 3471SOL     OW11311   4.835   2.994   5.285
 3471SOL    HW111312   4.785   3.005   5.371
 3471SOL    HW211313   4.846   3.084   5.242
 3472SOL     OW11314   4.519   1.615   3.233
 3472SOL    HW111315   4.455   1.665   3.291
 3472SOL    HW211316   4.488   1.618   3.138
 3473SOL     OW11317   6.072   4.810   2.086
 3473SOL    HW111318   5.973   4.826   2.089
 3473SOL    HW211319   6.096   4.765   2.000
 3474SOL     OW11320   5.117   4.738   4.257
 3474SOL    HW111321   5.087   4.771   4.168
 3474SOL    HW211322   5.216   4.755   4.268
 3475SOL     OW11323   6.985   4.765   4.185
 3475SOL    HW111324   6.893   4.803   4.182
 3475SOL    HW211325   6.982   4.669   4.159
 3476SOL     OW11326   1.661   1.604   3.226
 3476SOL    HW111327   1.681   1.562   3.314
 3476SOL    HW211328   1.585   1.556   3.183
 3477SOL     OW11329   0.803   4.174   2.008
 3477SOL    HW111330   0.809   4.092   1.951
 3477SOL    HW211331   0.882   4.232   1.991
 3478SOL     OW11332   2.301   0.835   1.439
 3478SOL    HW111333   2.297   0.927   1.480
 3478SOL    HW211334   2.370   0.834   1.368
 3479SOL     OW11335   1.550   5.090   4.489
 3479SOL    HW111336   1.516   5.167   4.543
 3479SOL    HW211337   1.534   5.005   4.539
 3480SOL     OW11338   1.429   4.970   6.852
 3480SOL    HW111339   1.400   5.065   6.839
 3480SOL    HW211340   1.496   4.945   6.782
 3481SOL     OW11341   5.841   0.845   4.626
 3481SOL    HW111342   5.867   0.757   4.586
 3481SOL    HW211343   5.787   0.897   4.560
 3482SOL     OW11344   5.922   3.311   6.435
 3482SOL    HW111345   5.897   3.229   6.383
 3482SOL    HW211346   5.881   3.391   6.393
 3483SOL     OW11347   5.419   3.056   5.708
 3483SOL    HW111348   5.412   3.122   5.633
 3483SOL    HW211349   5.330   3.012   5.722
 3484SOL     OW11350   1.067   4.121   5.006
 3484SOL    HW111351   1.145   4.172   4.970
 3484SOL    HW211352   1.088   4.023   5.005
 3485SOL     OW11353   6.698   3.005   6.627
 3485SOL    HW111354   6.647   3.036   6.546
 3485SOL    HW211355   6.796   3.019   6.612
 3486SOL     OW11356   1.969   6.422   5.807
 3486SOL    HW111357   1.880   6.448   5.769
 3486SOL    HW211358   2.038   6.490   5.780
 3487SOL     OW11359   4.556   1.367   6.861
 3487SOL    HW111360   4.498   1.448   6.869
 3487SOL    HW211361   4.645   1.394   6.823
 3488SOL     OW11362   5.583   0.139   4.771
 3488SOL    HW111363   5.541   0.084   4.699
 3488SOL    HW211364   5.512   0.194   4.816
 3489SOL     OW11365   2.879   6.200   1.310
 3489SOL    HW111366   2.969   6.167   1.338
 3489SOL    HW211367   2.872   6.297   1.332
 3490SOL     OW11368   3.665   6.756   0.613
 3490SOL    HW111369   3.665   6.687   0.541
 3490SOL    HW211370   3.575   6.799   0.619
 3491SOL     OW11371   4.135   4.883   6.232
 3491SOL    HW111372   4.183   4.889   6.145
 3491SOL    HW211373   4.130   4.787   6.261
 3492SOL     OW11374   5.927   4.235   2.861
 3492SOL    HW111375   5.932   4.136   2.872
 3492SOL    HW211376   5.967   4.260   2.772
 3493SOL     OW11377   6.764   2.968   5.600
 3493SOL    HW111378   6.775   2.875   5.567
 3493SOL    HW211379   6.846   2.996   5.649
 3494SOL     OW11380   4.151   1.843   2.650
 3494SOL    HW111381   4.093   1.775   2.604
 3494SOL    HW211382   4.131   1.934   2.615
 3495SOL     OW11383   0.954   3.167   2.916
 3495SOL    HW111384   0.967   3.160   3.015
 3495SOL    HW211385   1.038   3.200   2.873
 3496SOL     OW11386   5.814   5.048   0.820
 3496SOL    HW111387   5.825   4.968   0.879
 3496SOL    HW211388   5.757   5.023   0.741
 3497SOL     OW11389   3.124   6.954   2.433
 3497SOL    HW111390   3.100   7.003   2.516
 3497SOL    HW211391   3.136   7.019   2.358
 3498SOL     OW11392   2.227   2.585   1.490
 3498SOL    HW111393   2.256   2.496   1.525
 3498SOL    HW211394   2.136   2.607   1.525
 3499SOL     OW11395   6.383   6.291   4.766
 3499SOL    HW111396   6.318   6.366   4.762
 3499SOL    HW211397   6.476   6.328   4.769
 3500SOL     OW11398   2.054   2.469   4.752
 3500SOL    HW111399   2.029   2.450   4.657
 3500SOL    HW211400   1.971   2.488   4.805
 3501SOL     OW11401   1.415   6.955   5.429
 3501SOL    HW111402   1.325   6.981   5.394
 3501SOL    HW211403   1.426   6.991   5.522
 3502SOL     OW11404   4.707   2.647   2.461
 3502SOL    HW111405   4.691   2.717   2.391
 3502SOL    HW211406   4.665   2.676   2.547
 3503SOL     OW11407   6.720   6.150   6.749
 3503SOL    HW111408   6.760   6.230   6.795
 3503SOL    HW211409   6.735   6.068   6.805
 3504SOL     OW11410   1.544   0.306   0.293
 3504SOL    HW111411   1.564   0.372   0.366
 3504SOL    HW211412   1.485   0.349   0.225
 3505SOL     OW11413   4.777   4.291   6.220
 3505SOL    HW111414   4.770   4.390   6.234
 3505SOL    HW211415   4.795   4.247   6.308
 3506SOL     OW11416   4.546   5.169   4.821
 3506SOL    HW111417   4.498   5.255   4.839
 3506SOL    HW211418   4.643   5.181   4.842
 3507SOL     OW11419   2.849   1.051   0.862
 3507SOL    HW111420   2.866   1.059   0.960
 3507SOL    HW211421   2.936   1.052   0.813
 3508SOL     OW11422   3.393   1.571   5.406
 3508SOL    HW111423   3.463   1.593   5.474
 3508SOL    HW211424   3.400   1.635   5.330
 3509SOL     OW11425   3.550   5.542   6.188
 3509SOL    HW111426   3.498   5.457   6.198
 3509SOL    HW211427   3.512   5.612   6.249
 3510SOL     OW11428   2.494   1.414   0.527
 3510SOL    HW111429   2.573   1.368   0.486
 3510SOL    HW211430   2.464   1.362   0.607
 3511SOL     OW11431   2.919   4.500   1.586
 3511SOL    HW111432   2.924   4.523   1.683
 3511SOL    HW211433   2.941   4.403   1.574
 3512SOL     OW11434   0.349   5.688   5.389
 3512SOL    HW111435   0.318   5.744   5.312
 3512SOL    HW211436   0.306   5.721   5.474
 3513SOL     OW11437   5.969   1.788   0.779
 3513SOL    HW111438   6.067   1.789   0.798
 3513SOL    HW211439   5.919   1.790   0.866
 3514SOL     OW11440   3.680   1.558   1.937
 3514SOL    HW111441   3.703   1.531   1.843
 3514SOL    HW211442   3.762   1.553   1.994
 3515SOL     OW11443   0.618   5.319   4.400
 3515SOL    HW111444   0.632   5.312   4.301
 3515SOL    HW211445   0.694   5.368   4.442
 3516SOL     OW11446   5.026   0.474   1.566
 3516SOL    HW111447   5.083   0.449   1.487
 3516SOL    HW211448   5.080   0.530   1.629
 3517SOL     OW11449   5.843   0.433   1.486
 3517SOL    HW111450   5.827   0.475   1.397
 3517SOL    HW211451   5.758   0.429   1.537
 3518SOL     OW11452   5.273   0.581   5.172
 3518SOL    HW111453   5.336   0.566   5.248
 3518SOL    HW211454   5.265   0.679   5.154
 3519SOL     OW11455   3.084   0.668   1.060
 3519SOL    HW111456   3.076   0.570   1.078
 3519SOL    HW211457   3.125   0.681   0.970
 3520SOL     OW11458   2.546   6.280   4.889
 3520SOL    HW111459   2.515   6.189   4.862
 3520SOL    HW211460   2.617   6.273   4.958
 3521SOL     OW11461   2.753   3.088   6.566
 3521SOL    HW111462   2.835   3.121   6.519
 3521SOL    HW211463   2.761   2.990   6.581
 3522SOL     OW11464   0.772   6.215   6.172
 3522SOL    HW111465   0.748   6.236   6.077
 3522SOL    HW211466   0.754   6.295   6.229
 3523SOL     OW11467   2.039   6.078   6.969
 3523SOL    HW111468   2.070   5.989   7.003
 3523SOL    HW211469   2.005   6.067   6.875
 3524SOL     OW11470   5.046   1.258   3.861
 3524SOL    HW111471   5.143   1.231   3.858
 3524SOL    HW211472   5.028   1.308   3.946
 3525SOL     OW11473   0.034   3.042   2.862
 3525SOL    HW111474   6.988   3.114   2.857
 3525SOL    HW211475   0.117   3.078   2.905
 3526SOL     OW11476   0.118   6.442   2.602
 3526SOL    HW111477   0.035   6.469   2.554
 3526SOL    HW211478   0.188   6.415   2.536
 3527SOL     OW11479   0.732   2.328   6.479
 3527SOL    HW111480   0.772   2.294   6.565
 3527SOL    HW211481   0.803   2.328   6.408
 3528SOL     OW11482   2.512   5.856   4.529
 3528SOL    HW111483   2.588   5.897   4.580
 3528SOL    HW211484   2.450   5.928   4.498
 3529SOL     OW11485   4.695   5.524   0.949
 3529SOL    HW111486   4.640   5.546   0.869
 3529SOL    HW211487   4.786   5.562   0.939
 3530SOL     OW11488   6.251   6.454   0.973
 3530SOL    HW111489   6.166   6.402   0.968
 3530SOL    HW211490   6.325   6.399   0.934
 3531SOL     OW11491   4.898   2.160   0.639
 3531SOL    HW111492   4.905   2.195   0.733
 3531SOL    HW211493   4.958   2.214   0.579
 3532SOL     OW11494   1.871   1.346   1.968
 3532SOL    HW111495   1.855   1.252   1.999
 3532SOL    HW211496   1.799   1.405   2.005
 3533SOL     OW11497   1.182   1.792   2.998
 3533SOL    HW111498   1.158   1.834   3.085
 3533SOL    HW211499   1.133   1.838   2.924
 3534SOL     OW11500   0.132   1.004   0.639
 3534SOL    HW111501   0.059   0.981   0.703
 3534SOL    HW211502   0.216   1.021   0.691
 3535SOL     OW11503   3.018   5.463   4.487
 3535SOL    HW111504   3.059   5.550   4.512
 3535SOL    HW211505   3.009   5.406   4.569
 3536SOL     OW11506   3.846   2.103   2.789
 3536SOL    HW111507   3.939   2.128   2.814
 3536SOL    HW211508   3.836   2.106   2.689
 3537SOL     OW11509   2.045   0.148   3.236
 3537SOL    HW111510   2.102   0.081   3.283
 3537SOL    HW211511   2.030   0.119   3.142
 3538SOL     OW11512   3.191   5.778   3.199
 3538SOL    HW111513   3.111   5.737   3.242
 3538SOL    HW211514   3.215   5.727   3.117
 3539SOL     OW11515   3.815   3.423   4.412
 3539SOL    HW111516   3.795   3.436   4.509
 3539SOL    HW211517   3.764   3.489   4.358
 3540SOL     OW11518   1.682   2.361   3.301
 3540SOL    HW111519   1.755   2.296   3.279
 3540SOL    HW211520   1.676   2.372   3.400
 3541SOL     OW11521   3.828   4.088   4.054
 3541SOL    HW111522   3.910   4.047   4.093
 3541SOL    HW211523   3.826   4.071   3.956
 3542SOL     OW11524   6.727   5.177   1.610
 3542SOL    HW111525   6.783   5.219   1.682
 3542SOL    HW211526   6.785   5.119   1.553
 3543SOL     OW11527   6.054   2.962   5.404
 3543SOL    HW111528   6.009   2.931   5.487
 3543SOL    HW211529   6.026   2.904   5.327
 3544SOL     OW11530   1.761   6.082   0.153
 3544SOL    HW111531   1.809   5.994   0.148
 3544SOL    HW211532   1.791   6.131   0.236
 3545SOL     OW11533   3.109   4.960   0.552
 3545SOL    HW111534   3.117   4.865   0.522
 3545SOL    HW211535   3.199   4.992   0.583
 3546SOL     OW11536   6.544   4.726   2.656
 3546SOL    HW111537   6.635   4.744   2.619
 3546SOL    HW211538   6.547   4.735   2.756
 3547SOL     OW11539   5.130   4.524   4.507
 3547SOL    HW111540   5.198   4.509   4.435
 3547SOL    HW211541   5.115   4.440   4.558
 3548SOL     OW11542   4.776   3.340   5.510
 3548SOL    HW111543   4.857   3.303   5.555
 3548SOL    HW211544   4.802   3.422   5.458
 3549SOL     OW11545   6.010   3.617   2.538
 3549SOL    HW111546   6.043   3.560   2.614
 3549SOL    HW211547   5.910   3.618   2.540
 3550SOL     OW11548   6.037   2.181   2.630
 3550SOL    HW111549   5.955   2.165   2.575
 3550SOL    HW211550   6.013   2.237   2.710
 3551SOL     OW11551   2.369   6.876   2.732
 3551SOL    HW111552   2.329   6.890   2.642
 3551SOL    HW211553   2.337   6.948   2.794
 3552SOL     OW11554   6.987   4.776   3.330
 3552SOL    HW111555   6.940   4.719   3.263
 3552SOL    HW211556   7.022   4.719   3.404
 3553SOL     OW11557   5.830   1.886   3.392
 3553SOL    HW111558   5.823   1.983   3.368
 3553SOL    HW211559   5.810   1.875   3.490
 3554SOL     OW11560   3.817   5.668   6.691
 3554SOL    HW111561   3.845   5.681   6.596
 3554SOL    HW211562   3.764   5.747   6.721
 3555SOL     OW11563   0.143   2.520   3.614
 3555SOL    HW111564   0.226   2.575   3.607
 3555SOL    HW211565   0.108   2.501   3.522
 3556SOL     OW11566   4.767   0.934   6.326
 3556SOL    HW111567   4.669   0.935   6.345
 3556SOL    HW211568   4.809   1.015   6.367
 3557SOL     OW11569   0.338   0.248   4.505
 3557SOL    HW111570   0.433   0.241   4.537
 3557SOL    HW211571   0.280   0.283   4.578
 3558SOL     OW11572   6.922   5.607   1.935
 3558SOL    HW111573   6.825   5.598   1.912
 3558SOL    HW211574   6.959   5.689   1.891
 3559SOL     OW11575   1.097   0.555   5.554
 3559SOL    HW111576   1.042   0.631   5.590
 3559SOL    HW211577   1.040   0.496   5.497
 3560SOL     OW11578   6.531   6.450   2.005
 3560SOL    HW111579   6.569   6.433   1.914
 3560SOL    HW211580   6.486   6.367   2.038
 3561SOL     OW11581   4.667   4.236   3.834
 3561SOL    HW111582   4.666   4.137   3.817
 3561SOL    HW211583   4.748   4.277   3.793
 3562SOL     OW11584   4.253   2.330   3.512
 3562SOL    HW111585   4.206   2.368   3.432
 3562SOL    HW211586   4.349   2.315   3.489
 3563SOL     OW11587   4.896   0.442   1.283
 3563SOL    HW111588   4.954   0.364   1.304
 3563SOL    HW211589   4.848   0.472   1.365
 3564SOL     OW11590   0.054   4.414   2.923
 3564SOL    HW111591   0.043   4.502   2.877
 3564SOL    HW211592   0.116   4.356   2.870
 3565SOL     OW11593   1.527   0.450   5.424
 3565SOL    HW111594   1.509   0.496   5.511
 3565SOL    HW211595   1.448   0.458   5.364
 3566SOL     OW11596   0.727   4.567   6.485
 3566SOL    HW111597   0.776   4.640   6.532
 3566SOL    HW211598   0.699   4.599   6.395
 3567SOL     OW11599   0.021   2.869   0.999
 3567SOL    HW111600   0.031   2.770   0.988
 3567SOL    HW211601   0.101   2.906   1.045
 3568SOL     OW11602   5.253   3.818   3.781
 3568SOL    HW111603   5.287   3.892   3.839
 3568SOL    HW211604   5.328   3.784   3.724
 3569SOL     OW11605   3.935   3.039   4.030
 3569SOL    HW111606   3.990   3.122   4.016
 3569SOL    HW211607   3.892   3.042   4.120
 3570SOL     OW11608   0.521   1.596   5.306
 3570SOL    HW111609   0.519   1.542   5.390
 3570SOL    HW211610   0.597   1.661   5.309
 3571SOL     OW11611   2.459   7.008   4.674
 3571SOL    HW111612   2.361   7.001   4.693
 3571SOL    HW211613   2.504   0.033   4.749
 3572SOL     OW11614   5.279   4.122   1.845
 3572SOL    HW111615   5.273   4.076   1.934
 3572SOL    HW211616   5.364   4.173   1.839
 3573SOL     OW11617   0.294   4.838   3.565
 3573SOL    HW111618   0.288   4.852   3.467
 3573SOL    HW211619   0.298   4.740   3.584
 3574SOL     OW11620   1.958   2.058   5.691
 3574SOL    HW111621   2.019   2.090   5.763
 3574SOL    HW211622   1.985   2.099   5.604
 3575SOL     OW11623   5.213   0.119   6.747
 3575SOL    HW111624   5.241   0.173   6.668
 3575SOL    HW211625   5.166   0.178   6.812
 3576SOL     OW11626   1.601   2.699   0.701
 3576SOL    HW111627   1.515   2.750   0.692
 3576SOL    HW211628   1.677   2.757   0.672
 3577SOL     OW11629   1.520   2.738   5.078
 3577SOL    HW111630   1.569   2.674   5.020
 3577SOL    HW211631   1.451   2.786   5.024
 3578SOL     OW11632   3.860   2.299   6.156
 3578SOL    HW111633   3.814   2.247   6.084
 3578SOL    HW211634   3.807   2.292   6.241
 3579SOL     OW11635   0.932   3.885   1.656
 3579SOL    HW111636   0.998   3.960   1.654
 3579SOL    HW211637   0.978   3.800   1.632
 3580SOL     OW11638   6.874   4.275   1.918
 3580SOL    HW111639   6.853   4.315   1.828
 3580SOL    HW211640   6.893   4.178   1.907
 3581SOL     OW11641   1.406   0.721   2.457
 3581SOL    HW111642   1.473   0.791   2.431
 3581SOL    HW211643   1.398   0.718   2.557
 3582SOL     OW11644   4.227   5.683   6.425
 3582SOL    HW111645   4.316   5.651   6.392
 3582SOL    HW211646   4.241   5.757   6.490
 3583SOL     OW11647   1.490   5.287   1.318
 3583SOL    HW111648   1.478   5.350   1.395
 3583SOL    HW211649   1.455   5.330   1.235
 3584SOL     OW11650   5.819   4.983   4.905
 3584SOL    HW111651   5.820   5.039   4.988
 3584SOL    HW211652   5.905   4.933   4.898
 3585SOL     OW11653   3.609   1.975   3.957
 3585SOL    HW111654   3.553   2.051   3.923
 3585SOL    HW211655   3.632   1.914   3.881
 3586SOL     OW11656   0.048   1.708   5.042
 3586SOL    HW111657   7.004   1.640   5.072
 3586SOL    HW211658   0.126   1.707   5.104
 3587SOL     OW11659   3.179   0.529   6.188
 3587SOL    HW111660   3.185   0.626   6.210
 3587SOL    HW211661   3.249   0.479   6.239
 3588SOL     OW11662   5.667   4.588   4.861
 3588SOL    HW111663   5.651   4.652   4.937
 3588SOL    HW211664   5.753   4.610   4.816
 3589SOL     OW11665   0.689   6.992   5.998
 3589SOL    HW111666   0.629   6.952   5.929
 3589SOL    HW211667   0.649   6.977   6.089
 3590SOL     OW11668   0.134   5.410   5.673
 3590SOL    HW111669   0.143   5.405   5.772
 3590SOL    HW211670   0.043   5.446   5.650
 3591SOL     OW11671   5.673   1.754   0.259
 3591SOL    HW111672   5.608   1.801   0.320
 3591SOL    HW211673   5.631   1.672   0.222
 3592SOL     OW11674   1.498   6.346   1.206
 3592SOL    HW111675   1.468   6.415   1.272
 3592SOL    HW211676   1.589   6.313   1.231
 3593SOL     OW11677   4.117   3.113   5.487
 3593SOL    HW111678   4.132   3.147   5.394
 3593SOL    HW211679   4.178   3.035   5.504
 3594SOL     OW11680   4.796   4.842   5.265
 3594SOL    HW111681   4.846   4.927   5.287
 3594SOL    HW211682   4.773   4.795   5.350
 3595SOL     OW11683   5.721   6.168   4.423
 3595SOL    HW111684   5.782   6.181   4.345
 3595SOL    HW211685   5.768   6.196   4.507
 3596SOL     OW11686   4.155   1.854   2.926
 3596SOL    HW111687   4.127   1.843   2.831
 3596SOL    HW211688   4.136   1.769   2.977
 3597SOL     OW11689   3.274   4.026   5.409
 3597SOL    HW111690   3.257   4.021   5.311
 3597SOL    HW211691   3.188   4.042   5.457
 3598SOL     OW11692   0.179   5.322   4.800
 3598SOL    HW111693   0.273   5.357   4.797
 3598SOL    HW211694   0.122   5.385   4.853
 3599SOL     OW11695   2.713   1.409   5.418
 3599SOL    HW111696   2.759   1.446   5.338
 3599SOL    HW211697   2.636   1.352   5.389
 3600SOL     OW11698   2.549   3.757   6.645
 3600SOL    HW111699   2.499   3.677   6.612
 3600SOL    HW211700   2.643   3.755   6.611
 3601SOL     OW11701   4.728   0.844   5.121
 3601SOL    HW111702   4.817   0.825   5.161
 3601SOL    HW211703   4.659   0.785   5.162
 3602SOL     OW11704   1.556   2.195   1.205
 3602SOL    HW111705   1.637   2.179   1.148
 3602SOL    HW211706   1.577   2.262   1.276
 3603SOL     OW11707   2.330   0.589   5.592
 3603SOL    HW111708   2.283   0.656   5.534
 3603SOL    HW211709   2.423   0.575   5.558
 3604SOL     OW11710   7.003   0.793   3.316
 3604SOL    HW111711   6.921   0.807   3.372
 3604SOL    HW211712   0.044   0.733   3.365
 3605SOL     OW11713   0.981   6.831   4.719
 3605SOL    HW111714   0.908   6.869   4.777
 3605SOL    HW211715   1.070   6.855   4.758
 3606SOL     OW11716   2.019   0.408   2.290
 3606SOL    HW111717   2.084   0.333   2.281
 3606SOL    HW211718   1.987   0.414   2.385
 3607SOL     OW11719   6.107   1.351   3.124
 3607SOL    HW111720   6.071   1.406   3.199
 3607SOL    HW211721   6.184   1.296   3.156
 3608SOL     OW11722   2.939   1.834   5.822
 3608SOL    HW111723   3.003   1.836   5.899
 3608SOL    HW211724   2.961   1.910   5.760
 3609SOL     OW11725   3.624   0.533   5.637
 3609SOL    HW111726   3.720   0.563   5.640
 3609SOL    HW211727   3.575   0.586   5.567
 3610SOL     OW11728   1.877   1.055   5.805
 3610SOL    HW111729   1.807   0.985   5.812
 3610SOL    HW211730   1.888   1.100   5.894
 3611SOL     OW11731   5.587   4.508   2.740
 3611SOL    HW111732   5.686   4.518   2.755
 3611SOL    HW211733   5.548   4.452   2.813
 3612SOL     OW11734   4.706   1.650   0.591
 3612SOL    HW111735   4.759   1.579   0.637
 3612SOL    HW211736   4.725   1.739   0.633
 3613SOL     OW11737   3.722   6.756   3.174
 3613SOL    HW111738   3.658   6.750   3.251
 3613SOL    HW211739   3.774   6.671   3.167
 3614SOL     OW11740   3.376   5.802   6.772
 3614SOL    HW111741   3.330   5.722   6.734
 3614SOL    HW211742   3.313   5.850   6.833
 3615SOL     OW11743   5.092   2.850   5.681
 3615SOL    HW111744   5.106   2.860   5.583
 3615SOL    HW211745   5.027   2.919   5.713
 3616SOL     OW11746   1.631   2.648   0.229
 3616SOL    HW111747   1.666   2.707   0.302
 3616SOL    HW211748   1.534   2.670   0.213
 3617SOL     OW11749   4.118   5.521   5.579
 3617SOL    HW111750   4.120   5.537   5.678
 3617SOL    HW211751   4.165   5.595   5.532
 3618SOL     OW11752   1.453   5.550   4.316
 3618SOL    HW111753   1.517   5.621   4.345
 3618SOL    HW211754   1.473   5.524   4.221
 3619SOL     OW11755   6.082   2.178   2.071
 3619SOL    HW111756   6.103   2.178   2.169
 3619SOL    HW211757   6.076   2.273   2.039
 3620SOL     OW11758   5.736   5.952   5.141
 3620SOL    HW111759   5.801   6.010   5.092
 3620SOL    HW211760   5.645   5.964   5.101
 3621SOL     OW11761   3.521   2.858   3.699
 3621SOL    HW111762   3.479   2.948   3.691
 3621SOL    HW211763   3.507   2.823   3.791
 3622SOL     OW11764   1.870   5.453   6.292
 3622SOL    HW111765   1.788   5.480   6.342
 3622SOL    HW211766   1.887   5.519   6.219
 3623SOL     OW11767   1.427   5.870   6.165
 3623SOL    HW111768   1.407   5.789   6.221
 3623SOL    HW211769   1.366   5.871   6.086
 3624SOL     OW11770   2.203   2.293   2.395
 3624SOL    HW111771   2.184   2.375   2.449
 3624SOL    HW211772   2.270   2.315   2.324
 3625SOL     OW11773   6.155   2.468   1.089
 3625SOL    HW111774   6.204   2.484   1.174
 3625SOL    HW211775   6.157   2.552   1.033
 3626SOL     OW11776   1.741   2.760   5.805
 3626SOL    HW111777   1.837   2.742   5.782
 3626SOL    HW211778   1.719   2.716   5.892
 3627SOL     OW11779   3.568   1.731   2.522
 3627SOL    HW111780   3.621   1.758   2.603
 3627SOL    HW211781   3.479   1.777   2.524
 3628SOL     OW11782   6.671   1.786   1.525
 3628SOL    HW111783   6.718   1.839   1.595
 3628SOL    HW211784   6.617   1.847   1.467
 3629SOL     OW11785   1.536   1.344   4.294
 3629SOL    HW111786   1.545   1.295   4.207
 3629SOL    HW211787   1.469   1.297   4.351
 3630SOL     OW11788   6.359   2.093   2.507
 3630SOL    HW111789   6.279   2.117   2.451
 3630SOL    HW211790   6.339   2.112   2.603
 3631SOL     OW11791   2.031   6.205   2.370
 3631SOL    HW111792   2.069   6.182   2.280
 3631SOL    HW211793   2.105   6.214   2.436
 3632SOL     OW11794   4.975   3.011   2.392
 3632SOL    HW111795   5.010   2.963   2.472
 3632SOL    HW211796   4.953   3.106   2.418
 3633SOL     OW11797   3.960   4.011   0.268
 3633SOL    HW111798   4.053   4.016   0.305
 3633SOL    HW211799   3.894   4.010   0.342
 3634SOL     OW11800   3.003   5.358   6.365
 3634SOL    HW111801   2.942   5.321   6.435
 3634SOL    HW211802   2.984   5.455   6.352
 3635SOL     OW11803   1.033   6.524   2.383
 3635SOL    HW111804   1.009   6.577   2.464
 3635SOL    HW211805   1.129   6.538   2.361
 3636SOL     OW11806   0.460   5.547   5.157
 3636SOL    HW111807   0.412   5.595   5.230
 3636SOL    HW211808   0.446   5.594   5.070
 3637SOL     OW11809   6.231   3.047   7.017
 3637SOL    HW111810   6.326   3.042   6.986
 3637SOL    HW211811   6.207   2.961   0.041
 3638SOL     OW11812   0.327   3.341   3.177
 3638SOL    HW111813   0.361   3.253   3.210
 3638SOL    HW211814   0.342   3.411   3.247
 3639SOL     OW11815   4.088   3.459   4.507
 3639SOL    HW111816   4.100   3.405   4.591
 3639SOL    HW211817   4.095   3.399   4.427
 3640SOL     OW11818   4.253   1.964   2.222
 3640SOL    HW111819   4.165   1.991   2.261
 3640SOL    HW211820   4.239   1.905   2.143
 3641SOL     OW11821   6.335   3.765   2.317
 3641SOL    HW111822   6.280   3.848   2.325
 3641SOL    HW211823   6.299   3.708   2.242
 3642SOL     OW11824   4.902   4.023   6.794
 3642SOL    HW111825   4.936   4.113   6.770
 3642SOL    HW211826   4.914   3.961   6.717
 3643SOL     OW11827   3.881   5.803   4.936
 3643SOL    HW111828   3.974   5.797   4.974
 3643SOL    HW211829   3.856   5.714   4.897
 3644SOL     OW11830   2.828   1.056   1.675
 3644SOL    HW111831   2.827   0.956   1.686
 3644SOL    HW211832   2.780   1.099   1.752
 3645SOL     OW11833   1.649   4.362   3.321
 3645SOL    HW111834   1.640   4.459   3.343
 3645SOL    HW211835   1.679   4.312   3.402
 3646SOL     OW11836   1.780   5.328   5.730
 3646SOL    HW111837   1.851   5.260   5.714
 3646SOL    HW211838   1.695   5.283   5.757
 3647SOL     OW11839   3.840   0.005   0.203
 3647SOL    HW111840   3.751   7.000   0.167
 3647SOL    HW211841   3.859   6.978   0.287
 3648SOL     OW11842   5.090   4.576   3.069
 3648SOL    HW111843   5.030   4.501   3.097
 3648SOL    HW211844   5.123   4.624   3.150
 3649SOL     OW11845   5.431   2.406   0.333
 3649SOL    HW111846   5.409   2.318   0.375
 3649SOL    HW211847   5.427   2.397   0.233
 3650SOL     OW11848   5.410   5.897   6.269
 3650SOL    HW111849   5.324   5.856   6.301
 3650SOL    HW211850   5.486   5.836   6.292
 3651SOL     OW11851   0.629   2.043   5.877
 3651SOL    HW111852   0.624   1.996   5.789
 3651SOL    HW211853   0.721   2.081   5.889
 3652SOL     OW11854   4.656   2.688   2.720
 3652SOL    HW111855   4.713   2.769   2.707
 3652SOL    HW211856   4.615   2.691   2.812
 3653SOL     OW11857   2.028   1.339   0.528
 3653SOL    HW111858   2.059   1.244   0.541
 3653SOL    HW211859   2.085   1.383   0.459
 3654SOL     OW11860   4.041   6.877   1.996
 3654SOL    HW111861   3.941   6.876   1.990
 3654SOL    HW211862   4.079   6.829   1.917
 3655SOL     OW11863   0.974   0.661   3.744
 3655SOL    HW111864   0.993   0.576   3.695
 3655SOL    HW211865   0.911   0.717   3.691
 3656SOL     OW11866   0.216   0.162   1.144
 3656SOL    HW111867   0.310   0.172   1.113
 3656SOL    HW211868   0.192   0.239   1.203
 3657SOL     OW11869   6.113   5.191   6.462
 3657SOL    HW111870   6.064   5.277   6.474
 3657SOL    HW211871   6.158   5.190   6.373
 3658SOL     OW11872   1.843   4.464   5.237
 3658SOL    HW111873   1.763   4.420   5.279
 3658SOL    HW211874   1.904   4.394   5.200
 3659SOL     OW11875   1.195   2.463   6.526
 3659SOL    HW111876   1.261   2.439   6.454
 3659SOL    HW211877   1.200   2.561   6.545
 3660SOL     OW11878   3.859   5.444   5.210
 3660SOL    HW111879   3.914   5.453   5.127
 3660SOL    HW211880   3.863   5.350   5.244
 3661SOL     OW11881   0.614   1.218   4.325
 3661SOL    HW111882   0.635   1.171   4.411
 3661SOL    HW211883   0.545   1.289   4.341
 3662SOL     OW11884   3.179   1.598   5.720
 3662SOL    HW111885   3.135   1.570   5.634
 3662SOL    HW211886   3.125   1.670   5.763
 3663SOL     OW11887   2.238   2.218   6.475
 3663SOL    HW111888   2.263   2.270   6.393
 3663SOL    HW211889   2.318   2.210   6.534
 3664SOL     OW11890   3.260   1.940   1.280
 3664SOL    HW111891   3.197   1.884   1.226
 3664SOL    HW211892   3.340   1.884   1.306
 3665SOL     OW11893   0.116   5.461   5.353
 3665SOL    HW111894   0.200   5.514   5.338
 3665SOL    HW211895   0.138   5.380   5.408
 3666SOL     OW11896   2.059   3.386   4.375
 3666SOL    HW111897   2.095   3.471   4.336
 3666SOL    HW211898   2.104   3.368   4.462
 3667SOL     OW11899   1.799   6.615   0.725
 3667SOL    HW111900   1.812   6.711   0.751
 3667SOL    HW211901   1.739   6.571   0.792
 3668SOL     OW11902   6.262   1.502   0.930
 3668SOL    HW111903   6.240   1.533   0.837
 3668SOL    HW211904   6.178   1.482   0.979
 3669SOL     OW11905   6.880   1.068   1.763
 3669SOL    HW111906   6.909   1.006   1.836
 3669SOL    HW211907   6.956   1.129   1.738
 3670SOL     OW11908   2.027   6.915   2.213
 3670SOL    HW111909   2.083   6.998   2.221
 3670SOL    HW211910   2.072   6.840   2.261
 3671SOL     OW11911   6.980   0.784   4.914
 3671SOL    HW111912   0.045   0.741   4.891
 3671SOL    HW211913   6.951   0.755   5.005
 3672SOL     OW11914   4.229   0.036   3.255
 3672SOL    HW111915   4.197   0.082   3.172
 3672SOL    HW211916   4.150   0.003   3.307
 3673SOL     OW11917   3.136   0.942   1.530
 3673SOL    HW111918   3.083   1.026   1.541
 3673SOL    HW211919   3.140   0.917   1.433
 3674SOL     OW11920   0.496   4.415   5.907
 3674SOL    HW111921   0.396   4.418   5.906
 3674SOL    HW211922   0.532   4.508   5.915
 3675SOL     OW11923   6.934   0.874   4.486
 3675SOL    HW111924   6.893   0.819   4.559
 3675SOL    HW211925   0.010   0.870   4.494
 3676SOL     OW11926   3.176   0.800   5.688
 3676SOL    HW111927   3.093   0.783   5.635
 3676SOL    HW211928   3.253   0.816   5.625
 3677SOL     OW11929   1.232   0.852   4.421
 3677SOL    HW111930   1.170   0.773   4.426
 3677SOL    HW211931   1.186   0.933   4.457
 3678SOL     OW11932   2.358   1.175   3.442
 3678SOL    HW111933   2.383   1.234   3.519
 3678SOL    HW211934   2.301   1.226   3.378
 3679SOL     OW11935   3.004   0.498   2.581
 3679SOL    HW111936   2.968   0.411   2.547
 3679SOL    HW211937   3.098   0.510   2.549
 3680SOL     OW11938   3.199   2.091   4.675
 3680SOL    HW111939   3.181   2.163   4.742
 3680SOL    HW211940   3.114   2.042   4.655
 3681SOL     OW11941   1.018   6.820   4.007
 3681SOL    HW111942   0.924   6.804   4.038
 3681SOL    HW211943   1.023   6.910   3.964
 3682SOL     OW11944   5.544   2.292   1.260
 3682SOL    HW111945   5.452   2.290   1.221
 3682SOL    HW211946   5.581   2.199   1.262
 3683SOL     OW11947   6.846   1.812   0.597
 3683SOL    HW111948   6.781   1.764   0.538
 3683SOL    HW211949   6.797   1.878   0.654
 3684SOL     OW11950   2.754   6.421   5.889
 3684SOL    HW111951   2.766   6.508   5.842
 3684SOL    HW211952   2.803   6.349   5.840
 3685SOL     OW11953   2.495   6.510   3.897
 3685SOL    HW111954   2.530   6.602   3.916
 3685SOL    HW211955   2.490   6.497   3.798
 3686SOL     OW11956   6.994   4.118   0.317
 3686SOL    HW111957   0.054   4.063   0.321
 3686SOL    HW211958   6.929   4.085   0.385
 3687SOL     OW11959   6.168   4.426   4.613
 3687SOL    HW111960   6.228   4.429   4.533
 3687SOL    HW211961   6.205   4.485   4.684
 3688SOL     OW11962   0.230   2.792   1.421
 3688SOL    HW111963   0.187   2.738   1.494
 3688SOL    HW211964   0.254   2.732   1.345
 3689SOL     OW11965   1.426   1.316   5.906
 3689SOL    HW111966   1.437   1.218   5.922
 3689SOL    HW211967   1.466   1.339   5.817
 3690SOL     OW11968   5.974   4.568   1.551
 3690SOL    HW111969   5.962   4.666   1.559
 3690SOL    HW211970   6.011   4.531   1.636
 3691SOL     OW11971   1.540   2.480   0.893
 3691SOL    HW111972   1.584   2.559   0.852
 3691SOL    HW211973   1.606   2.431   0.950
 3692SOL     OW11974   1.073   2.913   5.413
 3692SOL    HW111975   1.112   2.946   5.327
 3692SOL    HW211976   1.107   2.821   5.433
 3693SOL     OW11977   0.023   1.431   2.534
 3693SOL    HW111978   7.020   1.344   2.576
 3693SOL    HW211979   7.000   1.506   2.583
 3694SOL     OW11980   6.777   6.718   2.313
 3694SOL    HW111981   6.781   6.716   2.213
 3694SOL    HW211982   6.846   6.781   2.348
 3695SOL     OW11983   6.131   3.983   3.534
 3695SOL    HW111984   6.230   3.981   3.547
 3695SOL    HW211985   6.091   4.047   3.600
 3696SOL     OW11986   4.541   0.133   3.840
 3696SOL    HW111987   4.448   0.095   3.832
 3696SOL    HW211988   4.553   0.206   3.773
 3697SOL     OW11989   6.168   5.399   2.703
 3697SOL    HW111990   6.247   5.344   2.674
 3697SOL    HW211991   6.095   5.390   2.635
 3698SOL     OW11992   1.481   6.988   4.248
 3698SOL    HW111993   1.569   7.006   4.206
 3698SOL    HW211994   1.490   6.914   4.315
 3699SOL     OW11995   2.647   2.371   2.836
 3699SOL    HW111996   2.558   2.379   2.791
 3699SOL    HW211997   2.661   2.277   2.866
 3700SOL     OW11998   1.097   4.996   4.545
 3700SOL    HW111999   1.106   4.899   4.567
 3700SOL    HW212000   1.029   5.038   4.605
 3701SOL     OW12001   0.502   0.983   1.906
 3701SOL    HW112002   0.402   0.986   1.912
 3701SOL    HW212003   0.538   0.935   1.986
 3702SOL     OW12004   6.587   4.588   3.524
 3702SOL    HW112005   6.544   4.652   3.588
 3702SOL    HW212006   6.606   4.635   3.438
 3703SOL     OW12007   1.320   2.507   2.894
 3703SOL    HW112008   1.419   2.520   2.898
 3703SOL    HW212009   1.284   2.497   2.987
 3704SOL     OW12010   6.064   6.918   0.679
 3704SOL    HW112011   6.134   6.850   0.655
 3704SOL    HW212012   6.005   6.881   0.750
 3705SOL     OW12013   5.996   4.159   3.676
 3705SOL    HW112014   5.925   4.169   3.607
 3705SOL    HW212015   6.058   4.237   3.672
 3706SOL     OW12016   1.165   5.277   6.467
 3706SOL    HW112017   1.223   5.305   6.391
 3706SOL    HW212018   1.072   5.310   6.452
 3707SOL     OW12019   0.804   5.048   3.651
 3707SOL    HW112020   0.715   5.038   3.695
 3707SOL    HW212021   0.811   5.138   3.607
 3708SOL     OW12022   1.374   5.899   6.988
 3708SOL    HW112023   1.310   5.969   7.021
 3708SOL    HW212024   1.327   5.811   6.980
 3709SOL     OW12025   0.456   1.613   2.382
 3709SOL    HW112026   0.378   1.552   2.393
 3709SOL    HW212027   0.457   1.680   2.455
 3710SOL     OW12028   2.151   3.752   5.419
 3710SOL    HW112029   2.182   3.752   5.324
 3710SOL    HW212030   2.137   3.846   5.450
 3711SOL     OW12031   2.120   5.044   5.091
 3711SOL    HW112032   2.029   5.003   5.088
 3711SOL    HW212033   2.161   5.028   5.181
 3712SOL     OW12034   3.335   5.245   4.118
 3712SOL    HW112035   3.389   5.211   4.041
 3712SOL    HW212036   3.383   5.225   4.204
 3713SOL     OW12037   6.137   0.288   5.297
 3713SOL    HW112038   6.220   0.290   5.352
 3713SOL    HW212039   6.061   0.325   5.350
 3714SOL     OW12040   0.218   4.909   6.697
 3714SOL    HW112041   0.253   4.927   6.606
 3714SOL    HW212042   0.277   4.844   6.745
 3715SOL     OW12043   6.198   4.474   3.261
 3715SOL    HW112044   6.244   4.500   3.346
 3715SOL    HW212045   6.256   4.497   3.183
 3716SOL     OW12046   5.701   5.995   5.713
 3716SOL    HW112047   5.760   5.917   5.730
 3716SOL    HW212048   5.748   6.062   5.657
 3717SOL     OW12049   4.829   0.424   1.025
 3717SOL    HW112050   4.731   0.412   1.007
 3717SOL    HW212051   4.842   0.445   1.121
 3718SOL     OW12052   5.558   6.888   6.519
 3718SOL    HW112053   5.631   6.855   6.460
 3718SOL    HW212054   5.510   6.811   6.559
 3719SOL     OW12055   2.747   4.306   0.108
 3719SOL    HW112056   2.811   4.297   0.184
 3719SOL    HW212057   2.779   4.376   0.045
 3720SOL     OW12058   6.874   2.478   1.171
 3720SOL    HW112059   6.821   2.557   1.140
 3720SOL    HW212060   6.843   2.450   1.262
 3721SOL     OW12061   6.285   0.083   5.979
 3721SOL    HW112062   6.344   0.121   5.907
 3721SOL    HW212063   6.193   0.070   5.943
 3722SOL     OW12064   6.121   6.498   1.439
 3722SOL    HW112065   6.180   6.515   1.518
 3722SOL    HW212066   6.037   6.551   1.447
 3723SOL     OW12067   4.369   4.420   6.270
 3723SOL    HW112068   4.419   4.357   6.210
 3723SOL    HW212069   4.430   4.452   6.342
 3724SOL     OW12070   6.814   4.304   4.693
 3724SOL    HW112071   6.909   4.332   4.705
 3724SOL    HW212072   6.755   4.385   4.700
 3725SOL     OW12073   0.748   5.895   0.247
 3725SOL    HW112074   0.660   5.910   0.201
 3725SOL    HW212075   0.819   5.948   0.201
 3726SOL     OW12076   6.493   3.652   5.230
 3726SOL    HW112077   6.482   3.707   5.147
 3726SOL    HW212078   6.560   3.695   5.290
 3727SOL     OW12079   6.646   2.242   4.058
 3727SOL    HW112080   6.585   2.209   3.987
 3727SOL    HW212081   6.632   2.340   4.072
 3728SOL     OW12082   1.885   4.284   0.658
 3728SOL    HW112083   1.939   4.216   0.709
 3728SOL    HW212084   1.837   4.238   0.583
 3729SOL     OW12085   0.349   0.063   6.367
 3729SOL    HW112086   0.315   0.114   6.288
 3729SOL    HW212087   0.443   0.035   6.351
 3730SOL     OW12088   5.054   5.086   4.704
 3730SOL    HW112089   5.092   5.026   4.634
 3730SOL    HW212090   5.117   5.094   4.780
 3731SOL     OW12091   0.230   1.916   0.997
 3731SOL    HW112092   0.293   1.839   0.996
 3731SOL    HW212093   0.256   1.979   1.071
 3732SOL     OW12094   3.528   3.042   6.767
 3732SOL    HW112095   3.581   3.111   6.717
 3732SOL    HW212096   3.506   2.966   6.706
 3733SOL     OW12097   1.807   1.490   3.605
 3733SOL    HW112098   1.787   1.574   3.555
 3733SOL    HW212099   1.775   1.497   3.699
 3734SOL     OW12100   3.406   0.334   1.932
 3734SOL    HW112101   3.371   0.281   1.854
 3734SOL    HW212102   3.364   0.301   2.016
 3735SOL     OW12103   4.535   1.014   2.676
 3735SOL    HW112104   4.525   0.938   2.741
 3735SOL    HW212105   4.485   0.993   2.592
 3736SOL     OW12106   0.971   1.562   0.270
 3736SOL    HW112107   1.052   1.617   0.249
 3736SOL    HW212108   0.898   1.623   0.301
 3737SOL     OW12109   6.005   2.153   3.658
 3737SOL    HW112110   5.964   2.225   3.714
 3737SOL    HW212111   6.006   2.182   3.562
 3738SOL     OW12112   0.451   0.881   0.998
 3738SOL    HW112113   0.425   0.907   1.091
 3738SOL    HW212114   0.533   0.931   0.971
 3739SOL     OW12115   2.889   4.475   6.658
 3739SOL    HW112116   2.893   4.504   6.753
 3739SOL    HW212117   2.886   4.556   6.599
 3740SOL     OW12118   5.215   5.826   6.730
 3740SOL    HW112119   5.126   5.850   6.769
 3740SOL    HW212120   5.285   5.829   6.801
 3741SOL     OW12121   5.738   4.121   0.339
 3741SOL    HW112122   5.711   4.196   0.278
 3741SOL    HW212123   5.704   4.034   0.303
 3742SOL     OW12124   4.566   5.288   1.434
 3742SOL    HW112125   4.628   5.314   1.360
 3742SOL    HW212126   4.569   5.357   1.506
 3743SOL     OW12127   2.712   3.910   0.546
 3743SOL    HW112128   2.804   3.910   0.584
 3743SOL    HW212129   2.650   3.958   0.609
 3744SOL     OW12130   6.493   5.865   2.619
 3744SOL    HW112131   6.489   5.796   2.548
 3744SOL    HW212132   6.410   5.920   2.617
 3745SOL     OW12133   5.198   2.521   3.003
 3745SOL    HW112134   5.236   2.570   2.925
 3745SOL    HW212135   5.102   2.499   2.985
 3746SOL     OW12136   4.876   6.823   4.598
 3746SOL    HW112137   4.899   6.918   4.574
 3746SOL    HW212138   4.841   6.820   4.691
 3747SOL     OW12139   2.580   5.757   5.539
 3747SOL    HW112140   2.679   5.769   5.538
 3747SOL    HW212141   2.546   5.753   5.445
 3748SOL     OW12142   5.091   2.455   3.557
 3748SOL    HW112143   5.094   2.490   3.463
 3748SOL    HW212144   5.086   2.355   3.555
 3749SOL     OW12145   6.378   6.637   2.142
 3749SOL    HW112146   6.295   6.662   2.094
 3749SOL    HW212147   6.427   6.566   2.091
 3750SOL     OW12148   5.683   4.431   0.966
 3750SOL    HW112149   5.769   4.448   1.013
 3750SOL    HW212150   5.635   4.356   1.012
 3751SOL     OW12151   1.255   4.611   1.007
 3751SOL    HW112152   1.224   4.537   0.948
 3751SOL    HW212153   1.352   4.599   1.028
 3752SOL     OW12154   1.126   6.253   5.804
 3752SOL    HW112155   1.167   6.180   5.749
 3752SOL    HW212156   1.068   6.310   5.746
 3753SOL     OW12157   0.248   0.765   5.241
 3753SOL    HW112158   0.267   0.829   5.316
 3753SOL    HW212159   0.190   0.691   5.273
 3754SOL     OW12160   6.608   5.775   1.611
 3754SOL    HW112161   6.623   5.736   1.520
 3754SOL    HW212162   6.681   5.744   1.673
 3755SOL     OW12163   4.641   2.699   3.041
 3755SOL    HW112164   4.611   2.605   3.023
 3755SOL    HW212165   4.589   2.736   3.118
 3756SOL     OW12166   3.503   6.983   0.256
 3756SOL    HW112167   3.497   0.057   0.232
 3756SOL    HW212168   3.490   6.972   0.355
 3757SOL     OW12169   3.905   4.428   6.935
 3757SOL    HW112170   4.005   4.429   6.942
 3757SOL    HW212171   3.878   4.409   6.841
 3758SOL     OW12172   6.588   0.810   2.351
 3758SOL    HW112173   6.633   0.734   2.303
 3758SOL    HW212174   6.574   0.785   2.447
 3759SOL     OW12175   4.877   4.593   0.929
 3759SOL    HW112176   4.943   4.668   0.917
 3759SOL    HW212177   4.796   4.611   0.874
 3760SOL     OW12178   1.694   1.741   6.400
 3760SOL    HW112179   1.711   1.830   6.442
 3760SOL    HW212180   1.727   1.668   6.460
 3761SOL     OW12181   6.451   6.184   4.076
 3761SOL    HW112182   6.506   6.262   4.106
 3761SOL    HW212183   6.497   6.099   4.102
 3762SOL     OW12184   0.448   2.778   0.232
 3762SOL    HW112185   0.357   2.821   0.226
 3762SOL    HW212186   0.518   2.849   0.223
 3763SOL     OW12187   0.248   3.459   5.453
 3763SOL    HW112188   0.173   3.401   5.421
 3763SOL    HW212189   0.243   3.548   5.408
 3764SOL     OW12190   2.499   6.903   4.050
 3764SOL    HW112191   2.436   6.937   4.121
 3764SOL    HW212192   2.446   6.867   3.973
 3765SOL     OW12193   5.751   1.454   3.489
 3765SOL    HW112194   5.839   1.460   3.443
 3765SOL    HW212195   5.685   1.512   3.442
 3766SOL     OW12196   1.975   1.041   5.506
 3766SOL    HW112197   2.051   1.002   5.558
 3766SOL    HW212198   1.972   1.000   5.415
 3767SOL     OW12199   0.245   4.904   0.367
 3767SOL    HW112200   0.302   4.838   0.318
 3767SOL    HW212201   0.153   4.867   0.378
 3768SOL     OW12202   4.240   6.446   1.169
 3768SOL    HW112203   4.196   6.495   1.093
 3768SOL    HW212204   4.170   6.412   1.231
 3769SOL     OW12205   4.573   6.845   5.112
 3769SOL    HW112206   4.553   6.828   5.016
 3769SOL    HW212207   4.575   6.758   5.162
 3770SOL     OW12208   2.200   2.637   0.768
 3770SOL    HW112209   2.188   2.700   0.844
 3770SOL    HW212210   2.295   2.640   0.737
 3771SOL     OW12211   4.285   1.681   5.353
 3771SOL    HW112212   4.277   1.583   5.373
 3771SOL    HW212213   4.360   1.696   5.289
 3772SOL     OW12214   4.992   0.671   2.587
 3772SOL    HW112215   4.926   0.619   2.533
 3772SOL    HW212216   4.944   0.735   2.647
 3773SOL     OW12217   6.209   2.237   0.853
 3773SOL    HW112218   6.151   2.221   0.773
 3773SOL    HW212219   6.152   2.243   0.935
 3774SOL     OW12220   0.667   1.859   1.954
 3774SOL    HW112221   0.704   1.951   1.941
 3774SOL    HW212222   0.742   1.793   1.963
 3775SOL     OW12223   5.444   3.188   3.467
 3775SOL    HW112224   5.497   3.260   3.512
 3775SOL    HW212225   5.500   3.106   3.459
 3776SOL     OW12226   3.307   2.354   6.608
 3776SOL    HW112227   3.210   2.356   6.632
 3776SOL    HW212228   3.339   2.447   6.590
 3777SOL     OW12229   0.887   4.438   3.109
 3777SOL    HW112230   0.984   4.460   3.094
 3777SOL    HW212231   0.851   4.393   3.027
 3778SOL     OW12232   2.333   6.970   1.617
 3778SOL    HW112233   2.382   7.009   1.539
 3778SOL    HW212234   2.264   6.905   1.585
 3779SOL     OW12235   2.046   4.421   0.109
 3779SOL    HW112236   1.971   4.487   0.118
 3779SOL    HW212237   2.017   4.346   0.050
 3780SOL     OW12238   2.506   0.450   3.940
 3780SOL    HW112239   2.511   0.385   3.864
 3780SOL    HW212240   2.485   0.401   4.025
 3781SOL     OW12241   2.600   5.313   5.059
 3781SOL    HW112242   2.569   5.324   5.153
 3781SOL    HW212243   2.674   5.378   5.040
 3782SOL     OW12244   2.980   0.827   2.630
 3782SOL    HW112245   2.957   0.779   2.714
 3782SOL    HW212246   3.059   0.886   2.645
 3783SOL     OW12247   5.317   5.442   4.781
 3783SOL    HW112248   5.294   5.440   4.879
 3783SOL    HW212249   5.282   5.527   4.741
 3784SOL     OW12250   5.105   1.954   4.353
 3784SOL    HW112251   5.090   1.925   4.258
 3784SOL    HW212252   5.183   2.017   4.357
 3785SOL     OW12253   1.204   1.074   2.014
 3785SOL    HW112254   1.198   1.174   2.009
 3785SOL    HW212255   1.221   1.037   1.923
 3786SOL     OW12256   3.074   6.357   2.521
 3786SOL    HW112257   3.171   6.337   2.508
 3786SOL    HW212258   3.062   6.456   2.534
 3787SOL     OW12259   4.547   0.726   4.085
 3787SOL    HW112260   4.633   0.675   4.078
 3787SOL    HW212261   4.535   0.759   4.178
 3788SOL     OW12262   6.609   3.558   2.540
 3788SOL    HW112263   6.629   3.466   2.506
 3788SOL    HW212264   6.523   3.590   2.499
 3789SOL     OW12265   1.191   5.147   2.041
 3789SOL    HW112266   1.191   5.123   1.944
 3789SOL    HW212267   1.220   5.069   2.096
 3790SOL     OW12268   2.161   3.156   3.114
 3790SOL    HW112269   2.202   3.066   3.130
 3790SOL    HW212270   2.129   3.193   3.201
 3791SOL     OW12271   6.163   0.637   2.634
 3791SOL    HW112272   6.213   0.664   2.717
 3791SOL    HW212273   6.164   0.713   2.569
 3792SOL     OW12274   0.678   6.434   6.283
 3792SOL    HW112275   0.607   6.439   6.353
 3792SOL    HW212276   0.694   6.525   6.244
 3793SOL     OW12277   0.759   6.023   2.713
 3793SOL    HW112278   0.791   6.024   2.807
 3793SOL    HW212279   0.750   5.929   2.681
 3794SOL     OW12280   4.369   6.703   3.790
 3794SOL    HW112281   4.432   6.780   3.781
 3794SOL    HW212282   4.335   6.678   3.699
 3795SOL     OW12283   5.537   0.381   0.369
 3795SOL    HW112284   5.546   0.466   0.318
 3795SOL    HW212285   5.527   0.305   0.305
 3796SOL     OW12286   1.045   3.194   0.583
 3796SOL    HW112287   1.027   3.226   0.676
 3796SOL    HW212288   1.033   3.269   0.519
 3797SOL     OW12289   6.910   5.465   2.519
 3797SOL    HW112290   6.912   5.378   2.469
 3797SOL    HW212291   6.832   5.466   2.580
 3798SOL     OW12292   0.829   4.195   1.140
 3798SOL    HW112293   0.886   4.260   1.090
 3798SOL    HW212294   0.836   4.214   1.238
 3799SOL     OW12295   1.059   0.273   5.074
 3799SOL    HW112296   0.960   0.257   5.067
 3799SOL    HW212297   1.079   0.366   5.042
 3800SOL     OW12298   5.305   2.531   5.432
 3800SOL    HW112299   5.333   2.523   5.528
 3800SOL    HW212300   5.343   2.615   5.393
 3801SOL     OW12301   6.751   0.314   6.547
 3801SOL    HW112302   6.729   0.227   6.591
 3801SOL    HW212303   6.821   0.299   6.477
 3802SOL     OW12304   1.737   2.526   5.215
 3802SOL    HW112305   1.819   2.484   5.255
 3802SOL    HW212306   1.749   2.625   5.210
 3803SOL     OW12307   4.230   1.014   1.264
 3803SOL    HW112308   4.248   1.063   1.350
 3803SOL    HW212309   4.131   1.006   1.251
 3804SOL     OW12310   5.296   2.977   5.207
 3804SOL    HW112311   5.356   2.900   5.230
 3804SOL    HW212312   5.213   2.943   5.163
 3805SOL     OW12313   1.882   3.593   1.669
 3805SOL    HW112314   1.934   3.530   1.727
 3805SOL    HW212315   1.887   3.685   1.707
 3806SOL     OW12316   3.705   1.112   0.599
 3806SOL    HW112317   3.725   1.190   0.539
 3806SOL    HW212318   3.762   1.117   0.680
 3807SOL     OW12319   1.263   6.941   2.895
 3807SOL    HW112320   1.332   6.912   2.962
 3807SOL    HW212321   1.204   7.011   2.936
 3808SOL     OW12322   3.044   0.559   0.669
 3808SOL    HW112323   3.066   0.504   0.750
 3808SOL    HW212324   3.102   0.640   0.667
 3809SOL     OW12325   4.218   0.133   6.926
 3809SOL    HW112326   4.204   0.070   6.850
 3809SOL    HW212327   4.313   0.165   6.926
 3810SOL     OW12328   1.987   3.517   6.551
 3810SOL    HW112329   2.046   3.452   6.598
 3810SOL    HW212330   1.892   3.502   6.579
 3811SOL     OW12331   0.612   0.254   6.512
 3811SOL    HW112332   0.638   0.160   6.490
 3811SOL    HW212333   0.693   0.304   6.542
 3812SOL     OW12334   5.203   0.676   5.795
 3812SOL    HW112335   5.216   0.760   5.847
 3812SOL    HW212336   5.126   0.624   5.833
 3813SOL     OW12337   3.794   4.904   2.061
 3813SOL    HW112338   3.774   4.841   1.986
 3813SOL    HW212339   3.708   4.936   2.101
 3814SOL     OW12340   2.061   0.792   1.864
 3814SOL    HW112341   2.060   0.696   1.893
 3814SOL    HW212342   1.967   0.828   1.867
 3815SOL     OW12343   5.516   2.039   2.167
 3815SOL    HW112344   5.610   2.071   2.168
 3815SOL    HW212345   5.459   2.103   2.115
 3816SOL     OW12346   0.046   6.600   0.865
 3816SOL    HW112347   0.037   6.554   0.776
 3816SOL    HW212348   0.022   6.536   0.938
 3817SOL     OW12349   4.929   1.829   5.404
 3817SOL    HW112350   4.972   1.899   5.346
 3817SOL    HW212351   4.995   1.758   5.425
 3818SOL     OW12352   4.664   5.717   3.188
 3818SOL    HW112353   4.644   5.692   3.283
 3818SOL    HW212354   4.641   5.813   3.173
 3819SOL     OW12355   6.198   4.103   6.172
 3819SOL    HW112356   6.102   4.074   6.167
 3819SOL    HW212357   6.255   4.024   6.196
 3820SOL     OW12358   5.020   6.025   3.417
 3820SOL    HW112359   4.937   6.054   3.369
 3820SOL    HW212360   5.026   6.072   3.505
 3821SOL     OW12361   6.945   4.409   1.236
 3821SOL    HW112362   6.974   4.496   1.275
 3821SOL    HW212363   6.936   4.418   1.137
 3822SOL     OW12364   0.726   4.464   1.694
 3822SOL    HW112365   0.645   4.517   1.722
 3822SOL    HW212366   0.699   4.371   1.669
 3823SOL     OW12367   2.843   3.500   5.964
 3823SOL    HW112368   2.918   3.436   5.975
 3823SOL    HW212369   2.854   3.550   5.878
 3824SOL     OW12370   0.124   2.148   6.262
 3824SOL    HW112371   0.099   2.067   6.314
 3824SOL    HW212372   0.131   2.227   6.323
 3825SOL     OW12373   6.570   6.319   5.899
 3825SOL    HW112374   6.499   6.387   5.884
 3825SOL    HW212375   6.660   6.362   5.888
 3826SOL     OW12376   6.859   1.873   1.269
 3826SOL    HW112377   6.942   1.846   1.218
 3826SOL    HW212378   6.827   1.796   1.323
 3827SOL     OW12379   5.747   1.945   1.702
 3827SOL    HW112380   5.660   1.896   1.711
 3827SOL    HW212381   5.817   1.882   1.666
 3828SOL     OW12382   4.205   1.047   1.557
 3828SOL    HW112383   4.283   0.993   1.589
 3828SOL    HW212384   4.122   0.991   1.560
 3829SOL     OW12385   0.766   5.301   3.528
 3829SOL    HW112386   0.752   5.374   3.595
 3829SOL    HW212387   0.821   5.335   3.452
 3830SOL     OW12388   3.119   0.415   5.648
 3830SOL    HW112389   3.040   0.476   5.648
 3830SOL    HW212390   3.196   0.462   5.691
 3831SOL     OW12391   4.773   1.637   2.534
 3831SOL    HW112392   4.704   1.603   2.470
 3831SOL    HW212393   4.846   1.683   2.483
 3832SOL     OW12394   5.520   6.754   2.649
 3832SOL    HW112395   5.465   6.795   2.577
 3832SOL    HW212396   5.615   6.748   2.619
 3833SOL     OW12397   1.565   6.472   1.958
 3833SOL    HW112398   1.593   6.424   1.875
 3833SOL    HW212399   1.540   6.406   2.028
 3834SOL     OW12400   2.761   2.698   0.907
 3834SOL    HW112401   2.795   2.701   0.813
 3834SOL    HW212402   2.828   2.741   0.968
 3835SOL     OW12403   3.540   5.600   3.348
 3835SOL    HW112404   3.577   5.524   3.295
 3835SOL    HW212405   3.453   5.572   3.390
 3836SOL     OW12406   1.831   3.095   5.290
 3836SOL    HW112407   1.848   3.114   5.193
 3836SOL    HW212408   1.812   2.997   5.301
 3837SOL     OW12409   3.231   4.131   0.114
 3837SOL    HW112410   3.328   4.155   0.117
 3837SOL    HW212411   3.218   4.040   0.154
 3838SOL     OW12412   5.982   3.255   4.875
 3838SOL    HW112413   5.951   3.325   4.940
 3838SOL    HW212414   6.082   3.256   4.870
 3839SOL     OW12415   0.688   6.639   6.083
 3839SOL    HW112416   0.618   6.594   6.027
 3839SOL    HW212417   0.777   6.632   6.037
 3840SOL     OW12418   2.602   1.532   3.705
 3840SOL    HW112419   2.648   1.590   3.773
 3840SOL    HW212420   2.567   1.590   3.631
 3841SOL     OW12421   0.672   3.873   3.919
 3841SOL    HW112422   0.762   3.902   3.950
 3841SOL    HW212423   0.662   3.775   3.934
 3842SOL     OW12424   1.573   5.211   0.248
 3842SOL    HW112425   1.652   5.177   0.197
 3842SOL    HW212426   1.490   5.164   0.217
 3843SOL     OW12427   5.994   4.166   0.357
 3843SOL    HW112428   5.904   4.129   0.335
 3843SOL    HW212429   5.984   4.249   0.411
 3844SOL     OW12430   2.696   4.569   5.504
 3844SOL    HW112431   2.757   4.490   5.511
 3844SOL    HW212432   2.715   4.618   5.418
 3845SOL     OW12433   3.278   3.950   4.049
 3845SOL    HW112434   3.352   4.017   4.041
 3845SOL    HW212435   3.317   3.861   4.071
 3846SOL     OW12436   6.829   4.540   4.317
 3846SOL    HW112437   6.913   4.584   4.347
 3846SOL    HW212438   6.835   4.442   4.334
 3847SOL     OW12439   1.014   0.080   1.072
 3847SOL    HW112440   0.938   0.035   1.118
 3847SOL    HW212441   1.059   0.143   1.135
 3848SOL     OW12442   2.945   6.223   1.579
 3848SOL    HW112443   2.864   6.242   1.524
 3848SOL    HW212444   3.002   6.155   1.533
 3849SOL     OW12445   2.593   1.207   5.819
 3849SOL    HW112446   2.517   1.239   5.762
 3849SOL    HW212447   2.590   1.252   5.907
 3850SOL     OW12448   1.986   3.635   1.416
 3850SOL    HW112449   1.948   3.607   1.504
 3850SOL    HW212450   2.027   3.726   1.425
 3851SOL     OW12451   2.704   2.619   1.257
 3851SOL    HW112452   2.622   2.669   1.286
 3851SOL    HW212453   2.686   2.572   1.171
 3852SOL     OW12454   4.429   1.400   5.319
 3852SOL    HW112455   4.424   1.397   5.219
 3852SOL    HW212456   4.338   1.394   5.358
 3853SOL     OW12457   0.744   3.915   1.868
 3853SOL    HW112458   0.803   3.904   1.789
 3853SOL    HW212459   0.668   3.850   1.863
 3854SOL     OW12460   1.665   3.265   4.013
 3854SOL    HW112461   1.616   3.180   4.033
 3854SOL    HW212462   1.598   3.335   3.987
 3855SOL     OW12463   6.752   1.358   4.953
 3855SOL    HW112464   6.726   1.265   4.977
 3855SOL    HW212465   6.804   1.357   4.867
 3856SOL     OW12466   1.667   6.128   5.947
 3856SOL    HW112467   1.753   6.109   5.899
 3856SOL    HW212468   1.602   6.054   5.930
 3857SOL     OW12469   0.781   0.327   6.177
 3857SOL    HW112470   0.873   0.361   6.196
 3857SOL    HW212471   0.737   0.298   6.262
 3858SOL     OW12472   3.136   4.847   6.860
 3858SOL    HW112473   3.064   4.810   6.919
 3858SOL    HW212474   3.095   4.896   6.783
 3859SOL     OW12475   6.068   2.467   2.368
 3859SOL    HW112476   6.101   2.542   2.310
 3859SOL    HW212477   5.984   2.496   2.415
 3860SOL     OW12478   2.293   6.377   4.898
 3860SOL    HW112479   2.257   6.395   4.990
 3860SOL    HW212480   2.389   6.349   4.905
 3861SOL     OW12481   3.746   4.259   0.205
 3861SOL    HW112482   3.743   4.240   0.303
 3861SOL    HW212483   3.806   4.337   0.187
 3862SOL     OW12484   1.003   5.938   5.661
 3862SOL    HW112485   0.986   5.929   5.760
 3862SOL    HW212486   1.063   6.017   5.646
 3863SOL     OW12487   2.883   3.336   0.561
 3863SOL    HW112488   2.934   3.302   0.482
 3863SOL    HW212489   2.932   3.412   0.603
 3864SOL     OW12490   3.425   1.679   1.064
 3864SOL    HW112491   3.465   1.594   1.028
 3864SOL    HW212492   3.388   1.733   0.988
 3865SOL     OW12493   4.391   0.957   2.428
 3865SOL    HW112494   4.310   0.944   2.485
 3865SOL    HW212495   4.420   0.869   2.390
 3866SOL     OW12496   3.566   6.282   6.807
 3866SOL    HW112497   3.578   6.372   6.848
 3866SOL    HW212498   3.655   6.248   6.775
 3867SOL     OW12499   1.652   5.040   3.045
 3867SOL    HW112500   1.696   5.005   2.962
 3867SOL    HW212501   1.714   5.104   3.091
 3868SOL     OW12502   2.185   5.704   2.635
 3868SOL    HW112503   2.260   5.676   2.575
 3868SOL    HW212504   2.138   5.782   2.595
 3869SOL     OW12505   0.614   1.837   3.751
 3869SOL    HW112506   0.665   1.798   3.675
 3869SOL    HW212507   0.517   1.841   3.728
 3870SOL     OW12508   3.635   3.583   0.567
 3870SOL    HW112509   3.677   3.500   0.603
 3870SOL    HW212510   3.586   3.630   0.640
 3871SOL     OW12511   2.903   1.393   5.192
 3871SOL    HW112512   2.995   1.379   5.229
 3871SOL    HW212513   2.868   1.306   5.156
 3872SOL     OW12514   4.320   3.653   0.826
 3872SOL    HW112515   4.239   3.595   0.825
 3872SOL    HW212516   4.365   3.647   0.915
 3873SOL     OW12517   5.631   4.368   2.050
 3873SOL    HW112518   5.543   4.384   2.094
 3873SOL    HW212519   5.702   4.361   2.120
 3874SOL     OW12520   4.544   5.961   5.919
 3874SOL    HW112521   4.534   5.973   6.018
 3874SOL    HW212522   4.622   5.902   5.901
 3875SOL     OW12523   2.451   3.840   0.264
 3875SOL    HW112524   2.519   3.912   0.273
 3875SOL    HW212525   2.483   3.758   0.312
 3876SOL     OW12526   5.783   3.820   2.400
 3876SOL    HW112527   5.793   3.906   2.449
 3876SOL    HW212528   5.713   3.830   2.329
 3877SOL     OW12529   4.739   2.233   2.299
 3877SOL    HW112530   4.780   2.254   2.210
 3877SOL    HW212531   4.670   2.162   2.288
 3878SOL     OW12532   4.828   5.919   4.590
 3878SOL    HW112533   4.903   5.855   4.607
 3878SOL    HW212534   4.862   6.012   4.598
 3879SOL     OW12535   2.992   5.858   0.826
 3879SOL    HW112536   3.030   5.946   0.855
 3879SOL    HW212537   2.903   5.844   0.870
 3880SOL     OW12538   6.635   1.926   4.119
 3880SOL    HW112539   6.735   1.919   4.114
 3880SOL    HW212540   6.605   2.010   4.074
 3881SOL     OW12541   0.401   5.654   6.954
 3881SOL    HW112542   0.477   5.682   6.896
 3881SOL    HW212543   0.341   5.593   6.903
 3882SOL     OW12544   0.074   6.657   6.558
 3882SOL    HW112545   0.005   6.616   6.617
 3882SOL    HW212546   0.100   6.747   6.594
 3883SOL     OW12547   3.548   1.557   7.019
 3883SOL    HW112548   3.591   1.614   6.949
 3883SOL    HW212549   3.466   1.604   0.030
 3884SOL     OW12550   2.157   5.197   5.644
 3884SOL    HW112551   2.066   5.175   5.679
 3884SOL    HW212552   2.225   5.137   5.688
 3885SOL     OW12553   6.814   0.755   3.914
 3885SOL    HW112554   6.782   0.850   3.923
 3885SOL    HW212555   6.818   0.713   4.004
 3886SOL     OW12556   0.320   5.893   4.799
 3886SOL    HW112557   0.348   5.989   4.801
 3886SOL    HW212558   0.247   5.881   4.731
 3887SOL     OW12559   5.625   2.888   5.204
 3887SOL    HW112560   5.683   2.830   5.145
 3887SOL    HW212561   5.618   2.979   5.164
 3888SOL     OW12562   5.537   1.171   2.654
 3888SOL    HW112563   5.563   1.074   2.664
 3888SOL    HW212564   5.443   1.177   2.621
 3889SOL     OW12565   6.196   5.870   6.567
 3889SOL    HW112566   6.245   5.848   6.483
 3889SOL    HW212567   6.170   5.785   6.614
 3890SOL     OW12568   6.414   3.067   3.277
 3890SOL    HW112569   6.350   3.062   3.353
 3890SOL    HW212570   6.386   3.139   3.214
 3891SOL     OW12571   4.495   4.745   6.158
 3891SOL    HW112572   4.433   4.805   6.107
 3891SOL    HW212573   4.528   4.794   6.239
 3892SOL     OW12574   5.826   5.458   3.864
 3892SOL    HW112575   5.924   5.468   3.847
 3892SOL    HW212576   5.778   5.539   3.830
 3893SOL     OW12577   2.973   5.870   4.230
 3893SOL    HW112578   2.922   5.902   4.150
 3893SOL    HW212579   2.920   5.799   4.277
 3894SOL     OW12580   5.814   5.105   6.778
 3894SOL    HW112581   5.735   5.166   6.775
 3894SOL    HW212582   5.846   5.088   6.684
 3895SOL     OW12583   1.618   2.127   6.295
 3895SOL    HW112584   1.543   2.173   6.343
 3895SOL    HW212585   1.679   2.085   6.363
 3896SOL     OW12586   6.690   3.012   0.725
 3896SOL    HW112587   6.702   2.998   0.823
 3896SOL    HW212588   6.596   2.988   0.699
 3897SOL     OW12589   2.960   6.676   3.544
 3897SOL    HW112590   3.048   6.709   3.508
 3897SOL    HW212591   2.917   6.748   3.599
 3898SOL     OW12592   3.257   3.431   4.014
 3898SOL    HW112593   3.247   3.494   3.937
 3898SOL    HW212594   3.178   3.440   4.074
 3899SOL     OW12595   5.164   1.548   6.513
 3899SOL    HW112596   5.077   1.598   6.511
 3899SOL    HW212597   5.156   1.466   6.455
 3900SOL     OW12598   0.764   2.729   3.620
 3900SOL    HW112599   0.669   2.702   3.600
 3900SOL    HW212600   0.770   2.829   3.624
 3901SOL     OW12601   3.404   6.130   5.629
 3901SOL    HW112602   3.443   6.061   5.568
 3901SOL    HW212603   3.424   6.106   5.724
 3902SOL     OW12604   3.841   5.651   3.155
 3902SOL    HW112605   3.864   5.742   3.120
 3902SOL    HW212606   3.828   5.655   3.254
 3903SOL     OW12607   3.532   3.533   6.341
 3903SOL    HW112608   3.533   3.631   6.363
 3903SOL    HW212609   3.548   3.521   6.243
 3904SOL     OW12610   2.251   6.279   6.973
 3904SOL    HW112611   2.192   6.198   6.976
 3904SOL    HW212612   2.257   6.319   0.041
 3905SOL     OW12613   4.800   0.717   5.442
 3905SOL    HW112614   4.780   0.736   5.538
 3905SOL    HW212615   4.890   0.752   5.418
 3906SOL     OW12616   6.718   6.030   4.393
 3906SOL    HW112617   6.731   6.038   4.294
 3906SOL    HW212618   6.686   6.117   4.429
 3907SOL     OW12619   0.436   1.431   4.365
 3907SOL    HW112620   0.382   1.467   4.441
 3907SOL    HW212621   0.438   1.498   4.290
 3908SOL     OW12622   2.316   1.138   4.796
 3908SOL    HW112623   2.217   1.123   4.795
 3908SOL    HW212624   2.363   1.057   4.761
 3909SOL     OW12625   5.910   3.192   1.986
 3909SOL    HW112626   5.951   3.101   1.975
 3909SOL    HW212627   5.827   3.185   2.041
 3910SOL     OW12628   2.209   2.901   1.311
 3910SOL    HW112629   2.232   2.842   1.233
 3910SOL    HW212630   2.221   2.996   1.284
 3911SOL     OW12631   6.768   1.469   1.177
 3911SOL    HW112632   6.766   1.372   1.203
 3911SOL    HW212633   6.860   1.493   1.146
 3912SOL     OW12634   4.797   3.842   0.485
 3912SOL    HW112635   4.886   3.879   0.460
 3912SOL    HW212636   4.734   3.917   0.507
 3913SOL     OW12637   4.157   4.788   1.480
 3913SOL    HW112638   4.066   4.793   1.440
 3913SOL    HW212639   4.221   4.751   1.412
 3914SOL     OW12640   0.462   1.045   0.545
 3914SOL    HW112641   0.480   1.143   0.542
 3914SOL    HW212642   0.435   1.018   0.637
 3915SOL     OW12643   5.591   0.581   5.030
 3915SOL    HW112644   5.572   0.611   5.124
 3915SOL    HW212645   5.654   0.504   5.032
 3916SOL     OW12646   1.915   2.500   2.444
 3916SOL    HW112647   2.005   2.538   2.459
 3916SOL    HW212648   1.888   2.513   2.349
 3917SOL     OW12649   4.263   5.267   2.533
 3917SOL    HW112650   4.358   5.260   2.505
 3917SOL    HW212651   4.218   5.339   2.481
 3918SOL     OW12652   3.933   6.853   1.414
 3918SOL    HW112653   3.983   6.915   1.353
 3918SOL    HW212654   3.836   6.877   1.413
 3919SOL     OW12655   5.259   5.368   3.008
 3919SOL    HW112656   5.266   5.428   3.088
 3919SOL    HW212657   5.164   5.360   2.980
 3920SOL     OW12658   4.561   1.461   5.899
 3920SOL    HW112659   4.491   1.419   5.957
 3920SOL    HW212660   4.521   1.540   5.852
 3921SOL     OW12661   1.374   2.868   6.054
 3921SOL    HW112662   1.423   2.876   6.141
 3921SOL    HW212663   1.343   2.774   6.041
 3922SOL     OW12664   5.518   2.570   4.027
 3922SOL    HW112665   5.504   2.647   4.090
 3922SOL    HW212666   5.439   2.562   3.966
 3923SOL     OW12667   5.838   0.429   1.030
 3923SOL    HW112668   5.811   0.347   0.980
 3923SOL    HW212669   5.926   0.413   1.076
 3924SOL     OW12670   5.232   4.864   3.916
 3924SOL    HW112671   5.229   4.951   3.867
 3924SOL    HW212672   5.153   4.857   3.976
 3925SOL     OW12673   3.337   4.758   1.455
 3925SOL    HW112674   3.403   4.793   1.521
 3925SOL    HW212675   3.378   4.757   1.364
 3926SOL     OW12676   1.491   6.010   5.344
 3926SOL    HW112677   1.568   5.948   5.361
 3926SOL    HW212678   1.405   5.960   5.355
 3927SOL     OW12679   6.066   6.736   5.509
 3927SOL    HW112680   6.153   6.785   5.499
 3927SOL    HW212681   6.081   6.639   5.489
 3928SOL     OW12682   4.784   5.683   2.649
 3928SOL    HW112683   4.830   5.604   2.608
 3928SOL    HW212684   4.809   5.766   2.600
 3929SOL     OW12685   1.512   1.055   5.319
 3929SOL    HW112686   1.590   1.095   5.367
 3929SOL    HW212687   1.525   1.064   5.220
 3930SOL     OW12688   2.567   6.039   4.124
 3930SOL    HW112689   2.568   5.940   4.105
 3930SOL    HW212690   2.628   6.085   4.060
 3931SOL     OW12691   0.159   2.317   0.218
 3931SOL    HW112692   0.249   2.274   0.224
 3931SOL    HW212693   0.096   2.254   0.172
 3932SOL     OW12694   2.144   3.840   2.738
 3932SOL    HW112695   2.142   3.741   2.751
 3932SOL    HW212696   2.181   3.861   2.647
 3933SOL     OW12697   1.605   6.762   1.576
 3933SOL    HW112698   1.596   6.715   1.489
 3933SOL    HW212699   1.645   6.853   1.561
 3934SOL     OW12700   1.742   6.932   2.218
 3934SOL    HW112701   1.837   6.955   2.196
 3934SOL    HW212702   1.696   7.013   2.255
 3935SOL     OW12703   0.862   1.270   4.648
 3935SOL    HW112704   0.920   1.335   4.598
 3935SOL    HW212705   0.866   1.290   4.745
 3936SOL     OW12706   6.355   4.331   3.856
 3936SOL    HW112707   6.426   4.261   3.865
 3936SOL    HW212708   6.313   4.326   3.766
 3937SOL     OW12709   1.073   6.643   0.218
 3937SOL    HW112710   1.165   6.636   0.255
 3937SOL    HW212711   1.008   6.661   0.293
 3938SOL     OW12712   0.633   4.152   6.448
 3938SOL    HW112713   0.723   4.175   6.411
 3938SOL    HW212714   0.623   4.053   6.452
 3939SOL     OW12715   2.391   6.582   4.178
 3939SOL    HW112716   2.344   6.647   4.118
 3939SOL    HW212717   2.422   6.504   4.123
 3940SOL     OW12718   2.397   6.300   6.749
 3940SOL    HW112719   2.312   6.317   6.700
 3940SOL    HW212720   2.377   6.281   6.845
 3941SOL     OW12721   5.826   5.068   2.488
 3941SOL    HW112722   5.875   5.016   2.559
 3941SOL    HW212723   5.740   5.101   2.526
 3942SOL     OW12724   6.900   6.108   6.549
 3942SOL    HW112725   6.985   6.114   6.601
 3942SOL    HW212726   6.824   6.141   6.605
 3943SOL     OW12727   0.905   4.122   0.370
 3943SOL    HW112728   0.894   4.177   0.287
 3943SOL    HW212729   0.905   4.025   0.346
 3944SOL     OW12730   4.710   3.297   0.153
 3944SOL    HW112731   4.719   3.304   0.252
 3944SOL    HW212732   4.776   3.359   0.109
 3945SOL     OW12733   0.003   0.641   3.056
 3945SOL    HW112734   0.003   0.706   3.132
 3945SOL    HW212735   6.933   0.611   3.037
 3946SOL     OW12736   5.955   1.851   1.282
 3946SOL    HW112737   5.964   1.754   1.259
 3946SOL    HW212738   6.016   1.874   1.357
 3947SOL     OW12739   5.653   6.778   2.155
 3947SOL    HW112740   5.703   6.754   2.072
 3947SOL    HW212741   5.629   6.875   2.152
 3948SOL     OW12742   2.159   1.395   4.966
 3948SOL    HW112743   2.179   1.297   4.977
 3948SOL    HW212744   2.205   1.446   5.038
 3949SOL     OW12745   6.455   6.935   2.518
 3949SOL    HW112746   6.441   6.903   2.425
 3949SOL    HW212747   6.403   7.020   2.532
 3950SOL     OW12748   2.664   4.703   1.169
 3950SOL    HW112749   2.677   4.758   1.252
 3950SOL    HW212750   2.731   4.730   1.100
 3951SOL     OW12751   6.736   2.629   3.551
 3951SOL    HW112752   6.805   2.618   3.480
 3951SOL    HW212753   6.739   2.550   3.612
 3952SOL     OW12754   5.974   4.726   6.960
 3952SOL    HW112755   6.038   4.687   6.894
 3952SOL    HW212756   5.987   4.682   0.026
 3953SOL     OW12757   3.519   3.446   5.523
 3953SOL    HW112758   3.613   3.465   5.551
 3953SOL    HW212759   3.515   3.442   5.423
 3954SOL     OW12760   1.258   3.767   5.404
 3954SOL    HW112761   1.172   3.726   5.435
 3954SOL    HW212762   1.335   3.718   5.445
 3955SOL     OW12763   5.888   3.395   0.293
 3955SOL    HW112764   5.812   3.382   0.357
 3955SOL    HW212765   5.944   3.312   0.290
 3956SOL     OW12766   6.740   2.369   5.106
 3956SOL    HW112767   6.790   2.389   5.190
 3956SOL    HW212768   6.674   2.441   5.088
 3957SOL     OW12769   1.225   2.485   2.011
 3957SOL    HW112770   1.288   2.520   1.942
 3957SOL    HW212771   1.193   2.394   1.983
 3958SOL     OW12772   5.641   5.466   1.225
 3958SOL    HW112773   5.577   5.413   1.169
 3958SOL    HW212774   5.720   5.410   1.248
 3959SOL     OW12775   2.733   4.962   1.772
 3959SOL    HW112776   2.744   4.890   1.703
 3959SOL    HW212777   2.656   5.020   1.746
 3960SOL     OW12778   6.042   2.179   0.656
 3960SOL    HW112779   6.039   2.216   0.563
 3960SOL    HW212780   5.953   2.137   0.677
 3961SOL     OW12781   6.911   1.197   0.948
 3961SOL    HW112782   6.899   1.139   1.029
 3961SOL    HW212783   6.849   1.166   0.876
 3962SOL     OW12784   0.248   6.885   6.516
 3962SOL    HW112785   0.301   6.815   6.469
 3962SOL    HW212786   0.259   6.973   6.469
 3963SOL     OW12787   5.333   3.931   4.351
 3963SOL    HW112788   5.254   3.876   4.378
 3963SOL    HW212789   5.408   3.915   4.415
 3964SOL     OW12790   5.955   4.574   0.203
 3964SOL    HW112791   5.970   4.607   0.297
 3964SOL    HW212792   6.040   4.535   0.168
 3965SOL     OW12793   2.628   4.033   1.434
 3965SOL    HW112794   2.681   4.116   1.417
 3965SOL    HW212795   2.666   3.958   1.379
 3966SOL     OW12796   0.038   3.381   5.768
 3966SOL    HW112797   6.965   3.396   5.790
 3966SOL    HW212798   0.054   3.402   5.672
 3967SOL     OW12799   2.769   6.546   0.183
 3967SOL    HW112800   2.694   6.530   0.120
 3967SOL    HW212801   2.755   6.494   0.266
 3968SOL     OW12802   4.605   2.580   0.542
 3968SOL    HW112803   4.679   2.623   0.594
 3968SOL    HW212804   4.517   2.602   0.585
 3969SOL     OW12805   6.220   6.717   0.627
 3969SOL    HW112806   6.247   6.730   0.722
 3969SOL    HW212807   6.296   6.741   0.567
 3970SOL     OW12808   5.788   4.286   4.219
 3970SOL    HW112809   5.720   4.304   4.291
 3970SOL    HW212810   5.782   4.359   4.150
 3971SOL     OW12811   0.660   5.874   4.122
 3971SOL    HW112812   0.638   5.820   4.040
 3971SOL    HW212813   0.713   5.954   4.095
 3972SOL     OW12814   1.017   0.433   6.238
 3972SOL    HW112815   1.114   0.425   6.262
 3972SOL    HW212816   1.001   0.519   6.189
 3973SOL     OW12817   4.119   3.178   2.256
 3973SOL    HW112818   4.189   3.214   2.195
 3973SOL    HW212819   4.029   3.192   2.215
 3974SOL     OW12820   4.931   0.819   6.765
 3974SOL    HW112821   4.980   0.880   6.703
 3974SOL    HW212822   4.938   0.854   6.858
 3975SOL     OW12823   0.108   6.420   4.389
 3975SOL    HW112824   0.103   6.425   4.489
 3975SOL    HW212825   0.071   6.332   4.358
 3976SOL     OW12826   0.760   2.841   5.387
 3976SOL    HW112827   0.845   2.880   5.423
 3976SOL    HW212828   0.728   2.768   5.447
 3977SOL     OW12829   2.881   5.002   5.646
 3977SOL    HW112830   2.878   4.910   5.685
 3977SOL    HW212831   2.799   5.018   5.591
 3978SOL     OW12832   5.005   2.963   6.469
 3978SOL    HW112833   5.076   2.982   6.537
 3978SOL    HW212834   5.014   3.027   6.392
 3979SOL     OW12835   1.270   5.959   3.226
 3979SOL    HW112836   1.295   5.898   3.301
 3979SOL    HW212837   1.238   5.904   3.148
 3980SOL     OW12838   4.784   4.007   4.453
 3980SOL    HW112839   4.769   3.909   4.459
 3980SOL    HW212840   4.829   4.029   4.366
 3981SOL     OW12841   0.051   1.241   6.411
 3981SOL    HW112842   0.111   1.237   6.331
 3981SOL    HW212843   6.979   1.232   6.382
 3982SOL     OW12844   1.933   3.166   4.286
 3982SOL    HW112845   1.873   3.128   4.357
 3982SOL    HW212846   1.979   3.247   4.321
 3983SOL     OW12847   2.917   0.338   3.751
 3983SOL    HW112848   2.978   0.380   3.819
 3983SOL    HW212849   2.869   0.409   3.700
 3984SOL     OW12850   1.446   5.659   2.130
 3984SOL    HW112851   1.514   5.684   2.199
 3984SOL    HW212852   1.471   5.571   2.088
 3985SOL     OW12853   1.523   2.808   1.592
 3985SOL    HW112854   1.569   2.784   1.506
 3985SOL    HW212855   1.523   2.907   1.604
 3986SOL     OW12856   6.812   2.254   2.985
 3986SOL    HW112857   6.844   2.193   3.058
 3986SOL    HW212858   6.820   2.207   2.897
 3987SOL     OW12859   0.670   4.166   5.287
 3987SOL    HW112860   0.610   4.235   5.246
 3987SOL    HW212861   0.615   4.096   5.331
 3988SOL     OW12862   5.276   0.038   1.942
 3988SOL    HW112863   5.289   6.976   1.992
 3988SOL    HW212864   5.330   0.111   1.986
 3989SOL     OW12865   4.525   1.112   5.580
 3989SOL    HW112866   4.572   1.043   5.525
 3989SOL    HW212867   4.541   1.202   5.541
 3990SOL     OW12868   6.141   0.466   4.186
 3990SOL    HW112869   6.049   0.500   4.204
 3990SOL    HW212870   6.138   0.393   4.118
 3991SOL     OW12871   6.494   2.031   3.524
 3991SOL    HW112872   6.529   2.119   3.557
 3991SOL    HW212873   6.403   2.045   3.483
 3992SOL     OW12874   5.533   3.659   5.986
 3992SOL    HW112875   5.546   3.701   5.896
 3992SOL    HW212876   5.539   3.728   6.057
 3993SOL     OW12877   1.393   0.665   4.077
 3993SOL    HW112878   1.472   0.640   4.133
 3993SOL    HW212879   1.424   0.711   3.994
 3994SOL     OW12880   2.710   1.993   3.771
 3994SOL    HW112881   2.805   1.973   3.746
 3994SOL    HW212882   2.674   1.920   3.829
 3995SOL     OW12883   1.322   3.167   1.848
 3995SOL    HW112884   1.232   3.202   1.821
 3995SOL    HW212885   1.350   3.211   1.933
 3996SOL     OW12886   6.740   6.525   4.979
 3996SOL    HW112887   6.649   6.551   5.010
 3996SOL    HW212888   6.786   6.471   5.050
 3997SOL     OW12889   5.828   3.997   4.458
 3997SOL    HW112890   5.841   4.013   4.556
 3997SOL    HW212891   5.912   3.957   4.419
 3998SOL     OW12892   4.588   1.869   3.708
 3998SOL    HW112893   4.545   1.795   3.656
 3998SOL    HW212894   4.688   1.859   3.702
 3999SOL     OW12895   5.201   2.618   0.857
 3999SOL    HW112896   5.181   2.618   0.955
 3999SOL    HW212897   5.196   2.711   0.822
 4000SOL     OW12898   2.089   4.633   2.784
 4000SOL    HW112899   2.117   4.646   2.689
 4000SOL    HW212900   2.048   4.718   2.818
 4001SOL     OW12901   0.711   5.990   4.543
 4001SOL    HW112902   0.777   5.918   4.560
 4001SOL    HW212903   0.713   6.056   4.618
 4002SOL     OW12904   3.926   3.695   4.485
 4002SOL    HW112905   3.963   3.602   4.487
 4002SOL    HW212906   3.991   3.758   4.527
 4003SOL     OW12907   2.643   1.146   4.722
 4003SOL    HW112908   2.625   1.110   4.814
 4003SOL    HW212909   2.711   1.220   4.728
 4004SOL     OW12910   1.946   3.688   4.977
 4004SOL    HW112911   1.997   3.773   4.985
 4004SOL    HW212912   2.000   3.621   4.926
 4005SOL     OW12913   5.720   2.819   0.728
 4005SOL    HW112914   5.710   2.798   0.825
 4005SOL    HW212915   5.634   2.855   0.692
 4006SOL     OW12916   0.063   6.043   2.043
 4006SOL    HW112917   0.100   5.951   2.054
 4006SOL    HW212918   0.124   6.097   1.984
 4007SOL     OW12919   0.548   1.365   1.920
 4007SOL    HW112920   0.609   1.431   1.963
 4007SOL    HW212921   0.466   1.354   1.977
 4008SOL     OW12922   3.956   0.885   1.616
 4008SOL    HW112923   4.019   0.841   1.552
 4008SOL    HW212924   3.865   0.892   1.575
 4009SOL     OW12925   3.845   2.558   1.088
 4009SOL    HW112926   3.878   2.622   1.157
 4009SOL    HW212927   3.865   2.464   1.117
 4010SOL     OW12928   1.915   4.619   1.073
 4010SOL    HW112929   2.010   4.619   1.106
 4010SOL    HW212930   1.863   4.690   1.120
 4011SOL     OW12931   6.509   6.854   5.995
 4011SOL    HW112932   6.505   6.847   5.895
 4011SOL    HW212933   6.416   6.853   6.032
 4012SOL     OW12934   5.649   5.357   1.920
 4012SOL    HW112935   5.676   5.260   1.922
 4012SOL    HW212936   5.558   5.367   1.961
 4013SOL     OW12937   0.182   1.723   0.207
 4013SOL    HW112938   0.201   1.781   0.286
 4013SOL    HW212939   0.140   1.778   0.135
 4014SOL     OW12940   3.534   5.932   2.771
 4014SOL    HW112941   3.539   5.891   2.679
 4014SOL    HW212942   3.449   5.904   2.815
 4015SOL     OW12943   3.945   6.323   4.953
 4015SOL    HW112944   3.969   6.253   5.021
 4015SOL    HW212945   4.028   6.373   4.927
 4016SOL     OW12946   4.824   5.481   4.571
 4016SOL    HW112947   4.906   5.425   4.562
 4016SOL    HW212948   4.745   5.430   4.536
 4017SOL     OW12949   2.123   5.719   6.077
 4017SOL    HW112950   2.029   5.749   6.088
 4017SOL    HW212951   2.125   5.632   6.028
 4018SOL     OW12952   4.448   5.500   1.169
 4018SOL    HW112953   4.530   5.472   1.219
 4018SOL    HW212954   4.368   5.459   1.213
 4019SOL     OW12955   6.899   2.612   2.780
 4019SOL    HW112956   6.885   2.532   2.721
 4019SOL    HW212957   6.899   2.695   2.724
 4020SOL     OW12958   6.778   5.451   4.385
 4020SOL    HW112959   6.761   5.547   4.404
 4020SOL    HW212960   6.855   5.443   4.322
 4021SOL     OW12961   4.601   5.237   6.037
 4021SOL    HW112962   4.660   5.316   6.020
 4021SOL    HW212963   4.652   5.169   6.089
 4022SOL     OW12964   3.361   0.260   1.289
 4022SOL    HW112965   3.447   0.258   1.237
 4022SOL    HW212966   3.333   0.166   1.309
 4023SOL     OW12967   0.378   1.908   4.049
 4023SOL    HW112968   0.393   1.878   4.143
 4023SOL    HW212969   0.333   1.836   3.997
 4024SOL     OW12970   0.459   6.273   6.145
 4024SOL    HW112971   0.557   6.276   6.165
 4024SOL    HW212972   0.445   6.234   6.054
 4025SOL     OW12973   6.671   4.873   4.123
 4025SOL    HW112974   6.577   4.858   4.154
 4025SOL    HW212975   6.719   4.932   4.188
 4026SOL     OW12976   0.329   6.896   4.285
 4026SOL    HW112977   0.324   6.797   4.269
 4026SOL    HW212978   0.415   6.917   4.331
 4027SOL     OW12979   2.976   5.213   5.274
 4027SOL    HW112980   2.959   5.290   5.335
 4027SOL    HW212981   2.894   5.156   5.268
 4028SOL     OW12982   5.361   1.664   4.578
 4028SOL    HW112983   5.446   1.694   4.622
 4028SOL    HW212984   5.283   1.705   4.625
 4029SOL     OW12985   1.020   6.930   0.681
 4029SOL    HW112986   1.086   6.910   0.754
 4029SOL    HW212987   1.028   0.003   0.654
 4030SOL     OW12988   0.361   1.845   2.003
 4030SOL    HW112989   0.456   1.835   1.975
 4030SOL    HW212990   0.330   1.938   1.985
 4031SOL     OW12991   5.944   5.666   0.633
 4031SOL    HW112992   5.905   5.585   0.677
 4031SOL    HW212993   6.008   5.638   0.562
 4032SOL     OW12994   5.346   1.681   2.951
 4032SOL    HW112995   5.301   1.654   2.866
 4032SOL    HW212996   5.445   1.683   2.937
 4033SOL     OW12997   1.632   3.096   2.900
 4033SOL    HW112998   1.696   3.032   2.944
 4033SOL    HW212999   1.661   3.110   2.805
 4034SOL     OW13000   1.450   2.552   4.372
 4034SOL    HW113001   1.374   2.595   4.323
 4034SOL    HW213002   1.520   2.523   4.306
 4035SOL     OW13003   4.382   2.502   1.825
 4035SOL    HW113004   4.358   2.435   1.896
 4035SOL    HW213005   4.299   2.548   1.794
 4036SOL     OW13006   4.097   6.211   3.336
 4036SOL    HW113007   4.175   6.267   3.365
 4036SOL    HW213008   4.013   6.253   3.370
 4037SOL     OW13009   2.038   2.360   6.602
 4037SOL    HW113010   2.118   2.322   6.556
 4037SOL    HW213011   1.981   2.286   6.637
 4038SOL     OW13012   3.527   4.854   5.876
 4038SOL    HW113013   3.608   4.912   5.888
 4038SOL    HW213014   3.543   4.790   5.801
 4039SOL     OW13015   6.076   4.464   1.840
 4039SOL    HW113016   6.147   4.477   1.772
 4039SOL    HW213017   6.117   4.430   1.925
 4040SOL     OW13018   3.455   0.498   5.144
 4040SOL    HW113019   3.472   0.421   5.206
 4040SOL    HW213020   3.538   0.554   5.137
 4041SOL     OW13021   1.264   5.677   1.710
 4041SOL    HW113022   1.333   5.661   1.780
 4041SOL    HW213023   1.197   5.602   1.712
 4042SOL     OW13024   0.066   1.452   3.131
 4042SOL    HW113025   0.163   1.430   3.137
 4042SOL    HW213026   0.053   1.551   3.140
 4043SOL     OW13027   4.375   2.169   5.955
 4043SOL    HW113028   4.324   2.136   6.034
 4043SOL    HW213029   4.387   2.268   5.961
 4044SOL     OW13030   4.512   4.548   3.319
 4044SOL    HW113031   4.528   4.501   3.232
 4044SOL    HW213032   4.541   4.489   3.394
 4045SOL     OW13033   4.677   1.487   5.252
 4045SOL    HW113034   4.588   1.448   5.273
 4045SOL    HW213035   4.710   1.450   5.166
 4046SOL     OW13036   4.910   1.485   4.493
 4046SOL    HW113037   4.946   1.416   4.557
 4046SOL    HW213038   4.978   1.558   4.482
 4047SOL     OW13039   3.675   2.413   6.648
 4047SOL    HW113040   3.640   2.359   6.724
 4047SOL    HW213041   3.643   2.373   6.562
 4048SOL     OW13042   4.815   2.062   3.455
 4048SOL    HW113043   4.857   2.096   3.371
 4048SOL    HW213044   4.823   1.962   3.458
 4049SOL     OW13045   4.199   3.781   1.174
 4049SOL    HW113046   4.111   3.734   1.175
 4049SOL    HW213047   4.233   3.790   1.267
 4050SOL     OW13048   0.055   4.934   2.566
 4050SOL    HW113049   0.092   4.855   2.517
 4050SOL    HW213050   0.131   4.992   2.597
 4051SOL     OW13051   5.356   0.536   4.856
 4051SOL    HW113052   5.290   0.606   4.831
 4051SOL    HW213053   5.418   0.571   4.926
 4052SOL     OW13054   4.941   1.771   4.504
 4052SOL    HW113055   4.873   1.828   4.551
 4052SOL    HW213056   5.011   1.830   4.463
 4053SOL     OW13057   0.936   5.263   3.812
 4053SOL    HW113058   0.854   5.318   3.801
 4053SOL    HW213059   0.911   5.170   3.839
 4054SOL     OW13060   4.655   3.303   1.257
 4054SOL    HW113061   4.715   3.350   1.191
 4054SOL    HW213062   4.560   3.330   1.240
 4055SOL     OW13063   0.009   4.218   0.064
 4055SOL    HW113064   7.008   4.169   0.148
 4055SOL    HW213065   7.006   4.315   0.073
 4056SOL     OW13066   5.227   3.170   7.019
 4056SOL    HW113067   5.144   3.122   0.025
 4056SOL    HW213068   5.287   3.106   6.970
 4057SOL     OW13069   0.061   3.499   6.661
 4057SOL    HW113070   0.056   3.491   6.561
 4057SOL    HW213071   0.066   3.595   6.687
 4058SOL     OW13072   3.481   0.115   4.382
 4058SOL    HW113073   3.489   0.111   4.282
 4058SOL    HW213074   3.417   0.187   4.407
 4059SOL     OW13075   0.655   1.379   3.993
 4059SOL    HW113076   0.659   1.479   3.989
 4059SOL    HW213077   0.625   1.343   3.904
 4060SOL     OW13078   0.254   6.111   4.454
 4060SOL    HW113079   0.249   6.162   4.539
 4060SOL    HW213080   0.176   6.135   4.396
 4061SOL     OW13081   0.566   4.920   1.898
 4061SOL    HW113082   0.509   4.880   1.970
 4061SOL    HW213083   0.520   4.907   1.809
 4062SOL     OW13084   1.924   3.858   0.381
 4062SOL    HW113085   2.000   3.905   0.336
 4062SOL    HW213086   1.848   3.921   0.395
 4063SOL     OW13087   3.660   0.677   0.885
 4063SOL    HW113088   3.627   0.583   0.887
 4063SOL    HW213089   3.693   0.703   0.976
 4064SOL     OW13090   2.210   1.195   6.029
 4064SOL    HW113091   2.232   1.230   5.938
 4064SOL    HW213092   2.280   1.130   6.058
 4065SOL     OW13093   2.407   1.363   1.630
 4065SOL    HW113094   2.481   1.429   1.614
 4065SOL    HW213095   2.320   1.405   1.605
 4066SOL     OW13096   0.420   4.232   4.040
 4066SOL    HW113097   0.501   4.257   3.987
 4066SOL    HW213098   0.339   4.272   3.998
 4067SOL     OW13099   6.695   4.738   0.722
 4067SOL    HW113100   6.749   4.669   0.674
 4067SOL    HW213101   6.756   4.797   0.775
 4068SOL     OW13102   2.134   2.844   5.164
 4068SOL    HW113103   2.204   2.913   5.180
 4068SOL    HW213104   2.114   2.796   5.250
 4069SOL     OW13105   4.878   6.650   5.780
 4069SOL    HW113106   4.953   6.605   5.827
 4069SOL    HW213107   4.873   6.746   5.809
 4070SOL     OW13108   1.338   3.456   4.173
 4070SOL    HW113109   1.287   3.542   4.178
 4070SOL    HW213110   1.410   3.463   4.104
 4071SOL     OW13111   1.846   1.118   4.608
 4071SOL    HW113112   1.758   1.073   4.622
 4071SOL    HW213113   1.837   1.216   4.626
 4072SOL     OW13114   3.058   6.314   2.245
 4072SOL    HW113115   3.072   6.317   2.344
 4072SOL    HW213116   2.970   6.272   2.224
 4073SOL     OW13117   4.084   5.085   0.121
 4073SOL    HW113118   3.984   5.079   0.133
 4073SOL    HW213119   4.129   5.071   0.209
 4074SOL     OW13120   1.551   5.415   2.319
 4074SOL    HW113121   1.582   5.498   2.367
 4074SOL    HW213122   1.596   5.410   2.230
 4075SOL     OW13123   6.071   1.375   0.196
 4075SOL    HW113124   6.034   1.374   0.289
 4075SOL    HW213125   6.109   1.285   0.174
 4076SOL     OW13126   2.381   5.843   3.729
 4076SOL    HW113127   2.330   5.850   3.643
 4076SOL    HW213128   2.391   5.933   3.770
 4077SOL     OW13129   3.398   1.510   1.596
 4077SOL    HW113130   3.333   1.577   1.632
 4077SOL    HW213131   3.382   1.421   1.639
 4078SOL     OW13132   3.701   5.002   2.447
 4078SOL    HW113133   3.697   5.100   2.428
 4078SOL    HW213134   3.611   4.961   2.430
 4079SOL     OW13135   0.080   2.062   4.107
 4079SOL    HW113136   0.160   2.093   4.054
 4079SOL    HW213137   0.092   1.965   4.131
 4080SOL     OW13138   6.973   2.225   5.040
 4080SOL    HW113139   6.875   2.245   5.045
 4080SOL    HW213140   6.985   2.134   4.999
 4081SOL     OW13141   0.924   3.866   3.481
 4081SOL    HW113142   0.878   3.943   3.438
 4081SOL    HW213143   1.017   3.893   3.508
 4082SOL     OW13144   0.635   3.394   6.791
 4082SOL    HW113145   0.621   3.343   6.706
 4082SOL    HW213146   0.729   3.378   6.824
 4083SOL     OW13147   6.870   2.854   5.284
 4083SOL    HW113148   6.871   2.855   5.184
 4083SOL    HW213149   6.779   2.880   5.316
 4084SOL     OW13150   6.282   1.081   4.580
 4084SOL    HW113151   6.302   1.009   4.513
 4084SOL    HW213152   6.186   1.076   4.605
 4085SOL     OW13153   2.673   5.913   0.240
 4085SOL    HW113154   2.697   6.006   0.213
 4085SOL    HW213155   2.579   5.893   0.211
 4086SOL     OW13156   1.384   4.118   1.293
 4086SOL    HW113157   1.311   4.051   1.283
 4086SOL    HW213158   1.416   4.147   1.203
 4087SOL     OW13159   2.336   1.747   2.656
 4087SOL    HW113160   2.282   1.672   2.692
 4087SOL    HW213161   2.357   1.811   2.730
 4088SOL     OW13162   6.690   1.682   0.320
 4088SOL    HW113163   6.626   1.658   0.393
 4088SOL    HW213164   6.779   1.641   0.340
 4089SOL     OW13165   0.953   1.208   5.175
 4089SOL    HW113166   0.910   1.298   5.187
 4089SOL    HW213167   0.961   1.187   5.078
 4090SOL     OW13168   3.218   4.854   6.365
 4090SOL    HW113169   3.290   4.897   6.420
 4090SOL    HW213170   3.201   4.909   6.283
 4091SOL     OW13171   4.259   0.434   1.166
 4091SOL    HW113172   4.359   0.428   1.176
 4091SOL    HW213173   4.229   0.367   1.098
 4092SOL     OW13174   6.690   1.595   3.990
 4092SOL    HW113175   6.735   1.533   3.926
 4092SOL    HW213176   6.757   1.659   4.027
 4093SOL     OW13177   5.568   6.770   4.544
 4093SOL    HW113178   5.518   6.738   4.463
 4093SOL    HW213179   5.650   6.715   4.557
 4094SOL     OW13180   3.568   4.377   5.630
 4094SOL    HW113181   3.494   4.424   5.677
 4094SOL    HW213182   3.572   4.407   5.535
 4095SOL     OW13183   1.800   3.436   5.688
 4095SOL    HW113184   1.771   3.496   5.763
 4095SOL    HW213185   1.891   3.463   5.657
 4096SOL     OW13186   4.523   4.749   2.202
 4096SOL    HW113187   4.555   4.756   2.296
 4096SOL    HW213188   4.543   4.834   2.153
 4097SOL     OW13189   3.948   3.938   3.595
 4097SOL    HW113190   4.020   3.902   3.654
 4097SOL    HW213191   3.987   3.963   3.506
 4098SOL     OW13192   0.807   3.416   2.416
 4098SOL    HW113193   0.716   3.418   2.457
 4098SOL    HW213194   0.854   3.332   2.442
 4099SOL     OW13195   2.420   6.096   2.240
 4099SOL    HW113196   2.337   6.062   2.284
 4099SOL    HW213197   2.413   6.195   2.227
 4100SOL     OW13198   3.794   6.497   3.162
 4100SOL    HW113199   3.735   6.495   3.082
 4100SOL    HW213200   3.761   6.431   3.230
 4101SOL     OW13201   4.544   1.405   0.273
 4101SOL    HW113202   4.599   1.488   0.285
 4101SOL    HW213203   4.588   1.346   0.206
 4102SOL     OW13204   5.254   1.562   0.369
 4102SOL    HW113205   5.337   1.594   0.415
 4102SOL    HW213206   5.233   1.622   0.291
 4103SOL     OW13207   0.600   0.004   2.103
 4103SOL    HW113208   0.656   0.085   2.120
 4103SOL    HW213209   0.542   0.020   2.023
 4104SOL     OW13210   2.048   4.906   2.837
 4104SOL    HW113211   2.100   4.931   2.918
 4104SOL    HW213212   2.066   4.972   2.764
 4105SOL     OW13213   6.161   5.018   0.080
 4105SOL    HW113214   6.222   4.962   0.024
 4105SOL    HW213215   6.171   4.993   0.176
 4106SOL     OW13216   6.979   3.593   4.668
 4106SOL    HW113217   6.992   3.562   4.763
 4106SOL    HW213218   6.883   3.581   4.642
 4107SOL     OW13219   6.746   0.619   0.317
 4107SOL    HW113220   6.842   0.642   0.310
 4107SOL    HW213221   6.734   0.543   0.380
 4108SOL     OW13222   6.507   2.504   5.024
 4108SOL    HW113223   6.474   2.597   5.040
 4108SOL    HW213224   6.488   2.477   4.929
 4109SOL     OW13225   3.022   6.548   3.798
 4109SOL    HW113226   2.960   6.474   3.824
 4109SOL    HW213227   3.019   6.561   3.699
 4110SOL     OW13228   4.765   2.882   5.538
 4110SOL    HW113229   4.769   2.783   5.550
 4110SOL    HW213230   4.804   2.927   5.619
 4111SOL     OW13231   3.961   3.273   6.369
 4111SOL    HW113232   3.898   3.341   6.330
 4111SOL    HW213233   3.978   3.202   6.301
 4112SOL     OW13234   4.195   0.379   4.946
 4112SOL    HW113235   4.210   0.294   4.997
 4112SOL    HW213236   4.099   0.387   4.921
 4113SOL     OW13237   3.659   5.186   5.106
 4113SOL    HW113238   3.684   5.230   5.019
 4113SOL    HW213239   3.657   5.255   5.178
 4114SOL     OW13240   3.842   2.077   2.507
 4114SOL    HW113241   3.751   2.080   2.465
 4114SOL    HW213242   3.912   2.074   2.434
 4115SOL     OW13243   5.426   4.458   2.195
 4115SOL    HW113244   5.327   4.464   2.183
 4115SOL    HW213245   5.453   4.515   2.273
 4116SOL     OW13246   3.430   0.818   2.371
 4116SOL    HW113247   3.343   0.845   2.329
 4116SOL    HW213248   3.491   0.897   2.373
 4117SOL     OW13249   0.754   5.727   1.601
 4117SOL    HW113250   0.788   5.816   1.570
 4117SOL    HW213251   0.778   5.714   1.697
 4118SOL     OW13252   2.472   6.857   0.109
 4118SOL    HW113253   2.496   6.792   0.037
 4118SOL    HW213254   2.514   6.946   0.090
 4119SOL     OW13255   4.877   1.060   3.506
 4119SOL    HW113256   4.946   1.111   3.558
 4119SOL    HW213257   4.817   1.124   3.459
 4120SOL     OW13258   4.895   1.101   2.108
 4120SOL    HW113259   4.807   1.123   2.067
 4120SOL    HW213260   4.882   1.039   2.185
 4121SOL     OW13261   6.745   2.335   4.817
 4121SOL    HW113262   6.664   2.353   4.762
 4121SOL    HW213263   6.727   2.360   4.912
 4122SOL     OW13264   1.753   5.504   0.165
 4122SOL    HW113265   1.760   5.431   0.233
 4122SOL    HW213266   1.657   5.526   0.149
 4123SOL     OW13267   4.138   4.044   6.101
 4123SOL    HW113268   4.107   4.106   6.029
 4123SOL    HW213269   4.169   3.959   6.060
 4124SOL     OW13270   4.229   6.383   3.486
 4124SOL    HW113271   4.217   6.345   3.578
 4124SOL    HW213272   4.326   6.398   3.469
 4125SOL     OW13273   5.335   1.025   1.322
 4125SOL    HW113274   5.281   0.941   1.314
 4125SOL    HW213275   5.276   1.104   1.305
 4126SOL     OW13276   2.212   5.069   4.390
 4126SOL    HW113277   2.280   5.011   4.435
 4126SOL    HW213278   2.208   5.047   4.293
 4127SOL     OW13279   6.479   4.270   4.735
 4127SOL    HW113280   6.477   4.241   4.639
 4127SOL    HW213281   6.413   4.344   4.748
 4128SOL     OW13282   0.766   2.101   2.004
 4128SOL    HW113283   0.765   2.068   2.098
 4128SOL    HW213284   0.847   2.160   1.990
 4129SOL     OW13285   6.409   2.553   6.173
 4129SOL    HW113286   6.496   2.597   6.192
 4129SOL    HW213287   6.391   2.554   6.074
 4130SOL     OW13288   6.756   2.952   1.003
 4130SOL    HW113289   6.719   3.020   1.066
 4130SOL    HW213290   6.855   2.960   1.001
 4131SOL     OW13291   0.224   4.013   3.205
 4131SOL    HW113292   0.187   4.014   3.112
 4131SOL    HW213293   0.149   4.025   3.270
 4132SOL     OW13294   4.831   2.241   4.970
 4132SOL    HW113295   4.788   2.171   5.027
 4132SOL    HW213296   4.805   2.332   5.004
 4133SOL     OW13297   2.133   2.509   0.981
 4133SOL    HW113298   2.184   2.560   1.050
 4133SOL    HW213299   2.166   2.533   0.890
 4134SOL     OW13300   1.859   1.694   0.451
 4134SOL    HW113301   1.948   1.673   0.411
 4134SOL    HW213302   1.825   1.615   0.502
 4135SOL     OW13303   2.047   0.578   1.063
 4135SOL    HW113304   1.971   0.643   1.060
 4135SOL    HW213305   2.025   0.498   1.008
 4136SOL     OW13306   0.837   1.840   3.132
 4136SOL    HW113307   0.921   1.814   3.180
 4136SOL    HW213308   0.775   1.761   3.128
 4137SOL     OW13309   3.747   3.617   5.886
 4137SOL    HW113310   3.769   3.564   5.967
 4137SOL    HW213311   3.650   3.608   5.865
 4138SOL     OW13312   4.369   5.819   2.371
 4138SOL    HW113313   4.317   5.902   2.388
 4138SOL    HW213314   4.456   5.823   2.421
 4139SOL     OW13315   2.510   0.711   0.479
 4139SOL    HW113316   2.491   0.656   0.560
 4139SOL    HW213317   2.560   0.794   0.506
 4140SOL     OW13318   4.301   1.827   5.591
 4140SOL    HW113319   4.400   1.809   5.587
 4140SOL    HW213320   4.254   1.767   5.526
 4141SOL     OW13321   5.238   5.064   0.045
 4141SOL    HW113322   5.266   5.151   0.006
 4141SOL    HW213323   5.217   5.075   0.142
 4142SOL     OW13324   6.238   2.583   1.330
 4142SOL    HW113325   6.270   2.609   1.421
 4142SOL    HW213326   6.183   2.657   1.292
 4143SOL     OW13327   0.655   2.743   1.925
 4143SOL    HW113328   0.740   2.690   1.916
 4143SOL    HW213329   0.587   2.708   1.861
 4144SOL     OW13330   4.424   0.710   2.052
 4144SOL    HW113331   4.361   0.777   2.091
 4144SOL    HW213332   4.518   0.742   2.064
 4145SOL     OW13333   3.146   0.321   2.857
 4145SOL    HW113334   3.058   0.326   2.809
 4145SOL    HW213335   3.172   0.226   2.869
 4146SOL     OW13336   4.879   5.124   0.715
 4146SOL    HW113337   4.806   5.063   0.686
 4146SOL    HW213338   4.931   5.154   0.636
 4147SOL     OW13339   2.536   2.156   6.230
 4147SOL    HW113340   2.602   2.141   6.156
 4147SOL    HW213341   2.488   2.070   6.249
 4148SOL     OW13342   6.712   0.231   2.892
 4148SOL    HW113343   6.666   0.151   2.930
 4148SOL    HW213344   6.785   0.260   2.954
 4149SOL     OW13345   4.898   4.100   1.899
 4149SOL    HW113346   4.973   4.101   1.833
 4149SOL    HW213347   4.813   4.074   1.852
 4150SOL     OW13348   4.804   0.478   5.826
 4150SOL    HW113349   4.891   0.492   5.872
 4150SOL    HW213350   4.753   0.405   5.872
 4151SOL     OW13351   0.307   5.468   0.428
 4151SOL    HW113352   0.285   5.380   0.385
 4151SOL    HW213353   0.293   5.460   0.527
 4152SOL     OW13354   3.226   3.889   1.521
 4152SOL    HW113355   3.203   3.974   1.568
 4152SOL    HW213356   3.304   3.906   1.460
 4153SOL     OW13357   6.189   5.615   5.791
 4153SOL    HW113358   6.199   5.687   5.723
 4153SOL    HW213359   6.207   5.653   5.882
 4154SOL     OW13360   4.276   2.651   5.827
 4154SOL    HW113361   4.279   2.736   5.775
 4154SOL    HW213362   4.204   2.592   5.790
 4155SOL     OW13363   1.376   3.388   0.541
 4155SOL    HW113364   1.397   3.356   0.449
 4155SOL    HW213365   1.430   3.469   0.562
 4156SOL     OW13366   5.783   0.301   5.268
 4156SOL    HW113367   5.819   0.364   5.198
 4156SOL    HW213368   5.692   0.269   5.240
 4157SOL     OW13369   3.540   0.824   3.589
 4157SOL    HW113370   3.522   0.910   3.541
 4157SOL    HW213371   3.511   0.832   3.684
 4158SOL     OW13372   1.006   0.679   3.432
 4158SOL    HW113373   0.941   0.712   3.363
 4158SOL    HW213374   1.051   0.596   3.398
 4159SOL     OW13375   0.879   3.675   5.243
 4159SOL    HW113376   0.792   3.682   5.292
 4159SOL    HW213377   0.883   3.588   5.194
 4160SOL     OW13378   0.815   0.367   1.315
 4160SOL    HW113379   0.727   0.339   1.353
 4160SOL    HW213380   0.828   0.465   1.330
 4161SOL     OW13381   6.274   1.892   0.759
 4161SOL    HW113382   6.280   1.985   0.795
 4161SOL    HW213383   6.331   1.831   0.816
 4162SOL     OW13384   0.469   6.507   5.004
 4162SOL    HW113385   0.483   6.600   5.039
 4162SOL    HW213386   0.481   6.441   5.078
 4163SOL     OW13387   6.319   1.334   5.385
 4163SOL    HW113388   6.387   1.274   5.345
 4163SOL    HW213389   6.228   1.306   5.355
 4164SOL     OW13390   2.875   6.854   6.120
 4164SOL    HW113391   2.963   6.886   6.156
 4164SOL    HW213392   2.801   6.886   6.180
 4165SOL     OW13393   2.622   6.163   2.413
 4165SOL    HW113394   2.559   6.134   2.341
 4165SOL    HW213395   2.612   6.102   2.492
 4166SOL     OW13396   6.515   2.086   1.450
 4166SOL    HW113397   6.497   1.989   1.435
 4166SOL    HW213398   6.470   2.116   1.534
 4167SOL     OW13399   1.708   3.087   1.275
 4167SOL    HW113400   1.732   2.995   1.305
 4167SOL    HW213401   1.706   3.149   1.354
 4168SOL     OW13402   1.774   5.298   1.320
 4168SOL    HW113403   1.795   5.289   1.417
 4168SOL    HW213404   1.675   5.291   1.307
 4169SOL     OW13405   6.157   3.482   5.639
 4169SOL    HW113406   6.178   3.502   5.543
 4169SOL    HW213407   6.233   3.431   5.680
 4170SOL     OW13408   3.829   1.198   4.811
 4170SOL    HW113409   3.744   1.176   4.859
 4170SOL    HW213410   3.906   1.189   4.874
 4171SOL     OW13411   5.749   3.485   1.406
 4171SOL    HW113412   5.793   3.466   1.493
 4171SOL    HW213413   5.810   3.460   1.331
 4172SOL     OW13414   2.490   0.770   0.095
 4172SOL    HW113415   2.391   0.764   0.104
 4172SOL    HW213416   2.523   0.852   0.143
 4173SOL     OW13417   4.893   3.265   5.945
 4173SOL    HW113418   4.988   3.294   5.932
 4173SOL    HW213419   4.833   3.344   5.935
 4174SOL     OW13420   5.565   0.797   4.164
 4174SOL    HW113421   5.519   0.758   4.083
 4174SOL    HW213422   5.583   0.724   4.229
 4175SOL     OW13423   2.795   1.542   2.993
 4175SOL    HW113424   2.893   1.561   3.001
 4175SOL    HW213425   2.778   1.446   3.015
 4176SOL     OW13426   5.573   4.615   2.453
 4176SOL    HW113427   5.569   4.584   2.548
 4176SOL    HW213428   5.540   4.709   2.447
 4177SOL     OW13429   6.347   5.214   3.430
 4177SOL    HW113430   6.438   5.209   3.390
 4177SOL    HW213431   6.299   5.294   3.394
 4178SOL     OW13432   3.945   2.812   5.591
 4178SOL    HW113433   3.892   2.896   5.582
 4178SOL    HW213434   4.004   2.801   5.510
 4179SOL     OW13435   6.564   2.524   6.998
 4179SOL    HW113436   6.570   2.594   6.927
 4179SOL    HW213437   6.501   2.452   6.970
 4180SOL     OW13438   4.526   3.591   1.637
 4180SOL    HW113439   4.460   3.662   1.612
 4180SOL    HW213440   4.477   3.515   1.680
 4181SOL     OW13441   6.559   0.816   0.361
 4181SOL    HW113442   6.616   0.734   0.352
 4181SOL    HW213443   6.489   0.816   0.290
 4182SOL     OW13444   5.429   0.954   3.742
 4182SOL    HW113445   5.392   0.984   3.830
 4182SOL    HW213446   5.354   0.945   3.676
 4183SOL     OW13447   2.233   1.056   1.617
 4183SOL    HW113448   2.329   1.080   1.599
 4183SOL    HW213449   2.173   1.122   1.571
 4184SOL     OW13450   4.469   4.998   6.820
 4184SOL    HW113451   4.402   4.950   6.876
 4184SOL    HW213452   4.471   5.095   6.847
 4185SOL     OW13453   0.044   0.087   3.734
 4185SOL    HW113454   0.140   0.112   3.745
 4185SOL    HW213455   7.009   0.162   3.767
 4186SOL     OW13456   3.697   4.239   1.822
 4186SOL    HW113457   3.638   4.251   1.901
 4186SOL    HW213458   3.741   4.149   1.826
 4187SOL     OW13459   4.048   5.272   6.651
 4187SOL    HW113460   3.955   5.287   6.617
 4187SOL    HW213461   4.061   5.324   6.735
 4188SOL     OW13462   5.325   6.338   4.157
 4188SOL    HW113463   5.280   6.368   4.074
 4188SOL    HW213464   5.424   6.330   4.141
 4189SOL     OW13465   1.631   3.702   3.287
 4189SOL    HW113466   1.708   3.663   3.237
 4189SOL    HW213467   1.666   3.749   3.369
 4190SOL     OW13468   2.645   0.439   1.366
 4190SOL    HW113469   2.548   0.454   1.384
 4190SOL    HW213470   2.699   0.476   1.442
 4191SOL     OW13471   0.635   2.372   2.236
 4191SOL    HW113472   0.613   2.443   2.304
 4191SOL    HW213473   0.624   2.282   2.277
 4192SOL     OW13474   5.446   0.443   3.234
 4192SOL    HW113475   5.422   0.375   3.164
 4192SOL    HW213476   5.437   0.534   3.195
 4193SOL     OW13477   1.909   6.388   2.931
 4193SOL    HW113478   2.008   6.399   2.945
 4193SOL    HW213479   1.869   6.341   3.010
 4194SOL     OW13480   5.798   0.485   3.612
 4194SOL    HW113481   5.815   0.474   3.710
 4194SOL    HW213482   5.830   0.574   3.582
 4195SOL     OW13483   5.199   0.982   3.610
 4195SOL    HW113484   5.224   1.077   3.592
 4195SOL    HW213485   5.105   0.978   3.642
 4196SOL     OW13486   4.744   2.561   3.631
 4196SOL    HW113487   4.734   2.476   3.578
 4196SOL    HW213488   4.701   2.549   3.721
 4197SOL     OW13489   5.358   3.977   5.037
 4197SOL    HW113490   5.322   3.966   4.945
 4197SOL    HW213491   5.321   4.061   5.078
 4198SOL     OW13492   6.294   3.826   6.220
 4198SOL    HW113493   6.212   3.796   6.268
 4198SOL    HW213494   6.313   3.763   6.144
 4199SOL     OW13495   3.111   4.029   5.680
 4199SOL    HW113496   3.177   3.954   5.690
 4199SOL    HW213497   3.126   4.096   5.752
 4200SOL     OW13498   2.731   0.186   6.737
 4200SOL    HW113499   2.768   0.279   6.731
 4200SOL    HW213500   2.806   0.120   6.727
 4201SOL     OW13501   6.093   6.862   4.748
 4201SOL    HW113502   6.048   6.901   4.829
 4201SOL    HW213503   6.142   6.934   4.699
 4202SOL     OW13504   5.491   3.523   5.580
 4202SOL    HW113505   5.413   3.584   5.563
 4202SOL    HW213506   5.572   3.557   5.532
 4203SOL     OW13507   4.297   5.362   4.219
 4203SOL    HW113508   4.246   5.438   4.259
 4203SOL    HW213509   4.391   5.391   4.201
 4204SOL     OW13510   1.659   3.998   0.407
 4204SOL    HW113511   1.639   4.027   0.501
 4204SOL    HW213512   1.651   4.077   0.346
 4205SOL     OW13513   2.580   6.157   3.186
 4205SOL    HW113514   2.598   6.244   3.140
 4205SOL    HW213515   2.636   6.152   3.270
 4206SOL     OW13516   5.263   6.269   4.485
 4206SOL    HW113517   5.323   6.323   4.425
 4206SOL    HW213518   5.169   6.276   4.453
 4207SOL     OW13519   0.839   0.019   0.273
 4207SOL    HW113520   0.849   0.007   0.174
 4207SOL    HW213521   0.742   0.025   0.296
 4208SOL     OW13522   0.636   2.817   0.852
 4208SOL    HW113523   0.581   2.789   0.930
 4208SOL    HW213524   0.640   2.916   0.847
 4209SOL     OW13525   3.205   0.364   5.218
 4209SOL    HW113526   3.233   0.455   5.249
 4209SOL    HW213527   3.287   0.311   5.196
 4210SOL     OW13528   4.073   2.656   0.409
 4210SOL    HW113529   4.121   2.582   0.363
 4210SOL    HW213530   3.991   2.680   0.358
 4211SOL     OW13531   5.591   3.683   4.674
 4211SOL    HW113532   5.523   3.756   4.662
 4211SOL    HW213533   5.555   3.597   4.639
 4212SOL     OW13534   6.317   6.647   2.424
 4212SOL    HW113535   6.388   6.664   2.492
 4212SOL    HW213536   6.359   6.611   2.341
 4213SOL     OW13537   0.494   6.915   1.451
 4213SOL    HW113538   0.472   6.833   1.397
 4213SOL    HW213539   0.558   6.890   1.523
 4214SOL     OW13540   3.093   5.571   4.930
 4214SOL    HW113541   3.023   5.540   4.994
 4214SOL    HW213542   3.145   5.493   4.896
 4215SOL     OW13543   1.250   5.875   5.880
 4215SOL    HW113544   1.256   5.775   5.887
 4215SOL    HW213545   1.157   5.905   5.901
 4216SOL     OW13546   2.749   2.961   5.429
 4216SOL    HW113547   2.693   2.972   5.347
 4216SOL    HW213548   2.845   2.975   5.407
 4217SOL     OW13549   6.937   1.124   3.707
 4217SOL    HW113550   6.984   1.048   3.663
 4217SOL    HW213551   6.947   1.207   3.651
 4218SOL     OW13552   3.331   5.915   2.545
 4218SOL    HW113553   3.293   5.829   2.581
 4218SOL    HW213554   3.282   5.941   2.462
 4219SOL     OW13555   5.318   0.033   2.971
 4219SOL    HW113556   5.347   6.972   2.925
 4219SOL    HW213557   5.242   0.074   2.921
 4220SOL     OW13558   0.301   4.226   3.457
 4220SOL    HW113559   0.377   4.283   3.424
 4220SOL    HW213560   0.333   4.132   3.471
 4221SOL     OW13561   5.411   6.349   5.785
 4221SOL    HW113562   5.347   6.354   5.861
 4221SOL    HW213563   5.457   6.260   5.785
 4222SOL     OW13564   2.929   3.118   0.326
 4222SOL    HW113565   2.993   3.042   0.321
 4222SOL    HW213566   2.835   3.083   0.328
 4223SOL     OW13567   2.957   3.792   2.424
 4223SOL    HW113568   2.923   3.698   2.416
 4223SOL    HW213569   2.956   3.820   2.520
 4224SOL     OW13570   3.960   1.689   5.833
 4224SOL    HW113571   3.911   1.773   5.858
 4224SOL    HW213572   4.052   1.712   5.801
 4225SOL     OW13573   4.573   0.295   4.104
 4225SOL    HW113574   4.565   0.258   4.012
 4225SOL    HW213575   4.669   0.298   4.132
 4226SOL     OW13576   1.656   1.732   2.877
 4226SOL    HW113577   1.690   1.687   2.959
 4226SOL    HW213578   1.717   1.808   2.853
 4227SOL     OW13579   5.132   4.205   6.749
 4227SOL    HW113580   5.069   4.283   6.749
 4227SOL    HW213581   5.216   4.229   6.701
 4228SOL     OW13582   4.953   4.846   2.994
 4228SOL    HW113583   4.972   4.887   3.084
 4228SOL    HW213584   4.906   4.758   3.007
 4229SOL     OW13585   4.514   5.018   5.224
 4229SOL    HW113586   4.439   5.014   5.158
 4229SOL    HW213587   4.505   4.942   5.289
 4230SOL     OW13588   3.052   1.140   6.130
 4230SOL    HW113589   3.000   1.186   6.201
 4230SOL    HW213590   3.025   1.044   6.125
 4231SOL     OW13591   3.848   6.399   6.244
 4231SOL    HW113592   3.804   6.434   6.327
 4231SOL    HW213593   3.943   6.375   6.263
 4232SOL     OW13594   2.358   4.058   1.385
 4232SOL    HW113595   2.361   4.133   1.451
 4232SOL    HW213596   2.444   4.007   1.387
 4233SOL     OW13597   5.427   5.992   1.033
 4233SOL    HW113598   5.446   6.043   1.116
 4233SOL    HW213599   5.507   5.935   1.010
 4234SOL     OW13600   3.823   3.273   5.420
 4234SOL    HW113601   3.806   3.348   5.483
 4234SOL    HW213602   3.920   3.266   5.400
 4235SOL     OW13603   0.341   3.998   4.947
 4235SOL    HW113604   0.416   4.049   4.989
 4235SOL    HW213605   0.287   4.061   4.890
 4236SOL     OW13606   0.736   3.661   4.938
 4236SOL    HW113607   0.804   3.659   5.012
 4236SOL    HW213608   0.755   3.737   4.877
 4237SOL     OW13609   6.557   3.966   5.238
 4237SOL    HW113610   6.562   4.053   5.189
 4237SOL    HW213611   6.542   3.892   5.173
 4238SOL     OW13612   5.075   4.875   4.516
 4238SOL    HW113613   5.116   4.816   4.447
 4238SOL    HW213614   5.068   4.826   4.602
 4239SOL     OW13615   5.142   5.697   5.100
 4239SOL    HW113616   5.235   5.730   5.081
 4239SOL    HW213617   5.146   5.627   5.171
 4240SOL     OW13618   2.503   4.925   6.693
 4240SOL    HW113619   2.501   5.006   6.752
 4240SOL    HW213620   2.410   4.892   6.679
 4241SOL     OW13621   4.105   2.353   0.914
 4241SOL    HW113622   4.022   2.362   0.969
 4241SOL    HW213623   4.169   2.426   0.938
 4242SOL     OW13624   2.154   0.553   1.992
 4242SOL    HW113625   2.243   0.593   2.014
 4242SOL    HW213626   2.095   0.555   2.073
 4243SOL     OW13627   1.341   3.023   2.859
 4243SOL    HW113628   1.297   3.001   2.772
 4243SOL    HW213629   1.430   2.978   2.864
 4244SOL     OW13630   3.168   0.794   0.700
 4244SOL    HW113631   3.143   0.881   0.743
 4244SOL    HW213632   3.247   0.755   0.747
 4245SOL     OW13633   0.053   1.776   1.136
 4245SOL    HW113634   0.106   1.844   1.086
 4245SOL    HW213635   0.025   1.703   1.073
 4246SOL     OW13636   4.906   2.675   3.953
 4246SOL    HW113637   4.827   2.642   4.005
 4246SOL    HW213638   4.893   2.772   3.932
 4247SOL     OW13639   2.207   5.366   0.344
 4247SOL    HW113640   2.304   5.376   0.370
 4247SOL    HW213641   2.196   5.286   0.286
 4248SOL     OW13642   2.130   0.773   3.182
 4248SOL    HW113643   2.228   0.751   3.183
 4248SOL    HW213644   2.113   0.850   3.243
 4249SOL     OW13645   5.791   0.768   5.813
 4249SOL    HW113646   5.721   0.823   5.767
 4249SOL    HW213647   5.818   0.813   5.898
 4250SOL     OW13648   0.545   5.215   4.918
 4250SOL    HW113649   0.526   5.305   4.878
 4250SOL    HW213650   0.528   5.144   4.849
 4251SOL     OW13651   4.445   2.347   5.661
 4251SOL    HW113652   4.439   2.386   5.752
 4251SOL    HW213653   4.455   2.420   5.593
 4252SOL     OW13654   0.034   0.352   6.746
 4252SOL    HW113655   0.079   0.369   6.658
 4252SOL    HW213656   0.048   0.430   6.806
 4253SOL     OW13657   4.125   6.540   2.699
 4253SOL    HW113658   4.082   6.558   2.788
 4253SOL    HW213659   4.071   6.472   2.650
 4254SOL     OW13660   1.276   2.333   5.301
 4254SOL    HW113661   1.186   2.308   5.264
 4254SOL    HW213662   1.319   2.399   5.240
 4255SOL     OW13663   0.777   2.765   3.216
 4255SOL    HW113664   0.727   2.681   3.237
 4255SOL    HW213665   0.875   2.746   3.213
 4256SOL     OW13666   5.835   6.118   0.863
 4256SOL    HW113667   5.930   6.148   0.851
 4256SOL    HW213668   5.781   6.191   0.905
 4257SOL     OW13669   6.634   0.792   2.950
 4257SOL    HW113670   6.692   0.852   2.896
 4257SOL    HW213671   6.677   0.703   2.960
 4258SOL     OW13672   3.251   6.061   0.812
 4258SOL    HW113673   3.232   6.082   0.908
 4258SOL    HW213674   3.241   6.143   0.757
 4259SOL     OW13675   0.654   6.471   0.271
 4259SOL    HW113676   0.714   6.431   0.340
 4259SOL    HW213677   0.679   6.568   0.258
 4260SOL     OW13678   6.083   0.148   5.059
 4260SOL    HW113679   6.095   0.196   5.145
 4260SOL    HW213680   6.032   0.206   4.995
 4261SOL     OW13681   2.611   6.589   3.281
 4261SOL    HW113682   2.587   6.516   3.218
 4261SOL    HW213683   2.650   6.549   3.364
 4262SOL     OW13684   1.717   4.579   4.981
 4262SOL    HW113685   1.772   4.537   4.909
 4262SOL    HW213686   1.728   4.529   5.066
 4263SOL     OW13687   3.183   1.516   2.684
 4263SOL    HW113688   3.235   1.601   2.693
 4263SOL    HW213689   3.092   1.536   2.649
 4264SOL     OW13690   4.917   1.724   6.548
 4264SOL    HW113691   4.887   1.781   6.472
 4264SOL    HW213692   4.880   1.761   6.634
 4265SOL     OW13693   3.381   6.214   6.578
 4265SOL    HW113694   3.337   6.301   6.557
 4265SOL    HW213695   3.437   6.224   6.661
 4266SOL     OW13696   1.248   4.831   1.893
 4266SOL    HW113697   1.202   4.770   1.957
 4266SOL    HW213698   1.270   4.781   1.809
 4267SOL     OW13699   1.308   4.179   3.994
 4267SOL    HW113700   1.272   4.180   4.088
 4267SOL    HW213701   1.334   4.271   3.968
 4268SOL     OW13702   1.290   4.016   6.127
 4268SOL    HW113703   1.234   3.968   6.059
 4268SOL    HW213704   1.375   4.048   6.084
 4269SOL     OW13705   3.011   1.583   3.907
 4269SOL    HW113706   3.055   1.538   3.985
 4269SOL    HW213707   3.032   1.534   3.823
 4270SOL     OW13708   4.166   4.032   0.876
 4270SOL    HW113709   4.081   4.073   0.909
 4270SOL    HW213710   4.146   3.944   0.833
 4271SOL     OW13711   6.475   0.540   0.579
 4271SOL    HW113712   6.390   0.583   0.547
 4271SOL    HW213713   6.531   0.608   0.626
 4272SOL     OW13714   6.915   1.934   4.973
 4272SOL    HW113715   6.974   1.856   4.998
 4272SOL    HW213716   6.834   1.900   4.925
 4273SOL     OW13717   3.588   5.850   3.435
 4273SOL    HW113718   3.488   5.849   3.430
 4273SOL    HW213719   3.622   5.755   3.434
 4274SOL     OW13720   0.305   1.000   1.202
 4274SOL    HW113721   0.220   0.987   1.151
 4274SOL    HW213722   0.290   0.981   1.298
 4275SOL     OW13723   6.890   2.115   3.954
 4275SOL    HW113724   6.969   2.121   4.016
 4275SOL    HW213725   6.826   2.188   3.975
 4276SOL     OW13726   1.054   6.599   2.680
 4276SOL    HW113727   1.144   6.565   2.708
 4276SOL    HW213728   1.044   6.694   2.709
 4277SOL     OW13729   6.228   5.514   2.930
 4277SOL    HW113730   6.230   5.497   2.832
 4277SOL    HW213731   6.230   5.613   2.947
 4278SOL     OW13732   0.065   6.963   1.080
 4278SOL    HW113733   0.110   6.876   1.098
 4278SOL    HW213734   0.131   0.015   1.090
 4279SOL     OW13735   0.707   2.961   2.889
 4279SOL    HW113736   0.681   2.954   2.793
 4279SOL    HW213737   0.796   3.007   2.897
 4280SOL     OW13738   2.576   6.168   0.081
 4280SOL    HW113739   2.657   6.207   0.037
 4280SOL    HW213740   2.500   6.232   0.076
 4281SOL     OW13741   6.816   6.195   2.729
 4281SOL    HW113742   6.915   6.204   2.720
 4281SOL    HW213743   6.782   6.131   2.660
 4282SOL     OW13744   5.538   5.092   1.577
 4282SOL    HW113745   5.575   5.033   1.649
 4282SOL    HW213746   5.456   5.138   1.610
 4283SOL     OW13747   5.984   1.456   4.524
 4283SOL    HW113748   6.079   1.426   4.513
 4283SOL    HW213749   5.926   1.377   4.544
 4284SOL     OW13750   4.727   6.027   6.932
 4284SOL    HW113751   4.687   6.068   6.850
 4284SOL    HW213752   4.668   5.952   6.964
 4285SOL     OW13753   3.098   1.462   6.488
 4285SOL    HW113754   3.015   1.493   6.534
 4285SOL    HW213755   3.116   1.367   6.513
 4286SOL     OW13756   5.041   6.508   6.970
 4286SOL    HW113757   5.006   6.458   6.891
 4286SOL    HW213758   4.967   6.562   7.010
 4287SOL     OW13759   3.555   1.130   1.227
 4287SOL    HW113760   3.526   1.105   1.319
 4287SOL    HW213761   3.571   1.228   1.222
 4288SOL     OW13762   6.825   5.921   2.398
 4288SOL    HW113763   6.884   5.996   2.369
 4288SOL    HW213764   6.738   5.926   2.348
 4289SOL     OW13765   0.087   4.318   5.461
 4289SOL    HW113766   0.087   4.390   5.529
 4289SOL    HW213767   0.104   4.357   5.370
 4290SOL     OW13768   6.711   1.357   3.441
 4290SOL    HW113769   6.742   1.364   3.346
 4290SOL    HW213770   6.662   1.271   3.454
 4291SOL     OW13771   4.177   4.999   6.891
 4291SOL    HW113772   4.208   4.908   6.919
 4291SOL    HW213773   4.126   5.041   6.966
 4292SOL     OW13774   6.895   0.502   1.044
 4292SOL    HW113775   6.817   0.548   1.001
 4292SOL    HW213776   6.890   0.404   1.025
 4293SOL     OW13777   4.028   3.049   6.768
 4293SOL    HW113778   4.100   2.981   6.760
 4293SOL    HW213779   3.966   3.041   6.690
 4294SOL     OW13780   2.597   1.773   0.208
 4294SOL    HW113781   2.639   1.841   0.269
 4294SOL    HW213782   2.627   1.790   0.114
 4295SOL     OW13783   4.599   6.777   2.505
 4295SOL    HW113784   4.691   6.759   2.469
 4295SOL    HW213785   4.547   6.830   2.439
 4296SOL     OW13786   1.821   5.868   2.592
 4296SOL    HW113787   1.802   5.778   2.631
 4296SOL    HW213788   1.911   5.898   2.621
 4297SOL     OW13789   4.737   4.960   0.535
 4297SOL    HW113790   4.703   4.989   0.445
 4297SOL    HW213791   4.673   4.895   0.575
 4298SOL     OW13792   1.692   6.980   0.494
 4298SOL    HW113793   1.717   6.974   0.590
 4298SOL    HW213794   1.723   6.898   0.446
 4299SOL     OW13795   0.073   2.958   6.063
 4299SOL    HW113796   0.040   2.963   6.157
 4299SOL    HW213797   0.010   2.902   6.009
 4300SOL     OW13798   3.103   0.740   1.887
 4300SOL    HW113799   3.150   0.828   1.887
 4300SOL    HW213800   3.084   0.712   1.981
 4301SOL     OW13801   1.931   5.950   5.157
 4301SOL    HW113802   1.871   5.896   5.098
 4301SOL    HW213803   1.906   5.934   5.253
 4302SOL     OW13804   3.831   5.115   0.356
 4302SOL    HW113805   3.900   5.146   0.421
 4302SOL    HW213806   3.798   5.025   0.383
 4303SOL     OW13807   4.102   5.521   3.804
 4303SOL    HW113808   4.147   5.611   3.806
 4303SOL    HW213809   4.171   5.449   3.807
 4304SOL     OW13810   3.108   4.216   1.725
 4304SOL    HW113811   3.033   4.272   1.760
 4304SOL    HW213812   3.131   4.246   1.632
 4305SOL     OW13813   0.264   6.670   5.659
 4305SOL    HW113814   0.274   6.608   5.736
 4305SOL    HW213815   0.332   6.650   5.589
 4306SOL     OW13816   5.590   3.382   5.172
 4306SOL    HW113817   5.623   3.476   5.160
 4306SOL    HW213818   5.496   3.384   5.206
 4307SOL     OW13819   6.835   1.565   5.201
 4307SOL    HW113820   6.819   1.593   5.106
 4307SOL    HW213821   6.782   1.623   5.263
 4308SOL     OW13822   4.136   5.586   5.837
 4308SOL    HW113823   4.171   5.680   5.848
 4308SOL    HW213824   4.108   5.550   5.926
 4309SOL     OW13825   3.057   1.799   1.081
 4309SOL    HW113826   3.044   1.709   1.124
 4309SOL    HW213827   3.138   1.796   1.022
 4310SOL     OW13828   6.467   2.352   3.570
 4310SOL    HW113829   6.382   2.388   3.608
 4310SOL    HW213830   6.545   2.402   3.610
 4311SOL     OW13831   0.530   6.592   0.948
 4311SOL    HW113832   0.517   6.518   0.882
 4311SOL    HW213833   0.459   6.661   0.936
 4312SOL     OW13834   0.094   3.779   2.283
 4312SOL    HW113835   0.049   3.730   2.358
 4312SOL    HW213836   0.191   3.755   2.280
 4313SOL     OW13837   0.740   3.519   0.545
 4313SOL    HW113838   0.786   3.482   0.464
 4313SOL    HW213839   0.653   3.560   0.518
 4314SOL     OW13840   1.705   2.099   5.808
 4314SOL    HW113841   1.799   2.069   5.788
 4314SOL    HW213842   1.670   2.047   5.885
 4315SOL     OW13843   2.693   2.307   4.959
 4315SOL    HW113844   2.670   2.335   4.866
 4315SOL    HW213845   2.638   2.360   5.024
 4316SOL     OW13846   4.371   5.114   2.186
 4316SOL    HW113847   4.370   5.145   2.091
 4316SOL    HW213848   4.333   5.022   2.192
 4317SOL     OW13849   4.834   0.277   4.200
 4317SOL    HW113850   4.910   0.337   4.175
 4317SOL    HW213851   4.866   0.183   4.205
 4318SOL     OW13852   1.777   6.045   3.637
 4318SOL    HW113853   1.813   5.989   3.712
 4318SOL    HW213854   1.760   5.988   3.557
 4319SOL     OW13855   1.693   5.006   1.925
 4319SOL    HW113856   1.757   4.930   1.938
 4319SOL    HW213857   1.603   4.980   1.962
 4320SOL     OW13858   3.241   0.663   1.516
 4320SOL    HW113859   3.202   0.755   1.523
 4320SOL    HW213860   3.221   0.612   1.600
 4321SOL     OW13861   6.492   5.684   2.876
 4321SOL    HW113862   6.532   5.727   2.957
 4321SOL    HW213863   6.470   5.755   2.809
 4322SOL     OW13864   2.765   2.355   3.693
 4322SOL    HW113865   2.802   2.318   3.778
 4322SOL    HW213866   2.833   2.346   3.621
 4323SOL     OW13867   5.424   4.223   1.535
 4323SOL    HW113868   5.401   4.200   1.629
 4323SOL    HW213869   5.344   4.207   1.476
 4324SOL     OW13870   0.055   4.213   5.898
 4324SOL    HW113871   0.024   4.156   5.973
 4324SOL    HW213872   0.003   4.190   5.815
 4325SOL     OW13873   1.324   0.723   1.186
 4325SOL    HW113874   1.313   0.628   1.159
 4325SOL    HW213875   1.375   0.728   1.272
 4326SOL     OW13876   4.518   2.423   3.478
 4326SOL    HW113877   4.585   2.349   3.491
 4326SOL    HW213878   4.514   2.478   3.561
 4327SOL     OW13879   3.522   6.726   3.863
 4327SOL    HW113880   3.605   6.781   3.861
 4327SOL    HW213881   3.443   6.786   3.851
 4328SOL     OW13882   6.468   0.034   3.069
 4328SOL    HW113883   6.378   7.014   3.072
 4328SOL    HW213884   6.527   7.007   3.005
 4329SOL     OW13885   6.310   4.048   0.562
 4329SOL    HW113886   6.282   4.017   0.653
 4329SOL    HW213887   6.255   4.002   0.493
 4330SOL     OW13888   2.183   5.274   4.935
 4330SOL    HW113889   2.172   5.191   4.989
 4330SOL    HW213890   2.280   5.289   4.915
 4331SOL     OW13891   5.983   1.721   2.308
 4331SOL    HW113892   5.974   1.771   2.222
 4331SOL    HW213893   6.065   1.752   2.357
 4332SOL     OW13894   6.618   5.656   1.360
 4332SOL    HW113895   6.664   5.581   1.408
 4332SOL    HW213896   6.545   5.620   1.303
 4333SOL     OW13897   3.737   2.832   6.276
 4333SOL    HW113898   3.824   2.782   6.268
 4333SOL    HW213899   3.661   2.767   6.280
 4334SOL     OW13900   0.201   2.455   3.984
 4334SOL    HW113901   0.285   2.437   4.035
 4334SOL    HW213902   0.219   2.446   3.886
 4335SOL     OW13903   2.309   3.755   1.814
 4335SOL    HW113904   2.316   3.656   1.831
 4335SOL    HW213905   2.371   3.781   1.741
 4336SOL     OW13906   3.014   5.600   5.878
 4336SOL    HW113907   3.066   5.665   5.933
 4336SOL    HW213908   3.036   5.507   5.906
 4337SOL     OW13909   6.663   4.736   3.892
 4337SOL    HW113910   6.666   4.766   3.987
 4337SOL    HW213911   6.736   4.781   3.840
 4338SOL     OW13912   3.447   2.299   5.856
 4338SOL    HW113913   3.454   2.238   5.777
 4338SOL    HW213914   3.536   2.340   5.874
 4339SOL     OW13915   4.515   4.444   5.489
 4339SOL    HW113916   4.538   4.392   5.407
 4339SOL    HW213917   4.494   4.539   5.464
 4340SOL     OW13918   0.217   3.991   0.469
 4340SOL    HW113919   0.195   3.901   0.433
 4340SOL    HW213920   0.268   3.981   0.555
 4341SOL     OW13921   6.101   5.471   0.969
 4341SOL    HW113922   6.139   5.539   0.907
 4341SOL    HW213923   6.018   5.507   1.012
 4342SOL     OW13924   5.423   3.389   2.602
 4342SOL    HW113925   5.329   3.415   2.577
 4342SOL    HW213926   5.434   3.290   2.591
 4343SOL     OW13927   4.207   0.451   6.663
 4343SOL    HW113928   4.274   0.488   6.599
 4343SOL    HW213929   4.197   0.513   6.741
 4344SOL     OW13930   1.259   4.075   2.298
 4344SOL    HW113931   1.346   4.067   2.347
 4344SOL    HW213932   1.259   4.014   2.219
 4345SOL     OW13933   3.849   3.483   2.771
 4345SOL    HW113934   3.814   3.560   2.825
 4345SOL    HW213935   3.849   3.507   2.674
 4346SOL     OW13936   0.690   3.750   2.608
 4346SOL    HW113937   0.770   3.692   2.624
 4346SOL    HW213938   0.699   3.795   2.518
 4347SOL     OW13939   6.420   5.637   0.431
 4347SOL    HW113940   6.487   5.697   0.474
 4347SOL    HW213941   6.464   5.585   0.358
 4348SOL     OW13942   6.368   4.102   5.883
 4348SOL    HW113943   6.356   4.145   5.972
 4348SOL    HW213944   6.416   4.015   5.894
 4349SOL     OW13945   0.956   4.298   4.001
 4349SOL    HW113946   0.901   4.324   3.921
 4349SOL    HW213947   0.974   4.379   4.056
 4350SOL     OW13948   4.894   0.486   3.935
 4350SOL    HW113949   4.825   0.555   3.913
 4350SOL    HW213950   4.899   0.420   3.860
 4351SOL     OW13951   0.022   5.572   1.054
 4351SOL    HW113952   0.039   5.650   1.114
 4351SOL    HW213953   0.108   5.526   1.033
 4352SOL     OW13954   3.237   4.523   1.547
 4352SOL    HW113955   3.267   4.614   1.518
 4352SOL    HW213956   3.138   4.521   1.554
 4353SOL     OW13957   2.295   3.989   0.445
 4353SOL    HW113958   2.349   3.916   0.402
 4353SOL    HW213959   2.212   4.005   0.391
 4354SOL     OW13960   5.371   5.399   2.034
 4354SOL    HW113961   5.352   5.382   2.131
 4354SOL    HW213962   5.286   5.419   1.986
 4355SOL     OW13963   2.406   5.263   2.939
 4355SOL    HW113964   2.374   5.354   2.914
 4355SOL    HW213965   2.459   5.224   2.864
 4356SOL     OW13966   6.119   2.058   5.673
 4356SOL    HW113967   6.188   1.993   5.641
 4356SOL    HW213968   6.143   2.150   5.641
 4357SOL     OW13969   5.537   5.776   2.581
 4357SOL    HW113970   5.560   5.865   2.542
 4357SOL    HW213971   5.606   5.709   2.554
 4358SOL     OW13972   2.466   0.467   0.618
 4358SOL    HW113973   2.475   0.390   0.555
 4358SOL    HW213974   2.459   0.433   0.712
 4359SOL     OW13975   2.458   2.284   1.362
 4359SOL    HW113976   2.428   2.314   1.271
 4359SOL    HW213977   2.530   2.345   1.395
 4360SOL     OW13978   2.933   6.018   3.951
 4360SOL    HW113979   2.955   5.927   3.916
 4360SOL    HW213980   3.017   6.072   3.956
 4361SOL     OW13981   1.376   1.388   6.726
 4361SOL    HW113982   1.391   1.426   6.635
 4361SOL    HW213983   1.432   1.306   6.738
 4362SOL     OW13984   0.447   5.568   2.401
 4362SOL    HW113985   0.384   5.576   2.478
 4362SOL    HW213986   0.439   5.477   2.361
 4363SOL     OW13987   3.524   0.755   2.078
 4363SOL    HW113988   3.477   0.679   2.124
 4363SOL    HW213989   3.486   0.841   2.110
 4364SOL     OW13990   3.143   4.040   3.031
 4364SOL    HW113991   3.089   3.965   3.069
 4364SOL    HW213992   3.104   4.128   3.061
 4365SOL     OW13993   2.146   1.099   0.595
 4365SOL    HW113994   2.244   1.082   0.593
 4365SOL    HW213995   2.113   1.092   0.689
 4366SOL     OW13996   5.502   5.879   4.990
 4366SOL    HW113997   5.481   5.835   5.077
 4366SOL    HW213998   5.421   5.926   4.956
 4367SOL     OW13999   2.818   6.699   1.912
 4367SOL    HW114000   2.843   6.604   1.894
 4367SOL    HW214001   2.833   6.720   2.008
 4368SOL     OW14002   4.904   3.923   4.190
 4368SOL    HW114003   4.861   3.897   4.104
 4368SOL    HW214004   4.918   4.022   4.192
 4369SOL     OW14005   5.782   4.439   3.990
 4369SOL    HW114006   5.845   4.501   3.943
 4369SOL    HW214007   5.762   4.361   3.931
 4370SOL     OW14008   4.170   5.117   1.021
 4370SOL    HW114009   4.115   5.082   0.945
 4370SOL    HW214010   4.231   5.189   0.988
 4371SOL     OW14011   3.472   1.840   2.896
 4371SOL    HW114012   3.433   1.766   2.949
 4371SOL    HW214013   3.486   1.920   2.955
 4372SOL     OW14014   1.881   4.381   4.904
 4372SOL    HW114015   1.901   4.308   4.969
 4372SOL    HW214016   1.927   4.363   4.817
 4373SOL     OW14017   4.378   0.045   0.300
 4373SOL    HW114018   4.329   0.034   0.386
 4373SOL    HW214019   4.356   0.134   0.260
 4374SOL     OW14020   2.681   6.132   0.516
 4374SOL    HW114021   2.651   6.157   0.607
 4374SOL    HW214022   2.609   6.081   0.469
 4375SOL     OW14023   4.081   1.418   5.691
 4375SOL    HW114024   4.140   1.384   5.764
 4375SOL    HW214025   3.986   1.392   5.710
 4376SOL     OW14026   2.546   5.499   0.257
 4376SOL    HW114027   2.550   5.476   0.354
 4376SOL    HW214028   2.625   5.459   0.210
 4377SOL     OW14029   5.182   5.539   6.855
 4377SOL    HW114030   5.198   5.469   6.786
 4377SOL    HW214031   5.158   5.625   6.810
 4378SOL     OW14032   2.804   5.482   2.094
 4378SOL    HW114033   2.777   5.579   2.089
 4378SOL    HW214034   2.754   5.430   2.025
 4379SOL     OW14035   0.017   6.653   0.565
 4379SOL    HW114036   7.018   6.735   0.618
 4379SOL    HW214037   6.969   6.638   0.496
 4380SOL     OW14038   2.214   5.573   4.076
 4380SOL    HW114039   2.288   5.528   4.127
 4380SOL    HW214040   2.129   5.524   4.090
 4381SOL     OW14041   3.498   6.028   4.492
 4381SOL    HW114042   3.408   6.023   4.535
 4381SOL    HW214043   3.527   5.936   4.464
 4382SOL     OW14044   5.335   4.807   2.794
 4382SOL    HW114045   5.259   4.794   2.731
 4382SOL    HW214046   5.302   4.851   2.877
 4383SOL     OW14047   1.014   1.069   0.772
 4383SOL    HW114048   1.111   1.081   0.793
 4383SOL    HW214049   0.995   0.973   0.757
 4384SOL     OW14050   3.687   0.331   2.196
 4384SOL    HW114051   3.652   0.275   2.271
 4384SOL    HW214052   3.716   0.271   2.121
 4385SOL     OW14053   6.410   2.620   3.369
 4385SOL    HW114054   6.461   2.673   3.302
 4385SOL    HW214055   6.423   2.523   3.352
 4386SOL     OW14056   1.643   4.341   6.969
 4386SOL    HW114057   1.631   4.395   0.030
 4386SOL    HW214058   1.555   4.330   6.924
 4387SOL     OW14059   6.313   1.635   1.433
 4387SOL    HW114060   6.304   1.709   1.500
 4387SOL    HW214061   6.262   1.658   1.351
 4388SOL     OW14062   3.847   1.584   5.548
 4388SOL    HW114063   3.804   1.500   5.514
 4388SOL    HW214064   3.932   1.561   5.595
 4389SOL     OW14065   6.428   2.643   2.534
 4389SOL    HW114066   6.479   2.560   2.553
 4389SOL    HW214067   6.472   2.693   2.459
 4390SOL     OW14068   4.134   3.271   1.035
 4390SOL    HW114069   4.159   3.265   1.132
 4390SOL    HW214070   4.211   3.309   0.984
 4391SOL     OW14071   0.817   6.233   0.078
 4391SOL    HW114072   0.801   6.265   7.008
 4391SOL    HW214073   0.805   6.309   0.142
 4392SOL     OW14074   5.344   4.735   5.087
 4392SOL    HW114075   5.429   4.769   5.045
 4392SOL    HW214076   5.274   4.725   5.017
 4393SOL     OW14077   5.118   6.649   2.808
 4393SOL    HW114078   5.088   6.671   2.901
 4393SOL    HW214079   5.102   6.729   2.749
 4394SOL     OW14080   4.649   0.376   2.004
 4394SOL    HW114081   4.644   0.323   1.919
 4394SOL    HW214082   4.568   0.356   2.060
 4395SOL     OW14083   4.773   2.097   1.370
 4395SOL    HW114084   4.724   2.015   1.399
 4395SOL    HW214085   4.711   2.175   1.370
 4396SOL     OW14086   1.466   1.485   3.090
 4396SOL    HW114087   1.368   1.497   3.076
 4396SOL    HW214088   1.512   1.476   3.002
 4397SOL     OW14089   5.053   0.395   6.386
 4397SOL    HW114090   4.992   0.377   6.308
 4397SOL    HW214091   5.008   0.458   6.449
 4398SOL     OW14092   0.151   5.060   4.688
 4398SOL    HW114093   0.177   5.041   4.594
 4398SOL    HW214094   0.172   5.156   4.710
 4399SOL     OW14095   3.314   0.858   2.678
 4399SOL    HW114096   3.258   0.941   2.671
 4399SOL    HW214097   3.351   0.835   2.588
 4400SOL     OW14098   3.889   5.282   3.124
 4400SOL    HW114099   3.971   5.334   3.151
 4400SOL    HW214100   3.881   5.282   3.025
 4401SOL     OW14101   5.950   5.908   4.853
 4401SOL    HW114102   5.860   5.864   4.851
 4401SOL    HW214103   5.946   5.989   4.913
 4402SOL     OW14104   6.675   6.707   2.014
 4402SOL    HW114105   6.640   6.615   2.028
 4402SOL    HW214106   6.678   6.727   1.916
 4403SOL     OW14107   6.556   1.307   2.148
 4403SOL    HW114108   6.592   1.214   2.163
 4403SOL    HW214109   6.474   1.320   2.204
 4404SOL     OW14110   2.155   4.645   2.523
 4404SOL    HW114111   2.147   4.714   2.451
 4404SOL    HW214112   2.191   4.560   2.485
 4405SOL     OW14113   2.936   3.870   5.946
 4405SOL    HW114114   2.857   3.897   5.890
 4405SOL    HW214115   2.996   3.810   5.893
 4406SOL     OW14116   6.368   3.063   2.430
 4406SOL    HW114117   6.415   3.097   2.348
 4406SOL    HW214118   6.295   3.126   2.455
 4407SOL     OW14119   0.925   0.971   0.121
 4407SOL    HW114120   0.839   1.014   0.092
 4407SOL    HW214121   0.905   0.899   0.187
 4408SOL     OW14122   3.966   6.381   1.300
 4408SOL    HW114123   4.015   6.349   1.381
 4408SOL    HW214124   3.874   6.342   1.298
 4409SOL     OW14125   2.626   2.045   2.637
 4409SOL    HW114126   2.639   1.946   2.642
 4409SOL    HW214127   2.710   2.091   2.665
 4410SOL     OW14128   1.753   5.705   1.622
 4410SOL    HW114129   1.736   5.699   1.524
 4410SOL    HW214130   1.691   5.773   1.662
 4411SOL     OW14131   4.085   3.332   2.500
 4411SOL    HW114132   4.102   3.294   2.591
 4411SOL    HW214133   4.111   3.264   2.431
 4412SOL     OW14134   3.726   1.623   6.017
 4412SOL    HW114135   3.802   1.628   5.951
 4412SOL    HW214136   3.674   1.539   6.002
 4413SOL     OW14137   4.273   5.311   3.893
 4413SOL    HW114138   4.344   5.272   3.835
 4413SOL    HW214139   4.302   5.307   3.989
 4414SOL     OW14140   3.523   4.970   2.088
 4414SOL    HW114141   3.493   4.881   2.055
 4414SOL    HW214142   3.473   5.042   2.040
 4415SOL     OW14143   4.553   1.617   1.318
 4415SOL    HW114144   4.600   1.615   1.406
 4415SOL    HW214145   4.478   1.682   1.322
 4416SOL     OW14146   2.692   2.058   4.500
 4416SOL    HW114147   2.683   2.050   4.401
 4416SOL    HW214148   2.602   2.078   4.540
 4417SOL     OW14149   6.315   6.635   1.306
 4417SOL    HW114150   6.248   6.577   1.352
 4417SOL    HW214151   6.369   6.579   1.242
 4418SOL     OW14152   5.017   1.073   3.242
 4418SOL    HW114153   5.009   1.091   3.341
 4418SOL    HW214154   5.112   1.051   3.220
 4419SOL     OW14155   6.026   5.592   6.167
 4419SOL    HW114156   5.962   5.515   6.165
 4419SOL    HW214157   6.017   5.645   6.083
 4420SOL     OW14158   4.740   0.940   0.454
 4420SOL    HW114159   4.828   0.941   0.500
 4420SOL    HW214160   4.754   0.923   0.356
 4421SOL     OW14161   0.295   1.310   3.176
 4421SOL    HW114162   0.271   1.233   3.235
 4421SOL    HW214163   0.394   1.322   3.175
 4422SOL     OW14164   1.504   4.150   5.953
 4422SOL    HW114165   1.597   4.146   5.990
 4422SOL    HW214166   1.499   4.096   5.869
 4423SOL     OW14167   6.777   1.522   6.104
 4423SOL    HW114168   6.821   1.486   6.022
 4423SOL    HW214169   6.846   1.536   6.175
 4424SOL     OW14170   1.515   5.685   3.721
 4424SOL    HW114171   1.467   5.650   3.802
 4424SOL    HW214172   1.505   5.784   3.717
 4425SOL     OW14173   5.194   4.500   0.959
 4425SOL    HW114174   5.189   4.573   1.028
 4425SOL    HW214175   5.115   4.439   0.969
 4426SOL     OW14176   0.686   0.216   6.950
 4426SOL    HW114177   0.624   0.209   6.871
 4426SOL    HW214178   0.632   0.225   0.010
 4427SOL     OW14179   1.076   5.852   3.591
 4427SOL    HW114180   1.093   5.753   3.589
 4427SOL    HW214181   1.157   5.900   3.558
 4428SOL     OW14182   1.459   6.885   3.053
 4428SOL    HW114183   1.430   6.944   3.129
 4428SOL    HW214184   1.524   6.817   3.087
 4429SOL     OW14185   3.268   0.708   3.318
 4429SOL    HW114186   3.266   0.807   3.333
 4429SOL    HW214187   3.177   0.671   3.337
 4430SOL     OW14188   1.493   1.124   2.062
 4430SOL    HW114189   1.437   1.042   2.055
 4430SOL    HW214190   1.486   1.177   1.978
 4431SOL     OW14191   2.152   2.184   3.403
 4431SOL    HW114192   2.111   2.272   3.380
 4431SOL    HW214193   2.112   2.113   3.345
 4432SOL     OW14194   2.913   3.558   3.931
 4432SOL    HW114195   2.907   3.479   3.993
 4432SOL    HW214196   2.999   3.552   3.879
 4433SOL     OW14197   6.222   0.538   2.891
 4433SOL    HW114198   6.128   0.515   2.867
 4433SOL    HW214199   6.236   0.525   2.989
 4434SOL     OW14200   5.315   2.339   5.147
 4434SOL    HW114201   5.344   2.271   5.080
 4434SOL    HW214202   5.264   2.412   5.101
 4435SOL     OW14203   3.878   3.338   2.181
 4435SOL    HW114204   3.844   3.261   2.233
 4435SOL    HW214205   3.822   3.419   2.199
 4436SOL     OW14206   5.333   6.954   0.153
 4436SOL    HW114207   5.413   7.011   0.134
 4436SOL    HW214208   5.309   6.962   0.250
 4437SOL     OW14209   3.248   0.215   5.501
 4437SOL    HW114210   3.329   0.175   5.544
 4437SOL    HW214211   3.205   0.280   5.563
 4438SOL     OW14212   3.759   3.006   6.571
 4438SOL    HW114213   3.701   2.924   6.563
 4438SOL    HW214214   3.838   2.996   6.511
 4439SOL     OW14215   1.943   4.257   2.672
 4439SOL    HW114216   1.911   4.164   2.688
 4439SOL    HW214217   2.019   4.277   2.734
 4440SOL     OW14218   6.383   1.761   0.516
 4440SOL    HW114219   6.321   1.709   0.458
 4440SOL    HW214220   6.338   1.783   0.603
 4441SOL     OW14221   6.435   0.692   3.754
 4441SOL    HW114222   6.391   0.701   3.843
 4441SOL    HW214223   6.377   0.638   3.693
 4442SOL     OW14224   1.882   5.942   2.274
 4442SOL    HW114225   1.941   6.008   2.319
 4442SOL    HW214226   1.787   5.965   2.292
 4443SOL     OW14227   2.481   1.649   0.651
 4443SOL    HW114228   2.506   1.623   0.744
 4443SOL    HW214229   2.489   1.570   0.591
 4444SOL     OW14230   4.995   1.336   3.067
 4444SOL    HW114231   4.956   1.410   3.121
 4444SOL    HW214232   5.001   1.253   3.123
 4445SOL     OW14233   0.865   1.027   6.307
 4445SOL    HW114234   0.879   0.952   6.243
 4445SOL    HW214235   0.840   1.110   6.257
 4446SOL     OW14236   5.202   4.499   3.811
 4446SOL    HW114237   5.179   4.404   3.789
 4446SOL    HW214238   5.224   4.507   3.908
 4447SOL     OW14239   4.904   3.504   5.339
 4447SOL    HW114240   4.835   3.529   5.271
 4447SOL    HW214241   4.982   3.568   5.333
 4448SOL     OW14242   2.508   3.342   6.421
 4448SOL    HW114243   2.421   3.309   6.383
 4448SOL    HW214244   2.584   3.310   6.364
 4449SOL     OW14245   0.408   1.426   5.802
 4449SOL    HW114246   0.374   1.411   5.895
 4449SOL    HW214247   0.334   1.462   5.745
 4450SOL     OW14248   3.504   3.622   2.656
 4450SOL    HW114249   3.416   3.616   2.610
 4450SOL    HW214250   3.565   3.682   2.604
 4451SOL     OW14251   0.263   4.208   1.085
 4451SOL    HW114252   0.221   4.271   1.020
 4451SOL    HW214253   0.363   4.213   1.075
 4452SOL     OW14254   6.746   3.118   6.115
 4452SOL    HW114255   6.692   3.198   6.142
 4452SOL    HW214256   6.721   3.092   6.021
 4453SOL     OW14257   5.351   0.861   0.951
 4453SOL    HW114258   5.396   0.942   0.990
 4453SOL    HW214259   5.400   0.832   0.869
 4454SOL     OW14260   5.175   2.835   1.700
 4454SOL    HW114261   5.149   2.931   1.691
 4454SOL    HW214262   5.253   2.815   1.641
 4455SOL     OW14263   4.558   2.232   2.925
 4455SOL    HW114264   4.568   2.285   2.840
 4455SOL    HW214265   4.569   2.135   2.904
 4456SOL     OW14266   0.716   5.892   2.365
 4456SOL    HW114267   0.683   5.822   2.302
 4456SOL    HW214268   0.657   5.973   2.359
 4457SOL     OW14269   4.428   1.879   0.093
 4457SOL    HW114270   4.427   1.898   0.191
 4457SOL    HW214271   4.401   1.785   0.077
 4458SOL     OW14272   4.360   1.343   1.152
 4458SOL    HW114273   4.286   1.355   1.219
 4458SOL    HW214274   4.322   1.346   1.060
 4459SOL     OW14275   5.802   6.439   5.371
 4459SOL    HW114276   5.712   6.399   5.387
 4459SOL    HW214277   5.843   6.465   5.459
 4460SOL     OW14278   0.987   1.379   6.721
 4460SOL    HW114279   0.977   1.476   6.699
 4460SOL    HW214280   1.079   1.363   6.755
 4461SOL     OW14281   1.818   0.209   2.486
 4461SOL    HW114282   1.751   0.203   2.413
 4461SOL    HW214283   1.776   0.250   2.567
 4462SOL     OW14284   6.828   4.000   0.519
 4462SOL    HW114285   6.736   4.024   0.490
 4462SOL    HW214286   6.831   3.994   0.619
 4463SOL     OW14287   1.200   4.631   6.752
 4463SOL    HW114288   1.290   4.641   6.710
 4463SOL    HW214289   1.130   4.618   6.681
 4464SOL     OW14290   6.266   2.801   0.124
 4464SOL    HW114291   6.217   2.822   0.209
 4464SOL    HW214292   6.348   2.747   0.146
 4465SOL     OW14293   6.810   5.487   0.651
 4465SOL    HW114294   6.835   5.475   0.555
 4465SOL    HW214295   6.823   5.400   0.699
 4466SOL     OW14296   0.045   2.936   3.114
 4466SOL    HW114297   0.133   2.889   3.111
 4466SOL    HW214298   0.024   2.974   3.025
 4467SOL     OW14299   1.100   0.458   3.316
 4467SOL    HW114300   1.131   0.483   3.224
 4467SOL    HW214301   1.150   0.378   3.348
 4468SOL     OW14302   1.699   2.189   0.736
 4468SOL    HW114303   1.705   2.283   0.703
 4468SOL    HW214304   1.713   2.186   0.835
 4469SOL     OW14305   4.270   6.991   0.709
 4469SOL    HW114306   4.240   0.062   0.729
 4469SOL    HW214307   4.355   6.973   0.757
 4470SOL     OW14308   4.608   4.559   1.562
 4470SOL    HW114309   4.622   4.516   1.652
 4470SOL    HW214310   4.642   4.498   1.491
 4471SOL     OW14311   6.041   2.765   1.309
 4471SOL    HW114312   5.956   2.752   1.258
 4471SOL    HW214313   6.022   2.753   1.407
 4472SOL     OW14314   2.284   4.908   1.320
 4472SOL    HW114315   2.243   4.824   1.354
 4472SOL    HW214316   2.241   4.933   1.233
 4473SOL     OW14317   6.590   0.654   6.873
 4473SOL    HW114318   6.654   0.730   6.886
 4473SOL    HW214319   6.626   0.593   6.803
 4474SOL     OW14320   6.332   0.896   4.373
 4474SOL    HW114321   6.299   0.892   4.279
 4474SOL    HW214322   6.400   0.823   4.387
 4475SOL     OW14323   1.416   3.769   0.495
 4475SOL    HW114324   1.482   3.824   0.444
 4475SOL    HW214325   1.464   3.699   0.548
 4476SOL     OW14326   4.847   6.373   2.818
 4476SOL    HW114327   4.773   6.311   2.844
 4476SOL    HW214328   4.820   6.467   2.836
 4477SOL     OW14329   1.403   2.177   0.697
 4477SOL    HW114330   1.496   2.205   0.674
 4477SOL    HW214331   1.353   2.255   0.735
 4478SOL     OW14332   1.184   5.046   1.497
 4478SOL    HW114333   1.271   5.045   1.447
 4478SOL    HW214334   1.153   4.952   1.511
 4479SOL     OW14335   1.509   0.573   6.256
 4479SOL    HW114336   1.536   0.499   6.194
 4479SOL    HW214337   1.564   0.567   6.339
 4480SOL     OW14338   6.795   4.154   3.552
 4480SOL    HW114339   6.795   4.170   3.651
 4480SOL    HW214340   6.724   4.211   3.509
 4481SOL     OW14341   0.529   0.771   4.059
 4481SOL    HW114342   0.608   0.810   4.012
 4481SOL    HW214343   0.522   0.808   4.151
 4482SOL     OW14344   1.307   4.429   2.884
 4482SOL    HW114345   1.355   4.473   2.808
 4482SOL    HW214346   1.281   4.336   2.858
 4483SOL     OW14347   5.970   3.381   0.876
 4483SOL    HW114348   6.059   3.426   0.884
 4483SOL    HW214349   5.947   3.369   0.780
 4484SOL     OW14350   3.309   3.366   6.248
 4484SOL    HW114351   3.274   3.341   6.338
 4484SOL    HW214352   3.372   3.444   6.257
 4485SOL     OW14353   4.838   0.186   6.523
 4485SOL    HW114354   4.920   0.131   6.503
 4485SOL    HW214355   4.765   0.126   6.556
 4486SOL     OW14356   6.053   3.488   3.841
 4486SOL    HW114357   6.021   3.508   3.934
 4486SOL    HW214358   6.136   3.432   3.845
 4487SOL     OW14359   2.948   3.024   5.784
 4487SOL    HW114360   2.857   3.051   5.753
 4487SOL    HW214361   3.015   3.042   5.712
 4488SOL     OW14362   6.720   1.942   6.424
 4488SOL    HW114363   6.731   2.019   6.486
 4488SOL    HW214364   6.622   1.922   6.412
 4489SOL     OW14365   1.125   1.168   2.424
 4489SOL    HW114366   1.126   1.229   2.504
 4489SOL    HW214367   1.219   1.156   2.391
 4490SOL     OW14368   6.615   2.514   4.077
 4490SOL    HW114369   6.623   2.600   4.028
 4490SOL    HW214370   6.540   2.520   4.143
 4491SOL     OW14371   1.887   3.978   2.515
 4491SOL    HW114372   1.832   4.061   2.523
 4491SOL    HW214373   1.887   3.946   2.420
 4492SOL     OW14374   4.747   4.585   6.237
 4492SOL    HW114375   4.732   4.626   6.327
 4492SOL    HW214376   4.697   4.637   6.168
 4493SOL     OW14377   5.890   4.629   3.638
 4493SOL    HW114378   5.939   4.623   3.725
 4493SOL    HW214379   5.792   4.632   3.655
 4494SOL     OW14380   5.665   2.470   2.822
 4494SOL    HW114381   5.678   2.557   2.775
 4494SOL    HW214382   5.630   2.402   2.757
 4495SOL     OW14383   4.837   6.132   1.966
 4495SOL    HW114384   4.856   6.056   2.028
 4495SOL    HW214385   4.874   6.111   1.875
 4496SOL     OW14386   6.187   3.902   5.607
 4496SOL    HW114387   6.238   3.986   5.585
 4496SOL    HW214388   6.094   3.926   5.635
 4497SOL     OW14389   6.249   5.922   0.533
 4497SOL    HW114390   6.256   5.902   0.435
 4497SOL    HW214391   6.339   5.911   0.575
 4498SOL     OW14392   1.202   3.952   6.835
 4498SOL    HW114393   1.242   4.001   6.912
 4498SOL    HW214394   1.227   3.997   6.749
 4499SOL     OW14395   4.974   3.464   0.293
 4499SOL    HW114396   4.938   3.474   0.200
 4499SOL    HW214397   5.061   3.413   0.289
 4500SOL     OW14398   3.913   3.904   2.846
 4500SOL    HW114399   3.890   3.947   2.934
 4500SOL    HW214400   3.988   3.839   2.859
 4501SOL     OW14401   1.536   4.736   4.688
 4501SOL    HW114402   1.492   4.709   4.773
 4501SOL    HW214403   1.488   4.694   4.611
 4502SOL     OW14404   5.620   2.526   0.126
 4502SOL    HW114405   5.586   2.598   0.187
 4502SOL    HW214406   5.543   2.478   0.085
 4503SOL     OW14407   1.461   3.283   2.652
 4503SOL    HW114408   1.412   3.210   2.701
 4503SOL    HW214409   1.412   3.369   2.662
 4504SOL     OW14410   4.696   2.783   4.496
 4504SOL    HW114411   4.704   2.799   4.398
 4504SOL    HW214412   4.644   2.699   4.512
 4505SOL     OW14413   1.983   5.195   0.430
 4505SOL    HW114414   2.021   5.105   0.409
 4505SOL    HW214415   2.050   5.266   0.410
 4506SOL     OW14416   3.628   0.037   5.688
 4506SOL    HW114417   3.593   0.019   5.780
 4506SOL    HW214418   3.589   0.122   5.654
 4507SOL     OW14419   6.449   3.390   2.373
 4507SOL    HW114420   6.373   3.440   2.413
 4507SOL    HW214421   6.443   3.395   2.273
 4508SOL     OW14422   1.965   3.569   0.318
 4508SOL    HW114423   1.939   3.570   0.222
 4508SOL    HW214424   1.952   3.660   0.358
 4509SOL     OW14425   0.109   1.739   3.120
 4509SOL    HW114426   0.135   1.816   3.178
 4509SOL    HW214427   0.141   1.755   3.027
 4510SOL     OW14428   3.143   6.155   6.066
 4510SOL    HW114429   3.128   6.073   6.121
 4510SOL    HW214430   3.171   6.230   6.126
 4511SOL     OW14431   6.953   1.985   0.155
 4511SOL    HW114432   6.878   1.935   0.113
 4511SOL    HW214433   6.936   1.996   0.253
 4512SOL     OW14434   2.351   3.987   6.645
 4512SOL    HW114435   2.380   4.080   6.622
 4512SOL    HW214436   2.430   3.926   6.643
 4513SOL     OW14437   6.047   1.327   2.388
 4513SOL    HW114438   5.998   1.382   2.320
 4513SOL    HW214439   5.992   1.247   2.411
 4514SOL     OW14440   3.259   0.857   5.954
 4514SOL    HW114441   3.356   0.840   5.936
 4514SOL    HW214442   3.206   0.832   5.873
 4515SOL     OW14443   6.385   4.683   0.152
 4515SOL    HW114444   6.458   4.680   0.083
 4515SOL    HW214445   6.402   4.612   0.221
 4516SOL     OW14446   0.788   0.232   3.740
 4516SOL    HW114447   0.806   0.305   3.806
 4516SOL    HW214448   0.860   0.232   3.670
 4517SOL     OW14449   3.408   0.457   6.984
 4517SOL    HW114450   3.314   0.472   7.016
 4517SOL    HW214451   3.470   0.520   0.006
 4518SOL     OW14452   1.640   6.983   3.905
 4518SOL    HW114453   1.652   6.961   3.808
 4518SOL    HW214454   1.729   7.003   3.945
 4519SOL     OW14455   6.455   2.379   5.278
 4519SOL    HW114456   6.411   2.293   5.250
 4519SOL    HW214457   6.457   2.442   5.201
 4520SOL     OW14458   0.108   4.030   2.967
 4520SOL    HW114459   0.183   3.971   2.936
 4520SOL    HW214460   0.119   4.121   2.928
 4521SOL     OW14461   4.989   1.546   6.240
 4521SOL    HW114462   5.066   1.489   6.208
 4521SOL    HW214463   5.009   1.642   6.222
 4522SOL     OW14464   5.633   7.000   3.568
 4522SOL    HW114465   5.557   6.974   3.508
 4522SOL    HW214466   5.703   6.929   3.567
 4523SOL     OW14467   4.918   2.508   5.847
 4523SOL    HW114468   4.988   2.566   5.888
 4523SOL    HW214469   4.961   2.425   5.811
 4524SOL     OW14470   6.099   0.706   5.043
 4524SOL    HW114471   6.147   0.618   5.046
 4524SOL    HW214472   6.161   0.777   5.011
 4525SOL     OW14473   6.415   1.576   4.369
 4525SOL    HW114474   6.488   1.508   4.367
 4525SOL    HW214475   6.340   1.543   4.426
 4526SOL     OW14476   3.281   1.242   1.692
 4526SOL    HW114477   3.297   1.162   1.750
 4526SOL    HW214478   3.227   1.310   1.742
 4527SOL     OW14479   4.297   6.395   3.937
 4527SOL    HW114480   4.305   6.361   4.031
 4527SOL    HW214481   4.325   6.491   3.934
 4528SOL     OW14482   5.218   0.164   5.478
 4528SOL    HW114483   5.220   0.262   5.497
 4528SOL    HW214484   5.213   0.113   5.564
 4529SOL     OW14485   3.846   0.093   4.024
 4529SOL    HW114486   3.857   0.106   3.925
 4529SOL    HW214487   3.936   0.091   4.067
 4530SOL     OW14488   0.346   2.968   5.033
 4530SOL    HW114489   0.317   2.958   4.938
 4530SOL    HW214490   0.443   2.948   5.041
 4531SOL     OW14491   0.417   3.989   3.887
 4531SOL    HW114492   0.505   3.944   3.904
 4531SOL    HW214493   0.413   4.075   3.938
 4532SOL     OW14494   0.590   2.393   0.339
 4532SOL    HW114495   0.528   2.470   0.354
 4532SOL    HW214496   0.682   2.427   0.321
 4533SOL     OW14497   2.951   5.896   1.982
 4533SOL    HW114498   2.937   5.920   2.077
 4533SOL    HW214499   3.017   5.959   1.941
 4534SOL     OW14500   0.143   4.710   5.718
 4534SOL    HW114501   0.086   4.636   5.684
 4534SOL    HW214502   0.085   4.783   5.755
 4535SOL     OW14503   5.190   2.558   3.324
 4535SOL    HW114504   5.192   2.495   3.247
 4535SOL    HW214505   5.181   2.652   3.290
 4536SOL     OW14506   6.982   0.393   3.889
 4536SOL    HW114507   6.887   0.368   3.869
 4536SOL    HW214508   7.005   0.365   3.982
 4537SOL     OW14509   4.919   3.800   6.638
 4537SOL    HW114510   4.858   3.791   6.560
 4537SOL    HW214511   4.907   3.721   6.699
 4538SOL     OW14512   3.606   2.397   1.410
 4538SOL    HW114513   3.589   2.349   1.324
 4538SOL    HW214514   3.594   2.333   1.486
 4539SOL     OW14515   2.401   2.399   2.205
 4539SOL    HW114516   2.390   2.492   2.241
 4539SOL    HW214517   2.497   2.384   2.180
 4540SOL     OW14518   3.422   3.223   5.248
 4540SOL    HW114519   3.426   3.252   5.343
 4540SOL    HW214520   3.440   3.302   5.188
 4541SOL     OW14521   5.820   0.726   1.925
 4541SOL    HW114522   5.823   0.778   1.840
 4541SOL    HW214523   5.789   0.633   1.906
 4542SOL     OW14524   5.088   6.570   3.440
 4542SOL    HW114525   5.118   6.638   3.374
 4542SOL    HW214526   5.046   6.493   3.392
 4543SOL     OW14527   5.850   2.452   2.074
 4543SOL    HW114528   5.751   2.443   2.086
 4543SOL    HW214529   5.869   2.507   1.993
 4544SOL     OW14530   4.701   5.692   6.451
 4544SOL    HW114531   4.681   5.785   6.483
 4544SOL    HW214532   4.798   5.685   6.428
 4545SOL     OW14533   3.853   3.891   6.179
 4545SOL    HW114534   3.783   3.932   6.120
 4545SOL    HW214535   3.936   3.947   6.176
 4546SOL     OW14536   0.591   6.064   0.098
 4546SOL    HW114537   0.669   6.126   0.106
 4546SOL    HW214538   0.542   6.082   0.013
 4547SOL     OW14539   4.657   1.610   2.130
 4547SOL    HW114540   4.619   1.584   2.219
 4547SOL    HW214541   4.675   1.527   2.076
 4548SOL     OW14542   1.201   3.777   3.903
 4548SOL    HW114543   1.153   3.707   3.850
 4548SOL    HW214544   1.263   3.828   3.843
 4549SOL     OW14545   5.416   1.859   2.565
 4549SOL    HW114546   5.513   1.837   2.579
 4549SOL    HW214547   5.390   1.935   2.625
 4550SOL     OW14548   1.954   5.903   4.544
 4550SOL    HW114549   1.911   5.989   4.515
 4550SOL    HW214550   1.942   5.891   4.642
 4551SOL     OW14551   6.546   3.040   0.362
 4551SOL    HW114552   6.528   3.111   0.294
 4551SOL    HW214553   6.628   2.990   0.336
 4552SOL     OW14554   6.780   3.213   4.568
 4552SOL    HW114555   6.810   3.236   4.661
 4552SOL    HW214556   6.853   3.162   4.522
 4553SOL     OW14557   4.982   4.754   0.170
 4553SOL    HW114558   5.006   4.657   0.163
 4553SOL    HW214559   5.016   4.803   0.090
 4554SOL     OW14560   6.343   6.846   3.991
 4554SOL    HW114561   6.247   6.832   4.015
 4554SOL    HW214562   6.364   6.795   3.907
 4555SOL     OW14563   3.837   3.286   6.787
 4555SOL    HW114564   3.843   3.192   6.753
 4555SOL    HW214565   3.929   3.326   6.789
 4556SOL     OW14566   4.572   0.612   4.804
 4556SOL    HW114567   4.642   0.545   4.779
 4556SOL    HW214568   4.523   0.580   4.884
 4557SOL     OW14569   5.133   0.163   4.475
 4557SOL    HW114570   5.034   0.152   4.485
 4557SOL    HW214571   5.167   0.102   4.404
 4558SOL     OW14572   6.366   3.053   5.846
 4558SOL    HW114573   6.441   2.991   5.868
 4558SOL    HW214574   6.299   3.006   5.788
 4559SOL     OW14575   1.035   6.253   1.260
 4559SOL    HW114576   1.057   6.169   1.309
 4559SOL    HW214577   0.987   6.316   1.321
 4560SOL     OW14578   5.809   2.829   2.619
 4560SOL    HW114579   5.854   2.790   2.700
 4560SOL    HW214580   5.800   2.928   2.632
 4561SOL     OW14581   3.624   6.985   6.485
 4561SOL    HW114582   3.567   6.945   6.557
 4561SOL    HW214583   3.687   0.029   6.525
 4562SOL     OW14584   2.526   4.548   5.703
 4562SOL    HW114585   2.591   4.575   5.632
 4562SOL    HW214586   2.496   4.454   5.686
 4563SOL     OW14587   5.836   2.445   6.599
 4563SOL    HW114588   5.922   2.399   6.622
 4563SOL    HW214589   5.773   2.379   6.558
 4564SOL     OW14590   0.806   5.020   6.951
 4564SOL    HW114591   0.902   5.033   6.976
 4564SOL    HW214592   0.748   5.062   7.020
 4565SOL     OW14593   2.861   1.223   3.926
 4565SOL    HW114594   2.786   1.232   3.992
 4565SOL    HW214595   2.844   1.283   3.847
 4566SOL     OW14596   1.281   1.047   0.829
 4566SOL    HW114597   1.332   1.061   0.744
 4566SOL    HW214598   1.341   1.066   0.907
 4567SOL     OW14599   5.708   1.626   1.186
 4567SOL    HW114600   5.666   1.703   1.138
 4567SOL    HW214601   5.674   1.540   1.148
 4568SOL     OW14602   4.143   4.764   3.973
 4568SOL    HW114603   4.191   4.719   3.898
 4568SOL    HW214604   4.046   4.773   3.950
 4569SOL     OW14605   0.570   2.161   2.974
 4569SOL    HW114606   0.548   2.181   2.879
 4569SOL    HW214607   0.603   2.245   3.019
 4570SOL     OW14608   5.305   5.678   4.670
 4570SOL    HW114609   5.368   5.656   4.595
 4570SOL    HW214610   5.309   5.776   4.689
 4571SOL     OW14611   3.594   3.000   4.166
 4571SOL    HW114612   3.544   3.082   4.136
 4571SOL    HW214613   3.652   3.023   4.243
 4572SOL     OW14614   2.030   5.206   1.855
 4572SOL    HW114615   2.035   5.298   1.817
 4572SOL    HW214616   2.006   5.141   1.783
 4573SOL     OW14617   5.014   0.614   0.944
 4573SOL    HW114618   5.038   0.627   1.040
 4573SOL    HW214619   4.945   0.541   0.936
 4574SOL     OW14620   6.982   4.539   1.577
 4574SOL    HW114621   6.923   4.461   1.597
 4574SOL    HW214622   0.031   4.545   1.645
 4575SOL     OW14623   6.543   6.004   1.989
 4575SOL    HW114624   6.500   6.077   2.042
 4575SOL    HW214625   6.519   6.014   1.893
 4576SOL     OW14626   3.393   6.137   4.170
 4576SOL    HW114627   3.453   6.194   4.226
 4576SOL    HW214628   3.318   6.102   4.226
 4577SOL     OW14629   1.526   2.792   4.120
 4577SOL    HW114630   1.572   2.818   4.204
 4577SOL    HW214631   1.473   2.709   4.135
 4578SOL     OW14632   0.113   5.450   3.992
 4578SOL    HW114633   0.146   5.432   3.900
 4578SOL    HW214634   0.177   5.511   4.039
 4579SOL     OW14635   5.450   2.093   4.515
 4579SOL    HW114636   5.379   2.119   4.581
 4579SOL    HW214637   5.409   2.087   4.424
 4580SOL     OW14638   0.279   5.242   0.102
 4580SOL    HW114639   0.286   5.237   0.202
 4580SOL    HW214640   0.219   5.319   0.077
 4581SOL     OW14641   3.184   6.048   4.335
 4581SOL    HW114642   3.201   6.036   4.433
 4581SOL    HW214643   3.117   5.980   4.304
 4582SOL     OW14644   5.002   6.705   3.061
 4582SOL    HW114645   5.063   6.761   3.117
 4582SOL    HW214646   4.907   6.722   3.088
 4583SOL     OW14647   3.600   0.973   5.091
 4583SOL    HW114648   3.597   1.041   5.164
 4583SOL    HW214649   3.555   1.010   5.009
 4584SOL     OW14650   1.077   4.678   5.840
 4584SOL    HW114651   0.987   4.638   5.824
 4584SOL    HW214652   1.124   4.624   5.910
 4585SOL     OW14653   3.223   6.294   2.041
 4585SOL    HW114654   3.155   6.292   1.967
 4585SOL    HW214655   3.176   6.291   2.129
 4586SOL     OW14656   2.639   6.203   1.627
 4586SOL    HW114657   2.599   6.282   1.580
 4586SOL    HW214658   2.580   6.124   1.616
 4587SOL     OW14659   3.313   4.445   0.789
 4587SOL    HW114660   3.343   4.400   0.705
 4587SOL    HW214661   3.298   4.542   0.771
 4588SOL     OW14662   3.561   4.208   5.048
 4588SOL    HW114663   3.512   4.247   4.971
 4588SOL    HW214664   3.585   4.113   5.028
 4589SOL     OW14665   0.982   2.059   3.118
 4589SOL    HW114666   1.080   2.040   3.121
 4589SOL    HW214667   0.932   1.975   3.095
 4590SOL     OW14668   4.208   6.323   2.974
 4590SOL    HW114669   4.279   6.291   3.038
 4590SOL    HW214670   4.158   6.398   3.015
 4591SOL     OW14671   6.244   6.587   4.991
 4591SOL    HW114672   6.177   6.640   5.043
 4591SOL    HW214673   6.245   6.493   5.024
 4592SOL     OW14674   3.339   1.693   6.135
 4592SOL    HW114675   3.252   1.649   6.157
 4592SOL    HW214676   3.373   1.657   6.048
 4593SOL     OW14677   5.112   6.535   1.682
 4593SOL    HW114678   5.108   6.552   1.781
 4593SOL    HW214679   5.057   6.454   1.660
 4594SOL     OW14680   3.772   1.790   2.328
 4594SOL    HW114681   3.728   1.879   2.313
 4594SOL    HW214682   3.751   1.758   2.420
 4595SOL     OW14683   4.694   3.497   5.857
 4595SOL    HW114684   4.735   3.575   5.810
 4595SOL    HW214685   4.597   3.514   5.872
 4596SOL     OW14686   5.059   0.081   2.304
 4596SOL    HW114687   5.048   0.062   2.206
 4596SOL    HW214688   4.972   0.066   2.351
 4597SOL     OW14689   6.498   4.308   5.490
 4597SOL    HW114690   6.473   4.372   5.562
 4597SOL    HW214691   6.578   4.341   5.441
 4598SOL     OW14692   3.084   3.768   0.470
 4598SOL    HW114693   3.177   3.754   0.502
 4598SOL    HW214694   3.069   3.718   0.385
 4599SOL     OW14695   2.833   5.528   0.461
 4599SOL    HW114696   2.880   5.579   0.389
 4599SOL    HW214697   2.838   5.431   0.442
 4600SOL     OW14698   3.424   4.014   1.354
 4600SOL    HW114699   3.360   4.081   1.317
 4600SOL    HW214700   3.518   4.046   1.339
 4601SOL     OW14701   1.705   5.765   4.195
 4601SOL    HW114702   1.731   5.854   4.158
 4601SOL    HW214703   1.759   5.694   4.151
 4602SOL     OW14704   1.767   0.656   1.040
 4602SOL    HW114705   1.733   0.744   1.007
 4602SOL    HW214706   1.781   0.594   0.963
 4603SOL     OW14707   2.886   1.469   2.077
 4603SOL    HW114708   2.944   1.529   2.022
 4603SOL    HW214709   2.790   1.495   2.063
 4604SOL     OW14710   1.599   0.920   2.390
 4604SOL    HW114711   1.679   0.978   2.408
 4604SOL    HW214712   1.576   0.925   2.293
 4605SOL     OW14713   5.215   5.919   5.510
 4605SOL    HW114714   5.151   5.911   5.433
 4605SOL    HW214715   5.176   5.979   5.580
 4606SOL     OW14716   0.003   5.537   4.845
 4606SOL    HW114717   7.000   5.630   4.820
 4606SOL    HW214718   6.948   5.476   4.833
 4607SOL     OW14719   2.501   2.818   1.205
 4607SOL    HW114720   2.566   2.894   1.215
 4607SOL    HW214721   2.482   2.804   1.108
 4608SOL     OW14722   1.526   3.366   5.268
 4608SOL    HW114723   1.507   3.325   5.179
 4608SOL    HW214724   1.494   3.305   5.340
 4609SOL     OW14725   3.050   0.012   0.731
 4609SOL    HW114726   3.066   6.984   0.646
 4609SOL    HW214727   3.122   0.080   0.743
 4610SOL     OW14728   6.836   3.280   6.539
 4610SOL    HW114729   6.898   3.355   6.561
 4610SOL    HW214730   6.874   3.194   6.573
 4611SOL     OW14731   1.518   4.338   6.499
 4611SOL    HW114732   1.524   4.249   6.454
 4611SOL    HW214733   1.449   4.393   6.453
 4612SOL     OW14734   2.533   0.249   6.106
 4612SOL    HW114735   2.517   0.314   6.181
 4612SOL    HW214736   2.483   0.164   6.125
 4613SOL     OW14737   3.273   4.998   1.748
 4613SOL    HW114738   3.343   4.946   1.698
 4613SOL    HW214739   3.272   4.969   1.844
 4614SOL     OW14740   2.326   4.942   0.011
 4614SOL    HW114741   2.391   4.989   6.973
 4614SOL    HW214742   2.377   4.895   0.083
 4615SOL     OW14743   6.322   3.307   6.829
 4615SOL    HW114744   6.394   3.296   6.761
 4615SOL    HW214745   6.237   3.267   6.794
 4616SOL     OW14746   5.695   0.532   0.010
 4616SOL    HW114747   5.635   0.464   6.993
 4616SOL    HW214748   5.780   0.489   0.041
 4617SOL     OW14749   6.948   3.993   1.948
 4617SOL    HW114750   6.854   3.962   1.935
 4617SOL    HW214751   7.008   3.914   1.962
 4618SOL     OW14752   0.841   2.626   6.630
 4618SOL    HW114753   0.889   2.541   6.610
 4618SOL    HW214754   0.745   2.606   6.650
 4619SOL     OW14755   4.012   0.420   3.327
 4619SOL    HW114756   3.973   0.475   3.253
 4619SOL    HW214757   4.090   0.368   3.292
 4620SOL     OW14758   2.261   5.667   6.789
 4620SOL    HW114759   2.300   5.602   6.854
 4620SOL    HW214760   2.304   5.654   6.699
 4621SOL     OW14761   0.167   0.425   6.505
 4621SOL    HW114762   0.151   0.523   6.514
 4621SOL    HW214763   0.264   0.409   6.485
 4622SOL     OW14764   2.064   3.588   0.595
 4622SOL    HW114765   2.117   3.529   0.656
 4622SOL    HW214766   2.048   3.541   0.509
 4623SOL     OW14767   5.250   4.001   2.319
 4623SOL    HW114768   5.206   3.915   2.348
 4623SOL    HW214769   5.182   4.074   2.319
 4624SOL     OW14770   4.683   6.919   5.698
 4624SOL    HW114771   4.706   6.876   5.610
 4624SOL    HW214772   4.762   6.972   5.730
 4625SOL     OW14773   1.113   3.791   6.011
 4625SOL    HW114774   1.178   3.785   5.936
 4625SOL    HW214775   1.135   3.722   6.080
 4626SOL     OW14776   5.746   5.117   1.990
 4626SOL    HW114777   5.722   5.135   2.085
 4626SOL    HW214778   5.765   5.019   1.979
 4627SOL     OW14779   1.507   0.078   5.654
 4627SOL    HW114780   1.540   7.009   5.676
 4627SOL    HW214781   1.549   0.144   5.717
 4628SOL     OW14782   6.344   2.820   2.253
 4628SOL    HW114783   6.350   2.915   2.282
 4628SOL    HW214784   6.433   2.789   2.221
 4629SOL     OW14785   4.432   5.010   4.265
 4629SOL    HW114786   4.447   4.973   4.356
 4629SOL    HW214787   4.520   5.033   4.223
 4630SOL     OW14788   1.930   6.542   2.443
 4630SOL    HW114789   1.949   6.453   2.402
 4630SOL    HW214790   1.868   6.594   2.383
 4631SOL     OW14791   1.754   0.471   2.986
 4631SOL    HW114792   1.740   0.495   3.082
 4631SOL    HW214793   1.702   0.534   2.928
 4632SOL     OW14794   5.879   5.635   4.104
 4632SOL    HW114795   5.790   5.591   4.096
 4632SOL    HW214796   5.945   5.570   4.142
 4633SOL     OW14797   5.755   2.441   6.004
 4633SOL    HW114798   5.762   2.514   5.936
 4633SOL    HW214799   5.842   2.393   6.010
 4634SOL     OW14800   2.841   4.302   0.516
 4634SOL    HW114801   2.752   4.346   0.535
 4634SOL    HW214802   2.826   4.216   0.467
 4635SOL     OW14803   5.520   3.145   1.953
 4635SOL    HW114804   5.438   3.192   1.921
 4635SOL    HW214805   5.519   3.050   1.921
 4636SOL     OW14806   0.841   5.966   1.554
 4636SOL    HW114807   0.766   6.019   1.514
 4636SOL    HW214808   0.925   5.983   1.502
 4637SOL     OW14809   1.320   0.629   4.623
 4637SOL    HW114810   1.226   0.595   4.621
 4637SOL    HW214811   1.319   0.729   4.618
 4638SOL     OW14812   4.527   4.706   5.891
 4638SOL    HW114813   4.510   4.699   5.990
 4638SOL    HW214814   4.583   4.787   5.873
 4639SOL     OW14815   0.138   2.032   4.767
 4639SOL    HW114816   0.039   2.039   4.756
 4639SOL    HW214817   0.183   2.052   4.680
 4640SOL     OW14818   6.154   4.820   2.783
 4640SOL    HW114819   6.140   4.734   2.733
 4640SOL    HW214820   6.239   4.813   2.836
 4641SOL     OW14821   2.851   3.322   5.464
 4641SOL    HW114822   2.800   3.355   5.385
 4641SOL    HW214823   2.886   3.230   5.444
 4642SOL     OW14824   6.308   6.035   3.708
 4642SOL    HW114825   6.326   5.965   3.639
 4642SOL    HW214826   6.395   6.063   3.750
 4643SOL     OW14827   4.101   3.047   0.880
 4643SOL    HW114828   4.163   3.072   0.805
 4643SOL    HW214829   4.105   3.118   0.951
 4644SOL     OW14830   3.592   4.412   5.359
 4644SOL    HW114831   3.534   4.330   5.351
 4644SOL    HW214832   3.661   4.411   5.288
 4645SOL     OW14833   2.007   6.235   5.022
 4645SOL    HW114834   2.064   6.315   5.040
 4645SOL    HW214835   1.990   6.186   5.108
 4646SOL     OW14836   3.782   0.758   1.124
 4646SOL    HW114837   3.716   0.755   1.199
 4646SOL    HW214838   3.860   0.815   1.151
 4647SOL     OW14839   6.791   0.784   4.715
 4647SOL    HW114840   6.725   0.858   4.729
 4647SOL    HW214841   6.855   0.781   4.791
 4648SOL     OW14842   1.616   5.877   3.218
 4648SOL    HW114843   1.580   5.962   3.179
 4648SOL    HW214844   1.712   5.889   3.240
 4649SOL     OW14845   5.578   6.758   6.075
 4649SOL    HW114846   5.671   6.737   6.044
 4649SOL    HW214847   5.582   6.834   6.140
 4650SOL     OW14848   6.718   4.651   1.550
 4650SOL    HW114849   6.807   4.606   1.550
 4650SOL    HW214850   6.666   4.623   1.631
 4651SOL     OW14851   6.487   2.489   1.955
 4651SOL    HW114852   6.413   2.459   1.894
 4651SOL    HW214853   6.550   2.413   1.971
 4652SOL     OW14854   0.056   5.847   5.244
 4652SOL    HW114855   0.134   5.896   5.205
 4652SOL    HW214856   0.062   5.750   5.220
 4653SOL     OW14857   0.476   5.369   6.357
 4653SOL    HW114858   0.479   5.316   6.442
 4653SOL    HW214859   0.513   5.460   6.374
 4654SOL     OW14860   1.127   1.625   6.553
 4654SOL    HW114861   1.133   1.569   6.470
 4654SOL    HW214862   1.218   1.654   6.580
 4655SOL     OW14863   0.124   5.544   3.425
 4655SOL    HW114864   0.221   5.526   3.442
 4655SOL    HW214865   0.075   5.540   3.512
 4656SOL     OW14866   2.296   6.612   2.730
 4656SOL    HW114867   2.364   6.562   2.677
 4656SOL    HW214868   2.308   6.710   2.717
 4657SOL     OW14869   6.103   0.741   5.916
 4657SOL    HW114870   6.034   0.735   5.988
 4657SOL    HW214871   6.103   0.656   5.863
 4658SOL     OW14872   5.051   0.817   4.033
 4658SOL    HW114873   5.099   0.737   3.996
 4658SOL    HW214874   5.009   0.794   4.120
 4659SOL     OW14875   1.569   2.827   4.396
 4659SOL    HW114876   1.547   2.865   4.485
 4659SOL    HW214877   1.536   2.733   4.390
 4660SOL     OW14878   6.148   1.910   4.990
 4660SOL    HW114879   6.069   1.887   5.047
 4660SOL    HW214880   6.154   1.846   4.914
 4661SOL     OW14881   3.807   3.100   3.170
 4661SOL    HW114882   3.772   3.028   3.111
 4661SOL    HW214883   3.784   3.189   3.132
 4662SOL     OW14884   5.922   0.137   3.813
 4662SOL    HW114885   5.961   0.093   3.732
 4662SOL    HW214886   5.822   0.130   3.809
 4663SOL     OW14887   0.920   2.642   1.844
 4663SOL    HW114888   0.993   2.687   1.791
 4663SOL    HW214889   0.913   2.546   1.816
 4664SOL     OW14890   3.341   3.727   0.528
 4664SOL    HW114891   3.348   3.628   0.524
 4664SOL    HW214892   3.396   3.768   0.454
 4665SOL     OW14893   5.716   0.072   6.619
 4665SOL    HW114894   5.699   0.084   6.717
 4665SOL    HW214895   5.656   0.001   6.582
 4666SOL     OW14896   1.873   2.101   0.478
 4666SOL    HW114897   1.788   2.150   0.457
 4666SOL    HW214898   1.860   2.003   0.462
 4667SOL     OW14899   0.888   5.320   4.530
 4667SOL    HW114900   0.931   5.255   4.593
 4667SOL    HW214901   0.889   5.411   4.571
 4668SOL     OW14902   4.968   0.762   5.211
 4668SOL    HW114903   5.038   0.811   5.160
 4668SOL    HW214904   4.994   0.756   5.307
 4669SOL     OW14905   2.260   1.566   2.035
 4669SOL    HW114906   2.309   1.493   2.082
 4669SOL    HW214907   2.186   1.600   2.093
 4670SOL     OW14908   2.817   1.451   4.300
 4670SOL    HW114909   2.808   1.461   4.399
 4670SOL    HW214910   2.751   1.511   4.254
 4671SOL     OW14911   5.717   2.102   1.938
 4671SOL    HW114912   5.748   2.066   1.851
 4671SOL    HW214913   5.649   2.040   1.978
 4672SOL     OW14914   2.561   2.724   5.245
 4672SOL    HW114915   2.559   2.814   5.200
 4672SOL    HW214916   2.652   2.708   5.282
 4673SOL     OW14917   4.511   0.713   2.364
 4673SOL    HW114918   4.537   0.677   2.454
 4673SOL    HW214919   4.535   0.646   2.294
 4674SOL     OW14920   4.938   6.387   5.201
 4674SOL    HW114921   4.943   6.435   5.289
 4674SOL    HW214922   5.027   6.389   5.156
 4675SOL     OW14923   1.051   4.439   6.897
 4675SOL    HW114924   1.018   4.493   6.974
 4675SOL    HW214925   1.107   4.496   6.837
 4676SOL     OW14926   0.607   5.001   3.863
 4676SOL    HW114927   0.636   4.906   3.874
 4676SOL    HW214928   0.628   5.052   3.947
 4677SOL     OW14929   1.408   3.194   0.328
 4677SOL    HW114930   1.364   3.143   0.402
 4677SOL    HW214931   1.478   3.136   0.285
 4678SOL     OW14932   1.290   4.466   1.882
 4678SOL    HW114933   1.272   4.540   1.947
 4678SOL    HW214934   1.203   4.422   1.856
 4679SOL     OW14935   4.223   0.270   1.939
 4679SOL    HW114936   4.169   0.354   1.945
 4679SOL    HW214937   4.187   0.202   2.004
 4680SOL     OW14938   2.184   0.499   6.666
 4680SOL    HW114939   2.151   0.415   6.622
 4680SOL    HW214940   2.119   0.529   6.734
 4681SOL     OW14941   5.060   5.690   2.220
 4681SOL    HW114942   5.125   5.697   2.144
 4681SOL    HW214943   4.995   5.766   2.215
 4682SOL     OW14944   3.511   3.820   6.081
 4682SOL    HW114945   3.484   3.749   6.015
 4682SOL    HW214946   3.563   3.891   6.033
 4683SOL     OW14947   6.143   4.747   3.567
 4683SOL    HW114948   6.166   4.799   3.649
 4683SOL    HW214949   6.051   4.709   3.576
 4684SOL     OW14950   5.820   6.597   6.471
 4684SOL    HW114951   5.793   6.576   6.565
 4684SOL    HW214952   5.800   6.518   6.413
 4685SOL     OW14953   3.065   3.983   4.234
 4685SOL    HW114954   3.128   4.016   4.164
 4685SOL    HW214955   3.014   3.904   4.198
 4686SOL     OW14956   1.689   0.065   6.797
 4686SOL    HW114957   1.630   0.142   6.819
 4686SOL    HW214958   1.634   7.015   6.754
 4687SOL     OW14959   2.229   0.990   2.918
 4687SOL    HW114960   2.199   1.053   2.846
 4687SOL    HW214961   2.200   0.897   2.894
 4688SOL     OW14962   5.116   2.935   6.031
 4688SOL    HW114963   5.053   3.000   5.987
 4688SOL    HW214964   5.064   2.856   6.064
 4689SOL     OW14965   6.817   1.384   0.555
 4689SOL    HW114966   6.833   1.481   0.534
 4689SOL    HW214967   6.905   1.337   0.565
 4690SOL     OW14968   3.044   2.655   0.800
 4690SOL    HW114969   2.994   2.635   0.715
 4690SOL    HW214970   3.140   2.673   0.778
 4691SOL     OW14971   6.288   3.463   1.746
 4691SOL    HW114972   6.314   3.464   1.842
 4691SOL    HW214973   6.260   3.555   1.718
 4692SOL     OW14974   5.060   2.715   2.724
 4692SOL    HW114975   5.002   2.700   2.803
 4692SOL    HW214976   5.155   2.693   2.747
 4693SOL     OW14977   0.784   0.218   2.297
 4693SOL    HW114978   0.870   0.184   2.259
 4693SOL    HW214979   0.795   0.233   2.395
 4694SOL     OW14980   2.226   0.212   6.567
 4694SOL    HW114981   2.221   0.160   6.482
 4694SOL    HW214982   2.317   0.201   6.607
 4695SOL     OW14983   2.115   4.868   2.362
 4695SOL    HW114984   2.215   4.872   2.371
 4695SOL    HW214985   2.073   4.931   2.427
 4696SOL     OW14986   1.201   6.342   6.059
 4696SOL    HW114987   1.176   6.315   5.966
 4696SOL    HW214988   1.141   6.295   6.124
 4697SOL     OW14989   4.457   5.924   1.515
 4697SOL    HW114990   4.519   5.905   1.439
 4697SOL    HW214991   4.505   5.911   1.602
 4698SOL     OW14992   5.852   1.224   4.538
 4698SOL    HW114993   5.855   1.175   4.451
 4698SOL    HW214994   5.759   1.222   4.575
 4699SOL     OW14995   1.208   0.998   2.621
 4699SOL    HW114996   1.140   1.042   2.562
 4699SOL    HW214997   1.300   1.030   2.596
 4700SOL     OW14998   6.158   1.518   2.916
 4700SOL    HW114999   6.180   1.493   2.821
 4700SOL    HW215000   6.086   1.457   2.949
 4701SOL     OW15001   3.179   2.570   1.756
 4701SOL    HW115002   3.102   2.527   1.803
 4701SOL    HW215003   3.230   2.627   1.821
 4702SOL     OW15004   6.159   5.433   0.215
 4702SOL    HW115005   6.246   5.414   0.171
 4702SOL    HW215006   6.094   5.361   0.193
 4703SOL     OW15007   1.095   5.585   3.883
 4703SOL    HW115008   1.031   5.661   3.872
 4703SOL    HW215009   1.044   5.500   3.898
 4704SOL     OW15010   1.568   4.644   4.233
 4704SOL    HW115011   1.634   4.606   4.168
 4704SOL    HW215012   1.547   4.738   4.208
 4705SOL     OW15013   3.671   2.068   1.752
 4705SOL    HW115014   3.689   2.105   1.843
 4705SOL    HW215015   3.613   2.132   1.701
 4706SOL     OW15016   2.528   0.762   0.894
 4706SOL    HW115017   2.561   0.851   0.923
 4706SOL    HW215018   2.428   0.763   0.891
 4707SOL     OW15019   1.587   5.436   2.004
 4707SOL    HW115020   1.667   5.378   1.984
 4707SOL    HW215021   1.510   5.407   1.946
 4708SOL     OW15022   1.659   2.996   5.727
 4708SOL    HW115023   1.714   2.919   5.759
 4708SOL    HW215024   1.719   3.065   5.686
 4709SOL     OW15025   5.999   4.134   5.606
 4709SOL    HW115026   6.088   4.173   5.629
 4709SOL    HW215027   5.940   4.205   5.567
 4710SOL     OW15028   6.377   6.110   5.127
 4710SOL    HW115029   6.317   6.067   5.195
 4710SOL    HW215030   6.329   6.118   5.040
 4711SOL     OW15031   4.733   4.498   2.415
 4711SOL    HW115032   4.677   4.517   2.334
 4711SOL    HW215033   4.793   4.576   2.433
 4712SOL     OW15034   4.080   4.234   5.884
 4712SOL    HW115035   4.013   4.299   5.918
 4712SOL    HW215036   4.172   4.270   5.898
 4713SOL     OW15037   5.443   3.916   0.687
 4713SOL    HW115038   5.492   3.976   0.750
 4713SOL    HW215039   5.433   3.826   0.727
 4714SOL     OW15040   4.515   2.215   6.757
 4714SOL    HW115041   4.493   2.123   6.791
 4714SOL    HW215042   4.450   2.281   6.795
 4715SOL     OW15043   6.593   1.052   1.665
 4715SOL    HW115044   6.600   1.151   1.671
 4715SOL    HW215045   6.684   1.011   1.673
 4716SOL     OW15046   3.808   4.329   5.744
 4716SOL    HW115047   3.715   4.345   5.710
 4716SOL    HW215048   3.873   4.335   5.669
 4717SOL     OW15049   1.920   5.106   5.734
 4717SOL    HW115050   1.892   5.024   5.685
 4717SOL    HW215051   1.918   5.088   5.832
 4718SOL     OW15052   4.910   4.329   1.595
 4718SOL    HW115053   4.908   4.428   1.609
 4718SOL    HW215054   4.817   4.293   1.597
 4719SOL     OW15055   6.321   4.596   3.931
 4719SOL    HW115056   6.352   4.655   3.857
 4719SOL    HW215057   6.351   4.502   3.914
 4720SOL     OW15058   2.432   2.999   6.738
 4720SOL    HW115059   2.430   3.012   6.837
 4720SOL    HW215060   2.526   3.011   6.705
 4721SOL     OW15061   0.934   3.020   3.353
 4721SOL    HW115062   0.968   2.928   3.334
 4721SOL    HW215063   0.847   3.033   3.305
 4722SOL     OW15064   1.267   5.394   6.707
 4722SOL    HW115065   1.257   5.341   6.623
 4722SOL    HW215066   1.265   5.333   6.786
 4723SOL     OW15067   2.978   4.979   6.652
 4723SOL    HW115068   2.953   4.996   6.557
 4723SOL    HW215069   2.903   4.933   6.699
 4724SOL     OW15070   0.540   0.059   4.159
 4724SOL    HW115071   0.477   0.134   4.180
 4724SOL    HW215072   0.495   7.017   4.097
 4725SOL     OW15073   5.748   4.831   0.988
 4725SOL    HW115074   5.783   4.771   0.916
 4725SOL    HW215075   5.664   4.793   1.025
 4726SOL     OW15076   1.983   2.980   5.551
 4726SOL    HW115077   1.965   2.987   5.453
 4726SOL    HW215078   1.948   3.061   5.598
 4727SOL     OW15079   6.324   4.550   1.249
 4727SOL    HW115080   6.311   4.535   1.151
 4727SOL    HW215081   6.240   4.587   1.288
 4728SOL     OW15082   5.652   1.844   3.975
 4728SOL    HW115083   5.645   1.762   3.918
 4728SOL    HW215084   5.706   1.823   4.057
 4729SOL     OW15085   5.754   1.307   1.765
 4729SOL    HW115086   5.804   1.305   1.851
 4729SOL    HW215087   5.658   1.285   1.781
 4730SOL     OW15088   4.010   0.703   3.462
 4730SOL    HW115089   4.086   0.647   3.494
 4730SOL    HW215090   3.925   0.650   3.467
 4731SOL     OW15091   3.122   6.794   1.184
 4731SOL    HW115092   3.097   6.887   1.211
 4731SOL    HW215093   3.146   6.793   1.087
 4732SOL     OW15094   7.011   4.778   5.066
 4732SOL    HW115095   6.993   4.871   5.032
 4732SOL    HW215096   7.022   4.716   4.988
 4733SOL     OW15097   1.447   4.008   2.645
 4733SOL    HW115098   1.483   4.059   2.723
 4733SOL    HW215099   1.515   3.941   2.615
 4734SOL     OW15100   4.680   3.971   0.200
 4734SOL    HW115101   4.688   3.962   0.100
 4734SOL    HW215102   4.585   3.957   0.227
 4735SOL     OW15103   0.233   0.672   4.919
 4735SOL    HW115104   0.215   0.584   4.962
 4735SOL    HW215105   0.313   0.715   4.961
 4736SOL     OW15106   6.319   1.249   4.174
 4736SOL    HW115107   6.252   1.273   4.103
 4736SOL    HW215108   6.405   1.297   4.157
 4737SOL     OW15109   2.142   4.943   0.459
 4737SOL    HW115110   2.222   4.957   0.401
 4737SOL    HW215111   2.168   4.892   0.541
 4738SOL     OW15112   0.686   5.645   4.270
 4738SOL    HW115113   0.679   5.735   4.228
 4738SOL    HW215114   0.597   5.600   4.268
 4739SOL     OW15115   5.971   3.477   3.088
 4739SOL    HW115116   5.888   3.447   3.040
 4739SOL    HW215117   6.025   3.397   3.114
 4740SOL     OW15118   1.534   6.512   0.469
 4740SOL    HW115119   1.478   6.522   0.551
 4740SOL    HW215120   1.627   6.545   0.489
 4741SOL     OW15121   5.447   4.591   0.901
 4741SOL    HW115122   5.525   4.535   0.873
 4741SOL    HW215123   5.366   4.533   0.912
 4742SOL     OW15124   2.628   5.628   2.329
 4742SOL    HW115125   2.682   5.627   2.413
 4742SOL    HW215126   2.677   5.678   2.258
 4743SOL     OW15127   2.539   3.613   0.900
 4743SOL    HW115128   2.540   3.642   0.996
 4743SOL    HW215129   2.602   3.537   0.887
 4744SOL     OW15130   2.818   1.802   5.451
 4744SOL    HW115131   2.788   1.779   5.544
 4744SOL    HW215132   2.742   1.787   5.387
 4745SOL     OW15133   4.185   5.522   4.818
 4745SOL    HW115134   4.200   5.621   4.813
 4745SOL    HW215135   4.157   5.488   4.728
 4746SOL     OW15136   5.605   1.057   1.320
 4746SOL    HW115137   5.506   1.047   1.314
 4746SOL    HW215138   5.644   0.979   1.369
 4747SOL     OW15139   0.339   2.894   2.170
 4747SOL    HW115140   0.331   2.982   2.123
 4747SOL    HW215141   0.323   2.820   2.105
 4748SOL     OW15142   2.138   0.354   0.847
 4748SOL    HW115143   2.235   0.370   0.863
 4748SOL    HW215144   2.127   0.281   0.779
 4749SOL     OW15145   3.243   0.259   0.303
 4749SOL    HW115146   3.184   0.320   0.355
 4749SOL    HW215147   3.189   0.185   0.264
 4750SOL     OW15148   0.747   1.637   4.505
 4750SOL    HW115149   0.693   1.715   4.536
 4750SOL    HW215150   0.778   1.653   4.411
 4751SOL     OW15151   1.004   3.312   6.087
 4751SOL    HW115152   0.977   3.400   6.127
 4751SOL    HW215153   1.081   3.274   6.139
 4752SOL     OW15154   2.379   5.796   1.436
 4752SOL    HW115155   2.368   5.743   1.520
 4752SOL    HW215156   2.475   5.794   1.408
 4753SOL     OW15157   0.222   0.153   6.165
 4753SOL    HW115158   0.170   0.230   6.202
 4753SOL    HW215159   0.166   0.105   6.096
 4754SOL     OW15160   0.612   0.865   5.972
 4754SOL    HW115161   0.706   0.849   6.003
 4754SOL    HW215162   0.558   0.904   6.047
 4755SOL     OW15163   2.939   0.348   1.703
 4755SOL    HW115164   2.969   0.269   1.651
 4755SOL    HW215165   2.917   0.320   1.797
 4756SOL     OW15166   5.618   2.380   1.509
 4756SOL    HW115167   5.531   2.396   1.557
 4756SOL    HW215168   5.601   2.373   1.411
 4757SOL     OW15169   2.800   1.725   0.934
 4757SOL    HW115170   2.759   1.812   0.961
 4757SOL    HW215171   2.899   1.730   0.949
 4758SOL     OW15172   5.683   3.440   6.032
 4758SOL    HW115173   5.626   3.522   6.018
 4758SOL    HW215174   5.710   3.403   5.944
 4759SOL     OW15175   5.970   4.126   6.476
 4759SOL    HW115176   5.947   4.069   6.397
 4759SOL    HW215177   6.035   4.196   6.449
 4760SOL     OW15178   2.421   2.702   0.468
 4760SOL    HW115179   2.391   2.796   0.454
 4760SOL    HW215180   2.488   2.677   0.398
 4761SOL     OW15181   1.819   5.731   6.162
 4761SOL    HW115182   1.722   5.707   6.165
 4761SOL    HW215183   1.834   5.816   6.212
 4762SOL     OW15184   3.599   6.791   2.462
 4762SOL    HW115185   3.523   6.857   2.464
 4762SOL    HW215186   3.635   6.784   2.369
 4763SOL     OW15187   5.822   5.743   5.417
 4763SOL    HW115188   5.780   5.833   5.426
 4763SOL    HW215189   5.760   5.682   5.368
 4764SOL     OW15190   3.811   3.139   4.292
 4764SOL    HW115191   3.811   3.154   4.391
 4764SOL    HW215192   3.802   3.227   4.245
 4765SOL     OW15193   6.412   5.623   6.246
 4765SOL    HW115194   6.406   5.523   6.246
 4765SOL    HW215195   6.450   5.654   6.159
 4766SOL     OW15196   3.527   0.702   3.352
 4766SOL    HW115197   3.429   0.710   3.340
 4766SOL    HW215198   3.552   0.732   3.445
 4767SOL     OW15199   4.014   6.596   6.795
 4767SOL    HW115200   3.916   6.580   6.807
 4767SOL    HW215201   4.029   6.690   6.764
 4768SOL     OW15202   1.279   0.572   4.901
 4768SOL    HW115203   1.319   0.621   4.824
 4768SOL    HW215204   1.281   0.473   4.882
 4769SOL     OW15205   4.579   1.048   2.017
 4769SOL    HW115206   4.498   1.066   1.961
 4769SOL    HW215207   4.559   1.073   2.112
 4770SOL     OW15208   2.001   0.811   4.038
 4770SOL    HW115209   2.069   0.832   3.967
 4770SOL    HW215210   1.932   0.749   4.001
 4771SOL     OW15211   4.176   4.324   5.327
 4771SOL    HW115212   4.226   4.384   5.265
 4771SOL    HW215213   4.241   4.276   5.386
 4772SOL     OW15214   2.421   3.016   7.013
 4772SOL    HW115215   2.399   3.089   0.054
 4772SOL    HW215216   2.337   2.970   6.985
 4773SOL     OW15217   0.412   5.240   4.562
 4773SOL    HW115218   0.488   5.233   4.498
 4773SOL    HW215219   0.435   5.306   4.634
 4774SOL     OW15220   1.733   3.945   6.598
 4774SOL    HW115221   1.757   3.902   6.686
 4774SOL    HW215222   1.635   3.933   6.580
 4775SOL     OW15223   1.830   1.962   2.289
 4775SOL    HW115224   1.877   2.050   2.301
 4775SOL    HW215225   1.842   1.907   2.372
 4776SOL     OW15226   4.217   4.662   2.364
 4776SOL    HW115227   4.146   4.595   2.341
 4776SOL    HW215228   4.297   4.614   2.400
 4777SOL     OW15229   2.528   3.856   1.653
 4777SOL    HW115230   2.547   3.945   1.613
 4777SOL    HW215231   2.612   3.801   1.653
 4778SOL     OW15232   5.181   3.472   2.915
 4778SOL    HW115233   5.199   3.530   2.994
 4778SOL    HW215234   5.266   3.427   2.887
 4779SOL     OW15235   4.768   1.178   2.731
 4779SOL    HW115236   4.788   1.242   2.657
 4779SOL    HW215237   4.708   1.105   2.697
 4780SOL     OW15238   1.902   0.663   5.606
 4780SOL    HW115239   1.938   0.752   5.633
 4780SOL    HW215240   1.931   0.643   5.512
 4781SOL     OW15241   2.124   5.609   2.887
 4781SOL    HW115242   2.094   5.693   2.931
 4781SOL    HW215243   2.127   5.622   2.788
 4782SOL     OW15244   5.952   5.617   0.139
 4782SOL    HW115245   6.034   5.577   0.182
 4782SOL    HW215246   5.966   5.715   0.126
 4783SOL     OW15247   5.973   3.984   2.950
 4783SOL    HW115248   6.060   3.936   2.942
 4783SOL    HW215249   5.921   3.949   3.028
 4784SOL     OW15250   5.353   4.681   5.420
 4784SOL    HW115251   5.358   4.746   5.496
 4784SOL    HW215252   5.298   4.602   5.447
 4785SOL     OW15253   6.163   6.750   0.266
 4785SOL    HW115254   6.084   6.689   0.272
 4785SOL    HW215255   6.133   6.840   0.236
 4786SOL     OW15256   1.107   3.271   2.309
 4786SOL    HW115257   1.130   3.362   2.273
 4786SOL    HW215258   1.189   3.214   2.312
 4787SOL     OW15259   4.432   2.078   3.225
 4787SOL    HW115260   4.352   2.040   3.178
 4787SOL    HW215261   4.435   2.176   3.210
 4788SOL     OW15262   2.482   6.864   4.993
 4788SOL    HW115263   2.507   6.804   4.917
 4788SOL    HW215264   2.491   6.960   4.965
 4789SOL     OW15265   5.095   6.455   0.433
 4789SOL    HW115266   5.024   6.459   0.503
 4789SOL    HW215267   5.182   6.430   0.475
 4790SOL     OW15268   5.439   6.660   6.594
 4790SOL    HW115269   5.406   6.588   6.532
 4790SOL    HW215270   5.400   6.646   6.685
 4791SOL     OW15271   4.863   1.832   3.700
 4791SOL    HW115272   4.895   1.768   3.770
 4791SOL    HW215273   4.884   1.796   3.609
 4792SOL     OW15274   3.157   2.504   1.164
 4792SOL    HW115275   3.248   2.495   1.205
 4792SOL    HW215276   3.117   2.591   1.192
 4793SOL     OW15277   0.713   6.937   6.665
 4793SOL    HW115278   0.798   6.897   6.699
 4793SOL    HW215279   0.728   6.975   6.574
 4794SOL     OW15280   5.212   1.437   1.879
 4794SOL    HW115281   5.114   1.449   1.894
 4794SOL    HW215282   5.263   1.491   1.946
 4795SOL     OW15283   6.000   3.216   4.265
 4795SOL    HW115284   6.050   3.149   4.320
 4795SOL    HW215285   5.906   3.186   4.253
 4796SOL     OW15286   5.735   3.519   0.949
 4796SOL    HW115287   5.824   3.493   0.913
 4796SOL    HW215288   5.713   3.612   0.919
 4797SOL     OW15289   0.710   5.031   4.365
 4797SOL    HW115290   0.640   4.963   4.385
 4797SOL    HW215291   0.700   5.108   4.428
 4798SOL     OW15292   6.663   5.305   5.839
 4798SOL    HW115293   6.598   5.380   5.825
 4798SOL    HW215294   6.717   5.323   5.921
 4799SOL     OW15295   4.465   1.190   4.773
 4799SOL    HW115296   4.398   1.125   4.808
 4799SOL    HW215297   4.547   1.188   4.829
 4800SOL     OW15298   1.797   2.903   4.219
 4800SOL    HW115299   1.727   2.920   4.289
 4800SOL    HW215300   1.827   2.991   4.181
 4801SOL     OW15301   0.669   2.746   0.576
 4801SOL    HW115302   0.618   2.766   0.660
 4801SOL    HW215303   0.729   2.824   0.554
 4802SOL     OW15304   2.084   0.330   1.857
 4802SOL    HW115305   2.123   0.416   1.889
 4802SOL    HW215306   1.985   0.339   1.849
 4803SOL     OW15307   1.459   0.610   0.807
 4803SOL    HW115308   1.523   0.678   0.841
 4803SOL    HW215309   1.367   0.649   0.805
 4804SOL     OW15310   4.273   5.650   6.919
 4804SOL    HW115311   4.313   5.621   7.006
 4804SOL    HW215312   4.221   5.574   6.880
 4805SOL     OW15313   0.341   0.565   1.352
 4805SOL    HW115314   0.288   0.481   1.348
 4805SOL    HW215315   0.327   0.618   1.269
 4806SOL     OW15316   6.931   2.439   3.868
 4806SOL    HW115317   6.955   2.531   3.836
 4806SOL    HW215318   6.995   2.373   3.829
 4807SOL     OW15319   1.074   6.853   2.253
 4807SOL    HW115320   0.977   6.849   2.277
 4807SOL    HW215321   1.100   6.770   2.204
 4808SOL     OW15322   5.546   3.115   0.858
 4808SOL    HW115323   5.545   3.209   0.892
 4808SOL    HW215324   5.563   3.052   0.934
 4809SOL     OW15325   4.459   6.738   0.581
 4809SOL    HW115326   4.429   6.824   0.622
 4809SOL    HW215327   4.555   6.746   0.552
 4810SOL     OW15328   1.796   6.885   1.239
 4810SOL    HW115329   1.825   6.801   1.285
 4810SOL    HW215330   1.858   6.960   1.264
 4811SOL     OW15331   5.439   4.349   3.265
 4811SOL    HW115332   5.413   4.413   3.193
 4811SOL    HW215333   5.358   4.318   3.314
 4812SOL     OW15334   6.177   5.170   4.306
 4812SOL    HW115335   6.273   5.158   4.284
 4812SOL    HW215336   6.165   5.174   4.406
 4813SOL     OW15337   5.766   3.140   2.935
 4813SOL    HW115338   5.734   3.146   2.841
 4813SOL    HW215339   5.842   3.075   2.940
 4814SOL     OW15340   6.529   3.063   1.558
 4814SOL    HW115341   6.460   3.018   1.614
 4814SOL    HW215342   6.587   2.994   1.515
 4815SOL     OW15343   4.796   0.891   3.155
 4815SOL    HW115344   4.879   0.947   3.163
 4815SOL    HW215345   4.715   0.950   3.160
 4816SOL     OW15346   5.221   4.694   3.349
 4816SOL    HW115347   5.286   4.766   3.324
 4816SOL    HW215348   5.197   4.702   3.445
 4817SOL     OW15349   6.586   1.603   0.078
 4817SOL    HW115350   6.625   1.577   0.167
 4817SOL    HW215351   6.512   1.668   0.093
 4818SOL     OW15352   0.504   6.001   3.480
 4818SOL    HW115353   0.591   6.050   3.488
 4818SOL    HW215354   0.428   6.067   3.476
 4819SOL     OW15355   2.444   2.833   0.930
 4819SOL    HW115356   2.432   2.766   0.856
 4819SOL    HW215357   2.392   2.915   0.907
 4820SOL     OW15358   0.304   3.235   2.548
 4820SOL    HW115359   0.259   3.151   2.520
 4820SOL    HW215360   0.352   3.220   2.635
 4821SOL     OW15361   0.694   5.874   3.712
 4821SOL    HW115362   0.600   5.857   3.684
 4821SOL    HW215363   0.715   5.971   3.701
 4822SOL     OW15364   2.539   4.728   4.436
 4822SOL    HW115365   2.607   4.753   4.367
 4822SOL    HW215366   2.490   4.810   4.465
 4823SOL     OW15367   2.106   2.819   0.959
 4823SOL    HW115368   2.008   2.808   0.974
 4823SOL    HW215369   2.132   2.915   0.973
 4824SOL     OW15370   6.113   1.948   0.434
 4824SOL    HW115371   6.064   1.863   0.416
 4824SOL    HW215372   6.085   1.984   0.523
 4825SOL     OW15373   1.229   6.747   3.815
 4825SOL    HW115374   1.153   6.768   3.876
 4825SOL    HW215375   1.314   6.782   3.854
 4826SOL     OW15376   4.049   6.532   1.002
 4826SOL    HW115377   4.033   6.569   0.911
 4826SOL    HW215378   3.972   6.473   1.028
 4827SOL     OW15379   6.379   1.261   1.040
 4827SOL    HW115380   6.393   1.340   1.098
 4827SOL    HW215381   6.333   1.289   0.955
 4828SOL     OW15382   5.355   1.177   5.630
 4828SOL    HW115383   5.264   1.199   5.595
 4828SOL    HW215384   5.385   1.250   5.692
 4829SOL     OW15385   4.115   6.277   5.322
 4829SOL    HW115386   4.193   6.301   5.264
 4829SOL    HW215387   4.146   6.217   5.396
 4830SOL     OW15388   1.763   6.712   3.539
 4830SOL    HW115389   1.862   6.712   3.553
 4830SOL    HW215390   1.721   6.785   3.593
 4831SOL     OW15391   3.811   4.852   5.628
 4831SOL    HW115392   3.801   4.903   5.714
 4831SOL    HW215393   3.720   4.834   5.590
 4832SOL     OW15394   4.208   3.642   5.006
 4832SOL    HW115395   4.191   3.625   4.909
 4832SOL    HW215396   4.250   3.732   5.017
 4833SOL     OW15397   6.201   2.301   5.525
 4833SOL    HW115398   6.260   2.351   5.462
 4833SOL    HW215399   6.106   2.324   5.507
 4834SOL     OW15400   0.315   5.959   1.558
 4834SOL    HW115401   0.357   5.883   1.507
 4834SOL    HW215402   0.299   5.931   1.652
 4835SOL     OW15403   0.210   3.570   6.266
 4835SOL    HW115404   0.219   3.489   6.208
 4835SOL    HW215405   0.298   3.592   6.307
 4836SOL     OW15406   4.239   2.153   5.614
 4836SOL    HW115407   4.281   2.064   5.632
 4836SOL    HW215408   4.306   2.226   5.629
 4837SOL     OW15409   1.102   3.875   4.346
 4837SOL    HW115410   1.008   3.857   4.318
 4837SOL    HW215411   1.104   3.903   4.442
 4838SOL     OW15412   1.756   3.979   5.960
 4838SOL    HW115413   1.753   4.016   5.867
 4838SOL    HW215414   1.850   3.952   5.982
 4839SOL     OW15415   2.602   1.496   2.033
 4839SOL    HW115416   2.519   1.447   2.006
 4839SOL    HW215417   2.593   1.528   2.127
 4840SOL     OW15418   5.450   2.762   5.332
 4840SOL    HW115419   5.516   2.807   5.273
 4840SOL    HW215420   5.465   2.790   5.427
 4841SOL     OW15421   2.900   6.417   2.908
 4841SOL    HW115422   2.811   6.375   2.894
 4841SOL    HW215423   2.966   6.378   2.844
 4842SOL     OW15424   4.166   6.149   3.682
 4842SOL    HW115425   4.194   6.109   3.769
 4842SOL    HW215426   4.116   6.080   3.629
 4843SOL     OW15427   6.248   1.701   1.168
 4843SOL    HW115428   6.294   1.767   1.109
 4843SOL    HW215429   6.289   1.611   1.156
 4844SOL     OW15430   1.617   4.805   6.943
 4844SOL    HW115431   1.547   4.871   6.915
 4844SOL    HW215432   1.698   4.853   6.976
 4845SOL     OW15433   4.988   3.852   5.066
 4845SOL    HW115434   4.958   3.921   5.001
 4845SOL    HW215435   4.930   3.771   5.058
 4846SOL     OW15436   6.750   3.810   4.852
 4846SOL    HW115437   6.843   3.819   4.817
 4846SOL    HW215438   6.710   3.726   4.817
 4847SOL     OW15439   3.476   6.723   0.112
 4847SOL    HW115440   3.425   6.695   0.193
 4847SOL    HW215441   3.509   6.817   0.124
 4848SOL     OW15442   4.960   1.692   3.915
 4848SOL    HW115443   4.990   1.606   3.955
 4848SOL    HW215444   4.970   1.765   3.983
 4849SOL     OW15445   1.814   6.146   1.851
 4849SOL    HW115446   1.867   6.230   1.860
 4849SOL    HW215447   1.848   6.078   1.916
 4850SOL     OW15448   3.149   6.578   1.851
 4850SOL    HW115449   3.141   6.649   1.781
 4850SOL    HW215450   3.148   6.619   1.942
 4851SOL     OW15451   4.301   4.734   6.918
 4851SOL    HW115452   4.333   4.726   7.012
 4851SOL    HW215453   4.283   4.643   6.881
 4852SOL     OW15454   4.813   4.286   5.835
 4852SOL    HW115455   4.718   4.293   5.805
 4852SOL    HW215456   4.862   4.370   5.811
 4853SOL     OW15457   4.384   0.312   2.828
 4853SOL    HW115458   4.482   0.303   2.810
 4853SOL    HW215459   4.341   0.361   2.753
 4854SOL     OW15460   4.429   6.813   2.033
 4854SOL    HW115461   4.428   6.722   1.992
 4854SOL    HW215462   4.364   6.816   2.108
 4855SOL     OW15463   4.912   5.102   5.788
 4855SOL    HW115464   5.007   5.074   5.802
 4855SOL    HW215465   4.898   5.128   5.693
 4856SOL     OW15466   0.686   2.513   2.792
 4856SOL    HW115467   0.724   2.435   2.741
 4856SOL    HW215468   0.758   2.554   2.847
 4857SOL     OW15469   1.526   2.168   5.296
 4857SOL    HW115470   1.554   2.155   5.392
 4857SOL    HW215471   1.443   2.116   5.278
 4858SOL     OW15472   2.067   5.734   4.750
 4858SOL    HW115473   2.125   5.813   4.734
 4858SOL    HW215474   2.123   5.654   4.771
 4859SOL     OW15475   6.587   5.447   3.343
 4859SOL    HW115476   6.560   5.365   3.292
 4859SOL    HW215477   6.520   5.519   3.329
 4860SOL     OW15478   4.006   5.533   1.686
 4860SOL    HW115479   4.062   5.505   1.764
 4860SOL    HW215480   3.954   5.454   1.652
 4861SOL     OW15481   6.581   4.602   5.584
 4861SOL    HW115482   6.521   4.659   5.640
 4861SOL    HW215483   6.658   4.657   5.551
 4862SOL     OW15484   2.258   5.830   4.337
 4862SOL    HW115485   2.276   5.747   4.389
 4862SOL    HW215486   2.162   5.832   4.309
 4863SOL     OW15487   5.870   1.375   1.986
 4863SOL    HW115488   5.960   1.417   1.978
 4863SOL    HW215489   5.826   1.405   2.070
 4864SOL     OW15490   1.859   2.892   1.618
 4864SOL    HW115491   1.806   2.967   1.658
 4864SOL    HW215492   1.811   2.856   1.538
 4865SOL     OW15493   3.855   6.481   5.154
 4865SOL    HW115494   3.899   6.439   5.075
 4865SOL    HW215495   3.911   6.557   5.187
 4866SOL     OW15496   0.248   5.474   1.398
 4866SOL    HW115497   0.187   5.533   1.451
 4866SOL    HW215498   0.275   5.520   1.314
 4867SOL     OW15499   5.718   5.015   5.219
 4867SOL    HW115500   5.817   5.005   5.211
 4867SOL    HW215501   5.678   4.928   5.248
 4868SOL     OW15502   1.668   5.972   1.660
 4868SOL    HW115503   1.755   6.006   1.698
 4868SOL    HW215504   1.598   5.973   1.732
 4869SOL     OW15505   6.626   1.317   1.701
 4869SOL    HW115506   6.716   1.303   1.741
 4869SOL    HW215507   6.575   1.384   1.755
 4870SOL     OW15508   6.220   0.922   0.893
 4870SOL    HW115509   6.134   0.973   0.897
 4870SOL    HW215510   6.268   0.932   0.981
 4871SOL     OW15511   1.573   3.472   4.449
 4871SOL    HW115512   1.635   3.494   4.525
 4871SOL    HW215513   1.590   3.536   4.374
 4872SOL     OW15514   1.380   2.128   3.658
 4872SOL    HW115515   1.450   2.064   3.627
 4872SOL    HW215516   1.324   2.157   3.580
 4873SOL     OW15517   1.087   6.687   5.179
 4873SOL    HW115518   1.083   6.784   5.155
 4873SOL    HW215519   1.106   6.633   5.096
 4874SOL     OW15520   6.121   2.607   3.583
 4874SOL    HW115521   6.182   2.561   3.648
 4874SOL    HW215522   6.034   2.556   3.578
 4875SOL     OW15523   0.366   2.753   6.623
 4875SOL    HW115524   0.397   2.848   6.615
 4875SOL    HW215525   0.420   2.707   6.694
 4876SOL     OW15526   6.536   1.241   6.969
 4876SOL    HW115527   6.579   1.302   6.902
 4876SOL    HW215528   6.599   1.168   6.993
 4877SOL     OW15529   4.786   1.943   1.812
 4877SOL    HW115530   4.756   1.976   1.723
 4877SOL    HW215531   4.886   1.940   1.815
 4878SOL     OW15532   0.899   2.818   1.564
 4878SOL    HW115533   0.887   2.916   1.582
 4878SOL    HW215534   0.988   2.803   1.521
 4879SOL     OW15535   4.114   5.802   3.876
 4879SOL    HW115536   4.106   5.892   3.917
 4879SOL    HW215537   4.073   5.803   3.785
 4880SOL     OW15538   5.983   1.644   5.558
 4880SOL    HW115539   5.997   1.597   5.471
 4880SOL    HW215540   5.894   1.690   5.557
 4881SOL     OW15541   2.454   5.656   5.913
 4881SOL    HW115542   2.420   5.666   5.820
 4881SOL    HW215543   2.421   5.732   5.969
 4882SOL     OW15544   5.406   5.714   6.556
 4882SOL    HW115545   5.493   5.745   6.595
 4882SOL    HW215546   5.331   5.737   6.619
 4883SOL     OW15547   6.285   5.292   6.696
 4883SOL    HW115548   6.191   5.326   6.697
 4883SOL    HW215549   6.312   5.272   6.601
 4884SOL     OW15550   3.757   6.529   2.087
 4884SOL    HW115551   3.706   6.459   2.037
 4884SOL    HW215552   3.741   6.618   2.044
 4885SOL     OW15553   1.606   0.656   1.898
 4885SOL    HW115554   1.586   0.633   1.993
 4885SOL    HW215555   1.520   0.670   1.848
 4886SOL     OW15556   6.065   0.615   5.469
 4886SOL    HW115557   6.005   0.534   5.462
 4886SOL    HW215558   6.155   0.586   5.501
 4887SOL     OW15559   0.778   1.736   5.235
 4887SOL    HW115560   0.843   1.698   5.169
 4887SOL    HW215561   0.827   1.758   5.320
 4888SOL     OW15562   3.618   6.255   1.675
 4888SOL    HW115563   3.604   6.280   1.771
 4888SOL    HW215564   3.701   6.198   1.668
 4889SOL     OW15565   1.487   3.275   6.903
 4889SOL    HW115566   1.511   3.303   6.810
 4889SOL    HW215567   1.388   3.278   6.915
 4890SOL     OW15568   0.408   0.432   4.310
 4890SOL    HW115569   0.326   0.441   4.254
 4890SOL    HW215570   0.383   0.402   4.402
 4891SOL     OW15571   0.928   4.353   0.539
 4891SOL    HW115572   0.909   4.262   0.504
 4891SOL    HW215573   0.938   4.348   0.639
 4892SOL     OW15574   2.040   5.666   2.360
 4892SOL    HW115575   2.031   5.582   2.415
 4892SOL    HW215576   1.950   5.703   2.340
 4893SOL     OW15577   0.367   3.737   6.048
 4893SOL    HW115578   0.349   3.664   5.983
 4893SOL    HW215579   0.281   3.781   6.074
 4894SOL     OW15580   0.486   6.828   3.466
 4894SOL    HW115581   0.575   6.868   3.489
 4894SOL    HW215582   0.483   6.808   3.368
 4895SOL     OW15583   6.411   3.956   6.744
 4895SOL    HW115584   6.505   3.929   6.724
 4895SOL    HW215585   6.349   3.905   6.685
 4896SOL     OW15586   4.193   6.808   4.305
 4896SOL    HW115587   4.215   6.821   4.209
 4896SOL    HW215588   4.098   6.834   4.321
 4897SOL     OW15589   2.769   6.405   6.584
 4897SOL    HW115590   2.808   6.315   6.603
 4897SOL    HW215591   2.793   6.433   6.491
 4898SOL     OW15592   5.780   2.348   4.734
 4898SOL    HW115593   5.742   2.285   4.666
 4898SOL    HW215594   5.818   2.428   4.687
 4899SOL     OW15595   5.691   4.220   4.552
 4899SOL    HW115596   5.745   4.154   4.500
 4899SOL    HW215597   5.745   4.302   4.570
 4900SOL     OW15598   1.157   6.469   4.708
 4900SOL    HW115599   1.120   6.546   4.760
 4900SOL    HW215600   1.242   6.438   4.749
 4901SOL     OW15601   6.878   6.458   3.114
 4901SOL    HW115602   6.964   6.407   3.107
 4901SOL    HW215603   6.802   6.398   3.090
 4902SOL     OW15604   3.702   5.002   0.875
 4902SOL    HW115605   3.749   4.938   0.813
 4902SOL    HW215606   3.624   4.955   0.918
 4903SOL     OW15607   6.320   5.134   5.903
 4903SOL    HW115608   6.392   5.082   5.950
 4903SOL    HW215609   6.241   5.142   5.964
 4904SOL     OW15610   2.442   0.747   3.239
 4904SOL    HW115611   2.452   0.839   3.199
 4904SOL    HW215612   2.516   0.732   3.305
 4905SOL     OW15613   6.566   3.478   3.167
 4905SOL    HW115614   6.528   3.557   3.119
 4905SOL    HW215615   6.571   3.497   3.265
 4906SOL     OW15616   5.327   0.477   1.461
 4906SOL    HW115617   5.358   0.433   1.377
 4906SOL    HW215618   5.350   0.419   1.539
 4907SOL     OW15619   2.753   1.979   1.795
 4907SOL    HW115620   2.729   2.076   1.790
 4907SOL    HW215621   2.851   1.968   1.779
 4908SOL     OW15622   4.303   5.995   0.462
 4908SOL    HW115623   4.325   6.073   0.521
 4908SOL    HW215624   4.256   6.027   0.380
 4909SOL     OW15625   6.288   6.856   5.540
 4909SOL    HW115626   6.355   6.806   5.595
 4909SOL    HW215627   6.333   6.932   5.494
 4910SOL     OW15628   5.236   6.382   6.021
 4910SOL    HW115629   5.206   6.289   6.036
 4910SOL    HW215630   5.307   6.406   6.087
 4911SOL     OW15631   0.553   3.901   6.535
 4911SOL    HW115632   0.473   3.903   6.594
 4911SOL    HW215633   0.527   3.868   6.444
 4912SOL     OW15634   2.474   2.704   1.486
 4912SOL    HW115635   2.387   2.658   1.508
 4912SOL    HW215636   2.454   2.795   1.448
 4913SOL     OW15637   2.721   2.971   1.696
 4913SOL    HW115638   2.686   2.883   1.729
 4913SOL    HW215639   2.739   2.964   1.598
 4914SOL     OW15640   1.632   6.709   2.608
 4914SOL    HW115641   1.643   6.800   2.647
 4914SOL    HW215642   1.705   6.649   2.642
 4915SOL     OW15643   3.571   6.698   3.433
 4915SOL    HW115644   3.496   6.634   3.454
 4915SOL    HW215645   3.655   6.665   3.475
 4916SOL     OW15646   1.289   1.693   2.094
 4916SOL    HW115647   1.276   1.678   1.996
 4916SOL    HW215648   1.223   1.639   2.145
 4917SOL     OW15649   1.922   3.408   6.248
 4917SOL    HW115650   1.958   3.427   6.157
 4917SOL    HW215651   1.991   3.432   6.317
 4918SOL     OW15652   2.429   0.333   3.665
 4918SOL    HW115653   2.464   0.301   3.577
 4918SOL    HW215654   2.343   0.286   3.686
 4919SOL     OW15655   2.532   3.220   1.613
 4919SOL    HW115656   2.543   3.319   1.607
 4919SOL    HW215657   2.587   3.186   1.690
 4920SOL     OW15658   3.357   0.933   0.016
 4920SOL    HW115659   3.316   0.893   6.957
 4920SOL    HW215660   3.298   0.914   0.095
 4921SOL     OW15661   6.503   4.798   1.972
 4921SOL    HW115662   6.487   4.864   1.898
 4921SOL    HW215663   6.434   4.812   2.043
 4922SOL     OW15664   0.755   2.913   5.892
 4922SOL    HW115665   0.681   2.858   5.929
 4922SOL    HW215666   0.725   2.958   5.807
 4923SOL     OW15667   2.812   2.161   6.773
 4923SOL    HW115668   2.873   2.126   6.701
 4923SOL    HW215669   2.722   2.120   6.762
 4924SOL     OW15670   0.431   3.171   4.096
 4924SOL    HW115671   0.430   3.236   4.172
 4924SOL    HW215672   0.493   3.203   4.025
 4925SOL     OW15673   4.911   5.490   5.623
 4925SOL    HW115674   4.921   5.395   5.594
 4925SOL    HW215675   4.971   5.508   5.701
 4926SOL     OW15676   4.268   3.193   0.266
 4926SOL    HW115677   4.179   3.236   0.253
 4926SOL    HW215678   4.258   3.114   0.327
 4927SOL     OW15679   3.165   4.066   2.137
 4927SOL    HW115680   3.128   4.154   2.165
 4927SOL    HW215681   3.181   4.009   2.218
 4928SOL     OW15682   0.594   0.417   0.263
 4928SOL    HW115683   0.602   0.507   0.219
 4928SOL    HW215684   0.685   0.377   0.273
 4929SOL     OW15685   1.308   4.842   4.361
 4929SOL    HW115686   1.357   4.760   4.390
 4929SOL    HW215687   1.288   4.899   4.440
 4930SOL     OW15688   0.370   3.380   0.690
 4930SOL    HW115689   0.309   3.458   0.680
 4930SOL    HW215690   0.319   3.295   0.680
 4931SOL     OW15691   5.727   6.867   1.347
 4931SOL    HW115692   5.715   6.966   1.349
 4931SOL    HW215693   5.643   6.823   1.379
 4932SOL     OW15694   3.650   1.872   1.114
 4932SOL    HW115695   3.635   1.944   1.181
 4932SOL    HW215696   3.590   1.794   1.134
 4933SOL     OW15697   3.055   7.011   4.589
 4933SOL    HW115698   3.143   6.976   4.623
 4933SOL    HW215699   2.995   6.933   4.569
 4934SOL     OW15700   2.188   6.020   5.087
 4934SOL    HW115701   2.089   6.021   5.105
 4934SOL    HW215702   2.226   6.110   5.105
 4935SOL     OW15703   2.021   2.483   0.643
 4935SOL    HW115704   2.087   2.547   0.682
 4935SOL    HW215705   1.943   2.473   0.706
 4936SOL     OW15706   5.868   4.137   1.437
 4936SOL    HW115707   5.773   4.118   1.414
 4936SOL    HW215708   5.914   4.179   1.358
 4937SOL     OW15709   0.601   3.593   4.425
 4937SOL    HW115710   0.516   3.571   4.472
 4937SOL    HW215711   0.594   3.683   4.383
 4938SOL     OW15712   3.516   4.543   1.569
 4938SOL    HW115713   3.420   4.517   1.579
 4938SOL    HW215714   3.546   4.591   1.652
 4939SOL     OW15715   1.340   1.412   1.294
 4939SOL    HW115716   1.345   1.445   1.200
 4939SOL    HW215717   1.247   1.425   1.329
 4940SOL     OW15718   0.957   1.857   5.442
 4940SOL    HW115719   1.004   1.941   5.467
 4940SOL    HW215720   0.859   1.869   5.453
 4941SOL     OW15721   3.972   2.146   5.498
 4941SOL    HW115722   3.919   2.069   5.531
 4941SOL    HW215723   4.069   2.123   5.500
 4942SOL     OW15724   6.493   0.772   3.187
 4942SOL    HW115725   6.555   0.783   3.110
 4942SOL    HW215726   6.486   0.675   3.211
 4943SOL     OW15727   4.368   2.160   6.531
 4943SOL    HW115728   4.362   2.064   6.506
 4943SOL    HW215729   4.440   2.172   6.599
 4944SOL     OW15730   1.118   4.969   0.703
 4944SOL    HW115731   1.177   4.916   0.764
 4944SOL    HW215732   1.127   5.067   0.725
 4945SOL     OW15733   2.864   0.658   5.272
 4945SOL    HW115734   2.823   0.573   5.305
 4945SOL    HW215735   2.948   0.637   5.221
 4946SOL     OW15736   2.878   5.931   0.570
 4946SOL    HW115737   2.816   6.008   0.579
 4946SOL    HW215738   2.931   5.921   0.655
 4947SOL     OW15739   1.095   0.293   1.294
 4947SOL    HW115740   1.005   0.299   1.338
 4947SOL    HW215741   1.166   0.281   1.363
 4948SOL     OW15742   1.504   2.584   2.129
 4948SOL    HW115743   1.505   2.495   2.175
 4948SOL    HW215744   1.493   2.571   2.030
 4949SOL     OW15745   6.267   4.508   5.636
 4949SOL    HW115746   6.345   4.462   5.678
 4949SOL    HW215747   6.249   4.594   5.684
 4950SOL     OW15748   4.025   4.159   5.207
 4950SOL    HW115749   4.081   4.203   5.277
 4950SOL    HW215750   3.949   4.220   5.182
 4951SOL     OW15751   4.860   5.189   3.166
 4951SOL    HW115752   4.774   5.187   3.216
 4951SOL    HW215753   4.933   5.151   3.223
 4952SOL     OW15754   0.922   0.928   6.753
 4952SOL    HW115755   0.925   1.027   6.760
 4952SOL    HW215756   0.907   0.901   6.657
 4953SOL     OW15757   1.294   2.032   5.221
 4953SOL    HW115758   1.260   2.113   5.270
 4953SOL    HW215759   1.310   2.055   5.125
 4954SOL     OW15760   3.125   3.789   5.206
 4954SOL    HW115761   3.176   3.872   5.182
 4954SOL    HW215762   3.028   3.803   5.189
 4955SOL     OW15763   4.045   5.794   0.140
 4955SOL    HW115764   4.095   5.708   0.145
 4955SOL    HW215765   4.078   5.856   0.212
 4956SOL     OW15766   2.524   0.546   4.909
 4956SOL    HW115767   2.476   0.634   4.899
 4956SOL    HW215768   2.621   0.563   4.923
 4957SOL     OW15769   5.657   5.207   0.070
 4957SOL    HW115770   5.613   5.202   7.004
 4957SOL    HW215771   5.615   5.140   0.132
 4958SOL     OW15772   3.503   5.381   0.001
 4958SOL    HW115773   3.407   5.403   0.019
 4958SOL    HW215774   3.551   5.463   6.992
 4959SOL     OW15775   6.931   2.343   2.671
 4959SOL    HW115776   7.004   2.334   2.604
 4959SOL    HW215777   6.876   2.260   2.671
 4960SOL     OW15778   5.156   4.461   4.099
 4960SOL    HW115779   5.097   4.392   4.140
 4960SOL    HW215780   5.235   4.479   4.158
 4961SOL     OW15781   3.751   2.881   2.496
 4961SOL    HW115782   3.731   2.884   2.399
 4961SOL    HW215783   3.846   2.850   2.510
 4962SOL     OW15784   1.740   2.776   7.020
 4962SOL    HW115785   1.748   2.875   0.008
 4962SOL    HW215786   1.701   2.737   0.080
 4963SOL     OW15787   0.508   4.256   6.246
 4963SOL    HW115788   0.548   4.214   6.327
 4963SOL    HW215789   0.574   4.254   6.171
 4964SOL     OW15790   1.736   4.605   4.024
 4964SOL    HW115791   1.767   4.693   3.990
 4964SOL    HW215792   1.815   4.550   4.051
 4965SOL     OW15793   2.267   0.048   2.892
 4965SOL    HW115794   2.178   0.055   2.938
 4965SOL    HW215795   2.327   0.120   2.925
 4966SOL     OW15796   4.262   0.145   5.101
 4966SOL    HW115797   4.211   0.073   5.053
 4966SOL    HW215798   4.317   0.103   5.174
 4967SOL     OW15799   4.579   4.366   4.047
 4967SOL    HW115800   4.665   4.376   4.098
 4967SOL    HW215801   4.594   4.307   3.968
 4968SOL     OW15802   6.668   3.121   4.185
 4968SOL    HW115803   6.747   3.159   4.137
 4968SOL    HW215804   6.689   3.028   4.216
 4969SOL     OW15805   0.473   5.815   4.530
 4969SOL    HW115806   0.385   5.854   4.502
 4969SOL    HW215807   0.546   5.878   4.504
 4970SOL     OW15808   2.173   1.488   1.566
 4970SOL    HW115809   2.133   1.480   1.657
 4970SOL    HW215810   2.164   1.582   1.533
 4971SOL     OW15811   0.138   5.725   1.242
 4971SOL    HW115812   0.096   5.726   1.333
 4971SOL    HW215813   0.237   5.723   1.250
 4972SOL     OW15814   0.148   4.276   6.822
 4972SOL    HW115815   0.071   4.267   6.758
 4972SOL    HW215816   0.115   4.261   6.915
 4973SOL     OW15817   5.577   1.981   6.791
 4973SOL    HW115818   5.522   2.057   6.757
 4973SOL    HW215819   5.635   1.946   6.717
 4974SOL     OW15820   3.392   6.925   5.553
 4974SOL    HW115821   3.304   6.961   5.584
 4974SOL    HW215822   3.466   6.968   5.605
 4975SOL     OW15823   5.599   4.077   1.383
 4975SOL    HW115824   5.580   3.987   1.421
 4975SOL    HW215825   5.541   4.145   1.429
 4976SOL     OW15826   0.529   0.332   3.793
 4976SOL    HW115827   0.625   0.310   3.774
 4976SOL    HW215828   0.524   0.383   3.879
 4977SOL     OW15829   1.585   3.924   5.465
 4977SOL    HW115830   1.504   3.886   5.421
 4977SOL    HW215831   1.559   3.973   5.548
 4978SOL     OW15832   6.403   4.636   4.608
 4978SOL    HW115833   6.467   4.575   4.655
 4978SOL    HW215834   6.454   4.707   4.558
 4979SOL     OW15835   2.800   6.833   6.465
 4979SOL    HW115836   2.702   6.815   6.454
 4979SOL    HW215837   2.846   6.749   6.493
 4980SOL     OW15838   5.728   3.157   4.224
 4980SOL    HW115839   5.681   3.206   4.298
 4980SOL    HW215840   5.742   3.219   4.146
 4981SOL     OW15841   3.591   6.135   3.490
 4981SOL    HW115842   3.550   6.144   3.580
 4981SOL    HW215843   3.550   6.058   3.441
 4982SOL     OW15844   3.960   2.034   5.027
 4982SOL    HW115845   3.974   2.003   4.932
 4982SOL    HW215846   3.987   1.961   5.090
 4983SOL     OW15847   6.248   3.815   2.739
 4983SOL    HW115848   6.238   3.914   2.735
 4983SOL    HW215849   6.163   3.774   2.772
 4984SOL     OW15850   4.928   3.721   4.783
 4984SOL    HW115851   4.953   3.632   4.745
 4984SOL    HW215852   4.872   3.707   4.865
 4985SOL     OW15853   5.644   0.403   2.306
 4985SOL    HW115854   5.671   0.380   2.399
 4985SOL    HW215855   5.674   0.496   2.284
 4986SOL     OW15856   1.351   4.951   1.254
 4986SOL    HW115857   1.305   4.862   1.253
 4986SOL    HW215858   1.395   4.964   1.343
 4987SOL     OW15859   1.795   2.733   2.760
 4987SOL    HW115860   1.878   2.786   2.779
 4987SOL    HW215861   1.804   2.689   2.671
 4988SOL     OW15862   6.298   5.449   4.043
 4988SOL    HW115863   6.292   5.543   4.011
 4988SOL    HW215864   6.376   5.439   4.105
 4989SOL     OW15865   6.559   0.083   3.612
 4989SOL    HW115866   6.601   0.004   3.568
 4989SOL    HW215867   6.619   0.162   3.605
 4990SOL     OW15868   4.569   1.757   6.742
 4990SOL    HW115869   4.661   1.749   6.781
 4990SOL    HW215870   4.575   1.782   6.646
 4991SOL     OW15871   1.545   6.033   6.346
 4991SOL    HW115872   1.608   6.106   6.318
 4991SOL    HW215873   1.504   5.993   6.264
 4992SOL     OW15874   1.533   4.067   4.135
 4992SOL    HW115875   1.489   4.005   4.200
 4992SOL    HW215876   1.466   4.101   4.069
 4993SOL     OW15877   2.161   6.328   3.751
 4993SOL    HW115878   2.066   6.327   3.722
 4993SOL    HW215879   2.216   6.272   3.688
 4994SOL     OW15880   3.398   5.466   5.193
 4994SOL    HW115881   3.325   5.412   5.232
 4994SOL    HW215882   3.487   5.428   5.220
 4995SOL     OW15883   0.403   1.032   6.152
 4995SOL    HW115884   0.413   0.944   6.198
 4995SOL    HW215885   0.419   1.106   6.217
 4996SOL     OW15886   6.781   0.871   3.532
 4996SOL    HW115887   6.822   0.958   3.506
 4996SOL    HW215888   6.682   0.883   3.545
 4997SOL     OW15889   4.228   1.582   0.677
 4997SOL    HW115890   4.315   1.532   0.686
 4997SOL    HW215891   4.234   1.668   0.727
 4998SOL     OW15892   1.060   4.158   3.597
 4998SOL    HW115893   0.964   4.139   3.618
 4998SOL    HW215894   1.074   4.153   3.498
 4999SOL     OW15895   0.611   3.237   3.882
 4999SOL    HW115896   0.695   3.187   3.905
 4999SOL    HW215897   0.631   3.335   3.876
 5000SOL     OW15898   2.639   6.848   3.035
 5000SOL    HW115899   2.719   6.808   3.080
 5000SOL    HW215900   2.660   6.866   2.939
 5001SOL     OW15901   0.618   5.390   3.270
 5001SOL    HW115902   0.563   5.339   3.337
 5001SOL    HW215903   0.641   5.480   3.306
 5002SOL     OW15904   1.616   4.924   3.760
 5002SOL    HW115905   1.694   4.883   3.807
 5002SOL    HW215906   1.532   4.906   3.812
 5003SOL     OW15907   3.412   0.500   2.172
 5003SOL    HW115908   3.470   0.425   2.139
 5003SOL    HW215909   3.316   0.476   2.161
 5004SOL     OW15910   3.802   6.029   0.501
 5004SOL    HW115911   3.788   5.952   0.563
 5004SOL    HW215912   3.897   6.061   0.509
 5005SOL     OW15913   3.219   2.857   0.951
 5005SOL    HW115914   3.234   2.764   0.916
 5005SOL    HW215915   3.228   2.857   1.050
 5006SOL     OW15916   5.117   0.561   2.034
 5006SOL    HW115917   5.033   0.526   2.076
 5006SOL    HW215918   5.123   0.660   2.050
 5007SOL     OW15919   6.253   5.631   2.292
 5007SOL    HW115920   6.349   5.634   2.321
 5007SOL    HW215921   6.228   5.537   2.272
 5008SOL     OW15922   5.036   0.050   3.555
 5008SOL    HW115923   5.012   0.135   3.603
 5008SOL    HW215924   5.112   0.006   3.602
 5009SOL     OW15925   0.603   1.933   0.555
 5009SOL    HW115926   0.570   2.027   0.543
 5009SOL    HW215927   0.608   1.912   0.652
 5010SOL     OW15928   4.904   3.600   1.298
 5010SOL    HW115929   4.961   3.653   1.236
 5010SOL    HW215930   4.856   3.529   1.247
 5011SOL     OW15931   1.888   2.552   6.287
 5011SOL    HW115932   1.984   2.526   6.296
 5011SOL    HW215933   1.874   2.602   6.202
 5012SOL     OW15934   6.084   1.608   5.959
 5012SOL    HW115935   6.134   1.625   5.874
 5012SOL    HW215936   5.999   1.560   5.938
 5013SOL     OW15937   5.416   0.001   5.379
 5013SOL    HW115938   5.346   0.069   5.397
 5013SOL    HW215939   5.419   6.958   5.454
 5014SOL     OW15940   6.213   3.457   1.415
 5014SOL    HW115941   6.166   3.546   1.411
 5014SOL    HW215942   6.198   3.416   1.506
 5015SOL     OW15943   6.100   5.498   4.232
 5015SOL    HW115944   6.185   5.470   4.189
 5015SOL    HW215945   6.113   5.505   4.331
 5016SOL     OW15946   1.686   2.804   6.261
 5016SOL    HW115947   1.649   2.713   6.278
 5016SOL    HW215948   1.616   2.873   6.277
 5017SOL     OW15949   0.046   2.557   1.858
 5017SOL    HW115950   6.990   2.521   1.908
 5017SOL    HW215951   0.106   2.608   1.920
 5018SOL     OW15952   1.349   0.882   6.749
 5018SOL    HW115953   1.421   0.884   6.680
 5018SOL    HW215954   1.384   0.919   6.836
 5019SOL     OW15955   1.608   4.413   3.908
 5019SOL    HW115956   1.509   4.426   3.901
 5019SOL    HW215957   1.648   4.489   3.960
 5020SOL     OW15958   1.779   0.331   3.957
 5020SOL    HW115959   1.687   0.296   3.977
 5020SOL    HW215960   1.824   0.270   3.891
 5021SOL     OW15961   2.722   0.742   1.427
 5021SOL    HW115962   2.741   0.678   1.501
 5021SOL    HW215963   2.747   0.835   1.455
 5022SOL     OW15964   6.538   2.643   1.069
 5022SOL    HW115965   6.505   2.731   1.034
 5022SOL    HW215966   6.633   2.630   1.041
 5023SOL     OW15967   0.194   3.663   3.041
 5023SOL    HW115968   0.101   3.643   3.072
 5023SOL    HW215969   0.255   3.589   3.071
 5024SOL     OW15970   5.031   4.002   0.435
 5024SOL    HW115971   5.052   4.081   0.492
 5024SOL    HW215972   5.017   4.031   0.341
 5025SOL     OW15973   4.974   2.204   4.657
 5025SOL    HW115974   4.913   2.190   4.735
 5025SOL    HW215975   4.921   2.199   4.572
 5026SOL     OW15976   5.596   6.151   4.706
 5026SOL    HW115977   5.613   6.237   4.658
 5026SOL    HW215978   5.519   6.163   4.769
 5027SOL     OW15979   5.395   6.479   0.623
 5027SOL    HW115980   5.367   6.400   0.568
 5027SOL    HW215981   5.485   6.509   0.593
 5028SOL     OW15982   6.339   2.059   2.048
 5028SOL    HW115983   6.246   2.091   2.027
 5028SOL    HW215984   6.376   2.111   2.125
 5029SOL     OW15985   5.038   2.037   2.631
 5029SOL    HW115986   5.125   2.011   2.674
 5029SOL    HW215987   4.989   1.955   2.602
 5030SOL     OW15988   0.112   3.750   0.378
 5030SOL    HW115989   0.014   3.763   0.391
 5030SOL    HW215990   0.129   3.694   0.297
 5031SOL     OW15991   6.500   0.128   5.772
 5031SOL    HW115992   6.550   0.158   5.853
 5031SOL    HW215993   6.514   0.192   5.697
 5032SOL     OW15994   2.552   4.149   5.965
 5032SOL    HW115995   2.561   4.050   5.967
 5032SOL    HW215996   2.613   4.190   6.034
 5033SOL     OW15997   2.393   6.947   5.921
 5033SOL    HW115998   2.368   6.851   5.916
 5033SOL    HW215999   2.473   6.964   5.864
 5034SOL     OW16000   4.446   5.956   4.737
 5034SOL    HW116001   4.458   6.000   4.825
 5034SOL    HW216002   4.433   6.025   4.666
 5035SOL     OW16003   2.154   3.598   3.515
 5035SOL    HW116004   2.245   3.626   3.485
 5035SOL    HW216005   2.161   3.559   3.607
 5036SOL     OW16006   1.270   2.868   4.957
 5036SOL    HW116007   1.311   2.956   4.935
 5036SOL    HW216008   1.179   2.883   4.997
 5037SOL     OW16009   4.683   4.271   1.105
 5037SOL    HW116010   4.632   4.348   1.068
 5037SOL    HW216011   4.639   4.185   1.080
 5038SOL     OW16012   3.135   3.705   3.580
 5038SOL    HW116013   3.147   3.637   3.652
 5038SOL    HW216014   3.215   3.766   3.578
 5039SOL     OW16015   0.925   3.784   0.231
 5039SOL    HW116016   0.837   3.762   0.191
 5039SOL    HW216017   0.981   3.834   0.164
 5040SOL     OW16018   0.235   1.373   5.062
 5040SOL    HW116019   0.326   1.375   5.104
 5040SOL    HW216020   0.175   1.313   5.115
 5041SOL     OW16021   6.961   2.049   1.477
 5041SOL    HW116022   0.001   1.998   1.536
 5041SOL    HW216023   6.911   1.985   1.418
 5042SOL     OW16024   1.066   2.078   5.547
 5042SOL    HW116025   1.127   2.092   5.625
 5042SOL    HW216026   0.999   2.152   5.543
 5043SOL     OW16027   3.383   6.496   2.118
 5043SOL    HW116028   3.415   6.535   2.032
 5043SOL    HW216029   3.335   6.410   2.101
 5044SOL     OW16030   0.123   5.498   0.086
 5044SOL    HW116031   0.086   5.570   0.027
 5044SOL    HW216032   0.089   5.511   0.179
 5045SOL     OW16033   5.447   2.628   0.741
 5045SOL    HW116034   5.506   2.656   0.817
 5045SOL    HW216035   5.355   2.610   0.776
 5046SOL     OW16036   3.780   3.239   2.641
 5046SOL    HW116037   3.773   3.266   2.737
 5046SOL    HW216038   3.875   3.246   2.611
 5047SOL     OW16039   1.880   3.618   3.551
 5047SOL    HW116040   1.977   3.593   3.544
 5047SOL    HW216041   1.826   3.536   3.570
 5048SOL     OW16042   2.846   0.256   6.448
 5048SOL    HW116043   2.758   0.208   6.442
 5048SOL    HW216044   2.920   0.190   6.437
 5049SOL     OW16045   4.169   1.785   6.971
 5049SOL    HW116046   4.217   1.697   6.979
 5049SOL    HW216047   4.138   1.813   0.039
 5050SOL     OW16048   1.729   0.712   0.733
 5050SOL    HW116049   1.784   0.774   0.788
 5050SOL    HW216050   1.682   0.763   0.661
 5051SOL     OW16051   4.793   5.099   1.179
 5051SOL    HW116052   4.749   5.061   1.260
 5051SOL    HW216053   4.778   5.198   1.175
 5052SOL     OW16054   1.656   2.716   4.838
 5052SOL    HW116055   1.687   2.770   4.759
 5052SOL    HW216056   1.731   2.660   4.872
 5053SOL     OW16057   6.918   1.003   1.121
 5053SOL    HW116058   6.835   0.997   1.176
 5053SOL    HW216059   6.969   0.917   1.128
 5054SOL     OW16060   3.844   5.348   3.772
 5054SOL    HW116061   3.759   5.401   3.775
 5054SOL    HW216062   3.922   5.409   3.782
 5055SOL     OW16063   0.358   3.621   5.641
 5055SOL    HW116064   0.298   3.568   5.581
 5055SOL    HW216065   0.390   3.702   5.592
 5056SOL     OW16066   6.196   3.827   3.957
 5056SOL    HW116067   6.100   3.849   3.940
 5056SOL    HW216068   6.249   3.911   3.963
 5057SOL     OW16069   0.147   5.776   2.131
 5057SOL    HW116070   0.068   5.779   2.192
 5057SOL    HW216071   0.155   5.686   2.089
 5058SOL     OW16072   2.591   5.511   6.083
 5058SOL    HW116073   2.684   5.539   6.058
 5058SOL    HW216074   2.525   5.576   6.046
 5059SOL     OW16075   6.947   0.580   2.487
 5059SOL    HW116076   6.867   0.579   2.428
 5059SOL    HW216077   7.017   0.518   2.451
 5060SOL     OW16078   6.994   2.378   6.201
 5060SOL    HW116079   0.067   2.362   6.177
 5060SOL    HW216080   6.990   2.432   6.286
 5061SOL     OW16081   5.355   3.640   1.026
 5061SOL    HW116082   5.321   3.551   1.057
 5061SOL    HW216083   5.290   3.712   1.051
 5062SOL     OW16084   6.434   0.161   0.684
 5062SOL    HW116085   6.339   0.165   0.714
 5062SOL    HW216086   6.457   0.068   0.658
 5063SOL     OW16087   1.259   6.264   2.268
 5063SOL    HW116088   1.189   6.210   2.314
 5063SOL    HW216089   1.262   6.356   2.309
 5064SOL     OW16090   5.006   3.852   6.987
 5064SOL    HW116091   4.975   3.767   6.944
 5064SOL    HW216092   4.979   3.930   6.929
 5065SOL     OW16093   2.953   6.562   6.105
 5065SOL    HW116094   2.900   6.515   6.034
 5065SOL    HW216095   2.932   6.660   6.102
 5066SOL     OW16096   4.312   4.806   1.222
 5066SOL    HW116097   4.410   4.797   1.204
 5066SOL    HW216098   4.284   4.901   1.212
 5067SOL     OW16099   5.215   1.225   6.817
 5067SOL    HW116100   5.260   1.307   6.783
 5067SOL    HW216101   5.117   1.230   6.796
 5068SOL     OW16102   3.645   4.769   1.139
 5068SOL    HW116103   3.667   4.860   1.172
 5068SOL    HW216104   3.656   4.702   1.213
 5069SOL     OW16105   6.514   5.419   2.882
 5069SOL    HW116106   6.460   5.372   2.812
 5069SOL    HW216107   6.489   5.516   2.883
 5070SOL     OW16108   4.891   3.306   3.895
 5070SOL    HW116109   4.873   3.213   3.927
 5070SOL    HW216110   4.901   3.306   3.795
 5071SOL     OW16111   4.327   0.863   6.806
 5071SOL    HW116112   4.409   0.815   6.838
 5071SOL    HW216113   4.340   0.889   6.710
 5072SOL     OW16114   0.744   3.938   1.057
 5072SOL    HW116115   0.759   3.857   1.113
 5072SOL    HW216116   0.773   4.019   1.107
 5073SOL     OW16117   4.330   2.359   4.243
 5073SOL    HW116118   4.289   2.320   4.325
 5073SOL    HW216119   4.345   2.457   4.257
 5074SOL     OW16120   4.277   4.974   5.099
 5074SOL    HW116121   4.180   4.986   5.080
 5074SOL    HW216122   4.293   4.882   5.135
 5075SOL     OW16123   6.613   6.849   4.010
 5075SOL    HW116124   6.640   6.903   4.090
 5075SOL    HW216125   6.515   6.859   3.995
 5076SOL     OW16126   4.303   0.684   1.271
 5076SOL    HW116127   4.257   0.612   1.219
 5076SOL    HW216128   4.311   0.766   1.214
 5077SOL     OW16129   6.649   2.803   2.377
 5077SOL    HW116130   6.713   2.878   2.393
 5077SOL    HW216131   6.628   2.798   2.279
 5078SOL     OW16132   6.967   1.024   3.978
 5078SOL    HW116133   6.999   0.930   3.968
 5078SOL    HW216134   6.963   1.068   3.889
 5079SOL     OW16135   4.585   4.900   4.846
 5079SOL    HW116136   4.556   4.993   4.821
 5079SOL    HW216137   4.523   4.834   4.804
 5080SOL     OW16138   5.932   0.399   5.462
 5080SOL    HW116139   5.872   0.351   5.397
 5080SOL    HW216140   5.898   0.384   5.555
 5081SOL     OW16141   3.417   3.502   2.900
 5081SOL    HW116142   3.386   3.409   2.883
 5081SOL    HW216143   3.448   3.543   2.814
 5082SOL     OW16144   0.351   0.616   6.067
 5082SOL    HW116145   0.440   0.579   6.040
 5082SOL    HW216146   0.355   0.645   6.162
 5083SOL     OW16147   1.193   5.814   2.051
 5083SOL    HW116148   1.246   5.886   2.096
 5083SOL    HW216149   1.246   5.729   2.051
 5084SOL     OW16150   1.267   5.698   2.352
 5084SOL    HW116151   1.331   5.706   2.276
 5084SOL    HW216152   1.197   5.769   2.344
 5085SOL     OW16153   6.628   3.390   6.772
 5085SOL    HW116154   6.663   3.352   6.686
 5085SOL    HW216155   6.603   3.315   6.833
 5086SOL     OW16156   6.734   5.486   4.803
 5086SOL    HW116157   6.764   5.564   4.748
 5086SOL    HW216158   6.720   5.407   4.743
 5087SOL     OW16159   6.665   5.291   5.184
 5087SOL    HW116160   6.726   5.265   5.259
 5087SOL    HW216161   6.606   5.366   5.215
 5088SOL     OW16162   5.992   1.007   0.435
 5088SOL    HW116163   5.995   0.930   0.499
 5088SOL    HW216164   6.020   0.976   0.344
 5089SOL     OW16165   5.808   2.675   4.381
 5089SOL    HW116166   5.713   2.683   4.350
 5089SOL    HW216167   5.866   2.736   4.327
 5090SOL     OW16168   0.910   5.261   0.498
 5090SOL    HW116169   0.855   5.259   0.581
 5090SOL    HW216170   0.900   5.349   0.453
 5091SOL     OW16171   0.935   6.622   3.732
 5091SOL    HW116172   0.996   6.700   3.747
 5091SOL    HW216173   0.985   6.551   3.681
 5092SOL     OW16174   3.183   3.183   1.191
 5092SOL    HW116175   3.083   3.184   1.191
 5092SOL    HW216176   3.216   3.091   1.208
 5093SOL     OW16177   1.105   1.952   1.286
 5093SOL    HW116178   1.091   2.025   1.219
 5093SOL    HW216179   1.158   1.878   1.245
 5094SOL     OW16180   0.083   0.492   6.975
 5094SOL    HW116181   0.150   0.438   0.004
 5094SOL    HW216182   7.014   0.462   6.999
 5095SOL     OW16183   2.878   0.214   5.498
 5095SOL    HW116184   2.824   0.148   5.445
 5095SOL    HW216185   2.911   0.170   5.582
 5096SOL     OW16186   3.865   6.362   2.839
 5096SOL    HW116187   3.897   6.450   2.875
 5096SOL    HW216188   3.807   6.379   2.759
 5097SOL     OW16189   0.912   1.396   6.318
 5097SOL    HW116190   0.852   1.357   6.247
 5097SOL    HW216191   1.007   1.388   6.288
 5098SOL     OW16192   6.800   2.540   3.001
 5098SOL    HW116193   6.810   2.441   2.991
 5098SOL    HW216194   6.838   2.586   2.921
 5099SOL     OW16195   0.992   0.756   4.095
 5099SOL    HW116196   1.053   0.807   4.034
 5099SOL    HW216197   1.042   0.679   4.134
 5100SOL     OW16198   4.783   5.464   6.000
 5100SOL    HW116199   4.824   5.468   5.909
 5100SOL    HW216200   4.854   5.450   6.069
 5101SOL     OW16201   4.807   6.203   0.594
 5101SOL    HW116202   4.778   6.201   0.690
 5101SOL    HW216203   4.872   6.278   0.581
 5102SOL     OW16204   3.675   5.264   4.106
 5102SOL    HW116205   3.600   5.267   4.173
 5102SOL    HW216206   3.638   5.238   4.016
 5103SOL     OW16207   1.507   1.685   4.136
 5103SOL    HW116208   1.607   1.683   4.138
 5103SOL    HW216209   1.477   1.755   4.070
 5104SOL     OW16210   0.737   0.775   0.978
 5104SOL    HW116211   0.733   0.804   0.882
 5104SOL    HW216212   0.698   0.684   0.987
 5105SOL     OW16213   1.971   3.022   6.238
 5105SOL    HW116214   1.984   3.071   6.324
 5105SOL    HW216215   1.877   3.037   6.206
 5106SOL     OW16216   2.646   0.112   2.012
 5106SOL    HW116217   2.599   0.162   2.085
 5106SOL    HW216218   2.580   0.085   1.942
 5107SOL     OW16219   2.219   6.846   6.746
 5107SOL    HW116220   2.274   6.791   6.683
 5107SOL    HW216221   2.186   6.789   6.821
 5108SOL     OW16222   3.469   4.130   3.988
 5108SOL    HW116223   3.457   4.172   4.078
 5108SOL    HW216224   3.566   4.125   3.966
 5109SOL     OW16225   6.598   1.948   2.530
 5109SOL    HW116226   6.678   1.984   2.481
 5109SOL    HW216227   6.518   2.003   2.507
 5110SOL     OW16228   2.173   6.133   5.469
 5110SOL    HW116229   2.233   6.174   5.538
 5110SOL    HW216230   2.219   6.134   5.380
 5111SOL     OW16231   1.508   0.642   0.048
 5111SOL    HW116232   1.414   0.652   0.080
 5111SOL    HW216233   1.567   0.708   0.096
 5112SOL     OW16234   0.167   6.655   3.243
 5112SOL    HW116235   0.234   6.618   3.179
 5112SOL    HW216236   0.202   6.646   3.336
 5113SOL     OW16237   0.373   0.749   6.295
 5113SOL    HW116238   0.337   0.726   6.385
 5113SOL    HW216239   0.472   0.746   6.296
 5114SOL     OW16240   3.923   5.688   6.425
 5114SOL    HW116241   3.913   5.784   6.398
 5114SOL    HW216242   4.018   5.671   6.452
 5115SOL     OW16243   2.230   3.759   5.169
 5115SOL    HW116244   2.268   3.672   5.138
 5115SOL    HW216245   2.299   3.831   5.161
 5116SOL     OW16246   6.662   3.410   1.130
 5116SOL    HW116247   6.568   3.379   1.149
 5116SOL    HW216248   6.664   3.459   1.043
 5117SOL     OW16249   2.784   5.208   2.693
 5117SOL    HW116250   2.832   5.173   2.774
 5117SOL    HW216251   2.687   5.182   2.699
 5118SOL     OW16252   3.708   6.746   1.930
 5118SOL    HW116253   3.736   6.841   1.915
 5118SOL    HW216254   3.661   6.712   1.849
 5119SOL     OW16255   6.257   0.116   2.568
 5119SOL    HW116256   6.181   0.056   2.542
 5119SOL    HW216257   6.229   0.173   2.645
 5120SOL     OW16258   3.235   1.288   2.049
 5120SOL    HW116259   3.151   1.265   1.999
 5120SOL    HW216260   3.256   1.385   2.036
 5121SOL     OW16261   0.676   3.602   3.992
 5121SOL    HW116262   0.700   3.542   3.916
 5121SOL    HW216263   0.721   3.571   4.075
 5122SOL     OW16264   2.372   5.330   3.347
 5122SOL    HW116265   2.350   5.241   3.307
 5122SOL    HW216266   2.322   5.402   3.298
 5123SOL     OW16267   6.430   3.401   2.092
 5123SOL    HW116268   6.402   3.334   2.023
 5123SOL    HW216269   6.350   3.453   2.122
 5124SOL     OW16270   2.664   6.113   0.919
 5124SOL    HW116271   2.642   6.060   1.000
 5124SOL    HW216272   2.581   6.133   0.867
 5125SOL     OW16273   0.383   2.205   5.796
 5125SOL    HW116274   0.307   2.214   5.860
 5125SOL    HW216275   0.464   2.171   5.843
 5126SOL     OW16276   4.214   2.133   0.218
 5126SOL    HW116277   4.222   2.231   0.237
 5126SOL    HW216278   4.299   2.087   0.240
 5127SOL     OW16279   5.216   3.340   6.551
 5127SOL    HW116280   5.131   3.368   6.595
 5127SOL    HW216281   5.196   3.269   6.483
 5128SOL     OW16282   6.902   0.024   6.473
 5128SOL    HW116283   6.931   0.120   6.465
 5128SOL    HW216284   6.936   7.009   6.559
 5129SOL     OW16285   4.949   2.449   3.805
 5129SOL    HW116286   4.924   2.541   3.835
 5129SOL    HW216287   4.991   2.454   3.714
 5130SOL     OW16288   1.884   6.590   5.375
 5130SOL    HW116289   1.803   6.531   5.363
 5130SOL    HW216290   1.963   6.533   5.399
 5131SOL     OW16291   3.562   5.047   3.175
 5131SOL    HW116292   3.601   4.981   3.110
 5131SOL    HW216293   3.606   5.035   3.264
 5132SOL     OW16294   4.034   2.082   6.459
 5132SOL    HW116295   4.110   2.045   6.512
 5132SOL    HW216296   4.045   2.181   6.448
 5133SOL     OW16297   4.700   4.671   6.499
 5133SOL    HW116298   4.624   4.607   6.492
 5133SOL    HW216299   4.727   4.679   6.595
 5134SOL     OW16300   5.571   5.715   0.014
 5134SOL    HW116301   5.545   5.619   0.024
 5134SOL    HW216302   5.636   5.740   0.086
 5135SOL     OW16303   6.530   3.119   2.226
 5135SOL    HW116304   6.481   3.133   2.141
 5135SOL    HW216305   6.615   3.171   2.224
 5136SOL     OW16306   0.306   0.633   4.575
 5136SOL    HW116307   0.324   0.548   4.624
 5136SOL    HW216308   0.234   0.617   4.507
 5137SOL     OW16309   5.563   0.359   3.482
 5137SOL    HW116310   5.649   0.397   3.517
 5137SOL    HW216311   5.547   0.393   3.389
 5138SOL     OW16312   2.918   3.255   2.563
 5138SOL    HW116313   2.993   3.191   2.545
 5138SOL    HW216314   2.831   3.206   2.562
 5139SOL     OW16315   4.317   0.245   4.603
 5139SOL    HW116316   4.286   0.247   4.509
 5139SOL    HW216317   4.323   0.339   4.639
 5140SOL     OW16318   3.286   3.816   6.586
 5140SOL    HW116319   3.296   3.915   6.574
 5140SOL    HW216320   3.373   3.777   6.617
 5141SOL     OW16321   1.077   3.082   1.484
 5141SOL    HW116322   1.174   3.105   1.491
 5141SOL    HW216323   1.057   3.048   1.392
 5142SOL     OW16324   0.502   0.056   2.667
 5142SOL    HW116325   0.594   0.095   2.662
 5142SOL    HW216326   0.480   0.031   2.761
 5143SOL     OW16327   6.933   6.125   2.278
 5143SOL    HW116328   6.869   6.196   2.306
 5143SOL    HW216329   6.964   6.143   2.185
 5144SOL     OW16330   2.052   3.350   4.900
 5144SOL    HW116331   2.109   3.306   4.969
 5144SOL    HW216332   1.965   3.379   4.942
 5145SOL     OW16333   2.221   5.745   5.383
 5145SOL    HW116334   2.269   5.811   5.326
 5145SOL    HW216335   2.285   5.704   5.448
 5146SOL     OW16336   5.924   5.673   6.396
 5146SOL    HW116337   5.971   5.605   6.452
 5146SOL    HW216338   5.952   5.663   6.301
 5147SOL     OW16339   5.691   2.124   3.946
 5147SOL    HW116340   5.673   2.147   4.042
 5147SOL    HW216341   5.697   2.025   3.936
 5148SOL     OW16342   6.279   1.600   0.332
 5148SOL    HW116343   6.308   1.637   0.243
 5148SOL    HW216344   6.302   1.502   0.335
 5149SOL     OW16345   4.131   5.790   4.457
 5149SOL    HW116346   4.198   5.774   4.530
 5149SOL    HW216347   4.161   5.865   4.399
 5150SOL     OW16348   6.539   0.492   3.277
 5150SOL    HW116349   6.603   0.517   3.351
 5150SOL    HW216350   6.569   0.407   3.235
 5151SOL     OW16351   5.186   5.060   1.433
 5151SOL    HW116352   5.168   5.023   1.341
 5151SOL    HW216353   5.240   4.993   1.485
 5152SOL     OW16354   2.334   2.134   0.751
 5152SOL    HW116355   2.241   2.169   0.762
 5152SOL    HW216356   2.397   2.210   0.737
 5153SOL     OW16357   2.507   2.634   0.735
 5153SOL    HW116358   2.516   2.663   0.640
 5153SOL    HW216359   2.596   2.634   0.780
 5154SOL     OW16360   0.431   2.646   0.468
 5154SOL    HW116361   0.426   2.690   0.379
 5154SOL    HW216362   0.517   2.670   0.513
 5155SOL     OW16363   1.700   1.348   6.976
 5155SOL    HW116364   1.611   1.317   7.011
 5155SOL    HW216365   1.742   1.273   6.924
 5156SOL     OW16366   5.254   5.219   6.212
 5156SOL    HW116367   5.188   5.273   6.264
 5156SOL    HW216368   5.206   5.170   6.139
 5157SOL     OW16369   3.635   1.108   1.780
 5157SOL    HW116370   3.734   1.117   1.779
 5157SOL    HW216371   3.594   1.199   1.777
 5158SOL     OW16372   1.407   2.257   2.189
 5158SOL    HW116373   1.455   2.181   2.231
 5158SOL    HW216374   1.376   2.231   2.098
 5159SOL     OW16375   6.696   3.223   5.244
 5159SOL    HW116376   6.711   3.285   5.320
 5159SOL    HW216377   6.672   3.132   5.279
 5160SOL     OW16378   0.038   0.069   3.134
 5160SOL    HW116379   0.127   0.115   3.129
 5160SOL    HW216380   0.045   7.001   3.095
 5161SOL     OW16381   1.069   1.952   5.964
 5161SOL    HW116382   1.056   1.869   6.019
 5161SOL    HW216383   1.138   1.935   5.894
 5162SOL     OW16384   0.370   6.707   5.247
 5162SOL    HW116385   0.415   6.756   5.173
 5162SOL    HW216386   0.313   6.771   5.300
 5163SOL     OW16387   2.738   0.791   1.750
 5163SOL    HW116388   2.657   0.839   1.714
 5163SOL    HW216389   2.745   0.701   1.706
 5164SOL     OW16390   2.682   3.776   6.901
 5164SOL    HW116391   2.650   3.735   6.816
 5164SOL    HW216392   2.605   3.815   6.951
 5165SOL     OW16393   1.938   4.877   5.980
 5165SOL    HW116394   1.945   4.786   6.021
 5165SOL    HW216395   1.946   4.947   6.051
 5166SOL     OW16396   6.918   5.562   5.630
 5166SOL    HW116397   6.829   5.568   5.677
 5166SOL    HW216398   6.914   5.615   5.545
 5167SOL     OW16399   5.945   3.757   5.876
 5167SOL    HW116400   6.011   3.718   5.941
 5167SOL    HW216401   5.926   3.690   5.804
 5168SOL     OW16402   4.927   1.703   3.481
 5168SOL    HW116403   4.879   1.751   3.408
 5168SOL    HW216404   4.927   1.605   3.463
 5169SOL     OW16405   5.498   5.765   4.321
 5169SOL    HW116406   5.471   5.733   4.230
 5169SOL    HW216407   5.458   5.855   4.337
 5170SOL     OW16408   2.053   4.194   5.847
 5170SOL    HW116409   2.111   4.238   5.778
 5170SOL    HW216410   2.105   4.121   5.892
 5171SOL     OW16411   2.372   6.561   6.367
 5171SOL    HW116412   2.280   6.590   6.341
 5171SOL    HW216413   2.388   6.468   6.334
 5172SOL     OW16414   5.862   5.387   6.156
 5172SOL    HW116415   5.789   5.446   6.121
 5172SOL    HW216416   5.824   5.299   6.184
 5173SOL     OW16417   4.101   5.410   4.578
 5173SOL    HW116418   4.136   5.428   4.486
 5173SOL    HW216419   4.074   5.314   4.586
 5174SOL     OW16420   1.027   6.040   2.940
 5174SOL    HW116421   1.018   6.112   2.871
 5174SOL    HW216422   1.040   6.081   3.030
 5175SOL     OW16423   2.355   1.780   6.441
 5175SOL    HW116424   2.388   1.839   6.368
 5175SOL    HW216425   2.311   1.835   6.512
 5176SOL     OW16426   6.096   6.339   6.484
 5176SOL    HW116427   6.145   6.293   6.411
 5176SOL    HW216428   6.106   6.438   6.474
 5177SOL     OW16429   5.255   5.874   0.621
 5177SOL    HW116430   5.177   5.936   0.629
 5177SOL    HW216431   5.241   5.794   0.680
 5178SOL     OW16432   0.261   3.722   1.283
 5178SOL    HW116433   0.328   3.744   1.212
 5178SOL    HW216434   0.297   3.649   1.341
 5179SOL     OW16435   4.999   5.341   2.916
 5179SOL    HW116436   4.921   5.342   2.979
 5179SOL    HW216437   5.007   5.251   2.873
 5180SOL     OW16438   1.841   4.782   1.917
 5180SOL    HW116439   1.882   4.708   1.865
 5180SOL    HW216440   1.884   4.787   2.007
 5181SOL     OW16441   6.995   1.279   5.177
 5181SOL    HW116442   6.909   1.330   5.177
 5181SOL    HW216443   6.989   1.204   5.111
 5182SOL     OW16444   2.308   6.732   1.804
 5182SOL    HW116445   2.225   6.758   1.854
 5182SOL    HW216446   2.330   6.802   1.736
 5183SOL     OW16447   4.774   2.410   3.279
 5183SOL    HW116448   4.840   2.335   3.279
 5183SOL    HW216449   4.809   2.486   3.333
 5184SOL     OW16450   2.108   1.991   2.966
 5184SOL    HW116451   2.024   2.013   3.016
 5184SOL    HW216452   2.121   2.055   2.891
 5185SOL     OW16453   6.494   6.907   1.970
 5185SOL    HW116454   6.567   6.849   2.004
 5185SOL    HW216455   6.457   6.962   2.045
 5186SOL     OW16456   6.056   2.288   6.638
 5186SOL    HW116457   6.132   2.351   6.626
 5186SOL    HW216458   6.081   2.217   6.704
 5187SOL     OW16459   1.367   4.797   5.189
 5187SOL    HW116460   1.452   4.846   5.205
 5187SOL    HW216461   1.387   4.702   5.164
 5188SOL     OW16462   0.057   0.276   1.451
 5188SOL    HW116463   7.006   0.209   1.449
 5188SOL    HW216464   0.057   0.329   1.367
 5189SOL     OW16465   4.991   5.898   6.983
 5189SOL    HW116466   5.068   5.953   7.015
 5189SOL    HW216467   4.929   5.955   6.929
 5190SOL     OW16468   1.683   4.749   0.717
 5190SOL    HW116469   1.765   4.695   0.699
 5190SOL    HW216470   1.688   4.835   0.666
 5191SOL     OW16471   2.745   4.228   1.660
 5191SOL    HW116472   2.722   4.271   1.573
 5191SOL    HW216473   2.796   4.292   1.717
 5192SOL     OW16474   0.757   4.685   3.094
 5192SOL    HW116475   0.814   4.603   3.095
 5192SOL    HW216476   0.710   4.693   3.006
 5193SOL     OW16477   4.402   0.939   5.365
 5193SOL    HW116478   4.442   0.849   5.377
 5193SOL    HW216479   4.348   0.963   5.446
 5194SOL     OW16480   4.479   1.874   4.774
 5194SOL    HW116481   4.460   1.883   4.871
 5194SOL    HW216482   4.521   1.785   4.755
 5195SOL     OW16483   1.215   0.806   5.728
 5195SOL    HW116484   1.140   0.871   5.715
 5195SOL    HW216485   1.299   0.845   5.691
 5196SOL     OW16486   5.630   6.384   3.342
 5196SOL    HW116487   5.601   6.292   3.367
 5196SOL    HW216488   5.674   6.382   3.253
 5197SOL     OW16489   1.456   3.375   4.693
 5197SOL    HW116490   1.356   3.371   4.698
 5197SOL    HW216491   1.484   3.397   4.600
 5198SOL     OW16492   6.041   5.227   3.201
 5198SOL    HW116493   5.980   5.225   3.280
 5198SOL    HW216494   6.011   5.161   3.133
 5199SOL     OW16495   0.294   4.607   1.324
 5199SOL    HW116496   0.343   4.694   1.313
 5199SOL    HW216497   0.201   4.618   1.288
 5200SOL     OW16498   6.513   3.828   5.009
 5200SOL    HW116499   6.592   3.852   4.952
 5200SOL    HW216500   6.435   3.885   4.983
 5201SOL     OW16501   1.261   6.099   4.845
 5201SOL    HW116502   1.218   6.075   4.758
 5201SOL    HW216503   1.329   6.030   4.869
 5202SOL     OW16504   0.235   4.588   1.785
 5202SOL    HW116505   0.202   4.630   1.869
 5202SOL    HW216506   0.199   4.495   1.777
 5203SOL     OW16507   6.288   3.576   6.885
 5203SOL    HW116508   6.289   3.476   6.882
 5203SOL    HW216509   6.323   3.607   6.973
 5204SOL     OW16510   5.519   5.321   6.237
 5204SOL    HW116511   5.535   5.387   6.310
 5204SOL    HW216512   5.428   5.281   6.247
 5205SOL     OW16513   2.723   6.329   0.350
 5205SOL    HW116514   2.712   6.284   0.261
 5205SOL    HW216515   2.740   6.260   0.420
 5206SOL     OW16516   0.047   4.379   4.624
 5206SOL    HW116517   0.087   4.313   4.559
 5206SOL    HW216518   0.033   4.466   4.578
 5207SOL     OW16519   1.787   4.922   2.855
 5207SOL    HW116520   1.887   4.921   2.850
 5207SOL    HW216521   1.751   4.973   2.777
 5208SOL     OW16522   5.355   1.384   0.004
 5208SOL    HW116523   5.452   1.359   0.004
 5208SOL    HW216524   5.303   1.314   6.978
 5209SOL     OW16525   5.586   5.108   3.355
 5209SOL    HW116526   5.643   5.052   3.415
 5209SOL    HW216527   5.563   5.193   3.400
 5210SOL     OW16528   4.744   4.199   2.939
 5210SOL    HW116529   4.751   4.216   2.840
 5210SOL    HW216530   4.720   4.103   2.954
 5211SOL     OW16531   3.045   3.753   2.128
 5211SOL    HW116532   3.034   3.848   2.156
 5211SOL    HW216533   3.121   3.713   2.178
 5212SOL     OW16534   0.718   0.029   6.418
 5212SOL    HW116535   0.654   6.993   6.368
 5212SOL    HW216536   0.811   0.013   6.385
 5213SOL     OW16537   4.288   2.165   6.224
 5213SOL    HW116538   4.214   2.231   6.217
 5213SOL    HW216539   4.335   2.177   6.311
 5214SOL     OW16540   4.647   1.660   0.326
 5214SOL    HW116541   4.672   1.753   0.298
 5214SOL    HW216542   4.667   1.649   0.424
 5215SOL     OW16543   5.805   4.947   3.670
 5215SOL    HW116544   5.732   4.914   3.729
 5215SOL    HW216545   5.867   5.005   3.722
 5216SOL     OW16546   4.272   6.039   1.714
 5216SOL    HW116547   4.180   6.004   1.735
 5216SOL    HW216548   4.317   5.975   1.651
 5217SOL     OW16549   2.942   4.778   3.646
 5217SOL    HW116550   2.886   4.829   3.711
 5217SOL    HW216551   2.883   4.719   3.590
 5218SOL     OW16552   1.947   0.199   3.822
 5218SOL    HW116553   1.952   0.131   3.895
 5218SOL    HW216554   2.012   0.175   3.749
 5219SOL     OW16555   2.404   7.020   0.833
 5219SOL    HW116556   2.473   7.003   0.904
 5219SOL    HW216557   2.438   6.985   0.745
 5220SOL     OW16558   1.475   6.937   1.737
 5220SOL    HW116559   1.392   6.905   1.781
 5220SOL    HW216560   1.508   6.867   1.673
 5221SOL     OW16561   4.239   1.303   0.052
 5221SOL    HW116562   4.265   1.208   0.034
 5221SOL    HW216563   4.142   1.316   0.032
 5222SOL     OW16564   0.599   6.657   2.700
 5222SOL    HW116565   0.607   6.558   2.717
 5222SOL    HW216566   0.518   6.692   2.746
 5223SOL     OW16567   4.667   6.454   1.049
 5223SOL    HW116568   4.682   6.515   0.971
 5223SOL    HW216569   4.598   6.494   1.110
 5224SOL     OW16570   5.582   1.079   3.332
 5224SOL    HW116571   5.552   1.000   3.385
 5224SOL    HW216572   5.675   1.104   3.359
 5225SOL     OW16573   0.052   6.815   5.745
 5225SOL    HW116574   0.128   6.751   5.735
 5225SOL    HW216575   7.020   6.789   5.824
 5226SOL     OW16576   2.673   6.720   3.930
 5226SOL    HW116577   2.633   6.797   3.980
 5226SOL    HW216578   2.771   6.736   3.917
 5227SOL     OW16579   5.110   3.611   3.836
 5227SOL    HW116580   5.134   3.708   3.842
 5227SOL    HW216581   5.044   3.588   3.907
 5228SOL     OW16582   5.248   0.709   1.146
 5228SOL    HW116583   5.225   0.744   1.237
 5228SOL    HW216584   5.272   0.786   1.087
 5229SOL     OW16585   1.259   4.454   3.417
 5229SOL    HW116586   1.335   4.393   3.395
 5229SOL    HW216587   1.277   4.545   3.378
 5230SOL     OW16588   1.483   0.578   5.971
 5230SOL    HW116589   1.498   0.480   5.983
 5230SOL    HW216590   1.541   0.613   5.898
 5231SOL     OW16591   3.051   3.123   3.197
 5231SOL    HW116592   3.116   3.192   3.227
 5231SOL    HW216593   3.051   3.120   3.097
 5232SOL     OW16594   5.474   2.794   5.591
 5232SOL    HW116595   5.499   2.702   5.623
 5232SOL    HW216596   5.482   2.859   5.667
 5233SOL     OW16597   1.075   0.387   2.986
 5233SOL    HW116598   1.023   0.307   3.016
 5233SOL    HW216599   1.012   0.457   2.950
 5234SOL     OW16600   3.876   5.335   1.574
 5234SOL    HW116601   3.933   5.332   1.492
 5234SOL    HW216602   3.819   5.253   1.577
 5235SOL     OW16603   0.625   2.719   1.290
 5235SOL    HW116604   0.717   2.714   1.252
 5235SOL    HW216605   0.563   2.756   1.220
 5236SOL     OW16606   6.450   3.326   0.404
 5236SOL    HW116607   6.526   3.306   0.466
 5236SOL    HW216608   6.417   3.419   0.422
 5237SOL     OW16609   1.716   1.752   3.536
 5237SOL    HW116610   1.789   1.778   3.472
 5237SOL    HW216611   1.629   1.748   3.487
 5238SOL     OW16612   2.018   3.489   0.987
 5238SOL    HW116613   2.000   3.579   0.947
 5238SOL    HW216614   1.971   3.419   0.934
 5239SOL     OW16615   2.872   3.621   4.475
 5239SOL    HW116616   2.925   3.701   4.501
 5239SOL    HW216617   2.775   3.638   4.493
 5240SOL     OW16618   3.410   1.639   4.826
 5240SOL    HW116619   3.324   1.613   4.870
 5240SOL    HW216620   3.474   1.672   4.896
 5241SOL     OW16621   2.844   5.714   5.592
 5241SOL    HW116622   2.874   5.632   5.541
 5241SOL    HW216623   2.923   5.773   5.609
 5242SOL     OW16624   4.602   0.415   5.239
 5242SOL    HW116625   4.662   0.455   5.170
 5242SOL    HW216626   4.642   0.330   5.273
 5243SOL     OW16627   0.529   4.254   0.277
 5243SOL    HW116628   0.506   4.335   0.331
 5243SOL    HW216629   0.484   4.174   0.317
 5244SOL     OW16630   5.605   3.416   6.848
 5244SOL    HW116631   5.680   3.373   6.798
 5244SOL    HW216632   5.624   3.514   6.858
 5245SOL     OW16633   4.632   4.915   6.374
 5245SOL    HW116634   4.619   4.998   6.427
 5245SOL    HW216635   4.661   4.841   6.434
 5246SOL     OW16636   1.294   3.966   3.185
 5246SOL    HW116637   1.389   3.977   3.215
 5246SOL    HW216638   1.244   4.051   3.200
 5247SOL     OW16639   0.209   4.632   0.563
 5247SOL    HW116640   0.278   4.701   0.583
 5247SOL    HW216641   0.127   4.649   0.619
 5248SOL     OW16642   5.069   1.112   0.217
 5248SOL    HW116643   5.083   1.054   0.136
 5248SOL    HW216644   4.976   1.148   0.216
 5249SOL     OW16645   1.675   5.523   6.479
 5249SOL    HW116646   1.707   5.500   6.571
 5249SOL    HW216647   1.652   5.621   6.475
 5250SOL     OW16648   1.030   1.467   5.626
 5250SOL    HW116649   1.069   1.558   5.610
 5250SOL    HW216650   1.001   1.460   5.722
 5251SOL     OW16651   0.623   3.096   0.783
 5251SOL    HW116652   0.601   3.173   0.842
 5251SOL    HW216653   0.657   3.129   0.695
 5252SOL     OW16654   5.096   6.971   1.094
 5252SOL    HW116655   5.164   6.917   1.045
 5252SOL    HW216656   5.018   6.914   1.119
 5253SOL     OW16657   5.849   2.846   3.902
 5253SOL    HW116658   5.761   2.815   3.868
 5253SOL    HW216659   5.839   2.877   3.997
 5254SOL     OW16660   5.065   0.391   4.163
 5254SOL    HW116661   5.094   0.472   4.215
 5254SOL    HW216662   5.138   0.323   4.165
 5255SOL     OW16663   2.838   5.646   4.346
 5255SOL    HW116664   2.909   5.592   4.391
 5255SOL    HW216665   2.748   5.618   4.379
 5256SOL     OW16666   5.131   6.654   1.928
 5256SOL    HW116667   5.039   6.694   1.934
 5256SOL    HW216668   5.187   6.691   2.002
 5257SOL     OW16669   3.258   1.332   3.285
 5257SOL    HW116670   3.356   1.332   3.263
 5257SOL    HW216671   3.221   1.424   3.271
 5258SOL     OW16672   5.996   2.113   1.830
 5258SOL    HW116673   5.899   2.128   1.813
 5258SOL    HW216674   6.013   2.110   1.928
 5259SOL     OW16675   5.546   4.136   0.865
 5259SOL    HW116676   5.588   4.196   0.796
 5259SOL    HW216677   5.588   4.154   0.954
 5260SOL     OW16678   5.007   2.567   1.752
 5260SOL    HW116679   4.967   2.590   1.841
 5260SOL    HW216680   5.052   2.647   1.714
 5261SOL     OW16681   2.374   2.668   4.622
 5261SOL    HW116682   2.374   2.732   4.699
 5261SOL    HW216683   2.378   2.719   4.536
 5262SOL     OW16684   1.602   0.322   1.402
 5262SOL    HW116685   1.582   0.404   1.455
 5262SOL    HW216686   1.614   0.346   1.306
 5263SOL     OW16687   0.932   6.575   6.774
 5263SOL    HW116688   0.876   6.530   6.704
 5263SOL    HW216689   0.887   6.568   6.862
 5264SOL     OW16690   1.134   1.637   1.455
 5264SOL    HW116691   1.175   1.690   1.380
 5264SOL    HW216692   1.035   1.644   1.450
 5265SOL     OW16693   5.527   4.833   3.558
 5265SOL    HW116694   5.583   4.863   3.481
 5265SOL    HW216695   5.551   4.739   3.583
 5266SOL     OW16696   1.385   6.876   1.084
 5266SOL    HW116697   1.334   6.901   1.167
 5266SOL    HW216698   1.458   6.943   1.069
 5267SOL     OW16699   4.205   3.735   5.305
 5267SOL    HW116700   4.276   3.772   5.366
 5267SOL    HW216701   4.248   3.682   5.232
 5268SOL     OW16702   5.395   5.382   5.783
 5268SOL    HW116703   5.401   5.351   5.688
 5268SOL    HW216704   5.415   5.305   5.844
 5269SOL     OW16705   1.997   4.626   6.068
 5269SOL    HW116706   2.059   4.553   6.039
 5269SOL    HW216707   1.910   4.585   6.097
 5270SOL     OW16708   6.830   2.532   3.318
 5270SOL    HW116709   6.837   2.554   3.221
 5270SOL    HW216710   6.800   2.437   3.328
 5271SOL     OW16711   5.532   3.892   5.768
 5271SOL    HW116712   5.512   3.844   5.683
 5271SOL    HW216713   5.613   3.949   5.756
 5272SOL     OW16714   1.793   1.189   3.885
 5272SOL    HW116715   1.854   1.268   3.891
 5272SOL    HW216716   1.784   1.147   3.976
 5273SOL     OW16717   6.774   0.303   5.156
 5273SOL    HW116718   6.687   0.300   5.106
 5273SOL    HW216719   6.819   0.214   5.149
 5274SOL     OW16720   0.741   5.660   4.926
 5274SOL    HW116721   0.711   5.625   4.838
 5274SOL    HW216722   0.774   5.584   4.982
 5275SOL     OW16723   1.587   6.578   6.663
 5275SOL    HW116724   1.541   6.620   6.741
 5275SOL    HW216725   1.667   6.633   6.638
 5276SOL     OW16726   0.374   0.123   0.637
 5276SOL    HW116727   0.402   0.076   0.720
 5276SOL    HW216728   0.454   0.142   0.581
 5277SOL     OW16729   0.416   0.939   2.479
 5277SOL    HW116730   0.368   0.891   2.406
 5277SOL    HW216731   0.357   1.011   2.517
 5278SOL     OW16732   0.835   3.559   6.185
 5278SOL    HW116733   0.749   3.530   6.142
 5278SOL    HW216734   0.819   3.644   6.235
 5279SOL     OW16735   3.209   6.517   6.963
 5279SOL    HW116736   3.157   6.529   0.025
 5279SOL    HW216737   3.184   6.429   6.922
 5280SOL     OW16738   4.657   6.379   5.163
 5280SOL    HW116739   4.630   6.341   5.075
 5280SOL    HW216740   4.751   6.351   5.185
 5281SOL     OW16741   2.924   6.868   4.827
 5281SOL    HW116742   2.882   6.948   4.869
 5281SOL    HW216743   3.023   6.871   4.840
 5282SOL     OW16744   0.374   6.463   0.336
 5282SOL    HW116745   0.460   6.413   0.335
 5282SOL    HW216746   0.379   6.535   0.406
 5283SOL     OW16747   1.103   0.915   3.883
 5283SOL    HW116748   1.169   0.966   3.827
 5283SOL    HW216749   1.087   0.825   3.842
 5284SOL     OW16750   4.899   3.408   2.064
 5284SOL    HW116751   4.875   3.478   1.996
 5284SOL    HW216752   4.903   3.319   2.019
 5285SOL     OW16753   1.444   2.184   4.092
 5285SOL    HW116754   1.378   2.136   4.150
 5285SOL    HW216755   1.406   2.195   4.000
 5286SOL     OW16756   6.721   2.890   1.473
 5286SOL    HW116757   6.796   2.936   1.425
 5286SOL    HW216758   6.660   2.848   1.406
 5287SOL     OW16759   1.132   5.444   1.754
 5287SOL    HW116760   1.143   5.380   1.677
 5287SOL    HW216761   1.045   5.427   1.798
 5288SOL     OW16762   4.037   0.666   1.808
 5288SOL    HW116763   3.990   0.578   1.808
 5288SOL    HW216764   3.987   0.730   1.750
 5289SOL     OW16765   2.791   4.523   5.876
 5289SOL    HW116766   2.809   4.608   5.827
 5289SOL    HW216767   2.692   4.510   5.885
 5290SOL     OW16768   1.758   3.263   4.793
 5290SOL    HW116769   1.844   3.275   4.844
 5290SOL    HW216770   1.737   3.348   4.744
 5291SOL     OW16771   2.984   4.874   4.360
 5291SOL    HW116772   3.005   4.800   4.424
 5291SOL    HW216773   2.903   4.924   4.392
 5292SOL     OW16774   0.381   3.816   4.659
 5292SOL    HW116775   0.302   3.868   4.690
 5292SOL    HW216776   0.463   3.872   4.667
 5293SOL     OW16777   2.375   0.366   4.386
 5293SOL    HW116778   2.348   0.454   4.347
 5293SOL    HW216779   2.401   0.378   4.482
 5294SOL     OW16780   4.863   6.798   4.937
 5294SOL    HW116781   4.889   6.879   4.990
 5294SOL    HW216782   4.763   6.790   4.937
 5295SOL     OW16783   2.110   1.097   2.154
 5295SOL    HW116784   2.203   1.092   2.191
 5295SOL    HW216785   2.115   1.102   2.054
 5296SOL     OW16786   4.810   4.901   2.029
 5296SOL    HW116787   4.862   4.840   2.089
 5296SOL    HW216788   4.738   4.850   1.983
 5297SOL     OW16789   2.584   5.574   6.345
 5297SOL    HW116790   2.599   5.536   6.254
 5297SOL    HW216791   2.635   5.660   6.354
 5298SOL     OW16792   2.207   1.999   0.529
 5298SOL    HW116793   2.262   2.015   0.611
 5298SOL    HW216794   2.171   2.086   0.496
 5299SOL     OW16795   2.356   0.914   1.908
 5299SOL    HW116796   2.386   0.932   1.815
 5299SOL    HW216797   2.257   0.923   1.913
 5300SOL     OW16798   3.240   5.005   0.054
 5300SOL    HW116799   3.206   5.085   0.004
 5300SOL    HW216800   3.264   4.933   7.012
 5301SOL     OW16801   6.093   6.867   5.991
 5301SOL    HW116802   6.112   6.801   6.063
 5301SOL    HW216803   6.073   6.956   6.032
 5302SOL     OW16804   5.150   5.973   2.939
 5302SOL    HW116805   5.136   5.874   2.945
 5302SOL    HW216806   5.220   5.992   2.870
 5303SOL     OW16807   1.130   5.574   5.228
 5303SOL    HW116808   1.173   5.486   5.248
 5303SOL    HW216809   1.077   5.604   5.307
 5304SOL     OW16810   0.402   0.771   3.395
 5304SOL    HW116811   0.306   0.742   3.393
 5304SOL    HW216812   0.461   0.691   3.399
 5305SOL     OW16813   7.000   5.382   4.232
 5305SOL    HW116814   0.030   5.405   4.150
 5305SOL    HW216815   0.032   5.323   4.291
 5306SOL     OW16816   0.877   2.086   5.798
 5306SOL    HW116817   0.959   2.061   5.850
 5306SOL    HW216818   0.886   2.054   5.704
 5307SOL     OW16819   6.857   1.616   1.392
 5307SOL    HW116820   6.816   1.560   1.319
 5307SOL    HW216821   6.784   1.663   1.442
 5308SOL     OW16822   1.886   3.933   2.815
 5308SOL    HW116823   1.979   3.898   2.807
 5308SOL    HW216824   1.836   3.916   2.730
 5309SOL     OW16825   5.951   5.501   3.125
 5309SOL    HW116826   5.918   5.477   3.034
 5309SOL    HW216827   6.001   5.424   3.164
 5310SOL     OW16828   6.145   2.575   3.277
 5310SOL    HW116829   6.238   2.611   3.287
 5310SOL    HW216830   6.090   2.604   3.355
 5311SOL     OW16831   5.852   0.150   0.101
 5311SOL    HW116832   5.838   0.054   0.126
 5311SOL    HW216833   5.867   0.204   0.184
 5312SOL     OW16834   5.988   6.044   0.384
 5312SOL    HW116835   6.069   6.072   0.434
 5312SOL    HW216836   5.928   5.990   0.443
 5313SOL     OW16837   0.906   6.837   5.710
 5313SOL    HW116838   0.945   6.779   5.638
 5313SOL    HW216839   0.943   6.929   5.703
 5314SOL     OW16840   6.013   1.079   1.682
 5314SOL    HW116841   6.102   1.078   1.636
 5314SOL    HW216842   5.988   1.172   1.706
 5315SOL     OW16843   4.543   2.057   3.899
 5315SOL    HW116844   4.548   1.962   3.867
 5315SOL    HW216845   4.611   2.112   3.851
 5316SOL     OW16846   0.591   2.731   4.957
 5316SOL    HW116847   0.673   2.741   5.013
 5316SOL    HW216848   0.618   2.719   4.861
 5317SOL     OW16849   5.916   2.704   6.665
 5317SOL    HW116850   6.014   2.722   6.662
 5317SOL    HW216851   5.897   2.611   6.633
 5318SOL     OW16852   0.157   4.023   6.610
 5318SOL    HW116853   0.235   4.008   6.672
 5318SOL    HW216854   0.132   4.120   6.611
 5319SOL     OW16855   4.024   6.297   2.253
 5319SOL    HW116856   4.005   6.395   2.255
 5319SOL    HW216857   3.954   6.250   2.200
 5320SOL     OW16858   3.955   5.917   1.144
 5320SOL    HW116859   4.018   5.866   1.202
 5320SOL    HW216860   3.966   5.888   1.049
 5321SOL     OW16861   1.903   4.516   5.677
 5321SOL    HW116862   1.936   4.433   5.633
 5321SOL    HW216863   1.845   4.566   5.613
 5322SOL     OW16864   4.169   0.077   2.115
 5322SOL    HW116865   4.225   0.073   2.198
 5322SOL    HW216866   4.125   7.011   2.101
 5323SOL     OW16867   4.264   0.642   5.941
 5323SOL    HW116868   4.275   0.547   5.912
 5323SOL    HW216869   4.351   0.691   5.927
 5324SOL     OW16870   1.937   2.090   1.429
 5324SOL    HW116871   2.022   2.046   1.402
 5324SOL    HW216872   1.861   2.025   1.418
 5325SOL     OW16873   2.086   2.654   4.971
 5325SOL    HW116874   2.115   2.715   5.044
 5325SOL    HW216875   2.166   2.611   4.929
 5326SOL     OW16876   6.426   6.974   1.484
 5326SOL    HW116877   6.468   0.040   1.503
 5326SOL    HW216878   6.346   6.986   1.425
 5327SOL     OW16879   0.010   2.654   5.681
 5327SOL    HW116880   0.080   2.582   5.672
 5327SOL    HW216881   6.946   2.612   5.708
 5328SOL     OW16882   4.967   5.275   0.492
 5328SOL    HW116883   5.013   5.363   0.483
 5328SOL    HW216884   4.995   5.215   0.417
 5329SOL     OW16885   2.005   6.899   6.315
 5329SOL    HW116886   1.933   6.919   6.381
 5329SOL    HW216887   1.964   6.878   6.226
 5330SOL     OW16888   2.368   4.685   0.959
 5330SOL    HW116889   2.395   4.590   0.943
 5330SOL    HW216890   2.446   4.736   0.995
 5331SOL     OW16891   6.227   1.044   6.205
 5331SOL    HW116892   6.284   0.961   6.203
 5331SOL    HW216893   6.286   1.123   6.220
 5332SOL     OW16894   0.215   4.783   1.598
 5332SOL    HW116895   0.231   4.708   1.663
 5332SOL    HW216896   0.117   4.792   1.582
 5333SOL     OW16897   1.012   6.174   4.973
 5333SOL    HW116898   0.946   6.099   4.973
 5333SOL    HW216899   1.097   6.144   4.929
 5334SOL     OW16900   3.667   0.214   4.558
 5334SOL    HW116901   3.649   0.312   4.546
 5334SOL    HW216902   3.601   0.161   4.505
 5335SOL     OW16903   0.041   5.727   6.944
 5335SOL    HW116904   0.043   5.820   6.981
 5335SOL    HW216905   0.053   5.729   6.845
 5336SOL     OW16906   1.139   4.037   1.554
 5336SOL    HW116907   1.222   4.033   1.609
 5336SOL    HW216908   1.150   3.985   1.470
 5337SOL     OW16909   5.562   3.731   1.420
 5337SOL    HW116910   5.600   3.639   1.409
 5337SOL    HW216911   5.564   3.756   1.517
 5338SOL     OW16912   6.152   1.591   0.025
 5338SOL    HW116913   6.081   1.634   6.993
 5338SOL    HW216914   6.115   1.508   0.068
 5339SOL     OW16915   6.971   0.231   2.235
 5339SOL    HW116916   6.897   0.166   2.252
 5339SOL    HW216917   6.943   0.297   2.165
 5340SOL     OW16918   5.514   2.379   6.166
 5340SOL    HW116919   5.473   2.426   6.088
 5340SOL    HW216920   5.612   2.400   6.170
 5341SOL     OW16921   4.006   0.456   0.935
 5341SOL    HW116922   3.955   0.439   0.851
 5341SOL    HW216923   4.058   0.374   0.959
 5342SOL     OW16924   2.403   0.992   6.053
 5342SOL    HW116925   2.424   0.998   6.150
 5342SOL    HW216926   2.486   0.968   6.002
 5343SOL     OW16927   3.850   4.000   2.145
 5343SOL    HW116928   3.920   3.999   2.216
 5343SOL    HW216929   3.768   4.046   2.179
 5344SOL     OW16930   1.973   2.396   2.699
 5344SOL    HW116931   1.937   2.426   2.611
 5344SOL    HW216932   2.005   2.476   2.750
 5345SOL     OW16933   4.853   0.086   2.514
 5345SOL    HW116934   4.900   0.174   2.511
 5345SOL    HW216935   4.754   0.100   2.514
 5346SOL     OW16936   2.621   6.850   3.405
 5346SOL    HW116937   2.595   6.764   3.361
 5346SOL    HW216938   2.637   6.835   3.502
 5347SOL     OW16939   6.903   1.677   2.005
 5347SOL    HW116940   6.894   1.670   1.906
 5347SOL    HW216941   6.973   1.746   2.027
 5348SOL     OW16942   6.611   0.921   0.594
 5348SOL    HW116943   6.591   0.909   0.497
 5348SOL    HW216944   6.643   0.835   0.633
 5349SOL     OW16945   6.352   0.298   1.419
 5349SOL    HW116946   6.330   0.376   1.477
 5349SOL    HW216947   6.420   0.325   1.351
 5350SOL     OW16948   2.672   0.381   0.128
 5350SOL    HW116949   2.639   0.290   0.105
 5350SOL    HW216950   2.595   0.437   0.159
 5351SOL     OW16951   4.159   0.558   2.039
 5351SOL    HW116952   4.153   0.602   1.950
 5351SOL    HW216953   4.248   0.577   2.081
 5352SOL     OW16954   3.610   6.370   3.363
 5352SOL    HW116955   3.586   6.288   3.415
 5352SOL    HW216956   3.526   6.420   3.340
 5353SOL     OW16957   5.772   0.485   5.746
 5353SOL    HW116958   5.687   0.479   5.694
 5353SOL    HW216959   5.789   0.581   5.772
 5354SOL     OW16960   1.338   3.170   1.487
 5354SOL    HW116961   1.376   3.254   1.447
 5354SOL    HW216962   1.403   3.095   1.477
 5355SOL     OW16963   4.014   1.463   5.228
 5355SOL    HW116964   3.947   1.492   5.160
 5355SOL    HW216965   4.070   1.388   5.191
 5356SOL     OW16966   5.930   3.361   0.598
 5356SOL    HW116967   5.845   3.388   0.553
 5356SOL    HW216968   5.972   3.285   0.548
 5357SOL     OW16969   3.825   6.632   0.771
 5357SOL    HW116970   3.807   6.534   0.762
 5357SOL    HW216971   3.768   6.683   0.707
 5358SOL     OW16972   4.824   3.084   1.278
 5358SOL    HW116973   4.802   3.003   1.223
 5358SOL    HW216974   4.755   3.154   1.263
 5359SOL     OW16975   2.967   6.933   6.915
 5359SOL    HW116976   2.910   6.883   6.980
 5359SOL    HW216977   3.062   6.904   6.926
 5360SOL     OW16978   4.027   0.407   6.461
 5360SOL    HW116979   3.944   0.367   6.499
 5360SOL    HW216980   4.102   0.399   6.527
 5361SOL     OW16981   1.939   0.710   6.329
 5361SOL    HW116982   1.937   0.612   6.308
 5361SOL    HW216983   1.897   0.761   6.253
 5362SOL     OW16984   3.962   5.859   3.662
 5362SOL    HW116985   3.863   5.848   3.667
 5362SOL    HW216986   3.988   5.886   3.569
 5363SOL     OW16987   0.790   5.068   5.134
 5363SOL    HW116988   0.702   5.040   5.171
 5363SOL    HW216989   0.861   5.053   5.202
 5364SOL     OW16990   0.754   6.482   6.578
 5364SOL    HW116991   0.818   6.495   6.502
 5364SOL    HW216992   0.662   6.468   6.541
 5365SOL     OW16993   3.815   1.478   6.414
 5365SOL    HW116994   3.719   1.451   6.407
 5365SOL    HW216995   3.871   1.397   6.428
 5366SOL     OW16996   3.456   4.457   6.629
 5366SOL    HW116997   3.415   4.547   6.646
 5366SOL    HW216998   3.407   4.388   6.683
 5367SOL     OW16999   0.307   4.674   0.913
 5367SOL    HW117000   0.208   4.657   0.911
 5367SOL    HW217001   0.345   4.657   0.822
 5368SOL     OW17002   6.529   0.894   3.601
 5368SOL    HW117003   6.509   0.826   3.671
 5368SOL    HW217004   6.451   0.955   3.590
 5369SOL     OW17005   1.834   3.633   2.589
 5369SOL    HW117006   1.918   3.601   2.631
 5369SOL    HW217007   1.845   3.636   2.490
 5370SOL     OW17008   3.837   2.962   1.528
 5370SOL    HW117009   3.828   3.048   1.579
 5370SOL    HW217010   3.759   2.950   1.468
 5371SOL     OW17011   1.792   4.091   4.770
 5371SOL    HW117012   1.698   4.060   4.781
 5371SOL    HW217013   1.830   4.115   4.859
 5372SOL     OW17014   2.810   6.002   3.079
 5372SOL    HW117015   2.741   6.061   3.120
 5372SOL    HW217016   2.765   5.934   3.020
 5373SOL     OW17017   1.904   5.216   3.846
 5373SOL    HW117018   1.919   5.313   3.825
 5373SOL    HW217019   1.847   5.208   3.927
 5374SOL     OW17020   3.306   2.671   0.729
 5374SOL    HW117021   3.324   2.574   0.745
 5374SOL    HW217022   3.392   2.717   0.703
 5375SOL     OW17023   1.701   3.690   4.828
 5375SOL    HW117024   1.751   3.686   4.915
 5375SOL    HW217025   1.662   3.781   4.816
 5376SOL     OW17026   2.770   4.051   6.797
 5376SOL    HW117027   2.746   3.957   6.773
 5376SOL    HW217028   2.854   4.051   6.851
 5377SOL     OW17029   0.844   1.638   1.439
 5377SOL    HW117030   0.800   1.560   1.483
 5377SOL    HW217031   0.774   1.703   1.409
 5378SOL     OW17032   4.710   6.845   0.477
 5378SOL    HW117033   4.673   6.936   0.493
 5378SOL    HW217034   4.802   6.839   0.515
 5379SOL     OW17035   6.773   6.849   1.069
 5379SOL    HW117036   6.869   6.873   1.064
 5379SOL    HW217037   6.736   6.878   1.157
 5380SOL     OW17038   2.475   0.810   4.181
 5380SOL    HW117039   2.493   0.774   4.089
 5380SOL    HW217040   2.435   0.738   4.237
 5381SOL     OW17041   5.605   3.329   1.737
 5381SOL    HW117042   5.580   3.297   1.829
 5381SOL    HW217043   5.610   3.429   1.737
 5382SOL     OW17044   1.952   0.487   1.470
 5382SOL    HW117045   2.046   0.472   1.501
 5382SOL    HW217046   1.888   0.456   1.541
 5383SOL     OW17047   1.847   2.528   4.930
 5383SOL    HW117048   1.805   2.452   4.980
 5383SOL    HW217049   1.904   2.581   4.992
 5384SOL     OW17050   5.797   6.621   4.572
 5384SOL    HW117051   5.864   6.630   4.646
 5384SOL    HW217052   5.835   6.563   4.500
 5385SOL     OW17053   3.328   3.981   2.858
 5385SOL    HW117054   3.406   4.043   2.849
 5385SOL    HW217055   3.261   4.020   2.920
 5386SOL     OW17056   5.807   0.262   5.901
 5386SOL    HW117057   5.805   0.358   5.872
 5386SOL    HW217058   5.714   0.229   5.917
 5387SOL     OW17059   3.268   5.217   1.620
 5387SOL    HW117060   3.179   5.206   1.576
 5387SOL    HW217061   3.287   5.138   1.677
 5388SOL     OW17062   6.194   6.508   3.086
 5388SOL    HW117063   6.183   6.488   3.184
 5388SOL    HW217064   6.290   6.527   3.067
 5389SOL     OW17065   5.087   1.993   1.400
 5389SOL    HW117066   4.996   2.035   1.401
 5389SOL    HW217067   5.121   1.989   1.306
 5390SOL     OW17068   6.229   4.781   5.944
 5390SOL    HW117069   6.179   4.707   5.990
 5390SOL    HW217070   6.225   4.864   5.999
 5391SOL     OW17071   2.866   3.677   0.048
 5391SOL    HW117072   2.822   3.637   0.128
 5391SOL    HW217073   2.797   3.710   7.007
 5392SOL     OW17074   6.269   3.032   2.773
 5392SOL    HW117075   6.305   2.998   2.860
 5392SOL    HW217076   6.266   2.957   2.707
 5393SOL     OW17077   6.195   6.722   6.196
 5393SOL    HW117078   6.136   6.659   6.246
 5393SOL    HW217079   6.287   6.720   6.235
 5394SOL     OW17080   1.885   4.067   5.414
 5394SOL    HW117081   1.797   4.061   5.367
 5394SOL    HW217082   1.957   4.085   5.348
 5395SOL     OW17083   4.560   0.540   0.762
 5395SOL    HW117084   4.642   0.571   0.714
 5395SOL    HW217085   4.586   0.501   0.850
 5396SOL     OW17086   4.764   2.501   2.179
 5396SOL    HW117087   4.758   2.587   2.230
 5396SOL    HW217088   4.671   2.468   2.159
 5397SOL     OW17089   0.905   2.579   1.402
 5397SOL    HW117090   0.880   2.608   1.494
 5397SOL    HW217091   0.955   2.492   1.407
 5398SOL     OW17092   3.360   3.357   1.858
 5398SOL    HW117093   3.324   3.274   1.901
 5398SOL    HW217094   3.284   3.412   1.823
 5399SOL     OW17095   0.351   6.010   0.309
 5399SOL    HW117096   0.380   6.050   0.222
 5399SOL    HW217097   0.416   5.939   0.336
 5400SOL     OW17098   2.056   3.948   6.776
 5400SOL    HW117099   2.030   3.906   6.689
 5400SOL    HW217100   1.977   3.949   6.837
 5401SOL     OW17101   6.497   1.836   1.341
 5401SOL    HW117102   6.548   1.807   1.260
 5401SOL    HW217103   6.420   1.774   1.356
 5402SOL     OW17104   1.394   6.202   2.741
 5402SOL    HW117105   1.398   6.109   2.707
 5402SOL    HW217106   1.486   6.238   2.754
 5403SOL     OW17107   5.992   3.660   6.875
 5403SOL    HW117108   6.082   3.641   6.914
 5403SOL    HW217109   5.997   3.652   6.775
 5404SOL     OW17110   1.338   3.336   3.045
 5404SOL    HW117111   1.255   3.282   3.053
 5404SOL    HW217112   1.320   3.430   3.073
 5405SOL     OW17113   0.146   3.871   5.564
 5405SOL    HW117114   0.218   3.915   5.619
 5405SOL    HW217115   0.108   3.937   5.500
 5406SOL     OW17116   1.570   0.273   4.311
 5406SOL    HW117117   1.489   0.218   4.333
 5406SOL    HW217118   1.649   0.213   4.301
 5407SOL     OW17119   4.356   3.224   6.823
 5407SOL    HW117120   4.289   3.294   6.796
 5407SOL    HW217121   4.357   3.217   6.923
 5408SOL     OW17122   3.251   1.303   0.246
 5408SOL    HW117123   3.339   1.255   0.256
 5408SOL    HW217124   3.227   1.346   0.333
 5409SOL     OW17125   3.838   0.415   2.449
 5409SOL    HW117126   3.829   0.494   2.510
 5409SOL    HW217127   3.793   0.436   2.362
 5410SOL     OW17128   1.540   2.781   2.878
 5410SOL    HW117129   1.625   2.806   2.832
 5410SOL    HW217130   1.474   2.749   2.809
 5411SOL     OW17131   1.748   5.006   4.327
 5411SOL    HW117132   1.782   4.934   4.387
 5411SOL    HW217133   1.682   5.063   4.377
 5412SOL     OW17134   6.222   2.169   1.664
 5412SOL    HW117135   6.133   2.187   1.706
 5412SOL    HW217136   6.226   2.213   1.574
 5413SOL     OW17137   2.786   0.355   2.240
 5413SOL    HW117138   2.821   0.342   2.333
 5413SOL    HW217139   2.716   0.287   2.221
 5414SOL     OW17140   4.540   0.706   5.279
 5414SOL    HW117141   4.619   0.712   5.340
 5414SOL    HW217142   4.531   0.613   5.244
 5415SOL     OW17143   6.056   3.880   2.506
 5415SOL    HW117144   6.017   3.788   2.515
 5415SOL    HW217145   5.988   3.948   2.535
 5416SOL     OW17146   4.180   5.121   4.244
 5416SOL    HW117147   4.275   5.091   4.251
 5416SOL    HW217148   4.176   5.219   4.226
 5417SOL     OW17149   3.234   6.898   5.921
 5417SOL    HW117150   3.325   6.874   5.887
 5417SOL    HW217151   3.242   6.941   6.011
 5418SOL     OW17152   4.026   0.975   3.405
 5418SOL    HW117153   4.060   1.014   3.491
 5418SOL    HW217154   3.999   0.880   3.420
 5419SOL     OW17155   3.292   4.496   6.942
 5419SOL    HW117156   3.273   4.552   6.861
 5419SOL    HW217157   3.309   4.402   6.914
 5420SOL     OW17158   0.862   2.632   2.574
 5420SOL    HW117159   0.779   2.611   2.625
 5420SOL    HW217160   0.934   2.660   2.637
 5421SOL     OW17161   1.578   2.872   0.951
 5421SOL    HW117162   1.672   2.843   0.933
 5421SOL    HW217163   1.533   2.805   1.011
 5422SOL     OW17164   1.347   4.021   0.038
 5422SOL    HW117165   1.291   3.999   0.118
 5422SOL    HW217166   1.434   3.972   0.044
 5423SOL     OW17167   5.439   3.294   5.901
 5423SOL    HW117168   5.412   3.201   5.876
 5423SOL    HW217169   5.531   3.312   5.866
 5424SOL     OW17170   5.289   3.700   5.520
 5424SOL    HW117171   5.212   3.708   5.457
 5424SOL    HW217172   5.315   3.791   5.552
 5425SOL     OW17173   5.231   0.150   4.188
 5425SOL    HW117174   5.198   0.065   4.148
 5425SOL    HW217175   5.331   0.154   4.180
 5426SOL     OW17176   0.158   6.841   4.804
 5426SOL    HW117177   0.204   6.928   4.820
 5426SOL    HW217178   0.227   6.769   4.793
 5427SOL     OW17179   4.378   6.550   0.053
 5427SOL    HW117180   4.320   6.548   6.995
 5427SOL    HW217181   4.337   6.610   0.122
 5428SOL     OW17182   2.051   0.794   6.994
 5428SOL    HW117183   2.018   0.724   6.930
 5428SOL    HW217184   1.977   0.857   7.016
 5429SOL     OW17185   1.477   2.267   5.864
 5429SOL    HW117186   1.475   2.325   5.945
 5429SOL    HW217187   1.569   2.265   5.825
 5430SOL     OW17188   2.553   1.967   5.143
 5430SOL    HW117189   2.473   1.985   5.086
 5430SOL    HW217190   2.585   2.053   5.184
 5431SOL     OW17191   3.620   5.773   4.423
 5431SOL    HW117192   3.710   5.756   4.463
 5431SOL    HW217193   3.628   5.780   4.324
 5432SOL     OW17194   5.751   5.964   1.500
 5432SOL    HW117195   5.792   5.882   1.460
 5432SOL    HW217196   5.654   5.946   1.520
 5433SOL     OW17197   0.122   2.260   4.326
 5433SOL    HW117198   0.122   2.352   4.285
 5433SOL    HW217199   0.058   2.202   4.276
 5434SOL     OW17200   2.612   0.271   5.195
 5434SOL    HW117201   2.562   0.250   5.111
 5434SOL    HW217202   2.570   0.350   5.240
 5435SOL     OW17203   4.609   1.344   1.940
 5435SOL    HW117204   4.672   1.283   1.892
 5435SOL    HW217205   4.520   1.344   1.893
 5436SOL     OW17206   4.829   3.937   2.553
 5436SOL    HW117207   4.788   4.018   2.596
 5436SOL    HW217208   4.844   3.955   2.456
 5437SOL     OW17209   3.236   4.635   6.717
 5437SOL    HW117210   3.210   4.624   6.621
 5437SOL    HW217211   3.205   4.725   6.749
 5438SOL     OW17212   6.698   1.031   1.312
 5438SOL    HW117213   6.692   1.124   1.349
 5438SOL    HW217214   6.626   0.975   1.352
 5439SOL     OW17215   1.502   2.689   1.329
 5439SOL    HW117216   1.477   2.680   1.232
 5439SOL    HW217217   1.440   2.634   1.384
 5440SOL     OW17218   1.524   1.452   0.857
 5440SOL    HW117219   1.598   1.518   0.848
 5440SOL    HW217220   1.561   1.360   0.870
 5441SOL     OW17221   3.681   2.041   4.498
 5441SOL    HW117222   3.591   2.003   4.479
 5441SOL    HW217223   3.698   2.038   4.597
 5442SOL     OW17224   3.223   0.564   2.382
 5442SOL    HW117225   3.181   0.646   2.343
 5442SOL    HW217226   3.320   0.580   2.397
 5443SOL     OW17227   2.891   6.946   5.857
 5443SOL    HW117228   2.863   6.917   5.949
 5443SOL    HW217229   2.974   6.896   5.830
 5444SOL     OW17230   0.152   0.615   3.446
 5444SOL    HW117231   0.220   0.622   3.520
 5444SOL    HW217232   0.156   0.523   3.406
 5445SOL     OW17233   5.878   3.461   1.878
 5445SOL    HW117234   5.876   3.364   1.900
 5445SOL    HW217235   5.864   3.515   1.962
 5446SOL     OW17236   0.107   5.887   5.858
 5446SOL    HW117237   0.042   5.930   5.921
 5446SOL    HW217238   0.150   5.809   5.903
 5447SOL     OW17239   2.837   2.325   1.139
 5447SOL    HW117240   2.891   2.248   1.104
 5447SOL    HW217241   2.898   2.396   1.174
 5448SOL     OW17242   5.638   1.824   6.223
 5448SOL    HW117243   5.564   1.769   6.262
 5448SOL    HW217244   5.641   1.913   6.269
 5449SOL     OW17245   0.204   3.137   6.557
 5449SOL    HW117246   0.234   3.229   6.581
 5449SOL    HW217247   0.273   3.071   6.588
 5450SOL     OW17248   2.174   6.116   0.916
 5450SOL    HW117249   2.263   6.106   0.960
 5450SOL    HW217250   2.101   6.101   0.983
 5451SOL     OW17251   1.411   0.310   2.659
 5451SOL    HW117252   1.381   0.336   2.751
 5451SOL    HW217253   1.428   0.392   2.605
 5452SOL     OW17254   2.655   3.671   5.477
 5452SOL    HW117255   2.718   3.649   5.552
 5452SOL    HW217256   2.565   3.693   5.515
 5453SOL     OW17257   0.142   5.303   6.189
 5453SOL    HW117258   0.237   5.291   6.161
 5453SOL    HW217259   0.114   5.228   6.248
 5454SOL     OW17260   0.514   4.013   5.414
 5454SOL    HW117261   0.541   3.940   5.477
 5454SOL    HW217262   0.438   3.982   5.357
 5455SOL     OW17263   0.266   3.138   0.692
 5455SOL    HW117264   0.337   3.067   0.699
 5455SOL    HW217265   0.177   3.099   0.715
 5456SOL     OW17266   3.139   6.806   1.679
 5456SOL    HW117267   3.133   6.906   1.682
 5456SOL    HW217268   3.184   6.779   1.594
 5457SOL     OW17269   6.348   3.589   0.368
 5457SOL    HW117270   6.292   3.617   0.445
 5457SOL    HW217271   6.330   3.649   0.289
 5458SOL     OW17272   2.205   4.424   5.984
 5458SOL    HW117273   2.216   4.329   6.013
 5458SOL    HW217274   2.244   4.435   5.893
 5459SOL     OW17275   2.520   4.428   6.057
 5459SOL    HW117276   2.434   4.391   6.023
 5459SOL    HW217277   2.582   4.352   6.078
 5460SOL     OW17278   3.880   6.972   3.108
 5460SOL    HW117279   3.818   6.910   3.155
 5460SOL    HW217280   3.896   0.029   3.165
 5461SOL     OW17281   4.473   6.511   4.847
 5461SOL    HW117282   4.516   6.422   4.861
 5461SOL    HW217283   4.479   6.536   4.750
 5462SOL     OW17284   0.993   0.433   1.612
 5462SOL    HW117285   0.926   0.358   1.612
 5462SOL    HW217286   0.973   0.495   1.536
 5463SOL     OW17287   0.040   3.245   0.917
 5463SOL    HW117288   6.997   3.244   0.992
 5463SOL    HW217289   0.071   3.152   0.899
 5464SOL     OW17290   2.112   6.438   4.211
 5464SOL    HW117291   2.140   6.382   4.290
 5464SOL    HW217292   2.193   6.473   4.165
 5465SOL     OW17293   2.181   6.230   6.555
 5465SOL    HW117294   2.126   6.313   6.543
 5465SOL    HW217295   2.121   6.154   6.580
 5466SOL     OW17296   5.208   5.010   4.916
 5466SOL    HW117297   5.285   5.073   4.903
 5466SOL    HW217298   5.226   4.924   4.869
 5467SOL     OW17299   5.771   1.540   2.350
 5467SOL    HW117300   5.689   1.597   2.348
 5467SOL    HW217301   5.852   1.598   2.346
 5468SOL     OW17302   4.238   1.932   5.835
 5468SOL    HW117303   4.279   1.884   5.758
 5468SOL    HW217304   4.302   2.002   5.868
 5469SOL     OW17305   4.328   4.358   1.114
 5469SOL    HW117306   4.262   4.422   1.153
 5469SOL    HW217307   4.341   4.281   1.177
 5470SOL     OW17308   0.046   5.249   3.319
 5470SOL    HW117309   0.057   5.232   3.417
 5470SOL    HW217310   0.116   5.314   3.289
 5471SOL     OW17311   6.490   5.015   2.338
 5471SOL    HW117312   6.531   5.102   2.367
 5471SOL    HW217313   6.392   5.027   2.327
 5472SOL     OW17314   3.762   5.355   5.870
 5472SOL    HW117315   3.684   5.409   5.903
 5472SOL    HW217316   3.765   5.358   5.770
 5473SOL     OW17317   1.410   4.231   3.346
 5473SOL    HW117318   1.412   4.155   3.410
 5473SOL    HW217319   1.503   4.251   3.316
 5474SOL     OW17320   1.446   6.225   3.510
 5474SOL    HW117321   1.500   6.245   3.592
 5474SOL    HW217322   1.412   6.311   3.472
 5475SOL     OW17323   3.060   2.780   1.649
 5475SOL    HW117324   3.048   2.856   1.714
 5475SOL    HW217325   3.090   2.699   1.699
 5476SOL     OW17326   1.851   3.294   6.842
 5476SOL    HW117327   1.948   3.314   6.856
 5476SOL    HW217328   1.840   3.196   6.827
 5477SOL     OW17329   1.788   2.759   2.449
 5477SOL    HW117330   1.874   2.766   2.397
 5477SOL    HW217331   1.711   2.764   2.385
 5478SOL     OW17332   0.516   5.560   5.812
 5478SOL    HW117333   0.497   5.533   5.717
 5478SOL    HW217334   0.487   5.487   5.874
 5479SOL     OW17335   4.540   6.966   4.671
 5479SOL    HW117336   4.456   6.974   4.617
 5479SOL    HW217337   4.587   0.031   4.673
 5480SOL     OW17338   0.672   2.486   5.289
 5480SOL    HW117339   0.756   2.500   5.342
 5480SOL    HW217340   0.594   2.479   5.350
 5481SOL     OW17341   4.786   6.490   3.529
 5481SOL    HW117342   4.854   6.437   3.478
 5481SOL    HW217343   4.747   6.560   3.471
 5482SOL     OW17344   1.937   5.042   2.490
 5482SOL    HW117345   1.849   5.088   2.503
 5482SOL    HW217346   1.996   5.063   2.569
 5483SOL     OW17347   0.512   2.758   5.972
 5483SOL    HW117348   0.512   2.679   6.034
 5483SOL    HW217349   0.421   2.800   5.971
 5484SOL     OW17350   4.910   7.012   4.230
 5484SOL    HW117351   4.981   6.961   4.277
 5484SOL    HW217352   4.899   6.977   4.137
 5485SOL     OW17353   3.941   0.353   4.905
 5485SOL    HW117354   3.931   0.262   4.946
 5485SOL    HW217355   3.851   0.385   4.875
 5486SOL     OW17356   2.785   5.038   3.919
 5486SOL    HW117357   2.764   4.959   3.861
 5486SOL    HW217358   2.839   5.008   3.997
 5487SOL     OW17359   3.231   5.073   5.493
 5487SOL    HW117360   3.210   5.165   5.524
 5487SOL    HW217361   3.158   5.039   5.434
 5488SOL     OW17362   4.811   1.622   6.884
 5488SOL    HW117363   4.824   1.721   6.869
 5488SOL    HW217364   4.863   1.595   6.965
 5489SOL     OW17365   0.197   3.471   3.928
 5489SOL    HW117366   0.160   3.423   3.849
 5489SOL    HW217367   0.270   3.533   3.898
 5490SOL     OW17368   0.975   5.624   2.663
 5490SOL    HW117369   1.015   5.702   2.711
 5490SOL    HW217370   0.879   5.641   2.644
 5491SOL     OW17371   6.196   3.679   0.565
 5491SOL    HW117372   6.156   3.619   0.633
 5491SOL    HW217373   6.124   3.728   0.517
 5492SOL     OW17374   6.961   1.584   6.305
 5492SOL    HW117375   6.971   1.684   6.303
 5492SOL    HW217376   6.977   1.551   6.398
 5493SOL     OW17377   4.404   4.042   0.515
 5493SOL    HW117378   4.372   3.961   0.565
 5493SOL    HW217379   4.502   4.054   0.529
 5494SOL     OW17380   6.228   3.200   5.450
 5494SOL    HW117381   6.139   3.154   5.456
 5494SOL    HW217382   6.252   3.215   5.354
 5495SOL     OW17383   5.622   6.910   6.858
 5495SOL    HW117384   5.531   6.899   6.820
 5495SOL    HW217385   5.628   6.996   6.909
 5496SOL     OW17386   4.440   6.994   5.564
 5496SOL    HW117387   4.425   0.049   5.625
 5496SOL    HW217388   4.518   6.940   5.597
 5497SOL     OW17389   0.636   0.531   5.238
 5497SOL    HW117390   0.631   0.519   5.337
 5497SOL    HW217391   0.614   0.626   5.215
 5498SOL     OW17392   0.113   4.950   1.325
 5498SOL    HW117393   0.110   5.039   1.370
 5498SOL    HW217394   0.195   4.900   1.354
 5499SOL     OW17395   2.090   0.406   4.106
 5499SOL    HW117396   1.997   0.437   4.128
 5499SOL    HW217397   2.133   0.472   4.045
 5500SOL     OW17398   2.278   6.941   1.187
 5500SOL    HW117399   2.244   0.006   1.154
 5500SOL    HW217400   2.337   6.956   1.266
 5501SOL     OW17401   4.712   3.376   6.680
 5501SOL    HW117402   4.658   3.450   6.721
 5501SOL    HW217403   4.744   3.314   6.752
 5502SOL     OW17404   4.946   3.430   6.278
 5502SOL    HW117405   4.858   3.451   6.235
 5502SOL    HW217406   5.019   3.480   6.232
 5503SOL     OW17407   6.084   2.892   0.819
 5503SOL    HW117408   6.007   2.925   0.765
 5503SOL    HW217409   6.121   2.809   0.777
 5504SOL     OW17410   3.805   2.016   6.985
 5504SOL    HW117411   3.832   2.030   0.057
 5504SOL    HW217412   3.881   2.040   6.925
 5505SOL     OW17413   2.842   4.712   2.344
 5505SOL    HW117414   2.774   4.764   2.396
 5505SOL    HW217415   2.798   4.634   2.300
 5506SOL     OW17416   6.733   2.280   6.274
 5506SOL    HW117417   6.640   2.283   6.237
 5506SOL    HW217418   6.792   2.340   6.220
 5507SOL     OW17419   3.853   6.655   0.305
 5507SOL    HW117420   3.856   6.746   0.348
 5507SOL    HW217421   3.941   6.610   0.318
 5508SOL     OW17422   0.366   1.225   6.348
 5508SOL    HW117423   0.340   1.290   6.420
 5508SOL    HW217424   0.366   1.133   6.385
 5509SOL     OW17425   6.281   4.375   6.891
 5509SOL    HW117426   6.286   4.290   6.944
 5509SOL    HW217427   6.198   4.374   6.835
 5510SOL     OW17428   5.022   5.289   6.479
 5510SOL    HW117429   4.951   5.324   6.418
 5510SOL    HW217430   4.998   5.196   6.508
 5511SOL     OW17431   0.733   2.533   5.938
 5511SOL    HW117432   0.733   2.500   6.032
 5511SOL    HW217433   0.655   2.595   5.925
 5512SOL     OW17434   1.852   0.620   2.181
 5512SOL    HW117435   1.898   0.535   2.205
 5512SOL    HW217436   1.871   0.689   2.251
 5513SOL     OW17437   3.875   4.507   0.180
 5513SOL    HW117438   3.932   4.585   0.206
 5513SOL    HW217439   3.897   4.480   0.087
 5514SOL     OW17440   3.061   1.119   0.217
 5514SOL    HW117441   3.120   1.193   0.249
 5514SOL    HW217442   3.025   1.141   0.126
 5515SOL     OW17443   3.621   5.716   2.516
 5515SOL    HW117444   3.547   5.656   2.487
 5515SOL    HW217445   3.685   5.729   2.440
 5516SOL     OW17446   1.653   2.207   5.555
 5516SOL    HW117447   1.701   2.295   5.551
 5516SOL    HW217448   1.658   2.171   5.648
 5517SOL     OW17449   0.919   2.151   3.433
 5517SOL    HW117450   0.912   2.069   3.490
 5517SOL    HW217451   0.919   2.124   3.337
 5518SOL     OW17452   4.557   5.186   6.513
 5518SOL    HW117453   4.586   5.219   6.602
 5518SOL    HW217454   4.463   5.215   6.495
 5519SOL     OW17455   5.527   2.361   5.859
 5519SOL    HW117456   5.583   2.402   5.930
 5519SOL    HW217457   5.563   2.271   5.836
 5520SOL     OW17458   4.875   6.698   1.104
 5520SOL    HW117459   4.916   6.656   1.023
 5520SOL    HW217460   4.775   6.691   1.098
 5521SOL     OW17461   4.412   0.022   1.850
 5521SOL    HW117462   4.339   0.089   1.864
 5521SOL    HW217463   4.397   6.966   1.910
 5522SOL     OW17464   5.477   6.426   0.107
 5522SOL    HW117465   5.527   6.381   0.181
 5522SOL    HW217466   5.530   6.419   0.022
 5523SOL     OW17467   5.275   2.309   1.240
 5523SOL    HW117468   5.259   2.322   1.337
 5523SOL    HW217469   5.233   2.222   1.211
 5524SOL     OW17470   2.488   1.424   3.179
 5524SOL    HW117471   2.406   1.387   3.223
 5524SOL    HW217472   2.563   1.427   3.246
 5525SOL     OW17473   7.022   1.609   0.918
 5525SOL    HW117474   0.035   1.520   0.948
 5525SOL    HW217475   0.044   1.637   0.834
 5526SOL     OW17476   5.536   4.475   4.092
 5526SOL    HW117477   5.628   4.467   4.054
 5526SOL    HW217478   5.500   4.566   4.075
 5527SOL     OW17479   6.281   0.333   2.767
 5527SOL    HW117480   6.266   0.421   2.812
 5527SOL    HW217481   6.380   0.319   2.754
 5528SOL     OW17482   1.533   1.693   7.021
 5528SOL    HW117483   1.575   1.780   6.994
 5528SOL    HW217484   1.560   1.670   0.091
 5529SOL     OW17485   2.972   0.594   2.147
 5529SOL    HW117486   3.005   0.503   2.121
 5529SOL    HW217487   2.923   0.589   2.234
 5530SOL     OW17488   0.696   1.822   1.063
 5530SOL    HW117489   0.728   1.728   1.074
 5530SOL    HW217490   0.753   1.883   1.120
 5531SOL     OW17491   1.712   4.331   1.526
 5531SOL    HW117492   1.744   4.394   1.455
 5531SOL    HW217493   1.789   4.307   1.585
 5532SOL     OW17494   0.433   3.613   6.462
 5532SOL    HW117495   0.496   3.665   6.522
 5532SOL    HW217496   0.436   3.517   6.487
 5533SOL     OW17497   4.099   1.147   2.926
 5533SOL    HW117498   4.139   1.235   2.951
 5533SOL    HW217499   4.022   1.128   2.987
 5534SOL     OW17500   1.212   0.208   4.551
 5534SOL    HW117501   1.211   0.110   4.571
 5534SOL    HW217502   1.297   0.248   4.586
 5535SOL     OW17503   6.996   1.979   2.897
 5535SOL    HW117504   6.933   1.953   2.825
 5535SOL    HW217505   0.058   1.927   2.888
 5536SOL     OW17506   4.515   6.560   4.562
 5536SOL    HW117507   4.525   6.466   4.529
 5536SOL    HW217508   4.497   6.621   4.485
 5537SOL     OW17509   2.622   2.457   3.099
 5537SOL    HW117510   2.558   2.534   3.099
 5537SOL    HW217511   2.640   2.429   3.005
 5538SOL     OW17512   4.633   5.306   4.429
 5538SOL    HW117513   4.640   5.366   4.349
 5538SOL    HW217514   4.711   5.242   4.430
 5539SOL     OW17515   1.928   4.246   6.964
 5539SOL    HW117516   1.836   4.281   6.946
 5539SOL    HW217517   1.976   4.232   6.877
 5540SOL     OW17518   3.876   5.766   1.760
 5540SOL    HW117519   3.931   5.683   1.753
 5540SOL    HW217520   3.784   5.742   1.790
 5541SOL     OW17521   4.807   0.975   5.865
 5541SOL    HW117522   4.821   0.936   5.956
 5541SOL    HW217523   4.774   1.069   5.873
 5542SOL     OW17524   5.177   4.611   6.526
 5542SOL    HW117525   5.259   4.615   6.469
 5542SOL    HW217526   5.112   4.681   6.496
 5543SOL     OW17527   0.548   1.990   4.698
 5543SOL    HW117528   0.604   2.004   4.779
 5543SOL    HW217529   0.563   2.065   4.633
 5544SOL     OW17530   5.576   0.809   6.840
 5544SOL    HW117531   5.579   0.812   6.940
 5544SOL    HW217532   5.652   0.861   6.802
 5545SOL     OW17533   2.467   2.369   1.810
 5545SOL    HW117534   2.471   2.293   1.875
 5545SOL    HW217535   2.426   2.449   1.854
 5546SOL     OW17536   4.043   5.248   5.841
 5546SOL    HW117537   3.943   5.257   5.840
 5546SOL    HW217538   4.084   5.323   5.789
 5547SOL     OW17539   3.503   5.248   4.341
 5547SOL    HW117540   3.591   5.289   4.366
 5547SOL    HW217541   3.436   5.267   4.413
 5548SOL     OW17542   0.496   1.731   4.696
 5548SOL    HW117543   0.523   1.826   4.709
 5548SOL    HW217544   0.403   1.727   4.661
 5549SOL     OW17545   3.185   5.210   6.916
 5549SOL    HW117546   3.244   5.217   6.835
 5549SOL    HW217547   3.092   5.239   6.892
 5550SOL     OW17548   2.560   6.599   2.568
 5550SOL    HW117549   2.634   6.533   2.583
 5550SOL    HW217550   2.591   6.689   2.596
 5551SOL     OW17551   0.229   1.144   2.515
 5551SOL    HW117552   0.177   1.095   2.586
 5551SOL    HW217553   0.176   1.145   2.430
 5552SOL     OW17554   1.432   2.723   2.619
 5552SOL    HW117555   1.344   2.676   2.613
 5552SOL    HW217556   1.505   2.660   2.590
 5553SOL     OW17557   4.719   6.342   6.143
 5553SOL    HW117558   4.703   6.367   6.048
 5553SOL    HW217559   4.811   6.304   6.153
 5554SOL     OW17560   3.165   1.127   4.801
 5554SOL    HW117561   3.207   1.218   4.808
 5554SOL    HW217562   3.103   1.113   4.878
 5555SOL     OW17563   0.799   6.380   1.334
 5555SOL    HW117564   0.765   6.452   1.274
 5555SOL    HW217565   0.762   6.292   1.305
 5556SOL     OW17566   6.971   1.069   5.012
 5556SOL    HW117567   6.875   1.049   5.032
 5556SOL    HW217568   7.010   0.995   4.958
 5557SOL     OW17569   3.328   0.117   2.630
 5557SOL    HW117570   3.305   0.061   2.710
 5557SOL    HW217571   3.376   0.199   2.661
 5558SOL     OW17572   5.091   2.013   5.583
 5558SOL    HW117573   5.076   2.013   5.484
 5558SOL    HW217574   5.005   1.995   5.630
 5559SOL     OW17575   2.247   0.973   1.066
 5559SOL    HW117576   2.340   1.011   1.069
 5559SOL    HW217577   2.251   0.880   1.030
 5560SOL     OW17578   0.224   1.305   4.555
 5560SOL    HW117579   0.171   1.346   4.630
 5560SOL    HW217580   0.321   1.325   4.568
 5561SOL     OW17581   1.477   4.349   2.044
 5561SOL    HW117582   1.407   4.389   1.984
 5561SOL    HW217583   1.433   4.309   2.124
 5562SOL     OW17584   3.435   2.047   6.644
 5562SOL    HW117585   3.437   1.972   6.578
 5562SOL    HW217586   3.505   2.032   6.714
 5563SOL     OW17587   4.065   4.320   1.252
 5563SOL    HW117588   4.118   4.248   1.298
 5563SOL    HW217589   4.022   4.282   1.170
 5564SOL     OW17590   5.933   1.836   2.003
 5564SOL    HW117591   5.837   1.813   1.988
 5564SOL    HW217592   5.941   1.933   2.025
 5565SOL     OW17593   1.839   2.807   5.211
 5565SOL    HW117594   1.929   2.795   5.170
 5565SOL    HW217595   1.790   2.880   5.164
 5566SOL     OW17596   2.576   3.687   0.448
 5566SOL    HW117597   2.527   3.622   0.506
 5566SOL    HW217598   2.617   3.758   0.505
 5567SOL     OW17599   1.908   5.370   3.371
 5567SOL    HW117600   1.925   5.298   3.438
 5567SOL    HW217601   1.904   5.459   3.417
 5568SOL     OW17602   3.786   2.608   6.968
 5568SOL    HW117603   3.838   2.664   0.010
 5568SOL    HW217604   3.692   2.640   6.964
 5569SOL     OW17605   4.395   1.911   0.379
 5569SOL    HW117606   4.323   1.966   0.421
 5569SOL    HW217607   4.361   1.819   0.363
 5570SOL     OW17608   1.138   2.799   5.685
 5570SOL    HW117609   1.236   2.788   5.667
 5570SOL    HW217610   1.089   2.721   5.645
 5571SOL     OW17611   7.017   4.605   6.475
 5571SOL    HW117612   6.957   4.546   6.420
 5571SOL    HW217613   0.089   4.575   6.464
 5572SOL     OW17614   0.851   3.462   5.684
 5572SOL    HW117615   0.903   3.383   5.717
 5572SOL    HW217616   0.758   3.459   5.722
 5573SOL     OW17617   6.709   3.883   6.734
 5573SOL    HW117618   6.670   3.792   6.752
 5573SOL    HW217619   6.715   3.898   6.635
 5574SOL     OW17620   1.563   6.699   3.869
 5574SOL    HW117621   1.552   6.623   3.934
 5574SOL    HW217622   1.597   6.779   3.917
 5575SOL     OW17623   0.985   1.272   2.702
 5575SOL    HW117624   0.932   1.355   2.684
 5575SOL    HW217625   1.055   1.291   2.771
 5576SOL     OW17626   5.855   6.484   5.689
 5576SOL    HW117627   5.900   6.501   5.777
 5576SOL    HW217628   5.761   6.518   5.692
 5577SOL     OW17629   2.094   4.397   4.734
 5577SOL    HW117630   2.121   4.413   4.640
 5577SOL    HW217631   2.155   4.330   4.776
 5578SOL     OW17632   3.832   1.927   5.929
 5578SOL    HW117633   3.886   1.912   6.012
 5578SOL    HW217634   3.824   2.026   5.912
 5579SOL     OW17635   5.115   4.469   1.871
 5579SOL    HW117636   5.170   4.552   1.872
 5579SOL    HW217637   5.113   4.430   1.963
 5580SOL     OW17638   5.546   1.708   1.767
 5580SOL    HW117639   5.628   1.653   1.761
 5580SOL    HW217640   5.471   1.662   1.719
 5581SOL     OW17641   3.285   2.819   0.346
 5581SOL    HW117642   3.252   2.749   0.282
 5581SOL    HW217643   3.298   2.905   0.297
 5582SOL     OW17644   3.299   2.949   3.235
 5582SOL    HW117645   3.213   3.000   3.226
 5582SOL    HW217646   3.314   2.926   3.331
 5583SOL     OW17647   4.165   0.647   6.844
 5583SOL    HW117648   4.235   0.718   6.851
 5583SOL    HW217649   4.078   0.688   6.815
 5584SOL     OW17650   4.923   3.546   4.020
 5584SOL    HW117651   4.962   3.537   4.112
 5584SOL    HW217652   4.897   3.456   3.985
 5585SOL     OW17653   0.486   0.136   3.271
 5585SOL    HW117654   0.572   0.087   3.278
 5585SOL    HW217655   0.417   0.092   3.329
 5586SOL     OW17656   2.216   0.676   0.152
 5586SOL    HW117657   2.146   0.711   0.090
 5586SOL    HW217658   2.185   0.588   0.190
 5587SOL     OW17659   3.854   6.252   3.502
 5587SOL    HW117660   3.831   6.200   3.585
 5587SOL    HW217661   3.773   6.258   3.444
 5588SOL     OW17662   5.355   6.476   6.388
 5588SOL    HW117663   5.410   6.477   6.304
 5588SOL    HW217664   5.260   6.496   6.366
 5589SOL     OW17665   1.861   4.042   0.116
 5589SOL    HW117666   1.887   4.125   0.067
 5589SOL    HW217667   1.943   3.988   0.136
 5590SOL     OW17668   6.716   0.516   3.501
 5590SOL    HW117669   6.749   0.427   3.530
 5590SOL    HW217670   6.706   0.576   3.580
 5591SOL     OW17671   5.439   0.230   0.130
 5591SOL    HW117672   5.344   0.199   0.125
 5591SOL    HW217673   5.448   0.318   0.082
 5592SOL     OW17674   1.198   2.909   2.651
 5592SOL    HW117675   1.151   2.907   2.563
 5592SOL    HW217676   1.272   2.842   2.651
 5593SOL     OW17677   2.252   4.177   4.764
 5593SOL    HW117678   2.216   4.117   4.693
 5593SOL    HW217679   2.278   4.122   4.844
 5594SOL     OW17680   2.578   1.356   6.033
 5594SOL    HW117681   2.608   1.451   6.030
 5594SOL    HW217682   2.563   1.328   6.128
 5595SOL     OW17683   0.608   3.042   6.530
 5595SOL    HW117684   0.566   3.024   6.441
 5595SOL    HW217685   0.538   3.036   6.601
 5596SOL     OW17686   4.948   3.494   4.396
 5596SOL    HW117687   4.958   3.414   4.338
 5596SOL    HW217688   4.965   3.577   4.342
 5597SOL     OW17689   6.972   1.865   6.751
 5597SOL    HW117690   6.915   1.946   6.761
 5597SOL    HW217691   0.039   1.892   6.717
 5598SOL     OW17692   6.045   0.950   3.912
 5598SOL    HW117693   6.044   0.904   3.823
 5598SOL    HW217694   5.972   0.911   3.970
 5599SOL     OW17695   5.513   3.313   3.143
 5599SOL    HW117696   5.444   3.367   3.191
 5599SOL    HW217697   5.469   3.233   3.101
 5600SOL     OW17698   1.750   2.960   1.933
 5600SOL    HW117699   1.781   2.945   2.027
 5600SOL    HW217700   1.826   2.993   1.877
 5601SOL     OW17701   6.196   2.696   6.525
 5601SOL    HW117702   6.270   2.633   6.506
 5601SOL    HW217703   6.138   2.705   6.444
 5602SOL     OW17704   6.274   1.850   2.836
 5602SOL    HW117705   6.350   1.795   2.800
 5602SOL    HW217706   6.234   1.803   2.915
 5603SOL     OW17707   3.609   1.775   6.547
 5603SOL    HW117708   3.688   1.722   6.517
 5603SOL    HW217709   3.532   1.759   6.486
 5604SOL     OW17710   0.851   5.145   3.210
 5604SOL    HW117711   0.879   5.103   3.124
 5604SOL    HW217712   0.755   5.172   3.204
 5605SOL     OW17713   3.357   6.698   4.649
 5605SOL    HW117714   3.443   6.648   4.649
 5605SOL    HW217715   3.292   6.652   4.589
 5606SOL     OW17716   4.523   3.555   1.056
 5606SOL    HW117717   4.580   3.607   0.992
 5606SOL    HW217718   4.543   3.583   1.150
 5607SOL     OW17719   0.826   2.268   2.738
 5607SOL    HW117720   0.891   2.260   2.813
 5607SOL    HW217721   0.873   2.258   2.651
 5608SOL     OW17722   6.440   0.409   3.619
 5608SOL    HW117723   6.533   0.406   3.655
 5608SOL    HW217724   6.430   0.489   3.560
 5609SOL     OW17725   6.483   0.531   0.076
 5609SOL    HW117726   6.519   0.443   0.107
 5609SOL    HW217727   6.539   0.565   0.001
 5610SOL     OW17728   5.811   6.414   5.971
 5610SOL    HW117729   5.813   6.514   5.970
 5610SOL    HW217730   5.720   6.383   6.001
 5611SOL     OW17731   6.346   3.967   1.352
 5611SOL    HW117732   6.433   3.932   1.316
 5611SOL    HW217733   6.365   4.036   1.422
 5612SOL     OW17734   4.608   2.323   1.442
 5612SOL    HW117735   4.521   2.329   1.491
 5612SOL    HW217736   4.661   2.405   1.459
 5613SOL     OW17737   6.437   5.305   5.386
 5613SOL    HW117738   6.438   5.295   5.286
 5613SOL    HW217739   6.522   5.347   5.416
 5614SOL     OW17740   5.457   2.381   4.661
 5614SOL    HW117741   5.413   2.311   4.717
 5614SOL    HW217742   5.486   2.457   4.719
 5615SOL     OW17743   0.460   3.157   2.761
 5615SOL    HW117744   0.512   3.075   2.739
 5615SOL    HW217745   0.514   3.215   2.822
 5616SOL     OW17746   1.174   3.499   1.812
 5616SOL    HW117747   1.131   3.548   1.889
 5616SOL    HW217748   1.159   3.401   1.823
 5617SOL     OW17749   0.621   5.226   5.398
 5617SOL    HW117750   0.676   5.252   5.318
 5617SOL    HW217751   0.537   5.279   5.399
 5618SOL     OW17752   4.579   0.687   2.652
 5618SOL    HW117753   4.657   0.748   2.669
 5618SOL    HW217754   4.503   0.712   2.712
 5619SOL     OW17755   2.883   3.683   3.439
 5619SOL    HW117756   2.804   3.666   3.498
 5619SOL    HW217757   2.966   3.690   3.494
 5620SOL     OW17758   5.012   4.923   5.544
 5620SOL    HW117759   5.066   4.896   5.464
 5620SOL    HW217760   4.923   4.877   5.541
 5621SOL     OW17761   1.189   3.039   6.279
 5621SOL    HW117762   1.163   3.041   6.182
 5621SOL    HW217763   1.241   2.956   6.298
 5622SOL     OW17764   5.984   5.717   3.281
 5622SOL    HW117765   5.954   5.635   3.233
 5622SOL    HW217766   6.074   5.744   3.246
 5623SOL     OW17767   4.775   4.928   3.683
 5623SOL    HW117768   4.768   4.921   3.583
 5623SOL    HW217769   4.756   4.838   3.724
 5624SOL     OW17770   5.090   4.009   3.955
 5624SOL    HW117771   5.009   3.951   3.950
 5624SOL    HW217772   5.166   3.958   3.997
 5625SOL     OW17773   3.250   6.761   6.474
 5625SOL    HW117774   3.326   6.772   6.411
 5625SOL    HW217775   3.240   6.845   6.528
 5626SOL     OW17776   1.793   4.883   6.501
 5626SOL    HW117777   1.888   4.855   6.488
 5626SOL    HW217778   1.755   4.835   6.581
 5627SOL     OW17779   1.310   5.170   0.937
 5627SOL    HW117780   1.237   5.135   0.995
 5627SOL    HW217781   1.340   5.098   0.874
 5628SOL     OW17782   1.582   3.002   0.257
 5628SOL    HW117783   1.585   2.989   0.356
 5628SOL    HW217784   1.527   2.929   0.216
 5629SOL     OW17785   6.594   3.310   4.370
 5629SOL    HW117786   6.649   3.283   4.449
 5629SOL    HW217787   6.592   3.234   4.304
 5630SOL     OW17788   1.627   4.224   0.245
 5630SOL    HW117789   1.529   4.241   0.253
 5630SOL    HW217790   1.647   4.191   0.153
 5631SOL     OW17791   4.009   0.654   2.742
 5631SOL    HW117792   3.945   0.681   2.669
 5631SOL    HW217793   4.006   0.722   2.815
 5632SOL     OW17794   3.721   6.628   6.712
 5632SOL    HW117795   3.756   6.714   6.748
 5632SOL    HW217796   3.621   6.626   6.718
 5633SOL     OW17797   1.554   4.976   5.536
 5633SOL    HW117798   1.491   4.902   5.561
 5633SOL    HW217799   1.571   4.973   5.438
 5634SOL     OW17800   2.482   0.080   1.793
 5634SOL    HW117801   2.562   0.070   1.734
 5634SOL    HW217802   2.404   0.034   1.751
 5635SOL     OW17803   3.552   0.228   2.442
 5635SOL    HW117804   3.492   0.281   2.501
 5635SOL    HW217805   3.631   0.196   2.494
 5636SOL     OW17806   5.206   0.107   4.739
 5636SOL    HW117807   5.236   0.014   4.718
 5636SOL    HW217808   5.168   0.148   4.656
 5637SOL     OW17809   5.055   6.996   5.189
 5637SOL    HW117810   4.984   7.013   5.121
 5637SOL    HW217811   5.144   6.993   5.144
 5638SOL     OW17812   0.418   5.671   0.212
 5638SOL    HW117813   0.380   5.585   0.246
 5638SOL    HW217814   0.385   5.689   0.119
 5639SOL     OW17815   2.893   6.977   2.130
 5639SOL    HW117816   2.831   6.927   2.190
 5639SOL    HW217817   2.846   7.003   2.046
 5640SOL     OW17818   3.725   6.890   4.048
 5640SOL    HW117819   3.792   6.961   4.072
 5640SOL    HW217820   3.750   6.805   4.093
 5641SOL     OW17821   6.291   4.532   3.517
 5641SOL    HW117822   6.387   4.541   3.542
 5641SOL    HW217823   6.241   4.613   3.548
 5642SOL     OW17824   2.652   2.498   6.284
 5642SOL    HW117825   2.569   2.449   6.255
 5642SOL    HW217826   2.731   2.462   6.235
 5643SOL     OW17827   5.627   3.307   3.660
 5643SOL    HW117828   5.572   3.291   3.742
 5643SOL    HW217829   5.719   3.271   3.675
 5644SOL     OW17830   3.528   0.763   5.866
 5644SOL    HW117831   3.602   0.809   5.914
 5644SOL    HW217832   3.565   0.700   5.798
 5645SOL     OW17833   5.627   6.804   3.020
 5645SOL    HW117834   5.660   6.851   2.938
 5645SOL    HW217835   5.527   6.797   3.016
 5646SOL     OW17836   6.604   0.272   3.137
 5646SOL    HW117837   6.662   0.216   3.197
 5646SOL    HW217838   6.523   0.220   3.112
 5647SOL     OW17839   6.045   3.739   6.305
 5647SOL    HW117840   6.064   3.670   6.234
 5647SOL    HW217841   5.991   3.813   6.266
 5648SOL     OW17842   2.171   1.744   4.137
 5648SOL    HW117843   2.176   1.718   4.233
 5648SOL    HW217844   2.093   1.806   4.123
 5649SOL     OW17845   0.268   0.104   4.850
 5649SOL    HW117846   0.358   0.115   4.892
 5649SOL    HW217847   0.206   0.174   4.884
 5650SOL     OW17848   6.808   4.998   5.192
 5650SOL    HW117849   6.782   5.079   5.141
 5650SOL    HW217850   6.735   4.974   5.256
 5651SOL     OW17851   6.103   0.473   2.421
 5651SOL    HW117852   6.134   0.511   2.509
 5651SOL    HW217853   6.017   0.517   2.395
 5652SOL     OW17854   5.362   4.595   0.026
 5652SOL    HW117855   5.373   4.521   6.984
 5652SOL    HW217856   5.447   4.608   0.077
 5653SOL     OW17857   1.865   5.988   6.776
 5653SOL    HW117858   1.771   5.988   6.811
 5653SOL    HW217859   1.912   5.906   6.807
 5654SOL     OW17860   1.934   0.056   6.974
 5654SOL    HW117861   2.009   0.096   6.920
 5654SOL    HW217862   1.862   0.025   6.912
 5655SOL     OW17863   6.322   5.339   3.107
 5655SOL    HW117864   6.305   5.405   3.034
 5655SOL    HW217865   6.247   5.273   3.110
 5656SOL     OW17866   3.959   4.974   6.004
 5656SOL    HW117867   4.021   5.040   6.046
 5656SOL    HW217868   4.007   4.923   5.933
 5657SOL     OW17869   4.827   5.253   2.339
 5657SOL    HW117870   4.729   5.249   2.359
 5657SOL    HW217871   4.840   5.254   2.240
 5658SOL     OW17872   4.551   6.899   5.926
 5658SOL    HW117873   4.491   6.820   5.924
 5658SOL    HW217874   4.595   6.910   5.837
 5659SOL     OW17875   3.788   4.004   3.101
 5659SOL    HW117876   3.722   3.943   3.143
 5659SOL    HW217877   3.880   3.979   3.130
 5660SOL     OW17878   6.983   5.824   1.763
 5660SOL    HW117879   6.978   5.859   1.669
 5660SOL    HW217880   0.056   5.821   1.792
 5661SOL     OW17881   6.429   5.782   4.736
 5661SOL    HW117882   6.398   5.873   4.706
 5661SOL    HW217883   6.480   5.791   4.821
 5662SOL     OW17884   1.778   4.504   4.397
 5662SOL    HW117885   1.876   4.498   4.378
 5662SOL    HW217886   1.735   4.563   4.329
 5663SOL     OW17887   2.216   3.741   1.094
 5663SOL    HW117888   2.182   3.648   1.085
 5663SOL    HW217889   2.261   3.770   1.010
 5664SOL     OW17890   6.389   6.218   2.107
 5664SOL    HW117891   6.293   6.228   2.082
 5664SOL    HW217892   6.396   6.203   2.206
 5665SOL     OW17893   1.570   1.034   5.769
 5665SOL    HW117894   1.601   1.127   5.747
 5665SOL    HW217895   1.544   0.987   5.685
 5666SOL     OW17896   5.563   5.247   6.801
 5666SOL    HW117897   5.489   5.186   6.775
 5666SOL    HW217898   5.539   5.341   6.778
 5667SOL     OW17899   5.752   4.345   2.516
 5667SOL    HW117900   5.746   4.437   2.479
 5667SOL    HW217901   5.668   4.295   2.494
 5668SOL     OW17902   6.852   2.093   6.788
 5668SOL    HW117903   6.801   2.081   6.703
 5668SOL    HW217904   6.801   2.151   6.851
 5669SOL     OW17905   0.197   2.615   4.529
 5669SOL    HW117906   0.158   2.582   4.443
 5669SOL    HW217907   0.123   2.640   4.591
 5670SOL     OW17908   1.397   3.344   2.078
 5670SOL    HW117909   1.440   3.434   2.071
 5670SOL    HW217910   1.425   3.299   2.163
 5671SOL     OW17911   1.024   0.590   5.244
 5671SOL    HW117912   0.995   0.498   5.270
 5671SOL    HW217913   1.011   0.653   5.321
 5672SOL     OW17914   4.587   4.177   5.539
 5672SOL    HW117915   4.518   4.112   5.569
 5672SOL    HW217916   4.546   4.268   5.532
 5673SOL     OW17917   1.693   6.802   1.004
 5673SOL    HW117918   1.732   6.836   1.090
 5673SOL    HW217919   1.681   6.703   1.011
 5674SOL     OW17920   0.473   3.039   1.654
 5674SOL    HW117921   0.528   3.054   1.736
 5674SOL    HW217922   0.489   2.947   1.620
 5675SOL     OW17923   3.835   1.271   5.707
 5675SOL    HW117924   3.754   1.225   5.670
 5675SOL    HW217925   3.913   1.208   5.705
 5676SOL     OW17926   2.320   6.627   2.090
 5676SOL    HW117927   2.352   6.532   2.091
 5676SOL    HW217928   2.347   6.670   2.004
 5677SOL     OW17929   6.129   0.196   2.946
 5677SOL    HW117930   6.198   0.237   2.887
 5677SOL    HW217931   6.144   0.097   2.952
 5678SOL     OW17932   0.739   5.150   2.857
 5678SOL    HW117933   0.689   5.223   2.902
 5678SOL    HW217934   0.702   5.136   2.765
 5679SOL     OW17935   3.921   5.761   5.757
 5679SOL    HW117936   3.887   5.800   5.843
 5679SOL    HW217937   3.993   5.695   5.777
 5680SOL     OW17938   1.788   6.767   6.672
 5680SOL    HW117939   1.769   6.768   6.770
 5680SOL    HW217940   1.861   6.832   6.651
 5681SOL     OW17941   2.963   3.978   6.479
 5681SOL    HW117942   2.973   4.067   6.523
 5681SOL    HW217943   3.013   3.978   6.392
 5682SOL     OW17944   1.989   3.053   3.809
 5682SOL    HW117945   1.976   3.101   3.896
 5682SOL    HW217946   1.901   3.019   3.777
 5683SOL     OW17947   4.142   3.215   5.234
 5683SOL    HW117948   4.231   3.174   5.218
 5683SOL    HW217949   4.151   3.315   5.241
 5684SOL     OW17950   2.999   3.857   3.186
 5684SOL    HW117951   2.926   3.860   3.255
 5684SOL    HW217952   3.068   3.791   3.214
 5685SOL     OW17953   0.342   6.243   1.625
 5685SOL    HW117954   0.270   6.283   1.570
 5685SOL    HW217955   0.343   6.143   1.613
 5686SOL     OW17956   3.475   4.651   0.077
 5686SOL    HW117957   3.409   4.596   0.026
 5686SOL    HW217958   3.533   4.702   0.013
 5687SOL     OW17959   4.321   5.812   6.709
 5687SOL    HW117960   4.320   5.755   6.791
 5687SOL    HW217961   4.246   5.878   6.713
 5688SOL     OW17962   5.480   1.580   2.424
 5688SOL    HW117963   5.418   1.543   2.355
 5688SOL    HW217964   5.464   1.535   2.511
 5689SOL     OW17965   4.227   3.526   5.948
 5689SOL    HW117966   4.184   3.476   5.873
 5689SOL    HW217967   4.324   3.501   5.952
 5690SOL     OW17968   3.741   0.154   3.504
 5690SOL    HW117969   3.748   0.180   3.407
 5690SOL    HW217970   3.694   0.066   3.511
 5691SOL     OW17971   3.614   0.206   4.086
 5691SOL    HW117972   3.625   0.296   4.129
 5691SOL    HW217973   3.704   0.172   4.057
 5692SOL     OW17974   5.794   2.489   6.914
 5692SOL    HW117975   5.736   2.531   6.845
 5692SOL    HW217976   5.744   2.483   7.000
 5693SOL     OW17977   5.002   2.501   2.300
 5693SOL    HW117978   4.987   2.570   2.372
 5693SOL    HW217979   4.920   2.493   2.244
 5694SOL     OW17980   1.620   2.156   4.441
 5694SOL    HW117981   1.526   2.190   4.448
 5694SOL    HW217982   1.631   2.078   4.502
 5695SOL     OW17983   1.959   4.071   3.554
 5695SOL    HW117984   1.939   4.166   3.533
 5695SOL    HW217985   2.057   4.054   3.540
 5696SOL     OW17986   2.627   0.833   6.450
 5696SOL    HW117987   2.629   0.804   6.546
 5696SOL    HW217988   2.721   0.837   6.416
 5697SOL     OW17989   6.632   3.666   0.360
 5697SOL    HW117990   6.545   3.619   0.368
 5697SOL    HW217991   6.626   3.734   0.286
 5698SOL     OW17992   1.683   4.442   3.603
 5698SOL    HW117993   1.659   4.538   3.590
 5698SOL    HW217994   1.658   4.414   3.695
 5699SOL     OW17995   0.380   2.418   5.159
 5699SOL    HW117996   0.308   2.360   5.198
 5699SOL    HW217997   0.460   2.361   5.137
 5700SOL     OW17998   1.390   5.275   3.786
 5700SOL    HW117999   1.454   5.236   3.721
 5700SOL    HW218000   1.305   5.300   3.739
 5701SOL     OW18001   4.942   3.879   3.013
 5701SOL    HW118002   5.002   3.859   2.936
 5701SOL    HW218003   4.914   3.794   3.057
 5702SOL     OW18004   3.537   0.230   6.891
 5702SOL    HW118005   3.636   0.237   6.899
 5702SOL    HW218006   3.494   0.312   6.930
 5703SOL     OW18007   4.631   4.305   1.716
 5703SOL    HW118008   4.691   4.339   1.788
 5703SOL    HW218009   4.542   4.282   1.755
 5704SOL     OW18010   4.963   4.368   3.419
 5704SOL    HW118011   4.920   4.444   3.468
 5704SOL    HW218012   4.904   4.287   3.425
 5705SOL     OW18013   6.447   1.485   3.823
 5705SOL    HW118014   6.447   1.574   3.869
 5705SOL    HW218015   6.505   1.422   3.874
 5706SOL     OW18016   2.012   1.191   6.809
 5706SOL    HW118017   2.052   1.261   6.867
 5706SOL    HW218018   2.082   1.154   6.748
 5707SOL     OW18019   3.668   1.399   0.191
 5707SOL    HW118020   3.643   1.449   0.108
 5707SOL    HW218021   3.612   1.430   0.267
 5708SOL     OW18022   6.999   6.842   0.759
 5708SOL    HW118023   0.008   6.763   0.813
 5708SOL    HW218024   7.012   6.926   0.813
 5709SOL     OW18025   1.427   2.660   1.066
 5709SOL    HW118026   1.368   2.717   1.009
 5709SOL    HW218027   1.442   2.572   1.021
 5710SOL     OW18028   3.533   4.558   0.335
 5710SOL    HW118029   3.626   4.523   0.337
 5710SOL    HW218030   3.507   4.578   0.241
 5711SOL     OW18031   5.265   1.778   5.283
 5711SOL    HW118032   5.173   1.809   5.303
 5711SOL    HW218033   5.327   1.806   5.357
 5712SOL     OW18034   6.476   6.748   0.140
 5712SOL    HW118035   6.410   6.675   0.126
 5712SOL    HW218036   6.446   6.830   0.093
 5713SOL     OW18037   0.473   2.729   2.712
 5713SOL    HW118038   0.470   2.738   2.812
 5713SOL    HW218039   0.382   2.747   2.674
 5714SOL     OW18040   1.960   0.591   6.856
 5714SOL    HW118041   1.897   0.620   6.783
 5714SOL    HW218042   1.911   0.535   6.922
 5715SOL     OW18043   1.756   0.204   3.269
 5715SOL    HW118044   1.775   0.285   3.325
 5715SOL    HW218045   1.837   0.182   3.214
 5716SOL     OW18046   2.029   2.355   5.163
 5716SOL    HW118047   2.016   2.258   5.141
 5716SOL    HW218048   2.112   2.388   5.120
 5717SOL     OW18049   0.613   3.201   5.890
 5717SOL    HW118050   0.710   3.200   5.866
 5717SOL    HW218051   0.560   3.156   5.818
 5718SOL     OW18052   3.013   5.042   6.157
 5718SOL    HW118053   3.070   5.068   6.234
 5718SOL    HW218054   2.931   5.100   6.155
 5719SOL     OW18055   1.984   0.803   0.498
 5719SOL    HW118056   2.074   0.814   0.457
 5719SOL    HW218057   1.935   0.890   0.495
 5720SOL     OW18058   1.875   5.945   4.048
 5720SOL    HW118059   1.838   5.898   3.967
 5720SOL    HW218060   1.936   5.883   4.097
 5721SOL     OW18061   6.636   4.127   0.073
 5721SOL    HW118062   6.541   4.128   0.041
 5721SOL    HW218063   6.697   4.154   7.022
 5722SOL     OW18064   5.503   1.332   4.366
 5722SOL    HW118065   5.501   1.357   4.463
 5722SOL    HW218066   5.493   1.233   4.357
 5723SOL     OW18067   0.575   4.411   1.290
 5723SOL    HW118068   0.511   4.414   1.367
 5723SOL    HW218069   0.549   4.480   1.222
 5724SOL     OW18070   5.200   2.650   5.861
 5724SOL    HW118071   5.182   2.725   5.797
 5724SOL    HW218072   5.225   2.568   5.810
 5725SOL     OW18073   5.538   6.735   5.543
 5725SOL    HW118074   5.626   6.781   5.531
 5725SOL    HW218075   5.510   6.693   5.456
 5726SOL     OW18076   4.428   4.856   5.637
 5726SOL    HW118077   4.435   4.825   5.732
 5726SOL    HW218078   4.334   4.886   5.618
 5727SOL     OW18079   5.571   2.766   4.223
 5727SOL    HW118080   5.651   2.815   4.188
 5727SOL    HW218081   5.514   2.829   4.276
 5728SOL     OW18082   4.305   0.792   5.127
 5728SOL    HW118083   4.395   0.776   5.169
 5728SOL    HW218084   4.263   0.873   5.169
 5729SOL     OW18085   1.435   2.902   3.831
 5729SOL    HW118086   1.462   2.849   3.911
 5729SOL    HW218087   1.427   2.998   3.855
 5730SOL     OW18088   4.254   4.323   0.214
 5730SOL    HW118089   4.163   4.318   0.256
 5730SOL    HW218090   4.300   4.235   0.222
 5731SOL     OW18091   3.997   1.072   5.017
 5731SOL    HW118092   4.066   1.117   5.074
 5731SOL    HW218093   4.035   1.055   4.926
 5732SOL     OW18094   5.410   4.526   4.787
 5732SOL    HW118095   5.378   4.436   4.816
 5732SOL    HW218096   5.505   4.538   4.814
 5733SOL     OW18097   2.680   0.071   1.577
 5733SOL    HW118098   2.661   0.132   1.500
 5733SOL    HW218099   2.727   7.012   1.545
 5734SOL     OW18100   1.555   6.888   6.032
 5734SOL    HW118101   1.575   6.817   6.099
 5734SOL    HW218102   1.492   6.955   6.072
 5735SOL     OW18103   5.509   1.090   0.967
 5735SOL    HW118104   5.586   1.115   0.910
 5735SOL    HW218105   5.447   1.168   0.976
 5736SOL     OW18106   5.182   3.829   6.610
 5736SOL    HW118107   5.253   3.768   6.646
 5736SOL    HW218108   5.094   3.806   6.651
 5737SOL     OW18109   5.500   5.641   2.116
 5737SOL    HW118110   5.436   5.662   2.190
 5737SOL    HW218111   5.467   5.561   2.065
 5738SOL     OW18112   2.494   0.795   1.266
 5738SOL    HW118113   2.578   0.754   1.301
 5738SOL    HW218114   2.518   0.863   1.196
 5739SOL     OW18115   2.120   0.720   4.972
 5739SOL    HW118116   2.146   0.654   5.042
 5739SOL    HW218117   2.032   0.694   4.932
 5740SOL     OW18118   4.903   3.283   2.323
 5740SOL    HW118119   4.913   3.297   2.225
 5740SOL    HW218120   4.847   3.356   2.362
 5741SOL     OW18121   1.459   3.114   4.149
 5741SOL    HW118122   1.377   3.167   4.127
 5741SOL    HW218123   1.437   3.017   4.149
 5742SOL     OW18124   5.743   5.620   2.228
 5742SOL    HW118125   5.715   5.649   2.319
 5742SOL    HW218126   5.663   5.616   2.168
 5743SOL     OW18127   3.780   5.751   0.096
 5743SOL    HW118128   3.771   5.685   0.171
 5743SOL    HW218129   3.871   5.792   0.097
 5744SOL     OW18130   5.398   5.882   3.648
 5744SOL    HW118131   5.355   5.793   3.637
 5744SOL    HW218132   5.375   5.939   3.569
 5745SOL     OW18133   0.885   3.446   2.866
 5745SOL    HW118134   0.844   3.380   2.803
 5745SOL    HW218135   0.873   3.415   2.960
 5746SOL     OW18136   5.149   0.370   3.253
 5746SOL    HW118137   5.221   0.404   3.192
 5746SOL    HW218138   5.089   0.308   3.202
 5747SOL     OW18139   2.021   0.142   1.536
 5747SOL    HW118140   2.118   0.170   1.541
 5747SOL    HW218141   2.011   0.071   1.466
 5748SOL     OW18142   6.101   6.556   6.972
 5748SOL    HW118143   6.131   6.634   6.916
 5748SOL    HW218144   6.002   6.545   6.963
 5749SOL     OW18145   2.341   6.146   6.353
 5749SOL    HW118146   2.313   6.194   6.436
 5749SOL    HW218147   2.260   6.116   6.303
 5750SOL     OW18148   6.456   2.697   4.471
 5750SOL    HW118149   6.465   2.757   4.391
 5750SOL    HW218150   6.511   2.734   4.546
 5751SOL     OW18151   0.113   3.619   4.438
 5751SOL    HW118152   0.048   3.637   4.512
 5751SOL    HW218153   0.107   3.692   4.370
 5752SOL     OW18154   5.458   0.983   0.454
 5752SOL    HW118155   5.519   1.014   0.526
 5752SOL    HW218156   5.435   1.060   0.394
 5753SOL     OW18157   3.595   3.878   4.165
 5753SOL    HW118158   3.654   3.941   4.114
 5753SOL    HW218159   3.609   3.891   4.263
 5754SOL     OW18160   6.435   5.881   1.022
 5754SOL    HW118161   6.396   5.955   1.076
 5754SOL    HW218162   6.428   5.795   1.073
 5755SOL     OW18163   1.481   2.961   6.301
 5755SOL    HW118164   1.466   3.057   6.281
 5755SOL    HW218165   1.455   2.942   6.396
 5756SOL     OW18166   6.149   6.233   1.734
 5756SOL    HW118167   6.220   6.228   1.664
 5756SOL    HW218168   6.076   6.168   1.712
 5757SOL     OW18169   0.547   1.260   3.737
 5757SOL    HW118170   0.503   1.172   3.749
 5757SOL    HW218171   0.556   1.280   3.640
 5758SOL     OW18172   6.300   6.827   3.362
 5758SOL    HW118173   6.328   6.907   3.416
 5758SOL    HW218174   6.215   6.847   3.314
 5759SOL     OW18175   1.940   6.954   2.541
 5759SOL    HW118176   1.848   6.928   2.572
 5759SOL    HW218177   1.938   0.024   2.504
 5760SOL     OW18178   0.461   2.057   6.621
 5760SOL    HW118179   0.472   2.152   6.590
 5760SOL    HW218180   0.525   2.039   6.695
 5761SOL     OW18181   6.603   6.455   4.736
 5761SOL    HW118182   6.648   6.499   4.814
 5761SOL    HW218183   6.567   6.525   4.674
 5762SOL     OW18184   1.227   5.339   5.553
 5762SOL    HW118185   1.297   5.410   5.554
 5762SOL    HW218186   1.261   5.258   5.601
 5763SOL     OW18187   5.282   0.393   0.499
 5763SOL    HW118188   5.376   0.418   0.475
 5763SOL    HW218189   5.231   0.370   0.416
 5764SOL     OW18190   4.348   6.120   4.521
 5764SOL    HW118191   4.284   6.110   4.445
 5764SOL    HW218192   4.417   6.188   4.497
 5765SOL     OW18193   7.003   5.658   2.341
 5765SOL    HW118194   6.959   5.600   2.409
 5765SOL    HW218195   0.003   5.747   2.382
 5766SOL     OW18196   0.669   1.122   4.096
 5766SOL    HW118197   0.672   1.204   4.040
 5766SOL    HW218198   0.654   1.147   4.192
 5767SOL     OW18199   4.760   6.634   0.298
 5767SOL    HW118200   4.725   6.548   0.336
 5767SOL    HW218201   4.739   6.709   0.360
 5768SOL     OW18202   1.319   0.903   4.764
 5768SOL    HW118203   1.220   0.908   4.761
 5768SOL    HW218204   1.355   0.981   4.816
 5769SOL     OW18205   0.541   2.712   5.572
 5769SOL    HW118206   0.545   2.616   5.544
 5769SOL    HW218207   0.453   2.731   5.616
 5770SOL     OW18208   1.948   4.457   2.185
 5770SOL    HW118209   1.977   4.400   2.262
 5770SOL    HW218210   1.880   4.408   2.131
 5771SOL     OW18211   2.865   5.319   3.416
 5771SOL    HW118212   2.891   5.382   3.489
 5771SOL    HW218213   2.771   5.339   3.387
 5772SOL     OW18214   2.929   0.081   3.159
 5772SOL    HW118215   2.890   0.030   3.236
 5772SOL    HW218216   2.920   0.179   3.175
 5773SOL     OW18217   5.648   0.795   3.766
 5773SOL    HW118218   5.592   0.875   3.743
 5773SOL    HW218219   5.589   0.721   3.797
 5774SOL     OW18220   0.826   6.750   3.451
 5774SOL    HW118221   0.761   6.680   3.479
 5774SOL    HW218222   0.865   6.726   3.362
 5775SOL     OW18223   6.278   4.959   2.136
 5775SOL    HW118224   6.194   4.911   2.110
 5775SOL    HW218225   6.284   5.045   2.085
 5776SOL     OW18226   2.727   0.904   4.261
 5776SOL    HW118227   2.723   0.991   4.309
 5776SOL    HW218228   2.638   0.884   4.220
 5777SOL     OW18229   1.270   0.458   1.667
 5777SOL    HW118230   1.296   0.362   1.674
 5777SOL    HW218231   1.172   0.466   1.651
 5778SOL     OW18232   0.160   0.348   0.676
 5778SOL    HW118233   0.195   0.318   0.588
 5778SOL    HW218234   0.155   0.448   0.678
 5779SOL     OW18235   5.850   1.658   0.574
 5779SOL    HW118236   5.897   1.663   0.486
 5779SOL    HW218237   5.907   1.697   0.645
 5780SOL     OW18238   4.975   4.808   4.033
 5780SOL    HW118239   4.961   4.729   3.974
 5780SOL    HW218240   4.887   4.850   4.054
 5781SOL     OW18241   1.645   5.408   6.068
 5781SOL    HW118242   1.659   5.375   6.162
 5781SOL    HW218243   1.731   5.442   6.031
 5782SOL     OW18244   6.987   0.934   0.073
 5782SOL    HW118245   6.935   0.942   0.158
 5782SOL    HW218246   0.043   0.875   0.087
 5783SOL     OW18247   2.509   2.645   6.855
 5783SOL    HW118248   2.445   2.653   6.932
 5783SOL    HW218249   2.470   2.584   6.786
 5784SOL     OW18250   0.150   6.182   6.621
 5784SOL    HW118251   0.096   6.149   6.698
 5784SOL    HW218252   0.192   6.270   6.645
 5785SOL     OW18253   1.657   1.212   0.872
 5785SOL    HW118254   1.658   1.164   0.785
 5785SOL    HW218255   1.748   1.248   0.892
 5786SOL     OW18256   6.098   5.253   1.332
 5786SOL    HW118257   6.111   5.317   1.408
 5786SOL    HW218258   6.187   5.230   1.292
 5787SOL     OW18259   2.218   3.294   5.773
 5787SOL    HW118260   2.156   3.239   5.716
 5787SOL    HW218261   2.303   3.244   5.789
 5788SOL     OW18262   3.212   0.822   3.638
 5788SOL    HW118263   3.154   0.741   3.643
 5788SOL    HW218264   3.306   0.797   3.661
 5789SOL     OW18265   3.796   4.811   6.186
 5789SOL    HW118266   3.718   4.860   6.226
 5789SOL    HW218267   3.850   4.875   6.131
 5790SOL     OW18268   1.273   4.038   3.770
 5790SOL    HW118269   1.203   4.069   3.705
 5790SOL    HW218270   1.281   4.104   3.844
 5791SOL     OW18271   1.661   0.630   3.215
 5791SOL    HW118272   1.585   0.620   3.279
 5791SOL    HW218273   1.660   0.722   3.176
 5792SOL     OW18274   0.125   2.337   2.482
 5792SOL    HW118275   0.181   2.420   2.481
 5792SOL    HW218276   0.179   2.261   2.520
 5793SOL     OW18277   6.438   0.730   4.720
 5793SOL    HW118278   6.470   0.722   4.625
 5793SOL    HW218279   6.468   0.651   4.772
 5794SOL     OW18280   6.342   4.495   6.342
 5794SOL    HW118281   6.249   4.504   6.378
 5794SOL    HW218282   6.338   4.459   6.248
 5795SOL     OW18283   5.591   4.126   6.640
 5795SOL    HW118284   5.531   4.057   6.601
 5795SOL    HW218285   5.610   4.104   6.736
 5796SOL     OW18286   3.080   2.421   0.919
 5796SOL    HW118287   3.101   2.434   1.015
 5796SOL    HW218288   3.059   2.510   0.877
 5797SOL     OW18289   2.787   2.576   5.339
 5797SOL    HW118290   2.777   2.492   5.285
 5797SOL    HW218291   2.793   2.552   5.436
 5798SOL     OW18292   6.520   5.370   4.602
 5798SOL    HW118293   6.529   5.467   4.580
 5798SOL    HW218294   6.523   5.316   4.518
 5799SOL     OW18295   5.270   0.954   3.973
 5799SOL    HW118296   5.244   1.050   3.989
 5799SOL    HW218297   5.198   0.894   4.007
 5800SOL     OW18298   6.107   6.075   6.706
 5800SOL    HW118299   6.101   6.147   6.637
 5800SOL    HW218300   6.166   6.002   6.673
 5801SOL     OW18301   2.033   0.950   2.596
 5801SOL    HW118302   2.131   0.933   2.589
 5801SOL    HW218303   2.013   1.041   2.559
 5802SOL     OW18304   0.626   3.099   4.820
 5802SOL    HW118305   0.681   3.066   4.897
 5802SOL    HW218306   0.683   3.157   4.761
 5803SOL     OW18307   1.777   4.856   1.212
 5803SOL    HW118308   1.805   4.918   1.140
 5803SOL    HW218309   1.678   4.865   1.227
 5804SOL     OW18310   7.002   2.679   6.259
 5804SOL    HW118311   6.941   2.742   6.307
 5804SOL    HW218312   6.997   2.696   6.160
 5805SOL     OW18313   5.834   3.335   6.700
 5805SOL    HW118314   5.859   3.303   6.608
 5805SOL    HW218315   5.913   3.325   6.761
 5806SOL     OW18316   6.882   0.140   6.862
 5806SOL    HW118317   6.941   0.210   6.820
 5806SOL    HW218318   6.860   0.168   6.955
 5807SOL     OW18319   2.249   3.542   1.600
 5807SOL    HW118320   2.298   3.516   1.683
 5807SOL    HW218321   2.183   3.613   1.621
 5808SOL     OW18322   6.175   1.642   3.455
 5808SOL    HW118323   6.152   1.736   3.480
 5808SOL    HW218324   6.257   1.643   3.398
 5809SOL     OW18325   0.327   2.953   4.224
 5809SOL    HW118326   0.377   3.022   4.172
 5809SOL    HW218327   0.276   2.894   4.162
 5810SOL     OW18328   2.127   2.169   2.778
 5810SOL    HW118329   2.198   2.157   2.708
 5810SOL    HW218330   2.077   2.253   2.760
 5811SOL     OW18331   2.913   0.253   2.471
 5811SOL    HW118332   2.851   0.178   2.447
 5811SOL    HW218333   3.001   0.239   2.426
 5812SOL     OW18334   4.804   0.577   4.563
 5812SOL    HW118335   4.821   0.674   4.546
 5812SOL    HW218336   4.786   0.531   4.477
 5813SOL     OW18337   1.734   1.200   5.445
 5813SOL    HW118338   1.829   1.173   5.460
 5813SOL    HW218339   1.716   1.286   5.493
 5814SOL     OW18340   6.801   5.099   0.617
 5814SOL    HW118341   6.821   5.150   0.700
 5814SOL    HW218342   6.706   5.114   0.591
 5815SOL     OW18343   3.887   1.319   3.492
 5815SOL    HW118344   3.814   1.386   3.505
 5815SOL    HW218345   3.975   1.361   3.512
 5816SOL     OW18346   5.249   6.691   0.728
 5816SOL    HW118347   5.243   6.759   0.655
 5816SOL    HW218348   5.314   6.619   0.701
 5817SOL     OW18349   5.999   1.986   5.986
 5817SOL    HW118350   6.086   1.945   5.958
 5817SOL    HW218351   6.017   2.063   6.046
 5818SOL     OW18352   6.351   6.025   5.592
 5818SOL    HW118353   6.415   6.085   5.641
 5818SOL    HW218354   6.398   5.983   5.514
 5819SOL     OW18355   5.880   0.169   0.682
 5819SOL    HW118356   5.791   0.209   0.699
 5819SOL    HW218357   5.890   0.085   0.736
 5820SOL     OW18358   5.733   5.129   2.242
 5820SOL    HW118359   5.786   5.100   2.322
 5820SOL    HW218360   5.638   5.146   2.269
 5821SOL     OW18361   3.151   6.740   2.760
 5821SOL    HW118362   3.090   6.795   2.818
 5821SOL    HW218363   3.111   6.731   2.669
 5822SOL     OW18364   0.784   1.215   2.203
 5822SOL    HW118365   0.822   1.213   2.111
 5822SOL    HW218366   0.807   1.301   2.247
 5823SOL     OW18367   2.067   2.732   4.613
 5823SOL    HW118368   2.065   2.664   4.687
 5823SOL    HW218369   2.152   2.722   4.561
 5824SOL     OW18370   4.193   0.522   3.553
 5824SOL    HW118371   4.159   0.455   3.487
 5824SOL    HW218372   4.202   0.478   3.643
 5825SOL     OW18373   3.504   1.092   1.486
 5825SOL    HW118374   3.437   1.039   1.538
 5825SOL    HW218375   3.511   1.184   1.525
 5826SOL     OW18376   6.832   6.817   3.817
 5826SOL    HW118377   6.751   6.835   3.872
 5826SOL    HW218378   6.878   6.735   3.851
 5827SOL     OW18379   1.820   4.859   5.625
 5827SOL    HW118380   1.756   4.823   5.693
 5827SOL    HW218381   1.838   4.789   5.556
 5828SOL     OW18382   6.483   2.117   1.726
 5828SOL    HW118383   6.397   2.168   1.728
 5828SOL    HW218384   6.476   2.036   1.785
 5829SOL     OW18385   1.263   1.647   1.798
 5829SOL    HW118386   1.166   1.630   1.780
 5829SOL    HW218387   1.318   1.606   1.726
 5830SOL     OW18388   2.016   0.886   5.261
 5830SOL    HW118389   2.063   0.927   5.183
 5830SOL    HW218390   1.954   0.814   5.228
 5831SOL     OW18391   5.978   6.123   3.030
 5831SOL    HW118392   5.937   6.053   3.089
 5831SOL    HW218393   5.919   6.204   3.029
 5832SOL     OW18394   3.555   3.422   4.627
 5832SOL    HW118395   3.480   3.370   4.667
 5832SOL    HW218396   3.545   3.425   4.528
 5833SOL     OW18397   3.294   3.385   4.929
 5833SOL    HW118398   3.195   3.387   4.947
 5833SOL    HW218399   3.340   3.452   4.988
 5834SOL     OW18400   6.270   0.691   0.060
 5834SOL    HW118401   6.224   0.689   6.995
 5834SOL    HW218402   6.340   0.620   0.063
 5835SOL     OW18403   5.262   2.828   4.501
 5835SOL    HW118404   5.243   2.926   4.513
 5835SOL    HW218405   5.312   2.815   4.415
 5836SOL     OW18406   3.177   0.056   2.849
 5836SOL    HW118407   3.124   0.027   2.770
 5836SOL    HW218408   3.164   7.013   2.923
 5837SOL     OW18409   4.446   4.515   6.526
 5837SOL    HW118410   4.395   4.601   6.517
 5837SOL    HW218411   4.422   4.471   6.613
 5838SOL     OW18412   0.809   1.337   5.569
 5838SOL    HW118413   0.892   1.389   5.591
 5838SOL    HW218414   0.830   1.270   5.498
 5839SOL     OW18415   0.036   2.328   2.224
 5839SOL    HW118416   0.042   2.335   2.324
 5839SOL    HW218417   0.105   2.389   2.183
 5840SOL     OW18418   3.064   5.389   0.299
 5840SOL    HW118419   3.156   5.418   0.325
 5840SOL    HW218420   3.052   5.292   0.321
 5841SOL     OW18421   6.368   2.428   3.062
 5841SOL    HW118422   6.314   2.512   3.055
 5841SOL    HW218423   6.402   2.418   3.155
 5842SOL     OW18424   3.779   2.945   0.242
 5842SOL    HW118425   3.740   2.939   0.334
 5842SOL    HW218426   3.723   3.006   0.186
 5843SOL     OW18427   0.758   3.178   1.181
 5843SOL    HW118428   0.686   3.211   1.120
 5843SOL    HW218429   0.719   3.116   1.249
 5844SOL     OW18430   1.577   5.981   6.835
 5844SOL    HW118431   1.489   5.953   6.873
 5844SOL    HW218432   1.568   6.073   6.796
 5845SOL     OW18433   0.961   2.588   4.773
 5845SOL    HW118434   0.899   2.665   4.764
 5845SOL    HW218435   1.044   2.618   4.821
 5846SOL     OW18436   0.444   3.324   6.378
 5846SOL    HW118437   0.391   3.242   6.402
 5846SOL    HW218438   0.438   3.339   6.279
 5847SOL     OW18439   1.787   2.468   3.851
 5847SOL    HW118440   1.715   2.400   3.867
 5847SOL    HW218441   1.847   2.435   3.778
 5848SOL     OW18442   1.283   5.044   3.354
 5848SOL    HW118443   1.295   5.068   3.258
 5848SOL    HW218444   1.365   5.072   3.405
 5849SOL     OW18445   3.132   6.671   5.794
 5849SOL    HW118446   3.155   6.662   5.697
 5849SOL    HW218447   3.177   6.752   5.832
 5850SOL     OW18448   0.552   4.546   3.393
 5850SOL    HW118449   0.517   4.455   3.370
 5850SOL    HW218450   0.651   4.541   3.405
 5851SOL     OW18451   5.158   2.863   2.131
 5851SOL    HW118452   5.235   2.813   2.093
 5851SOL    HW218453   5.074   2.808   2.121
 5852SOL     OW18454   4.461   6.113   2.691
 5852SOL    HW118455   4.441   6.027   2.645
 5852SOL    HW218456   4.380   6.172   2.686
 5853SOL     OW18457   4.833   4.107   5.608
 5853SOL    HW118458   4.742   4.144   5.590
 5853SOL    HW218459   4.872   4.152   5.688
 5854SOL     OW18460   0.938   0.847   6.487
 5854SOL    HW118461   1.018   0.803   6.445
 5854SOL    HW218462   0.917   0.932   6.437
 5855SOL     OW18463   1.910   1.408   5.074
 5855SOL    HW118464   1.891   1.313   5.102
 5855SOL    HW218465   1.982   1.408   5.004
 5856SOL     OW18466   2.238   5.049   3.011
 5856SOL    HW118467   2.300   5.127   2.997
 5856SOL    HW218468   2.275   4.991   3.084
 5857SOL     OW18469   0.143   2.265   5.280
 5857SOL    HW118470   0.120   2.285   5.375
 5857SOL    HW218471   0.059   2.250   5.227
 5858SOL     OW18472   3.986   6.984   3.399
 5858SOL    HW118473   3.894   6.968   3.435
 5858SOL    HW218474   4.051   6.922   3.444
 5859SOL     OW18475   6.275   5.869   1.871
 5859SOL    HW118476   6.325   5.928   1.808
 5859SOL    HW218477   6.212   5.925   1.926
 5860SOL     OW18478   0.230   3.799   0.975
 5860SOL    HW118479   0.257   3.891   0.946
 5860SOL    HW218480   0.291   3.732   0.933
 5861SOL     OW18481   6.215   1.792   3.836
 5861SOL    HW118482   6.157   1.780   3.917
 5861SOL    HW218483   6.309   1.766   3.858
 5862SOL     OW18484   4.725   4.694   3.840
 5862SOL    HW118485   4.686   4.718   3.929
 5862SOL    HW218486   4.799   4.628   3.853
 5863SOL     OW18487   2.000   1.524   1.164
 5863SOL    HW118488   1.921   1.483   1.211
 5863SOL    HW218489   2.003   1.622   1.183
 5864SOL     OW18490   4.143   5.647   0.373
 5864SOL    HW118491   4.069   5.595   0.415
 5864SOL    HW218492   4.189   5.703   0.442
 5865SOL     OW18493   4.500   0.810   3.553
 5865SOL    HW118494   4.592   0.816   3.593
 5865SOL    HW218495   4.434   0.852   3.616
 5866SOL     OW18496   3.014   1.980   0.151
 5866SOL    HW118497   3.083   2.039   0.109
 5866SOL    HW218498   2.955   1.942   0.080
 5867SOL     OW18499   0.292   2.611   1.187
 5867SOL    HW118500   0.206   2.586   1.143
 5867SOL    HW218501   0.345   2.529   1.208
 5868SOL     OW18502   1.472   6.773   4.414
 5868SOL    HW118503   1.384   6.762   4.368
 5868SOL    HW218504   1.462   6.748   4.511
 5869SOL     OW18505   3.178   4.946   4.014
 5869SOL    HW118506   3.203   4.952   3.917
 5869SOL    HW218507   3.095   4.891   4.023
 5870SOL     OW18508   5.084   5.403   3.964
 5870SOL    HW118509   5.145   5.326   3.981
 5870SOL    HW218510   5.073   5.414   3.865
 5871SOL     OW18511   2.731   3.575   0.249
 5871SOL    HW118512   2.706   3.635   0.325
 5871SOL    HW218513   2.744   3.482   0.283
 5872SOL     OW18514   3.883   5.488   4.253
 5872SOL    HW118515   3.820   5.434   4.308
 5872SOL    HW218516   3.849   5.496   4.160
 5873SOL     OW18517   1.756   3.051   0.061
 5873SOL    HW118518   1.698   3.050   0.143
 5873SOL    HW218519   1.699   3.068   7.003
 5874SOL     OW18520   1.294   4.130   6.638
 5874SOL    HW118521   1.234   4.137   6.558
 5874SOL    HW218522   1.387   4.110   6.608
 5875SOL     OW18523   3.782   2.231   0.539
 5875SOL    HW118524   3.703   2.172   0.556
 5875SOL    HW218525   3.824   2.256   0.626
 5876SOL     OW18526   3.840   4.226   6.206
 5876SOL    HW118527   3.787   4.193   6.284
 5876SOL    HW218528   3.935   4.243   6.234
 5877SOL     OW18529   6.168   0.231   2.340
 5877SOL    HW118530   6.147   0.320   2.380
 5877SOL    HW218531   6.221   0.177   2.405
 5878SOL     OW18532   4.827   4.008   2.275
 5878SOL    HW118533   4.770   4.089   2.290
 5878SOL    HW218534   4.881   4.019   2.192
 5879SOL     OW18535   3.152   4.294   5.250
 5879SOL    HW118536   3.091   4.372   5.234
 5879SOL    HW218537   3.191   4.300   5.342
 5880SOL     OW18538   5.608   2.221   0.022
 5880SOL    HW118539   5.597   2.125   0.049
 5880SOL    HW218540   5.689   2.229   6.987
 5881SOL     OW18541   1.653   6.271   2.741
 5881SOL    HW118542   1.704   6.284   2.656
 5881SOL    HW218543   1.672   6.180   2.777
 5882SOL     OW18544   1.461   4.759   5.711
 5882SOL    HW118545   1.474   4.676   5.656
 5882SOL    HW218546   1.544   4.779   5.763
 5883SOL     OW18547   6.830   5.542   0.090
 5883SOL    HW118548   6.778   5.558   0.006
 5883SOL    HW218549   6.921   5.509   0.067
 5884SOL     OW18550   6.647   1.050   2.176
 5884SOL    HW118551   6.637   0.966   2.229
 5884SOL    HW218552   6.658   1.028   2.079
 5885SOL     OW18553   0.126   5.241   1.170
 5885SOL    HW118554   0.028   5.227   1.152
 5885SOL    HW218555   0.142   5.243   1.268
 5886SOL     OW18556   2.023   4.853   3.543
 5886SOL    HW118557   2.022   4.891   3.451
 5886SOL    HW218558   2.027   4.753   3.538
 5887SOL     OW18559   3.260   3.066   0.189
 5887SOL    HW118560   3.295   3.150   0.231
 5887SOL    HW218561   3.325   3.033   0.121
 5888SOL     OW18562   2.662   6.063   1.192
 5888SOL    HW118563   2.633   5.988   1.252
 5888SOL    HW218564   2.739   6.110   1.234
 5889SOL     OW18565   5.668   1.293   2.396
 5889SOL    HW118566   5.714   1.378   2.370
 5889SOL    HW218567   5.694   1.269   2.490
 5890SOL     OW18568   2.922   5.051   3.383
 5890SOL    HW118569   2.997   5.011   3.435
 5890SOL    HW218570   2.908   5.146   3.411
 5891SOL     OW18571   2.383   3.564   6.518
 5891SOL    HW118572   2.426   3.480   6.484
 5891SOL    HW218573   2.358   3.622   6.440
 5892SOL     OW18574   1.196   2.913   0.261
 5892SOL    HW118575   1.199   2.946   0.355
 5892SOL    HW218576   1.123   2.961   0.211
 5893SOL     OW18577   0.816   6.311   1.597
 5893SOL    HW118578   0.816   6.304   1.497
 5893SOL    HW218579   0.906   6.340   1.629
 5894SOL     OW18580   1.988   5.721   6.752
 5894SOL    HW118581   2.083   5.702   6.776
 5894SOL    HW218582   1.931   5.644   6.778
 5895SOL     OW18583   5.709   4.058   3.619
 5895SOL    HW118584   5.751   3.978   3.663
 5895SOL    HW218585   5.732   4.058   3.522
 5896SOL     OW18586   5.632   2.409   2.552
 5896SOL    HW118587   5.625   2.310   2.546
 5896SOL    HW218588   5.542   2.450   2.536
 5897SOL     OW18589   3.167   2.176   0.561
 5897SOL    HW118590   3.088   2.199   0.617
 5897SOL    HW218591   3.163   2.079   0.536
 5898SOL     OW18592   2.533   0.791   6.717
 5898SOL    HW118593   2.610   0.774   6.779
 5898SOL    HW218594   2.490   0.878   6.740
 5899SOL     OW18595   6.831   6.955   0.485
 5899SOL    HW118596   6.770   6.986   0.557
 5899SOL    HW218597   6.912   7.014   0.483
 5900SOL     OW18598   6.075   6.466   2.481
 5900SOL    HW118599   6.159   6.515   2.457
 5900SOL    HW218600   6.021   6.522   2.544
 5901SOL     OW18601   2.195   0.499   5.142
 5901SOL    HW118602   2.282   0.534   5.178
 5901SOL    HW218603   2.187   0.402   5.163
 5902SOL     OW18604   3.950   4.365   5.492
 5902SOL    HW118605   4.034   4.379   5.440
 5902SOL    HW218606   3.894   4.296   5.446
 5903SOL     OW18607   6.668   1.905   4.845
 5903SOL    HW118608   6.637   1.971   4.914
 5903SOL    HW218609   6.636   1.934   4.755
 5904SOL     OW18610   0.009   4.684   1.333
 5904SOL    HW118611   0.028   4.780   1.351
 5904SOL    HW218612   6.999   4.641   1.417
 5905SOL     OW18613   6.151   2.558   5.109
 5905SOL    HW118614   6.107   2.492   5.170
 5905SOL    HW218615   6.116   2.545   5.016
 5906SOL     OW18616   4.648   1.223   5.836
 5906SOL    HW118617   4.599   1.310   5.839
 5906SOL    HW218618   4.612   1.166   5.763
 5907SOL     OW18619   1.478   3.094   5.928
 5907SOL    HW118620   1.450   3.007   5.969
 5907SOL    HW218621   1.544   3.078   5.854
 5908SOL     OW18622   4.217   4.021   6.656
 5908SOL    HW118623   4.188   4.026   6.561
 5908SOL    HW218624   4.143   3.983   6.712
 5909SOL     OW18625   6.084   5.016   4.081
 5909SOL    HW118626   6.104   5.069   4.164
 5909SOL    HW218627   5.996   4.970   4.092
 5910SOL     OW18628   3.509   4.463   0.990
 5910SOL    HW118629   3.444   4.434   0.920
 5910SOL    HW218630   3.458   4.488   1.073
 5911SOL     OW18631   6.276   0.336   6.389
 5911SOL    HW118632   6.287   0.435   6.395
 5911SOL    HW218633   6.346   0.291   6.444
 5912SOL     OW18634   0.560   3.463   5.718
 5912SOL    HW118635   0.507   3.379   5.710
 5912SOL    HW218636   0.506   3.540   5.684
 5913SOL     OW18637   1.686   2.394   4.635
 5913SOL    HW118638   1.679   2.341   4.550
 5913SOL    HW218639   1.774   2.441   4.637
 5914SOL     OW18640   1.470   5.936   0.813
 5914SOL    HW118641   1.380   5.924   0.772
 5914SOL    HW218642   1.468   6.013   0.877
 5915SOL     OW18643   5.855   3.446   4.665
 5915SOL    HW118644   5.857   3.514   4.739
 5915SOL    HW218645   5.901   3.363   4.695
 5916SOL     OW18646   3.207   0.242   6.457
 5916SOL    HW118647   3.249   0.304   6.390
 5916SOL    HW218648   3.185   0.293   6.540
 5917SOL     OW18649   3.840   3.996   2.609
 5917SOL    HW118650   3.881   3.928   2.549
 5917SOL    HW218651   3.870   3.981   2.703
 5918SOL     OW18652   2.544   2.173   3.913
 5918SOL    HW118653   2.465   2.113   3.929
 5918SOL    HW218654   2.616   2.120   3.868
 5919SOL     OW18655   1.595   1.970   6.902
 5919SOL    HW118656   1.660   2.036   6.864
 5919SOL    HW218657   1.533   1.939   6.831
 5920SOL     OW18658   2.659   5.366   0.009
 5920SOL    HW118659   2.688   5.271   0.012
 5920SOL    HW218660   2.736   5.426   0.029
 5921SOL     OW18661   3.952   5.306   5.532
 5921SOL    HW118662   4.013   5.385   5.526
 5921SOL    HW218663   3.999   5.225   5.496
 5922SOL     OW18664   6.415   4.804   1.244
 5922SOL    HW118665   6.366   4.843   1.167
 5922SOL    HW218666   6.399   4.706   1.248
 5923SOL     OW18667   0.611   0.592   3.444
 5923SOL    HW118668   0.606   0.492   3.456
 5923SOL    HW218669   0.646   0.633   3.528
 5924SOL     OW18670   6.166   1.786   4.412
 5924SOL    HW118671   6.180   1.883   4.390
 5924SOL    HW218672   6.203   1.730   4.337
 5925SOL     OW18673   6.322   6.017   0.263
 5925SOL    HW118674   6.345   6.056   0.175
 5925SOL    HW218675   6.274   6.085   0.319
 5926SOL     OW18676   3.705   5.882   2.030
 5926SOL    HW118677   3.672   5.802   1.980
 5926SOL    HW218678   3.759   5.939   1.968
 5927SOL     OW18679   2.281   5.132   1.667
 5927SOL    HW118680   2.271   5.213   1.724
 5927SOL    HW218681   2.197   5.078   1.669
 5928SOL     OW18682   0.869   6.201   1.044
 5928SOL    HW118683   0.774   6.233   1.047
 5928SOL    HW218684   0.913   6.219   1.132
 5929SOL     OW18685   0.641   6.878   5.699
 5929SOL    HW118686   0.733   6.856   5.732
 5929SOL    HW218687   0.625   6.833   5.612
 5930SOL     OW18688   6.113   1.126   5.042
 5930SOL    HW118689   6.031   1.162   5.086
 5930SOL    HW218690   6.162   1.066   5.107
 5931SOL     OW18691   5.780   4.901   0.465
 5931SOL    HW118692   5.838   4.823   0.442
 5931SOL    HW218693   5.811   4.982   0.416
 5932SOL     OW18694   2.037   0.177   0.193
 5932SOL    HW118695   2.003   0.132   0.111
 5932SOL    HW218696   1.965   0.183   0.261
 5933SOL     OW18697   6.389   3.266   3.092
 5933SOL    HW118698   6.413   3.275   2.996
 5933SOL    HW218699   6.423   3.344   3.144
 5934SOL     OW18700   4.003   3.790   2.513
 5934SOL    HW118701   4.072   3.738   2.564
 5934SOL    HW218702   3.946   3.727   2.460
 5935SOL     OW18703   3.996   3.113   2.969
 5935SOL    HW118704   3.950   3.024   2.965
 5935SOL    HW218705   4.006   3.141   3.065
 5936SOL     OW18706   6.503   6.063   6.644
 5936SOL    HW118707   6.596   6.094   6.660
 5936SOL    HW218708   6.441   6.141   6.643
 5937SOL     OW18709   1.317   4.323   0.216
 5937SOL    HW118710   1.248   4.294   0.150
 5937SOL    HW218711   1.285   4.305   0.308
 5938SOL     OW18712   2.179   4.282   0.570
 5938SOL    HW118713   2.168   4.376   0.603
 5938SOL    HW218714   2.157   4.219   0.644
 5939SOL     OW18715   1.548   1.518   2.396
 5939SOL    HW118716   1.572   1.530   2.492
 5939SOL    HW218717   1.465   1.464   2.388
 5940SOL     OW18718   3.904   5.021   3.301
 5940SOL    HW118719   3.868   5.100   3.250
 5940SOL    HW218720   3.828   4.972   3.344
 5941SOL     OW18721   6.784   3.193   2.899
 5941SOL    HW118722   6.752   3.186   2.804
 5941SOL    HW218723   6.765   3.107   2.946
 5942SOL     OW18724   7.002   1.828   4.527
 5942SOL    HW118725   6.987   1.733   4.502
 5942SOL    HW218726   6.923   1.862   4.579
 5943SOL     OW18727   1.477   4.995   0.764
 5943SOL    HW118728   1.564   4.976   0.718
 5943SOL    HW218729   1.447   4.912   0.811
 5944SOL     OW18730   5.012   2.251   3.243
 5944SOL    HW118731   5.102   2.275   3.207
 5944SOL    HW218732   4.981   2.165   3.202
 5945SOL     OW18733   6.689   5.575   6.252
 5945SOL    HW118734   6.598   5.611   6.270
 5945SOL    HW218735   6.757   5.631   6.300
 5946SOL     OW18736   3.723   2.691   5.375
 5946SOL    HW118737   3.800   2.729   5.323
 5946SOL    HW218738   3.637   2.722   5.335
 5947SOL     OW18739   4.905   3.833   1.740
 5947SOL    HW118740   4.943   3.827   1.648
 5947SOL    HW218741   4.828   3.897   1.741
 5948SOL     OW18742   3.153   5.268   3.328
 5948SOL    HW118743   3.194   5.185   3.291
 5948SOL    HW218744   3.065   5.284   3.284
 5949SOL     OW18745   4.393   4.591   2.947
 5949SOL    HW118746   4.315   4.559   3.000
 5949SOL    HW218747   4.393   4.691   2.945
 5950SOL     OW18748   6.044   2.798   4.269
 5950SOL    HW118749   6.099   2.750   4.336
 5950SOL    HW218750   6.042   2.746   4.184
 5951SOL     OW18751   2.088   0.153   4.218
 5951SOL    HW118752   2.091   0.164   4.317
 5951SOL    HW218753   2.084   0.243   4.174
 5952SOL     OW18754   0.450   5.705   4.938
 5952SOL    HW118755   0.410   5.778   4.884
 5952SOL    HW218756   0.548   5.698   4.918
 5953SOL     OW18757   1.194   3.055   6.007
 5953SOL    HW118758   1.146   3.046   5.920
 5953SOL    HW218759   1.258   2.978   6.018
 5954SOL     OW18760   1.265   5.054   6.567
 5954SOL    HW118761   1.190   4.994   6.592
 5954SOL    HW218762   1.229   5.142   6.535
 5955SOL     OW18763   5.026   5.075   2.839
 5955SOL    HW118764   4.984   5.051   2.751
 5955SOL    HW218765   5.044   4.991   2.890
 5956SOL     OW18766   0.188   2.238   6.871
 5956SOL    HW118767   0.165   2.224   6.774
 5956SOL    HW218768   0.109   2.214   6.928
 5957SOL     OW18769   4.489   6.509   5.533
 5957SOL    HW118770   4.462   6.428   5.585
 5957SOL    HW218771   4.428   6.585   5.554
 5958SOL     OW18772   0.938   5.318   2.483
 5958SOL    HW118773   0.947   5.221   2.459
 5958SOL    HW218774   1.028   5.362   2.478
 5959SOL     OW18775   1.213   0.760   6.415
 5959SOL    HW118776   1.236   0.670   6.452
 5959SOL    HW218777   1.282   0.827   6.444
 5960SOL     OW18778   3.668   6.663   5.556
 5960SOL    HW118779   3.598   6.595   5.579
 5960SOL    HW218780   3.689   6.657   5.458
 5961SOL     OW18781   2.500   0.949   5.480
 5961SOL    HW118782   2.568   0.905   5.421
 5961SOL    HW218783   2.419   0.891   5.487
 5962SOL     OW18784   5.075   3.834   2.454
 5962SOL    HW118785   5.020   3.770   2.400
 5962SOL    HW218786   5.015   3.886   2.516
 5963SOL     OW18787   4.117   3.749   1.726
 5963SOL    HW118788   4.065   3.816   1.778
 5963SOL    HW218789   4.063   3.666   1.715
 5964SOL     OW18790   1.825   3.795   5.517
 5964SOL    HW118791   1.886   3.870   5.492
 5964SOL    HW218792   1.739   3.804   5.467
 5965SOL     OW18793   2.015   1.917   3.701
 5965SOL    HW118794   2.093   1.856   3.687
 5965SOL    HW218795   1.939   1.865   3.741
 5966SOL     OW18796   2.113   5.722   3.854
 5966SOL    HW118797   2.147   5.686   3.941
 5966SOL    HW218798   2.185   5.775   3.810
 5967SOL     OW18799   4.625   5.946   2.210
 5967SOL    HW118800   4.600   5.858   2.251
 5967SOL    HW218801   4.570   5.961   2.128
 5968SOL     OW18802   0.346   1.430   3.549
 5968SOL    HW118803   0.268   1.472   3.502
 5968SOL    HW218804   0.321   1.408   3.643
 5969SOL     OW18805   5.932   2.708   2.840
 5969SOL    HW118806   5.921   2.674   2.933
 5969SOL    HW218807   6.025   2.688   2.808
 5970SOL     OW18808   1.947   3.220   3.421
 5970SOL    HW118809   1.997   3.300   3.386
 5970SOL    HW218810   1.899   3.244   3.505
 5971SOL     OW18811   2.867   6.704   3.155
 5971SOL    HW118812   2.812   6.725   3.236
 5971SOL    HW218813   2.922   6.622   3.172
 5972SOL     OW18814   5.307   0.275   1.693
 5972SOL    HW118815   5.367   0.250   1.617
 5972SOL    HW218816   5.243   0.200   1.711
 5973SOL     OW18817   1.543   4.335   3.021
 5973SOL    HW118818   1.551   4.327   3.120
 5973SOL    HW218819   1.472   4.402   2.999
 5974SOL     OW18820   1.115   3.588   6.189
 5974SOL    HW118821   1.146   3.494   6.203
 5974SOL    HW218822   1.016   3.592   6.202
 5975SOL     OW18823   2.436   2.500   6.584
 5975SOL    HW118824   2.355   2.548   6.549
 5975SOL    HW218825   2.518   2.555   6.567
 5976SOL     OW18826   3.337   2.872   4.637
 5976SOL    HW118827   3.374   2.849   4.547
 5976SOL    HW218828   3.412   2.903   4.696
 5977SOL     OW18829   0.479   3.680   3.415
 5977SOL    HW118830   0.396   3.632   3.388
 5977SOL    HW218831   0.487   3.765   3.363
 5978SOL     OW18832   4.887   5.517   2.364
 5978SOL    HW118833   4.971   5.551   2.321
 5978SOL    HW218834   4.880   5.419   2.350
 5979SOL     OW18835   0.900   1.199   1.696
 5979SOL    HW118836   0.855   1.113   1.670
 5979SOL    HW218837   0.977   1.217   1.635
 5980SOL     OW18838   6.355   3.158   6.097
 5980SOL    HW118839   6.347   3.068   6.138
 5980SOL    HW218840   6.376   3.148   5.999
 5981SOL     OW18841   4.225   2.006   1.000
 5981SOL    HW118842   4.296   2.076   1.007
 5981SOL    HW218843   4.137   2.050   0.980
 5982SOL     OW18844   6.071   2.142   0.044
 5982SOL    HW118845   6.097   2.226   0.091
 5982SOL    HW218846   5.977   2.150   0.012
 5983SOL     OW18847   1.025   0.495   4.655
 5983SOL    HW118848   0.932   0.473   4.626
 5983SOL    HW218849   1.025   0.583   4.704
 5984SOL     OW18850   0.377   6.960   5.877
 5984SOL    HW118851   0.378   6.973   5.778
 5984SOL    HW218852   0.397   6.864   5.898
 5985SOL     OW18853   5.099   3.133   4.655
 5985SOL    HW118854   5.178   3.088   4.696
 5985SOL    HW218855   5.051   3.186   4.725
 5986SOL     OW18856   3.071   3.096   2.917
 5986SOL    HW118857   3.017   3.063   2.839
 5986SOL    HW218858   3.156   3.044   2.923
 5987SOL     OW18859   5.013   0.195   5.758
 5987SOL    HW118860   4.922   0.197   5.717
 5987SOL    HW218861   5.056   0.107   5.739
 5988SOL     OW18862   3.516   0.277   5.572
 5988SOL    HW118863   3.534   0.298   5.475
 5988SOL    HW218864   3.542   0.356   5.628
 5989SOL     OW18865   2.820   1.765   0.004
 5989SOL    HW118866   2.744   1.830   7.018
 5989SOL    HW218867   2.903   1.806   6.988
 5990SOL     OW18868   3.577   5.198   2.297
 5990SOL    HW118869   3.516   5.235   2.367
 5990SOL    HW218870   3.549   5.105   2.273
 5991SOL     OW18871   2.890   5.254   3.795
 5991SOL    HW118872   2.942   5.217   3.718
 5991SOL    HW218873   2.828   5.183   3.830
 5992SOL     OW18874   4.096   2.196   4.044
 5992SOL    HW118875   4.006   2.192   4.002
 5992SOL    HW218876   4.113   2.289   4.078
 5993SOL     OW18877   3.400   5.711   3.638
 5993SOL    HW118878   3.392   5.793   3.694
 5993SOL    HW218879   3.308   5.676   3.617
 5994SOL     OW18880   6.201   1.892   1.404
 5994SOL    HW118881   6.274   1.935   1.352
 5994SOL    HW218882   6.220   1.900   1.502
 5995SOL     OW18883   1.060   4.542   1.503
 5995SOL    HW118884   0.962   4.540   1.484
 5995SOL    HW218885   1.090   4.451   1.532
 5996SOL     OW18886   1.038   5.725   5.505
 5996SOL    HW118887   1.014   5.813   5.547
 5996SOL    HW218888   0.988   5.652   5.551
 5997SOL     OW18889   0.577   0.523   1.508
 5997SOL    HW118890   0.497   0.533   1.449
 5997SOL    HW218891   0.631   0.607   1.507
 5998SOL     OW18892   4.368   2.444   3.755
 5998SOL    HW118893   4.331   2.383   3.685
 5998SOL    HW218894   4.383   2.392   3.840
 5999SOL     OW18895   2.379   2.591   3.376
 5999SOL    HW118896   2.460   2.537   3.402
 5999SOL    HW218897   2.378   2.676   3.428
 6000SOL     OW18898   4.827   0.218   3.348
 6000SOL    HW118899   4.886   0.206   3.428
 6000SOL    HW218900   4.880   0.256   3.273
 6001SOL     OW18901   6.503   2.094   0.082
 6001SOL    HW118902   6.422   2.080   0.138
 6001SOL    HW218903   6.570   2.022   0.101
 6002SOL     OW18904   1.833   0.449   1.949
 6002SOL    HW118905   1.795   0.466   1.858
 6002SOL    HW218906   1.812   0.526   2.008
 6003SOL     OW18907   5.452   4.380   3.719
 6003SOL    HW118908   5.377   4.444   3.734
 6003SOL    HW218909   5.422   4.306   3.659
 6004SOL     OW18910   0.084   3.287   1.866
 6004SOL    HW118911   0.122   3.262   1.955
 6004SOL    HW218912   0.130   3.235   1.794
 6005SOL     OW18913   2.098   6.164   2.108
 6005SOL    HW118914   2.153   6.094   2.063
 6005SOL    HW218915   2.055   6.223   2.039
 6006SOL     OW18916   2.234   5.663   0.602
 6006SOL    HW118917   2.252   5.705   0.513
 6006SOL    HW218918   2.206   5.734   0.667
 6007SOL     OW18919   5.024   3.149   4.917
 6007SOL    HW118920   5.044   3.064   4.966
 6007SOL    HW218921   5.082   3.222   4.952
 6008SOL     OW18922   4.729   3.996   1.357
 6008SOL    HW118923   4.715   3.898   1.370
 6008SOL    HW218924   4.814   4.024   1.403
 6009SOL     OW18925   4.055   1.667   4.939
 6009SOL    HW118926   4.052   1.749   4.997
 6009SOL    HW218927   3.977   1.608   4.962
 6010SOL     OW18928   1.138   4.210   3.223
 6010SOL    HW118929   1.222   4.238   3.269
 6010SOL    HW218930   1.083   4.291   3.201
 6011SOL     OW18931   6.576   2.742   2.100
 6011SOL    HW118932   6.548   2.656   2.058
 6011SOL    HW218933   6.676   2.747   2.103
 6012SOL     OW18934   0.497   2.609   1.758
 6012SOL    HW118935   0.435   2.532   1.743
 6012SOL    HW218936   0.510   2.659   1.672
 6013SOL     OW18937   5.904   0.675   2.365
 6013SOL    HW118938   5.829   0.664   2.299
 6013SOL    HW218939   5.929   0.771   2.372
 6014SOL     OW18940   6.084   0.461   1.153
 6014SOL    HW118941   6.068   0.536   1.217
 6014SOL    HW218942   6.182   0.457   1.130
 6015SOL     OW18943   5.679   0.394   4.505
 6015SOL    HW118944   5.751   0.449   4.547
 6015SOL    HW218945   5.718   0.310   4.469
 6016SOL     OW18946   2.067   6.970   5.210
 6016SOL    HW118947   1.969   6.955   5.221
 6016SOL    HW218948   2.114   6.948   5.296
 6017SOL     OW18949   0.002   3.699   2.527
 6017SOL    HW118950   6.925   3.709   2.530
 6017SOL    HW218951   0.030   3.626   2.590
 6018SOL     OW18952   2.678   5.255   1.430
 6018SOL    HW118953   2.625   5.186   1.380
 6018SOL    HW218954   2.713   5.323   1.366
 6019SOL     OW18955   5.794   6.095   3.334
 6019SOL    HW118956   5.878   6.146   3.351
 6019SOL    HW218957   5.718   6.135   3.386
 6020SOL     OW18958   2.627   6.903   2.775
 6020SOL    HW118959   2.633   7.000   2.750
 6020SOL    HW218960   2.534   6.871   2.759
 6021SOL     OW18961   3.824   0.758   4.099
 6021SOL    HW118962   3.859   0.848   4.071
 6021SOL    HW218963   3.811   0.758   4.199
 6022SOL     OW18964   4.951   1.027   5.605
 6022SOL    HW118965   4.989   1.118   5.592
 6022SOL    HW218966   4.936   1.010   5.702
 6023SOL     OW18967   0.461   2.118   2.392
 6023SOL    HW118968   0.459   2.131   2.491
 6023SOL    HW218969   0.410   2.036   2.368
 6024SOL     OW18970   0.137   5.775   2.775
 6024SOL    HW118971   0.094   5.686   2.790
 6024SOL    HW218972   0.141   5.794   2.676
 6025SOL     OW18973   4.244   2.294   2.701
 6025SOL    HW118974   4.296   2.234   2.640
 6025SOL    HW218975   4.218   2.377   2.652
 6026SOL     OW18976   0.508   4.482   5.512
 6026SOL    HW118977   0.445   4.418   5.468
 6026SOL    HW218978   0.588   4.431   5.547
 6027SOL     OW18979   3.663   3.237   0.309
 6027SOL    HW118980   3.668   3.242   0.209
 6027SOL    HW218981   3.597   3.167   0.335
 6028SOL     OW18982   1.042   4.275   0.080
 6028SOL    HW118983   0.945   4.274   0.105
 6028SOL    HW218984   1.054   4.330   7.021
 6029SOL     OW18985   0.834   4.804   1.729
 6029SOL    HW118986   0.808   4.709   1.744
 6029SOL    HW218987   0.821   4.856   1.813
 6030SOL     OW18988   1.858   6.655   1.351
 6030SOL    HW118989   1.891   6.633   1.442
 6030SOL    HW218990   1.777   6.600   1.330
 6031SOL     OW18991   5.103   0.623   4.331
 6031SOL    HW118992   5.063   0.710   4.360
 6031SOL    HW218993   5.093   0.556   4.404
 6032SOL     OW18994   0.549   3.413   2.526
 6032SOL    HW118995   0.467   3.356   2.526
 6032SOL    HW218996   0.523   3.508   2.542
 6033SOL     OW18997   0.145   6.501   4.658
 6033SOL    HW118998   0.058   6.546   4.676
 6033SOL    HW218999   0.220   6.559   4.692
 6034SOL     OW19000   2.450   4.410   5.209
 6034SOL    HW119001   2.456   4.315   5.239
 6034SOL    HW219002   2.459   4.415   5.110
 6035SOL     OW19003   5.297   7.010   3.897
 6035SOL    HW119004   5.312   0.085   3.888
 6035SOL    HW219005   5.293   6.968   3.806
 6036SOL     OW19006   0.111   0.599   4.390
 6036SOL    HW119007   0.078   0.680   4.341
 6036SOL    HW219008   0.139   0.530   4.323
 6037SOL     OW19009   0.432   5.443   4.802
 6037SOL    HW119010   0.416   5.524   4.859
 6037SOL    HW219011   0.492   5.467   4.726
 6038SOL     OW19012   5.983   3.907   6.651
 6038SOL    HW119013   6.055   3.846   6.617
 6038SOL    HW219014   5.986   3.993   6.601
 6039SOL     OW19015   4.054   3.331   4.792
 6039SOL    HW119016   4.054   3.298   4.886
 6039SOL    HW219017   3.986   3.281   4.738
 6040SOL     OW19018   1.467   1.090   1.029
 6040SOL    HW119019   1.541   1.127   0.974
 6040SOL    HW219020   1.472   1.127   1.122
 6041SOL     OW19021   0.773   2.650   0.291
 6041SOL    HW119022   0.857   2.704   0.277
 6041SOL    HW219023   0.717   2.693   0.361
 6042SOL     OW19024   5.706   5.776   4.852
 6042SOL    HW119025   5.625   5.802   4.904
 6042SOL    HW219026   5.716   5.676   4.855
 6043SOL     OW19027   6.955   4.290   4.338
 6043SOL    HW119028   6.940   4.220   4.268
 6043SOL    HW219029   0.028   4.289   4.366
 6044SOL     OW19030   1.507   0.544   1.540
 6044SOL    HW119031   1.486   0.617   1.474
 6044SOL    HW219032   1.422   0.505   1.574
 6045SOL     OW19033   6.656   4.212   0.809
 6045SOL    HW119034   6.703   4.131   0.775
 6045SOL    HW219035   6.615   4.192   0.898
 6046SOL     OW19036   2.157   3.202   0.633
 6046SOL    HW119037   2.142   3.272   0.704
 6046SOL    HW219038   2.091   3.216   0.559
 6047SOL     OW19039   0.192   6.216   4.689
 6047SOL    HW119040   0.263   6.202   4.758
 6047SOL    HW219041   0.170   6.314   4.683
 6048SOL     OW19042   4.994   6.066   4.904
 6048SOL    HW119043   4.940   6.087   4.822
 6048SOL    HW219044   4.934   6.058   4.983
 6049SOL     OW19045   6.579   5.622   0.204
 6049SOL    HW119046   6.535   5.711   0.191
 6049SOL    HW219047   6.667   5.621   0.157
 6050SOL     OW19048   5.678   4.623   5.814
 6050SOL    HW119049   5.621   4.705   5.814
 6050SOL    HW219050   5.711   4.606   5.721
 6051SOL     OW19051   2.880   1.466   3.333
 6051SOL    HW119052   2.918   1.491   3.244
 6051SOL    HW219053   2.897   1.540   3.398
 6052SOL     OW19054   6.585   1.603   0.562
 6052SOL    HW119055   6.546   1.513   0.542
 6052SOL    HW219056   6.512   1.671   0.565
 6053SOL     OW19057   1.980   0.212   6.159
 6053SOL    HW119058   1.914   0.166   6.100
 6053SOL    HW219059   2.055   0.150   6.182
 6054SOL     OW19060   1.911   4.162   6.402
 6054SOL    HW119061   1.903   4.240   6.341
 6054SOL    HW219062   1.935   4.193   6.494
 6055SOL     OW19063   5.361   0.216   3.606
 6055SOL    HW119064   5.443   0.264   3.575
 6055SOL    HW219065   5.280   0.258   3.564
 6056SOL     OW19066   5.185   3.528   6.171
 6056SOL    HW119067   5.153   3.566   6.085
 6056SOL    HW219068   5.222   3.601   6.229
 6057SOL     OW19069   3.337   0.973   6.294
 6057SOL    HW119070   3.346   0.875   6.312
 6057SOL    HW219071   3.391   1.024   6.360
 6058SOL     OW19072   5.320   1.942   4.955
 6058SOL    HW119073   5.297   1.876   4.884
 6058SOL    HW219074   5.239   1.995   4.979
 6059SOL     OW19075   6.375   6.334   6.218
 6059SOL    HW119076   6.378   6.433   6.234
 6059SOL    HW219077   6.313   6.314   6.143
 6060SOL     OW19078   3.238   6.486   6.595
 6060SOL    HW119079   3.155   6.461   6.645
 6060SOL    HW219080   3.216   6.557   6.527
 6061SOL     OW19081   1.926   1.911   0.018
 6061SOL    HW119082   1.936   1.815   0.044
 6061SOL    HW219083   2.012   1.960   0.034
 6062SOL     OW19084   1.077   0.227   3.959
 6062SOL    HW119085   1.149   0.184   4.013
 6062SOL    HW219086   1.008   0.265   4.020
 6063SOL     OW19087   5.523   5.981   0.280
 6063SOL    HW119088   5.579   5.901   0.260
 6063SOL    HW219089   5.427   5.960   0.260
 6064SOL     OW19090   0.589   5.415   2.674
 6064SOL    HW119091   0.672   5.468   2.695
 6064SOL    HW219092   0.596   5.380   2.580
 6065SOL     OW19093   5.882   6.554   1.690
 6065SOL    HW119094   5.976   6.575   1.715
 6065SOL    HW219095   5.864   6.457   1.709
 6066SOL     OW19096   4.561   1.954   6.182
 6066SOL    HW119097   4.566   1.972   6.084
 6066SOL    HW219098   4.466   1.961   6.212
 6067SOL     OW19099   4.973   2.346   6.674
 6067SOL    HW119100   4.977   2.344   6.774
 6067SOL    HW219101   4.983   2.254   6.638
 6068SOL     OW19102   5.351   1.789   5.755
 6068SOL    HW119103   5.282   1.861   5.751
 6068SOL    HW219104   5.387   1.782   5.848
 6069SOL     OW19105   5.907   4.407   4.552
 6069SOL    HW119106   6.002   4.407   4.583
 6069SOL    HW219107   5.905   4.407   4.452
 6070SOL     OW19108   4.391   2.753   6.712
 6070SOL    HW119109   4.418   2.847   6.730
 6070SOL    HW219110   4.435   2.721   6.628
 6071SOL     OW19111   5.071   6.778   5.585
 6071SOL    HW119112   5.008   6.710   5.623
 6071SOL    HW219113   5.148   6.731   5.541
 6072SOL     OW19114   0.053   1.657   0.650
 6072SOL    HW119115   6.989   1.704   0.637
 6072SOL    HW219116   0.124   1.724   0.671
 6073SOL     OW19117   6.623   1.700   1.116
 6073SOL    HW119118   6.646   1.719   1.020
 6073SOL    HW219119   6.677   1.621   1.148
 6074SOL     OW19120   0.415   0.342   5.225
 6074SOL    HW119121   0.349   0.396   5.278
 6074SOL    HW219122   0.500   0.395   5.214
 6075SOL     OW19123   4.493   4.104   6.640
 6075SOL    HW119124   4.397   4.086   6.618
 6075SOL    HW219125   4.499   4.154   6.727
 6076SOL     OW19126   2.636   0.331   4.279
 6076SOL    HW119127   2.540   0.317   4.302
 6076SOL    HW219128   2.649   0.424   4.245
 6077SOL     OW19129   5.257   5.088   2.642
 6077SOL    HW119130   5.163   5.120   2.637
 6077SOL    HW219131   5.289   5.090   2.737
 6078SOL     OW19132   2.095   4.575   3.632
 6078SOL    HW119133   2.120   4.574   3.729
 6078SOL    HW219134   2.178   4.585   3.576
 6079SOL     OW19135   2.908   1.500   0.679
 6079SOL    HW119136   2.916   1.485   0.581
 6079SOL    HW219137   2.832   1.447   0.715
 6080SOL     OW19138   5.923   2.603   3.084
 6080SOL    HW119139   5.993   2.551   3.133
 6080SOL    HW219140   5.885   2.673   3.144
 6081SOL     OW19141   0.802   3.794   2.979
 6081SOL    HW119142   0.709   3.807   3.014
 6081SOL    HW219143   0.858   3.751   3.049
 6082SOL     OW19144   3.238   1.646   4.318
 6082SOL    HW119145   3.291   1.728   4.340
 6082SOL    HW219146   3.194   1.611   4.401
 6083SOL     OW19147   1.997   6.908   0.649
 6083SOL    HW119148   2.067   6.975   0.670
 6083SOL    HW219149   1.911   6.933   0.695
 6084SOL     OW19150   0.422   5.471   5.572
 6084SOL    HW119151   0.363   5.395   5.543
 6084SOL    HW219152   0.428   5.537   5.497
 6085SOL     OW19153   5.441   5.434   1.487
 6085SOL    HW119154   5.411   5.377   1.563
 6085SOL    HW219155   5.540   5.428   1.477
 6086SOL     OW19156   2.756   1.718   2.761
 6086SOL    HW119157   2.755   1.649   2.834
 6086SOL    HW219158   2.831   1.698   2.698
 6087SOL     OW19159   3.356   0.686   0.871
 6087SOL    HW119160   3.420   0.624   0.826
 6087SOL    HW219161   3.403   0.735   0.945
 6088SOL     OW19162   0.162   0.014   5.650
 6088SOL    HW119163   0.261   0.001   5.638
 6088SOL    HW219164   0.121   6.953   5.685
 6089SOL     OW19165   6.439   3.767   0.673
 6089SOL    HW119166   6.496   3.797   0.596
 6089SOL    HW219167   6.353   3.729   0.639
 6090SOL     OW19168   0.505   5.728   3.942
 6090SOL    HW119169   0.470   5.751   3.851
 6090SOL    HW219170   0.455   5.649   3.977
 6091SOL     OW19171   6.339   2.144   1.224
 6091SOL    HW119172   6.353   2.239   1.199
 6091SOL    HW219173   6.422   2.107   1.265
 6092SOL     OW19174   1.152   3.075   0.951
 6092SOL    HW119175   1.218   3.151   0.949
 6092SOL    HW219176   1.062   3.109   0.925
 6093SOL     OW19177   1.249   3.886   0.642
 6093SOL    HW119178   1.309   3.822   0.594
 6093SOL    HW219179   1.158   3.885   0.600
 6094SOL     OW19180   0.608   1.421   0.783
 6094SOL    HW119181   0.677   1.364   0.828
 6094SOL    HW219182   0.635   1.517   0.788
 6095SOL     OW19183   6.830   3.805   5.136
 6095SOL    HW119184   6.768   3.818   5.059
 6095SOL    HW219185   6.924   3.810   5.104
 6096SOL     OW19186   4.903   1.608   2.800
 6096SOL    HW119187   4.824   1.583   2.857
 6096SOL    HW219188   4.874   1.614   2.704
 6097SOL     OW19189   3.260   2.101   2.116
 6097SOL    HW119190   3.180   2.061   2.160
 6097SOL    HW219191   3.231   2.155   2.037
 6098SOL     OW19192   1.268   0.438   6.345
 6098SOL    HW119193   1.332   0.495   6.294
 6098SOL    HW219194   1.283   0.450   6.443
 6099SOL     OW19195   5.963   4.452   5.243
 6099SOL    HW119196   5.948   4.354   5.236
 6099SOL    HW219197   6.025   4.471   5.318
 6100SOL     OW19198   6.773   2.297   6.947
 6100SOL    HW119199   6.710   2.339   7.012
 6100SOL    HW219200   6.825   2.368   6.900
 6101SOL     OW19201   6.041   7.011   3.579
 6101SOL    HW119202   5.996   0.006   3.491
 6101SOL    HW219203   6.140   7.014   3.567
 6102SOL     OW19204   3.084   6.672   5.091
 6102SOL    HW119205   3.133   6.698   5.008
 6102SOL    HW219206   3.064   6.753   5.146
 6103SOL     OW19207   5.864   1.395   5.374
 6103SOL    HW119208   5.792   1.405   5.443
 6103SOL    HW219209   5.934   1.332   5.409
 6104SOL     OW19210   1.315   3.292   0.927
 6104SOL    HW119211   1.345   3.217   0.868
 6104SOL    HW219212   1.291   3.372   0.871
 6105SOL     OW19213   3.340   4.999   4.883
 6105SOL    HW119214   3.245   4.984   4.910
 6105SOL    HW219215   3.343   5.033   4.790
 6106SOL     OW19216   2.914   4.864   4.080
 6106SOL    HW119217   2.838   4.798   4.078
 6106SOL    HW219218   2.970   4.847   4.161
 6107SOL     OW19219   2.097   5.042   5.392
 6107SOL    HW119220   2.101   5.070   5.488
 6107SOL    HW219221   2.165   4.970   5.376
 6108SOL     OW19222   5.640   1.732   4.406
 6108SOL    HW119223   5.588   1.817   4.419
 6108SOL    HW219224   5.695   1.715   4.488
 6109SOL     OW19225   6.735   3.825   1.962
 6109SOL    HW119226   6.783   3.758   2.018
 6109SOL    HW219227   6.692   3.779   1.884
 6110SOL     OW19228   3.351   2.060   3.459
 6110SOL    HW119229   3.324   1.971   3.496
 6110SOL    HW219230   3.445   2.081   3.486
 6111SOL     OW19231   0.336   4.561   3.560
 6111SOL    HW119232   0.428   4.579   3.525
 6111SOL    HW219233   0.337   4.480   3.619
 6112SOL     OW19234   1.112   2.437   0.586
 6112SOL    HW119235   1.058   2.356   0.563
 6112SOL    HW219236   1.166   2.420   0.668
 6113SOL     OW19237   1.638   5.320   5.156
 6113SOL    HW119238   1.727   5.307   5.200
 6113SOL    HW219239   1.614   5.239   5.103
 6114SOL     OW19240   5.035   4.758   0.808
 6114SOL    HW119241   5.125   4.802   0.797
 6114SOL    HW219242   5.029   4.680   0.746
 6115SOL     OW19243   6.477   4.506   2.254
 6115SOL    HW119244   6.439   4.441   2.320
 6115SOL    HW219245   6.405   4.569   2.224
 6116SOL     OW19246   3.539   2.302   1.157
 6116SOL    HW119247   3.564   2.372   1.089
 6116SOL    HW219248   3.441   2.286   1.154
 6117SOL     OW19249   5.568   6.703   4.138
 6117SOL    HW119250   5.665   6.698   4.163
 6117SOL    HW219251   5.541   6.799   4.130
 6118SOL     OW19252   6.206   0.338   3.466
 6118SOL    HW119253   6.277   0.322   3.535
 6118SOL    HW219254   6.231   0.291   3.381
 6119SOL     OW19255   5.751   5.863   4.216
 6119SOL    HW119256   5.662   5.831   4.251
 6119SOL    HW219257   5.796   5.787   4.169
 6120SOL     OW19258   2.326   1.950   3.510
 6120SOL    HW119259   2.318   1.952   3.410
 6120SOL    HW219260   2.355   2.040   3.543
 6121SOL     OW19261   6.742   1.484   4.600
 6121SOL    HW119262   6.658   1.448   4.560
 6121SOL    HW219263   6.797   1.408   4.636
 6122SOL     OW19264   3.847   6.382   4.194
 6122SOL    HW119265   3.758   6.355   4.230
 6122SOL    HW219266   3.917   6.368   4.264
 6123SOL     OW19267   5.844   1.598   2.707
 6123SOL    HW119268   5.943   1.599   2.693
 6123SOL    HW219269   5.814   1.503   2.720
 6124SOL     OW19270   2.915   0.209   4.680
 6124SOL    HW119271   2.963   0.127   4.650
 6124SOL    HW219272   2.835   0.224   4.622
 6125SOL     OW19273   0.815   4.302   2.272
 6125SOL    HW119274   0.730   4.336   2.312
 6125SOL    HW219275   0.801   4.282   2.175
 6126SOL     OW19276   3.914   6.050   2.491
 6126SOL    HW119277   3.843   6.114   2.464
 6126SOL    HW219278   3.935   6.061   2.588
 6127SOL     OW19279   2.044   4.976   1.677
 6127SOL    HW119280   2.094   4.920   1.743
 6127SOL    HW219281   1.978   4.919   1.628
 6128SOL     OW19282   5.076   3.196   1.196
 6128SOL    HW119283   4.984   3.157   1.204
 6128SOL    HW219284   5.126   3.149   1.123
 6129SOL     OW19285   6.316   3.851   3.338
 6129SOL    HW119286   6.394   3.849   3.275
 6129SOL    HW219287   6.265   3.936   3.326
 6130SOL     OW19288   5.075   4.338   2.400
 6130SOL    HW119289   5.158   4.330   2.455
 6130SOL    HW219290   4.996   4.349   2.460
 6131SOL     OW19291   6.271   1.507   4.856
 6131SOL    HW119292   6.355   1.500   4.909
 6131SOL    HW219293   6.225   1.418   4.854
 6132SOL     OW19294   6.502   2.734   0.526
 6132SOL    HW119295   6.567   2.696   0.592
 6132SOL    HW219296   6.460   2.817   0.563
 6133SOL     OW19297   1.258   4.586   0.652
 6133SOL    HW119298   1.235   4.506   0.707
 6133SOL    HW219299   1.252   4.563   0.555
 6134SOL     OW19300   4.564   3.614   7.021
 6134SOL    HW119301   4.506   3.532   7.015
 6134SOL    HW219302   4.576   3.639   0.094
 6135SOL     OW19303   5.509   0.058   2.598
 6135SOL    HW119304   5.443   0.002   2.547
 6135SOL    HW219305   5.496   0.044   2.696
 6136SOL     OW19306   0.513   1.278   2.456
 6136SOL    HW119307   0.487   1.221   2.378
 6136SOL    HW219308   0.606   1.255   2.485
 6137SOL     OW19309   3.160   0.013   6.600
 6137SOL    HW119310   3.061   0.009   6.608
 6137SOL    HW219311   3.186   0.094   6.547
 6138SOL     OW19312   5.022   0.192   3.096
 6138SOL    HW119313   5.011   0.125   3.170
 6138SOL    HW219314   5.063   0.147   3.017
 6139SOL     OW19315   2.304   6.157   3.596
 6139SOL    HW119316   2.284   6.067   3.557
 6139SOL    HW219317   2.376   6.149   3.665
 6140SOL     OW19318   1.767   5.285   1.023
 6140SOL    HW119319   1.786   5.325   1.113
 6140SOL    HW219320   1.668   5.280   1.009
 6141SOL     OW19321   6.864   5.781   5.417
 6141SOL    HW119322   6.945   5.820   5.375
 6141SOL    HW219323   6.790   5.848   5.417
 6142SOL     OW19324   0.733   4.097   3.344
 6142SOL    HW119325   0.671   4.020   3.339
 6142SOL    HW219326   0.799   4.092   3.269
 6143SOL     OW19327   6.509   4.241   6.076
 6143SOL    HW119328   6.496   4.158   6.130
 6143SOL    HW219329   6.607   4.261   6.067
 6144SOL     OW19330   0.034   4.608   4.460
 6144SOL    HW119331   0.044   4.699   4.501
 6144SOL    HW219332   0.124   4.571   4.438
 6145SOL     OW19333   5.894   5.218   3.448
 6145SOL    HW119334   5.873   5.123   3.471
 6145SOL    HW219335   5.833   5.279   3.498
 6146SOL     OW19336   5.837   2.556   3.598
 6146SOL    HW119337   5.751   2.574   3.646
 6146SOL    HW219338   5.823   2.486   3.529
 6147SOL     OW19339   1.143   4.203   2.813
 6147SOL    HW119340   1.159   4.113   2.855
 6147SOL    HW219341   1.149   4.194   2.713
 6148SOL     OW19342   6.237   5.792   2.979
 6148SOL    HW119343   6.224   5.882   2.938
 6148SOL    HW219344   6.220   5.799   3.078
 6149SOL     OW19345   1.769   6.086   4.902
 6149SOL    HW119346   1.745   5.991   4.919
 6149SOL    HW219347   1.865   6.101   4.923
 6150SOL     OW19348   4.418   6.226   5.964
 6150SOL    HW119349   4.488   6.157   5.945
 6150SOL    HW219350   4.430   6.260   6.057
 6151SOL     OW19351   4.842   0.461   5.551
 6151SOL    HW119352   4.805   0.463   5.643
 6151SOL    HW219353   4.796   0.530   5.495
 6152SOL     OW19354   6.535   4.594   5.289
 6152SOL    HW119355   6.607   4.618   5.223
 6152SOL    HW219356   6.570   4.602   5.382
 6153SOL     OW19357   4.294   4.718   6.497
 6153SOL    HW119358   4.212   4.725   6.554
 6153SOL    HW219359   4.311   4.806   6.452
 6154SOL     OW19360   5.153   3.148   3.946
 6154SOL    HW119361   5.204   3.100   3.874
 6154SOL    HW219362   5.096   3.219   3.904
 6155SOL     OW19363   2.255   4.763   4.856
 6155SOL    HW119364   2.334   4.739   4.911
 6155SOL    HW219365   2.178   4.705   4.881
 6156SOL     OW19366   5.857   0.542   4.644
 6156SOL    HW119367   5.831   0.570   4.736
 6156SOL    HW219368   5.951   0.570   4.626
 6157SOL     OW19369   0.994   1.490   3.903
 6157SOL    HW119370   1.044   1.415   3.859
 6157SOL    HW219371   0.932   1.452   3.971
 6158SOL     OW19372   5.597   6.751   0.071
 6158SOL    HW119373   5.635   6.770   7.003
 6158SOL    HW219374   5.644   6.808   0.138
 6159SOL     OW19375   4.974   3.564   6.805
 6159SOL    HW119376   5.073   3.569   6.821
 6159SOL    HW219377   4.955   3.507   6.726
 6160SOL     OW19378   6.429   4.385   0.806
 6160SOL    HW119379   6.460   4.476   0.832
 6160SOL    HW219380   6.502   4.319   0.823
 6161SOL     OW19381   6.207   0.034   6.237
 6161SOL    HW119382   6.257   0.017   6.152
 6161SOL    HW219383   6.271   0.030   6.315
 6162SOL     OW19384   5.425   4.890   4.278
 6162SOL    HW119385   5.373   4.957   4.331
 6162SOL    HW219386   5.523   4.907   4.291
 6163SOL     OW19387   6.849   4.042   2.456
 6163SOL    HW119388   6.896   4.037   2.368
 6163SOL    HW219389   6.869   3.960   2.509
 6164SOL     OW19390   4.522   2.809   0.327
 6164SOL    HW119391   4.582   2.889   0.327
 6164SOL    HW219392   4.570   2.731   0.368
 6165SOL     OW19393   3.950   0.563   1.452
 6165SOL    HW119394   4.024   0.627   1.431
 6165SOL    HW219395   3.897   0.597   1.530
 6166SOL     OW19396   3.861   1.191   0.828
 6166SOL    HW119397   3.868   1.260   0.900
 6166SOL    HW219398   3.803   1.116   0.859
 6167SOL     OW19399   6.886   5.364   3.891
 6167SOL    HW119400   6.959   5.367   3.959
 6167SOL    HW219401   6.892   5.279   3.839
 6168SOL     OW19402   0.278   3.006   1.096
 6168SOL    HW119403   0.290   3.047   1.186
 6168SOL    HW219404   0.280   3.077   1.026
 6169SOL     OW19405   2.006   4.279   1.600
 6169SOL    HW119406   2.051   4.231   1.676
 6169SOL    HW219407   2.062   4.357   1.572
 6170SOL     OW19408   6.554   1.814   3.303
 6170SOL    HW119409   6.567   1.716   3.320
 6170SOL    HW219410   6.512   1.856   3.383
 6171SOL     OW19411   6.246   1.255   5.843
 6171SOL    HW119412   6.186   1.192   5.793
 6171SOL    HW219413   6.201   1.286   5.927
 6172SOL     OW19414   1.084   4.740   4.263
 6172SOL    HW119415   1.020   4.738   4.340
 6172SOL    HW219416   1.167   4.788   4.290
 6173SOL     OW19417   5.683   6.161   3.093
 6173SOL    HW119418   5.691   6.098   3.016
 6173SOL    HW219419   5.731   6.123   3.173
 6174SOL     OW19420   6.575   2.385   2.874
 6174SOL    HW119421   6.497   2.389   2.937
 6174SOL    HW219422   6.659   2.369   2.927
 6175SOL     OW19423   3.816   1.504   6.781
 6175SOL    HW119424   3.757   1.495   6.701
 6175SOL    HW219425   3.881   1.578   6.767
 6176SOL     OW19426   2.661   4.186   6.378
 6176SOL    HW119427   2.689   4.214   6.469
 6176SOL    HW219428   2.601   4.107   6.384
 6177SOL     OW19429   5.702   5.324   1.550
 6177SOL    HW119430   5.641   5.246   1.563
 6177SOL    HW219431   5.782   5.295   1.498
 6178SOL     OW19432   3.887   4.858   2.316
 6178SOL    HW119433   3.862   4.845   2.220
 6178SOL    HW219434   3.826   4.925   2.357
 6179SOL     OW19435   5.550   5.220   5.164
 6179SOL    HW119436   5.624   5.160   5.195
 6179SOL    HW219437   5.476   5.220   5.231
 6180SOL     OW19438   2.071   3.973   6.352
 6180SOL    HW119439   2.034   3.881   6.361
 6180SOL    HW219440   1.998   4.040   6.364
 6181SOL     OW19441   6.127   6.291   0.010
 6181SOL    HW119442   6.137   6.385   7.002
 6181SOL    HW219443   6.202   6.236   6.998
 6182SOL     OW19444   2.811   2.428   6.776
 6182SOL    HW119445   2.755   2.490   6.831
 6182SOL    HW219446   2.780   2.334   6.791
 6183SOL     OW19447   0.219   0.843   0.436
 6183SOL    HW119448   0.181   0.919   0.489
 6183SOL    HW219449   0.246   0.877   0.346
 6184SOL     OW19450   3.293   6.788   5.339
 6184SOL    HW119451   3.334   6.840   5.414
 6184SOL    HW219452   3.211   6.834   5.307
 6185SOL     OW19453   3.649   3.072   5.245
 6185SOL    HW119454   3.563   3.116   5.219
 6185SOL    HW219455   3.706   3.137   5.295
 6186SOL     OW19456   1.324   2.295   2.715
 6186SOL    HW119457   1.332   2.375   2.775
 6186SOL    HW219458   1.306   2.325   2.621
 6187SOL     OW19459   3.326   1.806   6.446
 6187SOL    HW119460   3.356   1.859   6.367
 6187SOL    HW219461   3.227   1.812   6.455
 6188SOL     OW19462   2.002   1.579   5.682
 6188SOL    HW119463   2.012   1.636   5.763
 6188SOL    HW219464   1.994   1.483   5.709
 6189SOL     OW19465   6.701   5.006   0.176
 6189SOL    HW119466   6.609   5.008   0.215
 6189SOL    HW219467   6.738   5.098   0.172
 6190SOL     OW19468   0.444   2.567   3.734
 6190SOL    HW119469   0.426   2.636   3.664
 6190SOL    HW219470   0.471   2.612   3.819
 6191SOL     OW19471   2.505   4.067   0.618
 6191SOL    HW119472   2.509   4.167   0.612
 6191SOL    HW219473   2.426   4.034   0.567
 6192SOL     OW19474   3.118   1.685   1.525
 6192SOL    HW119475   3.036   1.630   1.541
 6192SOL    HW219476   3.150   1.671   1.431
 6193SOL     OW19477   4.065   5.927   6.867
 6193SOL    HW119478   4.097   6.012   6.909
 6193SOL    HW219479   4.068   5.853   6.935
 6194SOL     OW19480   5.376   0.148   6.153
 6194SOL    HW119481   5.334   0.096   6.079
 6194SOL    HW219482   5.349   0.108   6.241
 6195SOL     OW19483   4.958   5.811   5.785
 6195SOL    HW119484   4.866   5.822   5.822
 6195SOL    HW219485   4.952   5.791   5.687
 6196SOL     OW19486   6.189   3.470   3.348
 6196SOL    HW119487   6.259   3.447   3.416
 6196SOL    HW219488   6.171   3.390   3.291
 6197SOL     OW19489   1.129   5.062   1.121
 6197SOL    HW119490   1.216   5.039   1.165
 6197SOL    HW219491   1.055   5.011   1.164
 6198SOL     OW19492   6.038   1.333   6.588
 6198SOL    HW119493   6.096   1.411   6.613
 6198SOL    HW219494   6.096   1.257   6.559
 6199SOL     OW19495   2.433   0.000   6.210
 6199SOL    HW119496   2.495   6.966   6.263
 6199SOL    HW219497   2.391   6.969   6.137
 6200SOL     OW19498   1.293   0.147   0.734
 6200SOL    HW119499   1.368   0.138   0.669
 6200SOL    HW219500   1.277   0.059   0.779
 6201SOL     OW19501   0.165   5.427   3.730
 6201SOL    HW119502   0.136   5.335   3.701
 6201SOL    HW219503   0.100   5.495   3.696
 6202SOL     OW19504   5.712   0.675   2.171
 6202SOL    HW119505   5.750   0.717   2.089
 6202SOL    HW219506   5.612   0.672   2.164
 6203SOL     OW19507   6.308   0.968   1.931
 6203SOL    HW119508   6.392   0.919   1.955
 6203SOL    HW219509   6.229   0.916   1.962
 6204SOL     OW19510   1.031   5.768   4.806
 6204SOL    HW119511   0.950   5.712   4.823
 6204SOL    HW219512   1.062   5.754   4.712
 6205SOL     OW19513   5.927   4.580   3.377
 6205SOL    HW119514   5.901   4.576   3.473
 6205SOL    HW219515   6.014   4.532   3.364
 6206SOL     OW19516   5.555   2.007   3.520
 6206SOL    HW119517   5.580   2.094   3.564
 6206SOL    HW219518   5.547   2.021   3.421
 6207SOL     OW19519   1.782   5.764   3.463
 6207SOL    HW119520   1.720   5.686   3.453
 6207SOL    HW219521   1.876   5.734   3.447
 6208SOL     OW19522   4.049   4.530   6.660
 6208SOL    HW119523   4.100   4.470   6.721
 6208SOL    HW219524   4.017   4.478   6.581
 6209SOL     OW19525   3.510   1.379   1.836
 6209SOL    HW119526   3.423   1.403   1.881
 6209SOL    HW219527   3.586   1.419   1.888
 6210SOL     OW19528   5.666   1.202   4.060
 6210SOL    HW119529   5.763   1.220   4.077
 6210SOL    HW219530   5.643   1.227   3.966
 6211SOL     OW19531   5.152   3.403   5.201
 6211SOL    HW119532   5.132   3.474   5.134
 6211SOL    HW219533   5.068   3.381   5.251
 6212SOL     OW19534   5.018   4.500   5.138
 6212SOL    HW119535   5.014   4.523   5.041
 6212SOL    HW219536   4.953   4.426   5.157
 6213SOL     OW19537   5.086   6.138   0.575
 6213SOL    HW119538   5.036   6.092   0.649
 6213SOL    HW219539   5.058   6.099   0.487
 6214SOL     OW19540   6.395   7.008   6.415
 6214SOL    HW119541   6.399   0.038   6.500
 6214SOL    HW219542   6.485   6.971   6.393
 6215SOL     OW19543   5.678   1.923   5.261
 6215SOL    HW119544   5.663   1.901   5.165
 6215SOL    HW219545   5.638   1.852   5.319
 6216SOL     OW19546   5.072   2.027   5.299
 6216SOL    HW119547   5.074   2.018   5.199
 6216SOL    HW219548   5.117   2.112   5.326
 6217SOL     OW19549   6.988   4.393   2.504
 6217SOL    HW119550   0.024   4.313   2.517
 6217SOL    HW219551   6.989   4.420   2.408
 6218SOL     OW19552   4.774   6.606   0.824
 6218SOL    HW119553   4.831   6.672   0.775
 6218SOL    HW219554   4.705   6.569   0.762
 6219SOL     OW19555   2.278   0.361   6.949
 6219SOL    HW119556   2.348   0.404   6.892
 6219SOL    HW219557   2.246   0.427   7.018
 6220SOL     OW19558   3.424   6.811   2.127
 6220SOL    HW119559   3.516   6.774   2.119
 6220SOL    HW219560   3.371   6.756   2.191
 6221SOL     OW19561   4.624   5.516   5.388
 6221SOL    HW119562   4.652   5.515   5.484
 6221SOL    HW219563   4.535   5.560   5.379
 6222SOL     OW19564   6.283   1.300   2.274
 6222SOL    HW119565   6.193   1.301   2.316
 6222SOL    HW219566   6.278   1.253   2.186
 6223SOL     OW19567   6.733   5.026   4.594
 6223SOL    HW119568   6.727   5.064   4.686
 6223SOL    HW219569   6.649   4.975   4.574
 6224SOL     OW19570   4.282   6.633   0.373
 6224SOL    HW119571   4.354   6.644   0.441
 6224SOL    HW219572   4.255   6.722   0.338
 6225SOL     OW19573   4.991   6.186   6.216
 6225SOL    HW119574   5.048   6.162   6.137
 6225SOL    HW219575   4.984   6.107   6.277
 6226SOL     OW19576   0.870   0.959   3.631
 6226SOL    HW119577   0.784   0.954   3.580
 6226SOL    HW219578   0.852   0.988   3.725
 6227SOL     OW19579   2.345   5.083   5.805
 6227SOL    HW119580   2.328   5.015   5.877
 6227SOL    HW219581   2.405   5.155   5.840
 6228SOL     OW19582   0.744   3.452   3.780
 6228SOL    HW119583   0.839   3.483   3.778
 6228SOL    HW219584   0.697   3.485   3.698
 6229SOL     OW19585   0.440   4.290   4.304
 6229SOL    HW119586   0.536   4.292   4.332
 6229SOL    HW219587   0.434   4.278   4.205
 6230SOL     OW19588   0.693   0.859   1.734
 6230SOL    HW119589   0.627   0.913   1.784
 6230SOL    HW219590   0.659   0.765   1.724
 6231SOL     OW19591   2.126   5.447   5.945
 6231SOL    HW119592   2.181   5.417   5.867
 6231SOL    HW219593   2.030   5.452   5.917
 6232SOL     OW19594   4.407   0.187   6.676
 6232SOL    HW119595   4.456   0.123   6.617
 6232SOL    HW219596   4.325   0.219   6.630
 6233SOL     OW19597   0.009   3.850   1.296
 6233SOL    HW119598   0.012   3.929   1.235
 6233SOL    HW219599   0.094   3.797   1.287
 6234SOL     OW19600   5.007   5.744   3.732
 6234SOL    HW119601   4.926   5.775   3.681
 6234SOL    HW219602   5.012   5.793   3.818
 6235SOL     OW19603   0.668   0.763   2.033
 6235SOL    HW119604   0.749   0.819   2.016
 6235SOL    HW219605   0.625   0.740   1.945
 6236SOL     OW19606   6.888   6.042   1.341
 6236SOL    HW119607   6.814   5.994   1.294
 6236SOL    HW219608   6.852   6.087   1.423
 6237SOL     OW19609   3.798   1.126   2.575
 6237SOL    HW119610   3.820   1.053   2.641
 6237SOL    HW219611   3.720   1.098   2.520
 6238SOL     OW19612   2.724   0.508   3.643
 6238SOL    HW119613   2.694   0.600   3.670
 6238SOL    HW219614   2.658   0.440   3.674
 6239SOL     OW19615   4.441   1.392   4.382
 6239SOL    HW119616   4.412   1.298   4.364
 6239SOL    HW219617   4.387   1.430   4.457
 6240SOL     OW19618   3.833   3.122   4.581
 6240SOL    HW119619   3.765   3.049   4.574
 6240SOL    HW219620   3.818   3.174   4.666
 6241SOL     OW19621   3.834   0.185   3.750
 6241SOL    HW119622   3.820   0.169   3.652
 6241SOL    HW219623   3.843   0.283   3.767
 6242SOL     OW19624   3.076   2.198   4.452
 6242SOL    HW119625   3.135   2.171   4.528
 6242SOL    HW219626   2.989   2.230   4.487
 6243SOL     OW19627   4.351   1.219   0.334
 6243SOL    HW119628   4.413   1.292   0.305
 6243SOL    HW219629   4.331   1.159   0.257
 6244SOL     OW19630   4.352   2.316   2.303
 6244SOL    HW119631   4.425   2.252   2.282
 6244SOL    HW219632   4.381   2.378   2.376
 6245SOL     OW19633   6.865   5.205   1.868
 6245SOL    HW119634   6.932   5.135   1.892
 6245SOL    HW219635   6.789   5.203   1.933
 6246SOL     OW19636   0.820   6.455   5.178
 6246SOL    HW119637   0.873   6.429   5.097
 6246SOL    HW219638   0.765   6.536   5.157
 6247SOL     OW19639   5.676   5.147   3.010
 6247SOL    HW119640   5.690   5.075   3.077
 6247SOL    HW219641   5.764   5.185   2.982
 6248SOL     OW19642   4.536   2.562   5.493
 6248SOL    HW119643   4.512   2.634   5.428
 6248SOL    HW219644   4.601   2.598   5.560
 6249SOL     OW19645   5.868   3.260   3.463
 6249SOL    HW119646   5.782   3.312   3.466
 6249SOL    HW219647   5.879   3.219   3.372
 6250SOL     OW19648   5.562   0.082   5.927
 6250SOL    HW119649   5.615   0.055   6.007
 6250SOL    HW219650   5.480   0.025   5.920
 6251SOL     OW19651   2.740   0.656   4.412
 6251SOL    HW119652   2.726   0.749   4.379
 6251SOL    HW219653   2.789   0.603   4.343
 6252SOL     OW19654   3.376   5.352   0.824
 6252SOL    HW119655   3.467   5.321   0.796
 6252SOL    HW219656   3.333   5.400   0.748
 6253SOL     OW19657   4.923   6.020   4.083
 6253SOL    HW119658   4.989   5.955   4.045
 6253SOL    HW219659   4.860   5.971   4.144
 6254SOL     OW19660   0.824   0.237   1.612
 6254SOL    HW119661   0.745   0.239   1.550
 6254SOL    HW219662   0.792   0.224   1.706
 6255SOL     OW19663   1.890   0.997   0.894
 6255SOL    HW119664   1.968   1.059   0.897
 6255SOL    HW219665   1.826   1.027   0.823
 6256SOL     OW19666   6.196   5.360   2.211
 6256SOL    HW119667   6.194   5.272   2.258
 6256SOL    HW219668   6.102   5.389   2.191
 6257SOL     OW19669   3.749   3.452   0.897
 6257SOL    HW119670   3.747   3.429   0.799
 6257SOL    HW219671   3.828   3.511   0.916
 6258SOL     OW19672   4.070   5.245   5.108
 6258SOL    HW119673   4.036   5.296   5.030
 6258SOL    HW219674   4.040   5.150   5.101
 6259SOL     OW19675   4.373   0.935   4.895
 6259SOL    HW119676   4.373   0.860   4.961
 6259SOL    HW219677   4.417   0.906   4.811
 6260SOL     OW19678   3.217   2.105   0.867
 6260SOL    HW119679   3.132   2.123   0.817
 6260SOL    HW219680   3.220   2.161   0.950
 6261SOL     OW19681   3.909   0.128   0.877
 6261SOL    HW119682   3.950   0.072   0.805
 6261SOL    HW219683   3.869   0.070   0.947
 6262SOL     OW19684   6.060   1.068   2.586
 6262SOL    HW119685   6.111   0.987   2.558
 6262SOL    HW219686   6.010   1.048   2.670
 6263SOL     OW19687   6.202   6.124   6.335
 6263SOL    HW119688   6.277   6.180   6.299
 6263SOL    HW219689   6.236   6.033   6.356
 6264SOL     OW19690   0.868   5.995   0.645
 6264SOL    HW119691   0.950   6.002   0.589
 6264SOL    HW219692   0.789   5.977   0.587
 6265SOL     OW19693   4.133   6.882   6.548
 6265SOL    HW119694   4.154   6.970   6.505
 6265SOL    HW219695   4.132   6.810   6.478
 6266SOL     OW19696   3.326   5.441   3.048
 6266SOL    HW119697   3.422   5.435   3.074
 6266SOL    HW219698   3.271   5.381   3.106
 6267SOL     OW19699   0.518   6.092   4.358
 6267SOL    HW119700   0.590   6.079   4.426
 6267SOL    HW219701   0.429   6.087   4.402
 6268SOL     OW19702   3.913   1.814   1.092
 6268SOL    HW119703   3.960   1.892   1.050
 6268SOL    HW219704   3.814   1.828   1.087
 6269SOL     OW19705   6.778   6.180   0.052
 6269SOL    HW119706   6.755   6.094   0.097
 6269SOL    HW219707   6.698   6.240   0.054
 6270SOL     OW19708   1.226   6.174   0.811
 6270SOL    HW119709   1.221   6.233   0.892
 6270SOL    HW219710   1.186   6.222   0.733
 6271SOL     OW19711   6.995   3.083   5.801
 6271SOL    HW119712   0.023   3.163   5.770
 6271SOL    HW219713   6.924   3.111   5.865
 6272SOL     OW19714   0.699   1.113   0.073
 6272SOL    HW119715   0.756   1.152   0.001
 6272SOL    HW219716   0.643   1.186   0.114
 6273SOL     OW19717   0.293   6.504   3.033
 6273SOL    HW119718   0.301   6.410   3.001
 6273SOL    HW219719   0.384   6.545   3.039
 6274SOL     OW19720   2.790   6.450   3.950
 6274SOL    HW119721   2.832   6.474   4.037
 6274SOL    HW219722   2.713   6.511   3.931
 6275SOL     OW19723   2.575   5.807   0.514
 6275SOL    HW119724   2.642   5.841   0.448
 6275SOL    HW219725   2.484   5.808   0.474
 6276SOL     OW19726   2.038   5.326   2.680
 6276SOL    HW119727   1.964   5.333   2.747
 6276SOL    HW219728   2.021   5.389   2.605
 6277SOL     OW19729   5.087   2.476   1.114
 6277SOL    HW119730   5.166   2.417   1.130
 6277SOL    HW219731   5.076   2.539   1.191
 6278SOL     OW19732   3.751   2.432   0.346
 6278SOL    HW119733   3.792   2.424   0.255
 6278SOL    HW219734   3.775   2.352   0.401
 6279SOL     OW19735   1.967   6.566   2.020
 6279SOL    HW119736   2.019   6.642   1.981
 6279SOL    HW219737   1.886   6.601   2.067
 6280SOL     OW19738   5.089   0.978   6.614
 6280SOL    HW119739   5.182   0.943   6.625
 6280SOL    HW219740   5.090   1.078   6.620
 6281SOL     OW19741   4.976   4.236   6.043
 6281SOL    HW119742   4.910   4.252   5.970
 6281SOL    HW219743   4.932   4.255   6.131
 6282SOL     OW19744   0.860   3.746   5.766
 6282SOL    HW119745   0.842   3.753   5.864
 6282SOL    HW219746   0.860   3.650   5.739
 6283SOL     OW19747   2.501   0.412   4.668
 6283SOL    HW119748   2.569   0.342   4.648
 6283SOL    HW219749   2.516   0.447   4.760
 6284SOL     OW19750   1.850   3.203   5.971
 6284SOL    HW119751   1.790   3.177   6.046
 6284SOL    HW219752   1.856   3.303   5.966
 6285SOL     OW19753   0.839   4.037   2.865
 6285SOL    HW119754   0.810   3.948   2.900
 6285SOL    HW219755   0.907   4.024   2.792
 6286SOL     OW19756   0.984   2.410   6.672
 6286SOL    HW119757   0.954   2.315   6.676
 6286SOL    HW219758   1.052   2.421   6.599
 6287SOL     OW19759   4.482   4.798   4.534
 6287SOL    HW119760   4.409   4.743   4.575
 6287SOL    HW219761   4.477   4.891   4.571
 6288SOL     OW19762   3.164   3.707   6.135
 6288SOL    HW119763   3.120   3.655   6.061
 6288SOL    HW219764   3.124   3.798   6.140
 6289SOL     OW19765   2.474   4.714   4.997
 6289SOL    HW119766   2.546   4.745   4.935
 6289SOL    HW219767   2.513   4.689   5.085
 6290SOL     OW19768   6.711   6.849   3.537
 6290SOL    HW119769   6.795   6.833   3.484
 6290SOL    HW219770   6.706   6.784   3.612
 6291SOL     OW19771   3.287   3.782   1.939
 6291SOL    HW119772   3.231   3.717   1.990
 6291SOL    HW219773   3.243   3.872   1.940
 6292SOL     OW19774   1.593   4.263   4.464
 6292SOL    HW119775   1.514   4.280   4.405
 6292SOL    HW219776   1.656   4.341   4.459
 6293SOL     OW19777   2.675   1.384   6.594
 6293SOL    HW119778   2.669   1.352   6.499
 6293SOL    HW219779   2.585   1.376   6.638
 6294SOL     OW19780   1.973   1.400   2.209
 6294SOL    HW119781   2.025   1.316   2.225
 6294SOL    HW219782   1.940   1.402   2.115
 6295SOL     OW19783   4.648   3.441   6.195
 6295SOL    HW119784   4.589   3.482   6.265
 6295SOL    HW219785   4.591   3.399   6.124
 6296SOL     OW19786   0.232   3.007   0.170
 6296SOL    HW119787   0.169   2.976   0.241
 6296SOL    HW219788   0.183   3.066   0.106
 6297SOL     OW19789   6.728   1.113   4.134
 6297SOL    HW119790   6.674   1.052   4.190
 6297SOL    HW219791   6.797   1.061   4.084
 6298SOL     OW19792   0.052   6.770   6.961
 6298SOL    HW119793   0.038   6.777   0.036
 6298SOL    HW219794   0.148   6.790   6.940
 6299SOL     OW19795   3.321   2.143   4.041
 6299SOL    HW119796   3.375   2.172   3.963
 6299SOL    HW219797   3.382   2.115   4.116
 6300SOL     OW19798   2.973   2.079   1.078
 6300SOL    HW119799   2.999   2.109   1.170
 6300SOL    HW219800   3.007   1.986   1.063
 6301SOL     OW19801   4.050   6.491   0.384
 6301SOL    HW119802   4.117   6.564   0.397
 6301SOL    HW219803   4.082   6.408   0.429
 6302SOL     OW19804   1.660   3.486   0.289
 6302SOL    HW119805   1.648   3.397   0.244
 6302SOL    HW219806   1.661   3.558   0.220
 6303SOL     OW19807   6.846   4.985   4.303
 6303SOL    HW119808   6.803   5.015   4.388
 6303SOL    HW219809   6.852   5.063   4.240
 6304SOL     OW19810   2.337   1.037   3.760
 6304SOL    HW119811   2.392   1.029   3.842
 6304SOL    HW219812   2.386   1.091   3.691
 6305SOL     OW19813   0.733   5.362   5.671
 6305SOL    HW119814   0.709   5.334   5.578
 6305SOL    HW219815   0.651   5.362   5.728
 6306SOL     OW19816   1.048   4.363   4.314
 6306SOL    HW119817   1.084   4.423   4.242
 6306SOL    HW219818   1.118   4.351   4.385
 6307SOL     OW19819   3.388   3.236   2.765
 6307SOL    HW119820   3.465   3.276   2.716
 6307SOL    HW219821   3.419   3.156   2.816
 6308SOL     OW19822   1.365   1.963   0.879
 6308SOL    HW119823   1.303   1.886   0.871
 6308SOL    HW219824   1.351   2.025   0.802
 6309SOL     OW19825   2.267   5.702   4.997
 6309SOL    HW119826   2.210   5.776   5.032
 6309SOL    HW219827   2.339   5.681   5.062
 6310SOL     OW19828   0.319   0.027   3.435
 6310SOL    HW119829   0.231   7.013   3.405
 6310SOL    HW219830   0.369   6.978   3.485
 6311SOL     OW19831   6.584   1.404   6.742
 6311SOL    HW119832   6.518   1.443   6.678
 6311SOL    HW219833   6.611   1.313   6.711
 6312SOL     OW19834   3.560   5.402   1.168
 6312SOL    HW119835   3.508   5.316   1.160
 6312SOL    HW219836   3.527   5.467   1.100
 6313SOL     OW19837   5.671   4.746   3.896
 6313SOL    HW119838   5.579   4.752   3.933
 6313SOL    HW219839   5.670   4.688   3.814
 6314SOL     OW19840   2.186   6.957   3.342
 6314SOL    HW119841   2.156   6.948   3.437
 6314SOL    HW219842   2.283   6.934   3.335
 6315SOL     OW19843   2.830   2.244   3.181
 6315SOL    HW119844   2.796   2.166   3.129
 6315SOL    HW219845   2.784   2.327   3.149
 6316SOL     OW19846   4.458   0.466   5.012
 6316SOL    HW119847   4.476   0.443   5.108
 6316SOL    HW219848   4.368   0.430   4.987
 6317SOL     OW19849   4.620   4.661   2.715
 6317SOL    HW119850   4.640   4.751   2.754
 6317SOL    HW219851   4.538   4.624   2.757
 6318SOL     OW19852   6.299   6.930   7.016
 6318SOL    HW119853   6.243   6.945   0.074
 6318SOL    HW219854   6.317   7.017   6.970
 6319SOL     OW19855   4.835   2.086   4.406
 6319SOL    HW119856   4.913   2.111   4.348
 6319SOL    HW219857   4.759   2.149   4.389
 6320SOL     OW19858   6.373   1.305   6.183
 6320SOL    HW119859   6.470   1.280   6.184
 6320SOL    HW219860   6.361   1.392   6.136
 6321SOL     OW19861   0.508   3.609   0.407
 6321SOL    HW119862   0.462   3.692   0.376
 6321SOL    HW219863   0.555   3.566   0.330
 6322SOL     OW19864   1.421   1.911   2.899
 6322SOL    HW119865   1.349   1.852   2.935
 6322SOL    HW219866   1.503   1.857   2.882
 6323SOL     OW19867   2.057   5.929   1.364
 6323SOL    HW119868   1.991   5.967   1.429
 6323SOL    HW219869   2.142   5.908   1.412
 6324SOL     OW19870   4.798   2.839   1.115
 6324SOL    HW119871   4.835   2.844   1.022
 6324SOL    HW219872   4.700   2.817   1.110
 6325SOL     OW19873   1.335   3.658   3.493
 6325SOL    HW119874   1.406   3.667   3.563
 6325SOL    HW219875   1.299   3.749   3.472
 6326SOL     OW19876   4.893   5.237   5.524
 6326SOL    HW119877   4.969   5.194   5.475
 6326SOL    HW219878   4.808   5.221   5.474
 6327SOL     OW19879   0.607   0.831   2.655
 6327SOL    HW119880   0.701   0.862   2.641
 6327SOL    HW219881   0.546   0.878   2.591
 6328SOL     OW19882   4.105   3.620   5.548
 6328SOL    HW119883   4.107   3.688   5.621
 6328SOL    HW219884   4.152   3.657   5.468
 6329SOL     OW19885   0.465   3.209   5.128
 6329SOL    HW119886   0.399   3.134   5.116
 6329SOL    HW219887   0.550   3.186   5.081
 6330SOL     OW19888   4.152   2.070   3.488
 6330SOL    HW119889   4.179   2.163   3.512
 6330SOL    HW219890   4.234   2.016   3.468
 6331SOL     OW19891   1.614   3.767   3.896
 6331SOL    HW119892   1.695   3.758   3.954
 6331SOL    HW219893   1.596   3.863   3.879
 6332SOL     OW19894   4.324   1.612   0.348
 6332SOL    HW119895   4.403   1.551   0.355
 6332SOL    HW219896   4.289   1.609   0.254
 6333SOL     OW19897   5.963   0.834   0.645
 6333SOL    HW119898   5.867   0.835   0.672
 6333SOL    HW219899   5.998   0.740   0.652
 6334SOL     OW19900   2.468   1.279   1.879
 6334SOL    HW119901   2.448   1.329   1.794
 6334SOL    HW219902   2.382   1.247   1.920
 6335SOL     OW19903   6.780   3.482   5.788
 6335SOL    HW119904   6.686   3.468   5.819
 6335SOL    HW219905   6.780   3.546   5.710
 6336SOL     OW19906   1.241   4.324   5.335
 6336SOL    HW119907   1.215   4.390   5.406
 6336SOL    HW219908   1.279   4.242   5.379
 6337SOL     OW19909   5.960   6.932   4.970
 6337SOL    HW119910   5.860   6.932   4.970
 6337SOL    HW219911   5.994   7.018   5.008
 6338SOL     OW19912   0.842   0.488   2.674
 6338SOL    HW119913   0.786   0.513   2.753
 6338SOL    HW219914   0.901   0.566   2.649
 6339SOL     OW19915   0.247   3.552   3.333
 6339SOL    HW119916   0.190   3.476   3.365
 6339SOL    HW219917   0.189   3.619   3.286
 6340SOL     OW19918   2.809   5.233   6.559
 6340SOL    HW119919   2.796   5.157   6.495
 6340SOL    HW219920   2.722   5.281   6.572
 6341SOL     OW19921   0.357   4.594   2.784
 6341SOL    HW119922   0.377   4.509   2.832
 6341SOL    HW219923   0.263   4.622   2.803
 6342SOL     OW19924   2.230   0.683   1.679
 6342SOL    HW119925   2.171   0.743   1.732
 6342SOL    HW219926   2.256   0.729   1.594
 6343SOL     OW19927   1.595   5.353   6.893
 6343SOL    HW119928   1.505   5.310   6.895
 6343SOL    HW219929   1.609   5.407   6.976
 6344SOL     OW19930   1.414   1.766   4.603
 6344SOL    HW119931   1.321   1.730   4.610
 6344SOL    HW219932   1.411   1.866   4.608
 6345SOL     OW19933   6.783   2.840   3.136
 6345SOL    HW119934   6.798   2.860   3.039
 6345SOL    HW219935   6.870   2.817   3.179
 6346SOL     OW19936   0.555   4.844   4.467
 6346SOL    HW119937   0.468   4.866   4.423
 6346SOL    HW219938   0.567   4.744   4.470
 6347SOL     OW19939   1.998   2.402   3.697
 6347SOL    HW119940   2.041   2.465   3.762
 6347SOL    HW219941   2.041   2.312   3.704
 6348SOL     OW19942   0.971   2.817   6.761
 6348SOL    HW119943   0.940   2.911   6.746
 6348SOL    HW219944   0.913   2.754   6.710
 6349SOL     OW19945   5.987   1.077   0.924
 6349SOL    HW119946   5.952   1.135   0.851
 6349SOL    HW219947   5.919   1.070   0.997
 6350SOL     OW19948   0.744   6.132   1.301
 6350SOL    HW119949   0.780   6.068   1.233
 6350SOL    HW219950   0.644   6.127   1.302
 6351SOL     OW19951   5.942   2.741   1.887
 6351SOL    HW119952   5.893   2.786   1.813
 6351SOL    HW219953   5.989   2.809   1.943
 6352SOL     OW19954   4.404   0.684   4.344
 6352SOL    HW119955   4.461   0.684   4.426
 6352SOL    HW219956   4.392   0.590   4.312
 6353SOL     OW19957   3.599   6.784   6.076
 6353SOL    HW119958   3.536   6.810   6.148
 6353SOL    HW219959   3.583   6.841   5.995
 6354SOL     OW19960   5.249   4.929   2.437
 6354SOL    HW119961   5.261   4.984   2.520
 6354SOL    HW219962   5.228   4.988   2.360
 6355SOL     OW19963   4.633   6.066   0.431
 6355SOL    HW119964   4.707   6.087   0.495
 6355SOL    HW219965   4.646   5.974   0.394
 6356SOL     OW19966   6.704   6.707   6.296
 6356SOL    HW119967   6.801   6.728   6.290
 6356SOL    HW219968   6.689   6.610   6.276
 6357SOL     OW19969   4.877   2.040   3.140
 6357SOL    HW119970   4.935   1.967   3.104
 6357SOL    HW219971   4.785   2.030   3.103
 6358SOL     OW19972   1.096   1.811   4.517
 6358SOL    HW119973   1.144   1.787   4.433
 6358SOL    HW219974   1.024   1.878   4.497
 6359SOL     OW19975   6.007   5.024   1.137
 6359SOL    HW119976   6.014   5.114   1.180
 6359SOL    HW219977   5.936   4.971   1.183
 6360SOL     OW19978   2.064   3.071   1.001
 6360SOL    HW119979   2.100   3.120   1.080
 6360SOL    HW219980   1.966   3.087   0.993
 6361SOL     OW19981   0.294   1.906   2.386
 6361SOL    HW119982   0.264   1.839   2.318
 6361SOL    HW219983   0.222   1.920   2.453
 6362SOL     OW19984   1.386   4.972   0.452
 6362SOL    HW119985   1.297   4.929   0.467
 6362SOL    HW219986   1.414   5.018   0.536
 6363SOL     OW19987   0.908   2.384   1.686
 6363SOL    HW119988   0.968   2.337   1.751
 6363SOL    HW219989   0.945   2.375   1.594
 6364SOL     OW19990   3.113   1.140   4.037
 6364SOL    HW119991   3.052   1.063   4.057
 6364SOL    HW219992   3.062   1.212   3.991
 6365SOL     OW19993   6.657   6.928   2.928
 6365SOL    HW119994   6.685   6.934   2.833
 6365SOL    HW219995   6.731   6.890   2.983
 6366SOL     OW19996   5.883   1.547   5.054
 6366SOL    HW119997   5.914   1.641   5.067
 6366SOL    HW219998   5.930   1.487   5.119
 6367SOL     OW19999   0.875   2.425   4.583
 6367SOL    HW120000   0.922   2.495   4.636
 6367SOL    HW220001   0.942   2.365   4.539
 6368SOL     OW20002   5.082   3.574   5.016
 6368SOL    HW120003   4.982   3.580   5.011
 6368SOL    HW220004   5.119   3.662   5.043
 6369SOL     OW20005   3.480   4.088   0.844
 6369SOL    HW120006   3.567   4.084   0.794
 6369SOL    HW220007   3.495   4.060   0.938
 6370SOL     OW20008   5.914   4.220   4.871
 6370SOL    HW120009   5.821   4.257   4.881
 6370SOL    HW220010   5.970   4.251   4.948
 6371SOL     OW20011   5.853   3.950   0.694
 6371SOL    HW120012   5.953   3.953   0.695
 6371SOL    HW220013   5.817   4.043   0.689
 6372SOL     OW20014   6.686   1.595   0.842
 6372SOL    HW120015   6.770   1.541   0.856
 6372SOL    HW220016   6.656   1.585   0.748
 6373SOL     OW20017   5.396   2.544   1.680
 6373SOL    HW120018   5.439   2.466   1.726
 6373SOL    HW220019   5.361   2.608   1.749
 6374SOL     OW20020   4.377   3.409   6.364
 6374SOL    HW120021   4.299   3.471   6.376
 6374SOL    HW220022   4.461   3.455   6.393
 6375SOL     OW20023   4.820   0.895   1.840
 6375SOL    HW120024   4.900   0.886   1.781
 6375SOL    HW220025   4.768   0.810   1.840
 6376SOL     OW20026   2.772   6.521   0.533
 6376SOL    HW120027   2.869   6.503   0.549
 6376SOL    HW220028   2.736   6.453   0.469
 6377SOL     OW20029   0.575   0.947   0.316
 6377SOL    HW120030   0.636   1.022   0.290
 6377SOL    HW220031   0.536   0.965   0.406
 6378SOL     OW20032   5.835   4.045   2.557
 6378SOL    HW120033   5.825   4.143   2.542
 6378SOL    HW220034   5.800   4.022   2.648
 6379SOL     OW20035   2.874   5.492   0.129
 6379SOL    HW120036   2.862   5.587   0.158
 6379SOL    HW220037   2.956   5.454   0.172
 6380SOL     OW20038   2.020   2.993   4.779
 6380SOL    HW120039   2.101   3.010   4.723
 6380SOL    HW220040   1.948   2.953   4.722
 6381SOL     OW20041   3.509   3.780   0.742
 6381SOL    HW120042   3.496   3.797   0.840
 6381SOL    HW220043   3.419   3.778   0.697
 6382SOL     OW20044   1.776   1.409   1.257
 6382SOL    HW120045   1.714   1.484   1.232
 6382SOL    HW220046   1.743   1.324   1.216
 6383SOL     OW20047   2.311   2.131   2.567
 6383SOL    HW120048   2.371   2.077   2.508
 6383SOL    HW220049   2.275   2.209   2.516
 6384SOL     OW20050   6.441   1.882   1.877
 6384SOL    HW120051   6.394   1.927   1.953
 6384SOL    HW220052   6.538   1.871   1.900
 6385SOL     OW20053   6.674   3.647   1.258
 6385SOL    HW120054   6.676   3.572   1.192
 6385SOL    HW220055   6.757   3.644   1.315
 6386SOL     OW20056   3.260   3.895   0.244
 6386SOL    HW120057   3.346   3.851   0.273
 6386SOL    HW220058   3.192   3.824   0.224
 6387SOL     OW20059   6.337   0.756   6.101
 6387SOL    HW120060   6.271   0.751   6.026
 6387SOL    HW220061   6.418   0.806   6.071
 6388SOL     OW20062   6.095   4.792   1.819
 6388SOL    HW120063   6.009   4.781   1.768
 6388SOL    HW220064   6.171   4.804   1.755
 6389SOL     OW20065   6.801   6.508   0.628
 6389SOL    HW120066   6.776   6.591   0.677
 6389SOL    HW220067   6.790   6.429   0.689
 6390SOL     OW20068   5.112   6.634   6.439
 6390SOL    HW120069   5.037   6.580   6.400
 6390SOL    HW220070   5.104   6.634   6.539
 6391SOL     OW20071   1.708   2.208   4.830
 6391SOL    HW120072   1.704   2.293   4.777
 6391SOL    HW220073   1.692   2.228   4.926
 6392SOL     OW20074   4.912   6.572   4.162
 6392SOL    HW120075   4.966   6.492   4.134
 6392SOL    HW220076   4.931   6.649   4.101
 6393SOL     OW20077   2.357   5.160   0.600
 6393SOL    HW120078   2.275   5.103   0.589
 6393SOL    HW220079   2.331   5.256   0.599
 6394SOL     OW20080   1.834   5.529   2.197
 6394SOL    HW120081   1.764   5.502   2.131
 6394SOL    HW220082   1.921   5.541   2.150
 6395SOL     OW20083   1.578   3.873   4.575
 6395SOL    HW120084   1.675   3.851   4.563
 6395SOL    HW220085   1.535   3.885   4.486
 6396SOL     OW20086   1.826   3.424   5.064
 6396SOL    HW120087   1.810   3.400   5.160
 6396SOL    HW220088   1.869   3.514   5.058
 6397SOL     OW20089   6.871   2.865   5.010
 6397SOL    HW120090   6.847   2.896   4.918
 6397SOL    HW220091   6.970   2.850   5.015
 6398SOL     OW20092   1.444   0.443   2.380
 6398SOL    HW120093   1.420   0.539   2.396
 6398SOL    HW220094   1.542   0.436   2.361
 6399SOL     OW20095   2.614   0.056   0.052
 6399SOL    HW120096   2.688   0.085   0.113
 6399SOL    HW220097   2.624   0.102   6.987
 6400SOL     OW20098   0.634   6.389   2.762
 6400SOL    HW120099   0.734   6.395   2.761
 6400SOL    HW220100   0.607   6.304   2.808
 6401SOL     OW20101   3.953   5.153   2.026
 6401SOL    HW120102   3.879   5.090   2.053
 6401SOL    HW220103   3.984   5.131   1.934
 6402SOL     OW20104   3.608   3.827   6.344
 6402SOL    HW120105   3.551   3.842   6.263
 6402SOL    HW220106   3.700   3.864   6.327
 6403SOL     OW20107   4.654   5.493   5.683
 6403SOL    HW120108   4.753   5.503   5.679
 6403SOL    HW220109   4.631   5.403   5.720
 6404SOL     OW20110   4.887   5.658   6.735
 6404SOL    HW120111   4.863   5.562   6.747
 6404SOL    HW220112   4.872   5.707   6.821
 6405SOL     OW20113   4.613   1.078   2.288
 6405SOL    HW120114   4.694   1.023   2.308
 6405SOL    HW220115   4.540   1.056   2.353
 6406SOL     OW20116   0.706   3.463   2.036
 6406SOL    HW120117   0.777   3.522   2.076
 6406SOL    HW220118   0.651   3.424   2.109
 6407SOL     OW20119   0.345   6.922   1.665
 6407SOL    HW120120   0.389   6.940   1.577
 6407SOL    HW220121   0.406   6.953   1.739
 6408SOL     OW20122   0.566   1.168   1.724
 6408SOL    HW120123   0.545   1.093   1.787
 6408SOL    HW220124   0.562   1.255   1.773
 6409SOL     OW20125   5.925   4.105   3.403
 6409SOL    HW120126   5.968   4.151   3.325
 6409SOL    HW220127   5.987   4.036   3.440
 6410SOL     OW20128   1.855   1.097   0.444
 6410SOL    HW120129   1.825   1.094   0.348
 6410SOL    HW220130   1.911   1.179   0.458
 6411SOL     OW20131   1.058   2.565   3.529
 6411SOL    HW120132   1.142   2.549   3.582
 6411SOL    HW220133   1.054   2.661   3.502
 6412SOL     OW20134   4.008   7.006   6.991
 6412SOL    HW120135   3.957   0.012   0.049
 6412SOL    HW220136   4.086   0.044   6.977
 6413SOL     OW20137   4.693   5.971   3.051
 6413SOL    HW120138   4.607   5.932   3.019
 6413SOL    HW220139   4.769   5.935   2.996
 6414SOL     OW20140   3.217   0.001   0.183
 6414SOL    HW120141   3.293   7.019   0.118
 6414SOL    HW220142   3.239   6.969   0.264
 6415SOL     OW20143   0.958   1.958   3.619
 6415SOL    HW120144   0.911   1.880   3.660
 6415SOL    HW220145   1.055   1.937   3.610
 6416SOL     OW20146   3.089   4.638   0.449
 6416SOL    HW120147   3.103   4.539   0.452
 6416SOL    HW220148   3.144   4.677   0.375
 6417SOL     OW20149   4.588   3.554   6.449
 6417SOL    HW120150   4.571   3.651   6.469
 6417SOL    HW220151   4.617   3.507   6.533
 6418SOL     OW20152   4.881   5.777   0.507
 6418SOL    HW120153   4.940   5.697   0.509
 6418SOL    HW220154   4.887   5.821   0.417
 6419SOL     OW20155   0.904   6.788   6.512
 6419SOL    HW120156   0.963   6.707   6.513
 6419SOL    HW220157   0.930   6.846   6.435
 6420SOL     OW20158   2.876   4.763   3.352
 6420SOL    HW120159   2.787   4.725   3.374
 6420SOL    HW220160   2.890   4.848   3.404
 6421SOL     OW20161   5.428   6.629   1.753
 6421SOL    HW120162   5.341   6.663   1.789
 6421SOL    HW220163   5.425   6.629   1.653
 6422SOL     OW20164   0.422   1.974   4.376
 6422SOL    HW120165   0.490   2.046   4.388
 6422SOL    HW220166   0.332   2.009   4.400
 6423SOL     OW20167   1.290   4.364   4.506
 6423SOL    HW120168   1.305   4.269   4.535
 6423SOL    HW220169   1.260   4.418   4.585
 6424SOL     OW20170   6.960   4.054   5.707
 6424SOL    HW120171   6.898   4.078   5.632
 6424SOL    HW220172   0.012   3.997   5.672
 6425SOL     OW20173   0.362   6.624   4.756
 6425SOL    HW120174   0.423   6.600   4.681
 6425SOL    HW220175   0.369   6.555   4.828
 6426SOL     OW20176   3.896   5.590   3.977
 6426SOL    HW120177   3.965   5.563   3.909
 6426SOL    HW220178   3.906   5.687   3.997
 6427SOL     OW20179   3.786   2.982   3.764
 6427SOL    HW120180   3.822   2.967   3.856
 6427SOL    HW220181   3.707   2.922   3.748
 6428SOL     OW20182   6.030   2.295   0.386
 6428SOL    HW120183   5.933   2.294   0.359
 6428SOL    HW220184   6.086   2.324   0.308
 6429SOL     OW20185   2.337   1.536   5.150
 6429SOL    HW120186   2.365   1.603   5.082
 6429SOL    HW220187   2.415   1.479   5.175
 6430SOL     OW20188   5.433   1.511   4.864
 6430SOL    HW120189   5.375   1.548   4.937
 6430SOL    HW220190   5.452   1.584   4.798
 6431SOL     OW20191   3.261   5.450   2.790
 6431SOL    HW120192   3.276   5.444   2.889
 6431SOL    HW220193   3.280   5.361   2.748
 6432SOL     OW20194   4.244   3.188   6.218
 6432SOL    HW120195   4.321   3.132   6.188
 6432SOL    HW220196   4.273   3.246   6.295
 6433SOL     OW20197   3.445   5.293   6.189
 6433SOL    HW120198   3.421   5.235   6.112
 6433SOL    HW220199   3.401   5.259   6.272
 6434SOL     OW20200   6.558   5.088   6.135
 6434SOL    HW120201   6.630   5.084   6.066
 6434SOL    HW220202   6.542   4.997   6.172
 6435SOL     OW20203   4.598   1.425   1.007
 6435SOL    HW120204   4.629   1.360   0.937
 6435SOL    HW220205   4.514   1.390   1.050
 6436SOL     OW20206   0.413   3.019   3.498
 6436SOL    HW120207   0.450   2.926   3.509
 6436SOL    HW220208   0.448   3.077   3.571
 6437SOL     OW20209   1.485   2.758   5.670
 6437SOL    HW120210   1.515   2.704   5.591
 6437SOL    HW220211   1.565   2.780   5.727
 6438SOL     OW20212   0.532   5.027   0.975
 6438SOL    HW120213   0.498   5.052   0.884
 6438SOL    HW220214   0.459   4.982   1.027
 6439SOL     OW20215   5.325   6.623   3.238
 6439SOL    HW120216   5.263   6.701   3.228
 6439SOL    HW220217   5.357   6.594   3.148
 6440SOL     OW20218   2.270   1.543   5.572
 6440SOL    HW120219   2.179   1.557   5.611
 6440SOL    HW220220   2.321   1.480   5.629
 6441SOL     OW20221   0.992   2.277   1.974
 6441SOL    HW120222   0.962   2.346   2.040
 6441SOL    HW220223   1.047   2.208   2.021
 6442SOL     OW20224   2.440   1.801   4.283
 6442SOL    HW120225   2.519   1.847   4.324
 6442SOL    HW220226   2.410   1.727   4.343
 6443SOL     OW20227   2.717   2.598   6.555
 6443SOL    HW120228   2.780   2.546   6.613
 6443SOL    HW220229   2.727   2.569   6.460
 6444SOL     OW20230   7.008   3.527   4.949
 6444SOL    HW120231   0.082   3.540   4.971
 6444SOL    HW220232   6.952   3.548   5.030
 6445SOL     OW20233   3.232   2.939   3.777
 6445SOL    HW120234   3.169   2.865   3.756
 6445SOL    HW220235   3.217   2.971   3.870
 6446SOL     OW20236   1.587   1.133   1.295
 6446SOL    HW120237   1.648   1.115   1.218
 6446SOL    HW220238   1.633   1.105   1.380
 6447SOL     OW20239   5.836   3.788   1.138
 6447SOL    HW120240   5.892   3.807   1.218
 6447SOL    HW220241   5.739   3.783   1.164
 6448SOL     OW20242   4.392   4.296   1.401
 6448SOL    HW120243   4.345   4.286   1.489
 6448SOL    HW220244   4.372   4.387   1.364
 6449SOL     OW20245   4.285   5.034   0.622
 6449SOL    HW120246   4.201   5.033   0.676
 6449SOL    HW220247   4.343   4.957   0.650
 6450SOL     OW20248   4.850   3.525   0.045
 6450SOL    HW120249   4.780   3.596   0.043
 6450SOL    HW220250   4.912   3.537   6.990
 6451SOL     OW20251   4.237   2.994   1.459
 6451SOL    HW120252   4.146   2.956   1.480
 6451SOL    HW220253   4.282   3.022   1.544
 6452SOL     OW20254   4.238   1.979   4.620
 6452SOL    HW120255   4.328   1.952   4.656
 6452SOL    HW220256   4.213   2.069   4.657
 6453SOL     OW20257   2.496   0.565   2.909
 6453SOL    HW120258   2.540   0.508   2.979
 6453SOL    HW220259   2.547   0.558   2.823
 6454SOL     OW20260   5.189   3.813   4.778
 6454SOL    HW120261   5.092   3.788   4.789
 6454SOL    HW220262   5.244   3.765   4.846
 6455SOL     OW20263   0.477   2.795   4.388
 6455SOL    HW120264   0.461   2.845   4.473
 6455SOL    HW220265   0.432   2.842   4.312
 6456SOL     OW20266   6.136   1.999   3.159
 6456SOL    HW120267   6.160   2.035   3.069
 6456SOL    HW220268   6.107   1.904   3.150
 6457SOL     OW20269   2.063   6.012   2.788
 6457SOL    HW120270   2.099   5.997   2.696
 6457SOL    HW220271   2.122   6.077   2.837
 6458SOL     OW20272   0.938   0.187   4.581
 6458SOL    HW120273   0.895   0.277   4.586
 6458SOL    HW220274   1.037   0.197   4.582
 6459SOL     OW20275   0.623   3.226   2.973
 6459SOL    HW120276   0.652   3.283   3.050
 6459SOL    HW220277   0.703   3.195   2.922
 6460SOL     OW20278   1.971   5.074   6.155
 6460SOL    HW120279   1.916   5.072   6.238
 6460SOL    HW220280   2.043   5.142   6.164
 6461SOL     OW20281   0.559   6.632   1.368
 6461SOL    HW120282   0.548   6.580   1.452
 6461SOL    HW220283   0.644   6.605   1.323
 6462SOL     OW20284   2.205   4.007   5.483
 6462SOL    HW120285   2.304   3.995   5.490
 6462SOL    HW220286   2.184   4.075   5.412
 6463SOL     OW20287   4.534   2.742   1.071
 6463SOL    HW120288   4.490   2.789   1.147
 6463SOL    HW220289   4.576   2.658   1.103
 6464SOL     OW20290   1.040   3.721   3.155
 6464SOL    HW120291   1.016   3.799   3.212
 6464SOL    HW220292   1.111   3.666   3.200
 6465SOL     OW20293   2.462   1.288   3.671
 6465SOL    HW120294   2.514   1.372   3.686
 6465SOL    HW220295   2.370   1.298   3.711
 6466SOL     OW20296   6.718   4.845   6.310
 6466SOL    HW120297   6.768   4.900   6.377
 6466SOL    HW220298   6.623   4.834   6.341
 6467SOL     OW20299   2.983   2.822   5.969
 6467SOL    HW120300   2.990   2.889   5.895
 6467SOL    HW220301   3.023   2.861   6.052
 6468SOL     OW20302   0.890   0.658   1.451
 6468SOL    HW120303   0.810   0.717   1.461
 6468SOL    HW220304   0.966   0.711   1.415
 6469SOL     OW20305   2.055   1.147   1.185
 6469SOL    HW120306   1.965   1.103   1.179
 6469SOL    HW220307   2.125   1.083   1.152
 6470SOL     OW20308   5.995   1.820   6.429
 6470SOL    HW120309   5.963   1.785   6.341
 6470SOL    HW220310   6.004   1.920   6.423
 6471SOL     OW20311   0.652   6.243   5.885
 6471SOL    HW120312   0.691   6.159   5.847
 6471SOL    HW220313   0.688   6.322   5.835
 6472SOL     OW20314   0.551   6.425   1.571
 6472SOL    HW120315   0.490   6.348   1.587
 6472SOL    HW220316   0.642   6.391   1.544
 6473SOL     OW20317   2.579   1.743   3.528
 6473SOL    HW120318   2.564   1.835   3.564
 6473SOL    HW220319   2.677   1.722   3.530
 6474SOL     OW20320   4.034   6.636   4.470
 6474SOL    HW120321   4.114   6.663   4.415
 6474SOL    HW220322   4.017   6.705   4.540
 6475SOL     OW20323   4.933   5.763   3.437
 6475SOL    HW120324   4.969   5.855   3.427
 6475SOL    HW220325   4.994   5.698   3.391
 6476SOL     OW20326   4.529   4.260   6.106
 6476SOL    HW120327   4.509   4.169   6.070
 6476SOL    HW220328   4.628   4.273   6.109
 6477SOL     OW20329   0.610   6.280   1.023
 6477SOL    HW120330   0.547   6.261   1.098
 6477SOL    HW220331   0.560   6.320   0.947
 6478SOL     OW20332   1.856   6.183   0.682
 6478SOL    HW120333   1.810   6.145   0.601
 6478SOL    HW220334   1.814   6.146   0.765
 6479SOL     OW20335   4.614   5.766   3.762
 6479SOL    HW120336   4.576   5.691   3.815
 6479SOL    HW220337   4.542   5.834   3.744
 6480SOL     OW20338   3.353   1.306   5.509
 6480SOL    HW120339   3.331   1.398   5.475
 6480SOL    HW220340   3.268   1.256   5.527
 6481SOL     OW20341   4.326   3.033   1.716
 6481SOL    HW120342   4.406   3.051   1.772
 6481SOL    HW220343   4.245   3.073   1.759
 6482SOL     OW20344   5.107   2.908   5.414
 6482SOL    HW120345   5.185   2.927   5.354
 6482SOL    HW220346   5.025   2.951   5.376
 6483SOL     OW20347   1.875   5.763   5.864
 6483SOL    HW120348   1.777   5.771   5.881
 6483SOL    HW220349   1.897   5.799   5.773
 6484SOL     OW20350   3.846   1.645   2.934
 6484SOL    HW120351   3.835   1.697   2.849
 6484SOL    HW220352   3.759   1.607   2.962
 6485SOL     OW20353   2.551   5.114   4.721
 6485SOL    HW120354   2.485   5.158   4.782
 6485SOL    HW220355   2.590   5.182   4.659
 6486SOL     OW20356   0.009   4.026   2.218
 6486SOL    HW120357   6.995   4.005   2.128
 6486SOL    HW220358   0.001   3.945   2.277
 6487SOL     OW20359   6.213   5.136   4.574
 6487SOL    HW120360   6.167   5.212   4.620
 6487SOL    HW220361   6.225   5.060   4.639
 6488SOL     OW20362   3.906   5.088   3.732
 6488SOL    HW120363   3.967   5.050   3.802
 6488SOL    HW220364   3.881   5.182   3.758
 6489SOL     OW20365   6.586   2.947   4.905
 6489SOL    HW120366   6.583   3.046   4.921
 6489SOL    HW220367   6.607   2.900   4.990
 6490SOL     OW20368   1.898   2.905   0.695
 6490SOL    HW120369   1.849   2.986   0.665
 6490SOL    HW220370   1.986   2.900   0.648
 6491SOL     OW20371   1.845   0.868   1.613
 6491SOL    HW120372   1.936   0.884   1.575
 6491SOL    HW220373   1.828   0.770   1.618
 6492SOL     OW20374   4.039   3.389   4.088
 6492SOL    HW120375   4.044   3.489   4.093
 6492SOL    HW220376   4.056   3.350   4.178
 6493SOL     OW20377   1.299   4.950   4.120
 6493SOL    HW120378   1.227   5.017   4.139
 6493SOL    HW220379   1.324   4.902   4.204
 6494SOL     OW20380   6.481   0.879   1.398
 6494SOL    HW120381   6.424   0.888   1.481
 6494SOL    HW220382   6.554   0.814   1.415
 6495SOL     OW20383   6.669   6.638   2.876
 6495SOL    HW120384   6.651   6.713   2.813
 6495SOL    HW220385   6.748   6.661   2.934
 6496SOL     OW20386   2.933   2.309   1.613
 6496SOL    HW120387   2.997   2.345   1.682
 6496SOL    HW220388   2.858   2.262   1.659
 6497SOL     OW20389   0.844   2.202   0.962
 6497SOL    HW120390   0.757   2.169   0.927
 6497SOL    HW220391   0.828   2.263   1.040
 6498SOL     OW20392   1.982   4.421   4.065
 6498SOL    HW120393   2.003   4.343   4.123
 6498SOL    HW220394   2.030   4.502   4.098
 6499SOL     OW20395   5.266   2.312   3.152
 6499SOL    HW120396   5.230   2.387   3.096
 6499SOL    HW220397   5.365   2.308   3.143
 6500SOL     OW20398   1.522   3.772   2.921
 6500SOL    HW120399   1.515   3.832   3.000
 6500SOL    HW220400   1.431   3.755   2.884
 6501SOL     OW20401   6.581   0.644   2.596
 6501SOL    HW120402   6.502   0.665   2.653
 6501SOL    HW220403   6.636   0.573   2.640
 6502SOL     OW20404   0.788   2.996   1.950
 6502SOL    HW120405   0.732   2.918   1.921
 6502SOL    HW220406   0.872   2.963   1.993
 6503SOL     OW20407   0.034   2.831   5.462
 6503SOL    HW120408   0.017   2.759   5.530
 6503SOL    HW220409   6.987   2.826   5.390
 6504SOL     OW20410   4.350   0.035   5.999
 6504SOL    HW120411   4.429   7.006   5.967
 6504SOL    HW220412   4.287   0.052   5.924
 6505SOL     OW20413   0.128   6.411   0.207
 6505SOL    HW120414   0.193   6.466   0.259
 6505SOL    HW220415   0.177   6.336   0.162
 6506SOL     OW20416   6.645   3.722   1.710
 6506SOL    HW120417   6.583   3.795   1.742
 6506SOL    HW220418   6.593   3.656   1.656
 6507SOL     OW20419   4.025   5.521   1.234
 6507SOL    HW120420   4.086   5.443   1.216
 6507SOL    HW220421   4.061   5.573   1.312
 6508SOL     OW20422   6.654   0.538   3.780
 6508SOL    HW120423   6.730   0.598   3.805
 6508SOL    HW220424   6.568   0.590   3.783
 6509SOL     OW20425   2.156   1.758   0.318
 6509SOL    HW120426   2.142   1.838   0.375
 6509SOL    HW220427   2.193   1.786   0.229
 6510SOL     OW20428   3.285   5.013   4.350
 6510SOL    HW120429   3.188   5.005   4.324
 6510SOL    HW220430   3.342   4.978   4.275
 6511SOL     OW20431   3.290   2.637   6.822
 6511SOL    HW120432   3.214   2.703   6.821
 6511SOL    HW220433   3.330   2.631   6.731
 6512SOL     OW20434   5.099   0.897   0.833
 6512SOL    HW120435   5.053   0.808   0.829
 6512SOL    HW220436   5.188   0.886   0.878
 6513SOL     OW20437   2.939   4.797   2.681
 6513SOL    HW120438   2.982   4.780   2.593
 6513SOL    HW220439   2.865   4.863   2.671
 6514SOL     OW20440   5.226   5.598   5.548
 6514SOL    HW120441   5.249   5.694   5.531
 6514SOL    HW220442   5.176   5.591   5.634
 6515SOL     OW20443   0.669   5.010   2.316
 6515SOL    HW120444   0.735   4.941   2.285
 6515SOL    HW220445   0.680   5.093   2.262
 6516SOL     OW20446   5.916   1.368   3.795
 6516SOL    HW120447   5.993   1.429   3.811
 6516SOL    HW220448   5.832   1.422   3.791
 6517SOL     OW20449   6.793   3.955   0.796
 6517SOL    HW120450   6.893   3.962   0.801
 6517SOL    HW220451   6.760   3.903   0.875
 6518SOL     OW20452   0.839   1.507   2.274
 6518SOL    HW120453   0.876   1.542   2.360
 6518SOL    HW220454   0.745   1.538   2.262
 6519SOL     OW20455   1.156   1.510   3.049
 6519SOL    HW120456   1.146   1.610   3.048
 6519SOL    HW220457   1.066   1.467   3.051
 6520SOL     OW20458   6.062   5.679   6.726
 6520SOL    HW120459   6.027   5.645   6.813
 6520SOL    HW220460   6.022   5.769   6.707
 6521SOL     OW20461   1.836   4.121   4.487
 6521SOL    HW120462   1.741   4.137   4.460
 6521SOL    HW220463   1.842   4.119   4.586
 6522SOL     OW20464   2.173   3.202   5.091
 6522SOL    HW120465   2.214   3.270   5.151
 6522SOL    HW220466   2.235   3.124   5.081
 6523SOL     OW20467   5.677   6.532   0.550
 6523SOL    HW120468   5.726   6.450   0.520
 6523SOL    HW220469   5.614   6.561   0.478
 6524SOL     OW20470   3.396   2.843   1.575
 6524SOL    HW120471   3.431   2.834   1.668
 6524SOL    HW220472   3.296   2.842   1.577
 6525SOL     OW20473   2.088   4.871   3.806
 6525SOL    HW120474   2.078   4.780   3.845
 6525SOL    HW220475   2.079   4.866   3.706
 6526SOL     OW20476   6.467   6.369   0.418
 6526SOL    HW120477   6.512   6.365   0.329
 6526SOL    HW220478   6.494   6.453   0.465
 6527SOL     OW20479   5.034   1.782   1.145
 6527SOL    HW120480   5.055   1.809   1.239
 6527SOL    HW220481   4.939   1.752   1.138
 6528SOL     OW20482   4.783   6.674   0.023
 6528SOL    HW120483   4.750   6.596   6.992
 6528SOL    HW220484   4.767   6.656   0.120
 6529SOL     OW20485   4.351   0.370   1.703
 6529SOL    HW120486   4.301   0.322   1.775
 6529SOL    HW220487   4.354   0.313   1.621
 6530SOL     OW20488   6.930   2.720   3.818
 6530SOL    HW120489   6.967   2.781   3.889
 6530SOL    HW220490   6.958   2.753   3.728
 6531SOL     OW20491   3.980   3.137   3.690
 6531SOL    HW120492   3.923   3.059   3.714
 6531SOL    HW220493   3.960   3.166   3.597
 6532SOL     OW20494   0.608   5.479   0.044
 6532SOL    HW120495   0.553   5.558   0.018
 6532SOL    HW220496   0.678   5.508   0.109
 6533SOL     OW20497   5.312   5.313   1.271
 6533SOL    HW120498   5.261   5.232   1.302
 6533SOL    HW220499   5.339   5.367   1.351
 6534SOL     OW20500   6.901   3.172   4.024
 6534SOL    HW120501   6.995   3.182   4.055
 6534SOL    HW220502   6.900   3.123   3.936
 6535SOL     OW20503   5.364   3.918   5.997
 6535SOL    HW120504   5.402   3.906   5.905
 6535SOL    HW220505   5.319   4.007   6.003
 6536SOL     OW20506   0.350   4.824   5.450
 6536SOL    HW120507   0.447   4.848   5.438
 6536SOL    HW220508   0.339   4.771   5.534
 6537SOL     OW20509   6.851   5.290   4.598
 6537SOL    HW120510   6.789   5.215   4.619
 6537SOL    HW220511   6.804   5.356   4.540
 6538SOL     OW20512   1.578   3.366   3.725
 6538SOL    HW120513   1.678   3.367   3.727
 6538SOL    HW220514   1.546   3.405   3.639
 6539SOL     OW20515   5.074   6.976   6.485
 6539SOL    HW120516   5.169   7.009   6.490
 6539SOL    HW220517   5.068   6.901   6.420
 6540SOL     OW20518   0.761   2.312   4.842
 6540SOL    HW120519   0.816   2.333   4.761
 6540SOL    HW220520   0.669   2.351   4.830
 6541SOL     OW20521   3.703   1.606   5.289
 6541SOL    HW120522   3.676   1.533   5.350
 6541SOL    HW220523   3.778   1.658   5.329
 6542SOL     OW20524   1.766   4.423   1.976
 6542SOL    HW120525   1.817   4.371   1.908
 6542SOL    HW220526   1.668   4.409   1.962
 6543SOL     OW20527   4.365   1.436   4.096
 6543SOL    HW120528   4.460   1.412   4.076
 6543SOL    HW220529   4.322   1.362   4.149
 6544SOL     OW20530   0.935   0.392   0.997
 6544SOL    HW120531   0.882   0.317   1.036
 6544SOL    HW220532   0.974   0.447   1.071
 6545SOL     OW20533   5.690   5.892   0.793
 6545SOL    HW120534   5.727   5.979   0.825
 6545SOL    HW220535   5.647   5.905   0.703
 6546SOL     OW20536   4.659   5.235   5.359
 6546SOL    HW120537   4.642   5.329   5.327
 6546SOL    HW220538   4.595   5.173   5.314
 6547SOL     OW20539   1.040   6.483   5.363
 6547SOL    HW120540   1.069   6.552   5.297
 6547SOL    HW220541   0.968   6.427   5.324
 6548SOL     OW20542   1.289   1.924   6.418
 6548SOL    HW120543   1.276   1.828   6.441
 6548SOL    HW220544   1.271   1.939   6.321
 6549SOL     OW20545   3.918   1.343   2.449
 6549SOL    HW120546   3.875   1.302   2.530
 6549SOL    HW220547   3.847   1.381   2.390
 6550SOL     OW20548   6.353   6.763   1.776
 6550SOL    HW120549   6.398   6.717   1.699
 6550SOL    HW220550   6.422   6.808   1.833
 6551SOL     OW20551   2.721   4.760   0.912
 6551SOL    HW120552   2.778   4.738   0.833
 6551SOL    HW220553   2.641   4.812   0.883
 6552SOL     OW20554   2.217   4.094   7.009
 6552SOL    HW120555   2.301   4.139   0.016
 6552SOL    HW220556   2.183   4.138   6.927
 6553SOL     OW20557   6.914   1.684   3.417
 6553SOL    HW120558   6.879   1.686   3.324
 6553SOL    HW220559   6.836   1.677   3.481
 6554SOL     OW20560   1.284   2.476   3.336
 6554SOL    HW120561   1.365   2.431   3.299
 6554SOL    HW220562   1.308   2.522   3.422
 6555SOL     OW20563   1.579   3.959   3.200
 6555SOL    HW120564   1.641   4.005   3.136
 6555SOL    HW220565   1.606   3.863   3.209
 6556SOL     OW20566   4.920   3.395   2.960
 6556SOL    HW120567   5.011   3.416   2.924
 6556SOL    HW220568   4.928   3.341   3.044
 6557SOL     OW20569   1.964   0.498   2.547
 6557SOL    HW120570   1.988   0.423   2.608
 6557SOL    HW220571   2.025   0.575   2.564
 6558SOL     OW20572   5.308   5.628   0.796
 6558SOL    HW120573   5.392   5.595   0.754
 6558SOL    HW220574   5.244   5.552   0.807
 6559SOL     OW20575   0.522   1.947   6.315
 6559SOL    HW120576   0.484   1.978   6.228
 6559SOL    HW220577   0.454   1.958   6.388
 6560SOL     OW20578   6.864   4.996   6.497
 6560SOL    HW120579   6.807   5.070   6.534
 6560SOL    HW220580   6.892   4.936   6.572
 6561SOL     OW20581   2.615   5.328   0.756
 6561SOL    HW120582   2.608   5.391   0.679
 6561SOL    HW220583   2.563   5.245   0.736
 6562SOL     OW20584   4.774   2.437   1.867
 6562SOL    HW120585   4.797   2.530   1.894
 6562SOL    HW220586   4.805   2.373   1.939
 6563SOL     OW20587   6.287   5.535   5.477
 6563SOL    HW120588   6.331   5.448   5.454
 6563SOL    HW220589   6.205   5.547   5.421
 6564SOL     OW20590   5.344   3.085   2.561
 6564SOL    HW120591   5.260   3.043   2.595
 6564SOL    HW220592   5.367   3.046   2.472
 6565SOL     OW20593   5.341   5.668   2.344
 6565SOL    HW120594   5.252   5.626   2.364
 6565SOL    HW220595   5.403   5.653   2.421
 6566SOL     OW20596   5.493   5.295   3.800
 6566SOL    HW120597   5.456   5.388   3.789
 6566SOL    HW220598   5.518   5.281   3.896
 6567SOL     OW20599   3.482   0.972   2.848
 6567SOL    HW120600   3.411   1.004   2.912
 6567SOL    HW220601   3.442   0.905   2.785
 6568SOL     OW20602   5.786   0.980   1.072
 6568SOL    HW120603   5.767   0.889   1.037
 6568SOL    HW220604   5.700   1.029   1.088
 6569SOL     OW20605   1.446   4.803   3.048
 6569SOL    HW120606   1.443   4.781   2.951
 6569SOL    HW220607   1.520   4.867   3.066
 6570SOL     OW20608   4.407   0.090   2.327
 6570SOL    HW120609   4.453   0.017   2.277
 6570SOL    HW220610   4.465   0.120   2.403
 6571SOL     OW20611   2.618   6.348   2.828
 6571SOL    HW120612   2.660   6.368   2.740
 6571SOL    HW220613   2.545   6.281   2.816
 6572SOL     OW20614   1.869   6.297   3.679
 6572SOL    HW120615   1.792   6.353   3.648
 6572SOL    HW220616   1.836   6.206   3.702
 6573SOL     OW20617   7.021   1.929   3.463
 6573SOL    HW120618   6.963   1.848   3.460
 6573SOL    HW220619   0.038   1.945   3.373
 6574SOL     OW20620   0.541   5.436   1.980
 6574SOL    HW120621   0.592   5.393   1.906
 6574SOL    HW220622   0.584   5.523   2.004
 6575SOL     OW20623   6.940   1.371   3.585
 6575SOL    HW120624   7.018   1.412   3.537
 6575SOL    HW220625   6.859   1.375   3.527
 6576SOL     OW20626   3.973   0.101   1.745
 6576SOL    HW120627   3.919   0.144   1.672
 6576SOL    HW220628   3.991   0.168   1.817
 6577SOL     OW20629   3.592   1.181   4.910
 6577SOL    HW120630   3.534   1.164   4.830
 6577SOL    HW220631   3.557   1.259   4.961
 6578SOL     OW20632   0.975   5.363   0.088
 6578SOL    HW120633   0.904   5.313   0.138
 6578SOL    HW220634   0.932   5.430   0.028
 6579SOL     OW20635   1.634   1.875   3.778
 6579SOL    HW120636   1.656   1.892   3.682
 6579SOL    HW220637   1.535   1.862   3.787
 6580SOL     OW20638   3.208   2.600   0.217
 6580SOL    HW120639   3.127   2.590   0.160
 6580SOL    HW220640   3.213   2.523   0.282
 6581SOL     OW20641   0.589   2.815   2.232
 6581SOL    HW120642   0.494   2.846   2.225
 6581SOL    HW220643   0.627   2.802   2.140
 6582SOL     OW20644   4.653   0.429   3.157
 6582SOL    HW120645   4.564   0.409   3.199
 6582SOL    HW220646   4.652   0.522   3.120
 6583SOL     OW20647   2.679   4.501   0.910
 6583SOL    HW120648   2.692   4.600   0.914
 6583SOL    HW220649   2.763   4.455   0.939
 6584SOL     OW20650   3.862   3.061   6.199
 6584SOL    HW120651   3.802   2.981   6.202
 6584SOL    HW220652   3.958   3.030   6.198
 6585SOL     OW20653   5.273   6.878   1.705
 6585SOL    HW120654   5.272   6.951   1.773
 6585SOL    HW220655   5.188   6.880   1.653
 6586SOL     OW20656   6.767   1.519   6.918
 6586SOL    HW120657   6.715   1.491   6.838
 6586SOL    HW220658   6.705   1.561   6.985
 6587SOL     OW20659   3.229   5.237   5.205
 6587SOL    HW120660   3.130   5.243   5.221
 6587SOL    HW220661   3.255   5.140   5.199
 6588SOL     OW20662   0.939   1.388   0.485
 6588SOL    HW120663   0.942   1.460   0.415
 6588SOL    HW220664   0.882   1.313   0.453
 6589SOL     OW20665   6.073   6.868   1.711
 6589SOL    HW120666   6.089   6.922   1.629
 6589SOL    HW220667   6.161   6.835   1.746
 6590SOL     OW20668   1.305   6.416   4.465
 6590SOL    HW120669   1.347   6.326   4.477
 6590SOL    HW220670   1.229   6.426   4.530
 6591SOL     OW20671   6.351   3.265   3.523
 6591SOL    HW120672   6.443   3.232   3.504
 6591SOL    HW220673   6.286   3.191   3.511
 6592SOL     OW20674   0.278   0.790   3.968
 6592SOL    HW120675   0.366   0.780   4.013
 6592SOL    HW220676   0.232   0.701   3.963
 6593SOL     OW20677   1.624   0.641   2.780
 6593SOL    HW120678   1.525   0.634   2.792
 6593SOL    HW220679   1.645   0.653   2.683
 6594SOL     OW20680   5.944   0.194   6.707
 6594SOL    HW120681   5.941   0.288   6.671
 6594SOL    HW220682   5.888   0.135   6.648
 6595SOL     OW20683   1.127   1.561   4.956
 6595SOL    HW120684   1.158   1.486   4.897
 6595SOL    HW220685   1.043   1.600   4.917
 6596SOL     OW20686   5.388   0.707   3.099
 6596SOL    HW120687   5.303   0.753   3.125
 6596SOL    HW220688   5.412   0.731   3.005
 6597SOL     OW20689   0.895   4.949   1.241
 6597SOL    HW120690   0.842   4.887   1.184
 6597SOL    HW220691   0.884   4.924   1.337
 6598SOL     OW20692   0.858   4.827   2.256
 6598SOL    HW120693   0.831   4.786   2.169
 6598SOL    HW220694   0.948   4.792   2.283
 6599SOL     OW20695   0.605   5.587   6.498
 6599SOL    HW120696   0.619   5.663   6.435
 6599SOL    HW220697   0.546   5.616   6.573
 6600SOL     OW20698   4.192   6.442   4.894
 6600SOL    HW120699   4.273   6.482   4.936
 6600SOL    HW220700   4.219   6.364   4.837
 6601SOL     OW20701   1.269   2.905   2.100
 6601SOL    HW120702   1.229   2.814   2.097
 6601SOL    HW220703   1.345   2.911   2.034
 6602SOL     OW20704   6.215   5.649   0.783
 6602SOL    HW120705   6.174   5.605   0.703
 6602SOL    HW220706   6.180   5.743   0.790
 6603SOL     OW20707   0.041   4.307   2.252
 6603SOL    HW120708   0.002   4.369   2.183
 6603SOL    HW220709   0.021   4.212   2.226
 6604SOL     OW20710   1.371   5.337   2.511
 6604SOL    HW120711   1.281   5.376   2.491
 6604SOL    HW220712   1.438   5.370   2.445
 6605SOL     OW20713   0.141   5.145   0.853
 6605SOL    HW120714   0.179   5.084   0.922
 6605SOL    HW220715   0.137   5.238   0.889
 6606SOL     OW20716   1.696   4.173   2.477
 6606SOL    HW120717   1.688   4.173   2.377
 6606SOL    HW220718   1.607   4.153   2.517
 6607SOL     OW20719   6.772   3.553   4.322
 6607SOL    HW120720   6.780   3.470   4.267
 6607SOL    HW220721   6.710   3.617   4.277
 6608SOL     OW20722   0.879   0.428   5.421
 6608SOL    HW120723   0.793   0.472   5.446
 6608SOL    HW220724   0.890   0.343   5.472
 6609SOL     OW20725   3.091   2.417   6.755
 6609SOL    HW120726   3.140   2.485   6.810
 6609SOL    HW220727   2.994   2.440   6.752
 6610SOL     OW20728   2.823   6.811   1.286
 6610SOL    HW120729   2.798   6.833   1.191
 6610SOL    HW220730   2.922   6.819   1.296
 6611SOL     OW20731   3.089   1.284   4.423
 6611SOL    HW120732   3.149   1.291   4.343
 6611SOL    HW220733   3.038   1.198   4.419
 6612SOL     OW20734   0.428   6.839   0.257
 6612SOL    HW120735   0.356   6.801   0.315
 6612SOL    HW220736   0.389   6.908   0.196
 6613SOL     OW20737   3.744   6.542   1.470
 6613SOL    HW120738   3.760   6.461   1.413
 6613SOL    HW220739   3.821   6.554   1.532
 6614SOL     OW20740   3.731   4.617   0.933
 6614SOL    HW120741   3.662   4.546   0.940
 6614SOL    HW220742   3.714   4.688   1.001
 6615SOL     OW20743   3.267   5.504   6.085
 6615SOL    HW120744   3.312   5.422   6.120
 6615SOL    HW220745   3.324   5.547   6.015
 6616SOL     OW20746   4.205   1.586   6.617
 6616SOL    HW120747   4.237   1.567   6.524
 6616SOL    HW220748   4.156   1.506   6.652
 6617SOL     OW20749   3.476   1.664   3.956
 6617SOL    HW120750   3.538   1.607   3.901
 6617SOL    HW220751   3.517   1.754   3.968
 6618SOL     OW20752   5.819   3.265   4.003
 6618SOL    HW120753   5.826   3.275   3.904
 6618SOL    HW220754   5.902   3.222   4.038
 6619SOL     OW20755   4.963   5.154   4.187
 6619SOL    HW120756   4.970   5.156   4.287
 6619SOL    HW220757   5.054   5.139   4.148
 6620SOL     OW20758   1.350   3.066   3.301
 6620SOL    HW120759   1.385   2.977   3.329
 6620SOL    HW220760   1.423   3.119   3.258
 6621SOL     OW20761   3.435   3.547   3.714
 6621SOL    HW120762   3.394   3.629   3.673
 6621SOL    HW220763   3.500   3.507   3.650
 6622SOL     OW20764   0.271   4.924   1.023
 6622SOL    HW120765   0.213   4.905   1.102
 6622SOL    HW220766   0.293   4.838   0.976
 6623SOL     OW20767   3.572   3.474   3.475
 6623SOL    HW120768   3.520   3.502   3.394
 6623SOL    HW220769   3.670   3.477   3.455
 6624SOL     OW20770   2.497   2.174   3.138
 6624SOL    HW120771   2.545   2.240   3.196
 6624SOL    HW220772   2.544   2.165   3.051
 6625SOL     OW20773   0.067   4.294   5.012
 6625SOL    HW120774   0.020   4.206   5.008
 6625SOL    HW220775   0.114   4.303   5.100
 6626SOL     OW20776   3.105   5.756   5.646
 6626SOL    HW120777   3.057   5.689   5.702
 6626SOL    HW220778   3.177   5.801   5.700
 6627SOL     OW20779   2.290   6.955   4.223
 6627SOL    HW120780   2.249   6.867   4.197
 6627SOL    HW220781   2.220   0.004   4.218
 6628SOL     OW20782   3.760   0.651   3.176
 6628SOL    HW120783   3.677   0.642   3.230
 6628SOL    HW220784   3.783   0.748   3.166
 6629SOL     OW20785   4.217   5.797   5.076
 6629SOL    HW120786   4.241   5.857   5.153
 6629SOL    HW220787   4.236   5.702   5.100
 6630SOL     OW20788   1.837   0.161   0.385
 6630SOL    HW120789   1.824   0.243   0.441
 6630SOL    HW220790   1.790   0.084   0.428
 6631SOL     OW20791   1.411   2.361   5.561
 6631SOL    HW120792   1.346   2.339   5.489
 6631SOL    HW220793   1.488   2.296   5.558
 6632SOL     OW20794   1.167   0.133   6.430
 6632SOL    HW120795   1.200   0.227   6.419
 6632SOL    HW220796   1.143   0.118   6.526
 6633SOL     OW20797   4.411   6.303   5.698
 6633SOL    HW120798   4.381   6.308   5.794
 6633SOL    HW220799   4.347   6.248   5.646
 6634SOL     OW20800   2.876   2.244   3.454
 6634SOL    HW120801   2.865   2.241   3.354
 6634SOL    HW220802   2.800   2.194   3.496
 6635SOL     OW20803   5.111   5.794   6.006
 6635SOL    HW120804   5.057   5.803   5.922
 6635SOL    HW220805   5.192   5.853   6.000
 6636SOL     OW20806   4.143   1.144   1.034
 6636SOL    HW120807   4.166   1.221   0.974
 6636SOL    HW220808   4.217   1.128   1.098
 6637SOL     OW20809   0.083   1.842   7.010
 6637SOL    HW120810   7.015   1.810   6.984
 6637SOL    HW220811   0.077   1.936   0.019
 6638SOL     OW20812   3.159   3.508   3.745
 6638SOL    HW120813   3.259   3.501   3.749
 6638SOL    HW220814   3.121   3.421   3.716
 6639SOL     OW20815   4.865   2.742   1.546
 6639SOL    HW120816   4.838   2.793   1.628
 6639SOL    HW220817   4.824   2.651   1.549
 6640SOL     OW20818   1.351   4.095   4.540
 6640SOL    HW120819   1.312   4.043   4.616
 6640SOL    HW220820   1.449   4.105   4.554
 6641SOL     OW20821   6.047   2.528   7.010
 6641SOL    HW120822   5.955   2.522   6.970
 6641SOL    HW220823   6.091   2.612   6.979
 6642SOL     OW20824   1.021   5.200   6.071
 6642SOL    HW120825   0.950   5.183   6.139
 6642SOL    HW220826   0.979   5.223   5.983
 6643SOL     OW20827   4.063   5.519   6.083
 6643SOL    HW120828   4.100   5.450   6.146
 6643SOL    HW220829   3.965   5.530   6.101
 6644SOL     OW20830   2.120   0.401   3.551
 6644SOL    HW120831   2.133   0.304   3.572
 6644SOL    HW220832   2.191   0.455   3.598
 6645SOL     OW20833   4.430   2.431   5.938
 6645SOL    HW120834   4.376   2.513   5.916
 6645SOL    HW220835   4.509   2.458   5.994
 6646SOL     OW20836   4.649   0.229   5.932
 6646SOL    HW120837   4.605   0.203   5.846
 6646SOL    HW220838   4.581   0.232   6.005
 6647SOL     OW20839   3.845   4.389   1.386
 6647SOL    HW120840   3.935   4.357   1.354
 6647SOL    HW220841   3.848   4.404   1.485
 6648SOL     OW20842   3.359   5.312   5.734
 6648SOL    HW120843   3.314   5.225   5.755
 6648SOL    HW220844   3.422   5.336   5.808
 6649SOL     OW20845   4.871   2.762   6.058
 6649SOL    HW120846   4.812   2.769   5.978
 6649SOL    HW220847   4.824   2.711   6.130
 6650SOL     OW20848   2.527   1.340   5.200
 6650SOL    HW120849   2.497   1.317   5.293
 6650SOL    HW220850   2.548   1.255   5.151
 6651SOL     OW20851   7.008   1.533   4.472
 6651SOL    HW120852   7.019   1.479   4.389
 6651SOL    HW220853   6.912   1.528   4.502
 6652SOL     OW20854   0.238   4.477   6.582
 6652SOL    HW120855   0.284   4.394   6.552
 6652SOL    HW220856   0.205   4.466   6.676
 6653SOL     OW20857   5.525   4.323   6.946
 6653SOL    HW120858   5.518   4.364   6.855
 6653SOL    HW220859   5.437   4.284   6.972
 6654SOL     OW20860   6.570   2.072   3.171
 6654SOL    HW120861   6.532   1.991   3.216
 6654SOL    HW220862   6.534   2.078   3.078
 6655SOL     OW20863   6.679   5.957   1.180
 6655SOL    HW120864   6.585   5.957   1.147
 6655SOL    HW220865   6.722   5.870   1.157
 6656SOL     OW20866   4.021   1.104   2.324
 6656SOL    HW120867   3.990   1.192   2.361
 6656SOL    HW220868   3.991   1.030   2.384
 6657SOL     OW20869   4.757   1.920   4.685
 6657SOL    HW120870   4.688   1.979   4.727
 6657SOL    HW220871   4.729   1.900   4.591
 6658SOL     OW20872   6.897   5.758   4.747
 6658SOL    HW120873   6.956   5.789   4.673
 6658SOL    HW220874   6.805   5.795   4.734
 6659SOL     OW20875   0.497   5.394   0.873
 6659SOL    HW120876   0.585   5.396   0.921
 6659SOL    HW220877   0.483   5.303   0.834
 6660SOL     OW20878   0.643   0.288   4.382
 6660SOL    HW120879   0.571   0.327   4.323
 6660SOL    HW220880   0.616   0.197   4.411
 6661SOL     OW20881   4.067   6.367   3.800
 6661SOL    HW120882   4.139   6.373   3.869
 6661SOL    HW220883   4.081   6.285   3.745
 6662SOL     OW20884   3.378   6.918   2.469
 6662SOL    HW120885   3.360   7.001   2.522
 6662SOL    HW220886   3.292   6.882   2.433
 6663SOL     OW20887   1.974   4.289   5.531
 6663SOL    HW120888   1.959   4.192   5.510
 6663SOL    HW220889   2.070   4.312   5.515
 6664SOL     OW20890   3.536   0.049   2.027
 6664SOL    HW120891   3.490   6.994   2.070
 6664SOL    HW220892   3.500   0.062   1.934
 6665SOL     OW20893   2.580   0.269   0.454
 6665SOL    HW120894   2.676   0.273   0.483
 6665SOL    HW220895   2.572   0.301   0.360
 6666SOL     OW20896   2.655   6.074   5.737
 6666SOL    HW120897   2.750   6.106   5.747
 6666SOL    HW220898   2.639   5.999   5.802
 6667SOL     OW20899   1.504   5.590   0.111
 6667SOL    HW120900   1.499   5.685   0.080
 6667SOL    HW220901   1.412   5.555   0.125
 6668SOL     OW20902   6.946   3.920   6.882
 6668SOL    HW120903   6.993   3.887   6.801
 6668SOL    HW220904   6.848   3.925   6.864
 6669SOL     OW20905   1.430   2.818   3.359
 6669SOL    HW120906   1.469   2.771   3.280
 6669SOL    HW220907   1.466   2.778   3.443
 6670SOL     OW20908   3.321   3.441   0.588
 6670SOL    HW120909   3.231   3.483   0.577
 6670SOL    HW220910   3.312   3.355   0.638
 6671SOL     OW20911   4.427   4.803   0.697
 6671SOL    HW120912   4.377   4.742   0.636
 6671SOL    HW220913   4.515   4.761   0.720
 6672SOL     OW20914   1.732   2.823   1.361
 6672SOL    HW120915   1.806   2.775   1.314
 6672SOL    HW220916   1.645   2.800   1.317
 6673SOL     OW20917   5.592   3.656   3.871
 6673SOL    HW120918   5.591   3.654   3.971
 6673SOL    HW220919   5.512   3.607   3.836
 6674SOL     OW20920   6.847   0.413   0.503
 6674SOL    HW120921   6.761   0.374   0.536
 6674SOL    HW220922   6.891   0.463   0.578
 6675SOL     OW20923   4.606   1.189   0.065
 6675SOL    HW120924   4.579   1.253   7.016
 6675SOL    HW220925   4.603   1.096   0.029
 6676SOL     OW20926   0.808   4.226   5.060
 6676SOL    HW120927   0.759   4.195   5.141
 6676SOL    HW220928   0.893   4.175   5.049
 6677SOL     OW20929   0.439   2.361   6.770
 6677SOL    HW120930   0.356   2.340   6.822
 6677SOL    HW220931   0.512   2.297   6.796
 6678SOL     OW20932   3.169   4.329   6.467
 6678SOL    HW120933   3.153   4.428   6.470
 6678SOL    HW220934   3.125   4.286   6.546
 6679SOL     OW20935   1.162   0.560   4.188
 6679SOL    HW120936   1.252   0.592   4.156
 6679SOL    HW220937   1.165   0.461   4.202
 6680SOL     OW20938   6.379   4.834   1.641
 6680SOL    HW120939   6.345   4.905   1.580
 6680SOL    HW220940   6.479   4.841   1.647
 6681SOL     OW20941   2.866   5.747   1.346
 6681SOL    HW120942   2.913   5.659   1.335
 6681SOL    HW220943   2.897   5.791   1.430
 6682SOL     OW20944   2.376   5.646   6.535
 6682SOL    HW120945   2.453   5.590   6.504
 6682SOL    HW220946   2.305   5.646   6.465
 6683SOL     OW20947   6.653   5.660   5.717
 6683SOL    HW120948   6.554   5.674   5.710
 6683SOL    HW220949   6.684   5.682   5.809
 6684SOL     OW20950   2.977   5.619   6.378
 6684SOL    HW120951   2.988   5.653   6.285
 6684SOL    HW220952   2.898   5.664   6.420
 6685SOL     OW20953   4.094   2.784   0.915
 6685SOL    HW120954   4.174   2.758   0.970
 6685SOL    HW220955   4.084   2.884   0.915
 6686SOL     OW20956   4.775   4.801   5.566
 6686SOL    HW120957   4.767   4.772   5.661
 6686SOL    HW220958   4.733   4.891   5.555
 6687SOL     OW20959   0.315   2.130   1.306
 6687SOL    HW120960   0.238   2.171   1.258
 6687SOL    HW220961   0.375   2.084   1.240
 6688SOL     OW20962   4.741   6.134   0.871
 6688SOL    HW120963   4.642   6.122   0.865
 6688SOL    HW220964   4.784   6.044   0.878
 6689SOL     OW20965   3.541   4.819   6.340
 6689SOL    HW120966   3.560   4.909   6.302
 6689SOL    HW220967   3.498   4.762   6.270
 6690SOL     OW20968   1.066   0.576   0.462
 6690SOL    HW120969   1.115   0.568   0.549
 6690SOL    HW220970   1.073   0.490   0.412
 6691SOL     OW20971   2.547   1.779   2.037
 6691SOL    HW120972   2.616   1.848   2.059
 6691SOL    HW220973   2.547   1.709   2.108
 6692SOL     OW20974   4.472   6.546   1.977
 6692SOL    HW120975   4.506   6.454   1.958
 6692SOL    HW220976   4.409   6.544   2.055
 6693SOL     OW20977   3.399   1.641   5.879
 6693SOL    HW120978   3.335   1.619   5.806
 6693SOL    HW220979   3.431   1.735   5.868
 6694SOL     OW20980   4.326   3.750   1.549
 6694SOL    HW120981   4.360   3.841   1.525
 6694SOL    HW220982   4.256   3.758   1.620
 6695SOL     OW20983   2.775   2.504   0.371
 6695SOL    HW120984   2.781   2.438   0.446
 6695SOL    HW220985   2.809   2.464   0.287
 6696SOL     OW20986   3.928   2.946   5.240
 6696SOL    HW120987   3.832   2.967   5.221
 6696SOL    HW220988   3.983   3.029   5.228
 6697SOL     OW20989   4.605   1.884   2.553
 6697SOL    HW120990   4.513   1.854   2.528
 6697SOL    HW220991   4.669   1.808   2.544
 6698SOL     OW20992   2.749   3.686   1.684
 6698SOL    HW120993   2.788   3.734   1.762
 6698SOL    HW220994   2.814   3.686   1.608
 6699SOL     OW20995   1.448   3.210   6.182
 6699SOL    HW120996   1.435   3.207   6.083
 6699SOL    HW220997   1.545   3.202   6.204
 6700SOL     OW20998   5.711   0.564   1.236
 6700SOL    HW120999   5.759   0.516   1.162
 6700SOL    HW221000   5.618   0.530   1.243
 6701SOL     OW21001   5.859   6.904   1.899
 6701SOL    HW121002   5.823   6.811   1.897
 6701SOL    HW221003   5.934   6.913   1.833
 6702SOL     OW21004   3.963   3.049   0.472
 6702SOL    HW121005   4.061   3.027   0.471
 6702SOL    HW221006   3.923   3.027   0.383
 6703SOL     OW21007   0.637   1.368   0.205
 6703SOL    HW121008   0.537   1.375   0.213
 6703SOL    HW221009   0.671   1.440   0.145
 6704SOL     OW21010   3.156   7.012   5.690
 6704SOL    HW121011   3.119   0.081   5.678
 6704SOL    HW221012   3.180   6.997   5.786
 6705SOL     OW21013   6.942   4.505   2.094
 6705SOL    HW121014   6.857   4.559   2.101
 6705SOL    HW221015   6.922   4.419   2.047
 6706SOL     OW21016   0.011   6.309   0.469
 6706SOL    HW121017   6.976   6.383   0.505
 6706SOL    HW221018   0.035   6.330   0.374
 6707SOL     OW21019   4.351   1.018   2.989
 6707SOL    HW121020   4.256   1.047   2.978
 6707SOL    HW221021   4.355   0.919   3.001
 6708SOL     OW21022   0.617   2.977   0.221
 6708SOL    HW121023   0.571   3.052   0.173
 6708SOL    HW221024   0.627   3.001   0.318
 6709SOL     OW21025   2.037   4.128   2.140
 6709SOL    HW121026   2.115   4.075   2.106
 6709SOL    HW221027   1.977   4.151   2.064
 6710SOL     OW21028   4.798   1.696   1.126
 6710SOL    HW121029   4.737   1.685   1.204
 6710SOL    HW221030   4.798   1.612   1.072
 6711SOL     OW21031   3.829   5.579   6.200
 6711SOL    HW121032   3.730   5.576   6.213
 6711SOL    HW221033   3.875   5.591   6.288
 6712SOL     OW21034   4.976   4.044   1.409
 6712SOL    HW121035   5.021   4.095   1.482
 6712SOL    HW221036   4.991   3.946   1.422
 6713SOL     OW21037   1.903   4.073   4.185
 6713SOL    HW121038   1.921   4.124   4.101
 6713SOL    HW221039   1.820   4.109   4.228
 6714SOL     OW21040   5.327   1.204   1.566
 6714SOL    HW121041   5.374   1.120   1.537
 6714SOL    HW221042   5.286   1.248   1.486
 6715SOL     OW21043   1.161   0.217   6.055
 6715SOL    HW121044   1.198   0.275   5.982
 6715SOL    HW221045   1.096   0.270   6.110
 6716SOL     OW21046   1.106   5.313   1.499
 6716SOL    HW121047   1.024   5.366   1.476
 6716SOL    HW221048   1.095   5.219   1.467
 6717SOL     OW21049   6.434   2.002   5.745
 6717SOL    HW121050   6.533   2.012   5.739
 6717SOL    HW221051   6.397   1.980   5.654
 6718SOL     OW21052   4.518   1.956   1.206
 6718SOL    HW121053   4.555   1.930   1.296
 6718SOL    HW221054   4.543   1.886   1.139
 6719SOL     OW21055   1.331   1.566   0.441
 6719SOL    HW121056   1.353   1.659   0.470
 6719SOL    HW221057   1.285   1.517   0.515
 6720SOL     OW21058   1.502   1.398   5.634
 6720SOL    HW121059   1.594   1.417   5.601
 6720SOL    HW221060   1.441   1.384   5.555
 6721SOL     OW21061   6.292   6.545   0.143
 6721SOL    HW121062   6.253   6.605   0.213
 6721SOL    HW221063   6.226   6.533   0.069
 6722SOL     OW21064   5.732   4.576   0.751
 6722SOL    HW121065   5.703   4.516   0.826
 6722SOL    HW221066   5.772   4.522   0.678
 6723SOL     OW21067   1.567   3.195   4.396
 6723SOL    HW121068   1.527   3.176   4.306
 6723SOL    HW221069   1.570   3.294   4.411
 6724SOL     OW21070   2.256   4.045   4.520
 6724SOL    HW121071   2.192   4.116   4.492
 6724SOL    HW221072   2.348   4.069   4.490
 6725SOL     OW21073   5.029   3.209   4.374
 6725SOL    HW121074   4.970   3.130   4.357
 6725SOL    HW221075   5.049   3.216   4.471
 6726SOL     OW21076   0.043   1.493   6.548
 6726SOL    HW121077   0.023   1.525   6.640
 6726SOL    HW221078   7.021   1.405   6.532
 6727SOL     OW21079   0.787   4.801   5.323
 6727SOL    HW121080   0.766   4.741   5.245
 6727SOL    HW221081   0.885   4.798   5.341
 6728SOL     OW21082   3.305   1.250   4.221
 6728SOL    HW121083   3.249   1.200   4.154
 6728SOL    HW221084   3.334   1.337   4.182
 6729SOL     OW21085   4.091   0.921   1.970
 6729SOL    HW121086   4.028   0.985   1.927
 6729SOL    HW221087   4.071   0.828   1.940
 6730SOL     OW21088   0.036   1.984   0.770
 6730SOL    HW121089   0.091   1.964   0.851
 6730SOL    HW221090   0.086   1.956   0.688
 6731SOL     OW21091   4.267   0.373   5.852
 6731SOL    HW121092   4.329   0.378   5.931
 6731SOL    HW221093   4.173   0.367   5.885
 6732SOL     OW21094   6.618   5.023   5.766
 6732SOL    HW121095   6.711   4.997   5.791
 6732SOL    HW221096   6.608   5.122   5.772
 6733SOL     OW21097   4.859   4.988   4.991
 6733SOL    HW121098   4.935   4.982   5.055
 6733SOL    HW221099   4.852   5.082   4.957
 6734SOL     OW21100   5.586   2.211   5.196
 6734SOL    HW121101   5.611   2.133   5.253
 6734SOL    HW221102   5.486   2.221   5.196
 6735SOL     OW21103   5.314   2.597   4.245
 6735SOL    HW121104   5.275   2.546   4.321
 6735SOL    HW221105   5.315   2.540   4.163
 6736SOL     OW21106   3.469   4.137   0.444
 6736SOL    HW121107   3.402   4.092   0.504
 6736SOL    HW221108   3.438   4.130   0.349
 6737SOL     OW21109   6.249   3.660   1.061
 6737SOL    HW121110   6.317   3.597   1.098
 6737SOL    HW221111   6.210   3.716   1.134
 6738SOL     OW21112   2.171   6.771   4.729
 6738SOL    HW121113   2.184   6.773   4.828
 6738SOL    HW221114   2.186   6.678   4.695
 6739SOL     OW21115   6.828   6.598   5.804
 6739SOL    HW121116   6.905   6.539   5.826
 6739SOL    HW221117   6.822   6.672   5.871
 6740SOL     OW21118   0.130   6.883   1.831
 6740SOL    HW121119   0.209   6.898   1.772
 6740SOL    HW221120   0.158   6.835   1.914
 6741SOL     OW21121   3.225   1.693   0.331
 6741SOL    HW121122   3.257   1.672   0.239
 6741SOL    HW221123   3.132   1.728   0.327
 6742SOL     OW21124   6.548   4.269   2.983
 6742SOL    HW121125   6.647   4.265   2.988
 6742SOL    HW221126   6.518   4.241   2.891
 6743SOL     OW21127   3.870   3.626   6.837
 6743SOL    HW121128   3.781   3.580   6.837
 6743SOL    HW221129   3.857   3.724   6.850
 6744SOL     OW21130   6.714   6.734   5.609
 6744SOL    HW121131   6.747   6.690   5.693
 6744SOL    HW221132   6.716   6.668   5.534
 6745SOL     OW21133   6.825   4.169   5.496
 6745SOL    HW121134   6.818   4.213   5.406
 6745SOL    HW221135   6.813   4.238   5.567
 6746SOL     OW21136   1.147   2.520   3.101
 6746SOL    HW121137   1.181   2.486   3.189
 6746SOL    HW221138   1.106   2.610   3.114
 6747SOL     OW21139   1.101   6.426   5.034
 6747SOL    HW121140   1.197   6.413   5.010
 6747SOL    HW221141   1.056   6.336   5.039
 6748SOL     OW21142   1.797   1.179   5.156
 6748SOL    HW121143   1.783   1.087   5.119
 6748SOL    HW221144   1.772   1.180   5.253
 6749SOL     OW21145   4.055   5.085   2.411
 6749SOL    HW121146   3.981   5.145   2.381
 6749SOL    HW221147   4.117   5.135   2.471
 6750SOL     OW21148   3.293   1.166   5.807
 6750SOL    HW121149   3.231   1.106   5.857
 6750SOL    HW221150   3.244   1.209   5.731
 6751SOL     OW21151   4.187   0.875   4.318
 6751SOL    HW121152   4.253   0.806   4.287
 6751SOL    HW221153   4.103   0.830   4.347
 6752SOL     OW21154   2.410   4.899   2.741
 6752SOL    HW121155   2.441   4.835   2.670
 6752SOL    HW221156   2.398   4.849   2.827
 6753SOL     OW21157   3.639   3.459   6.803
 6753SOL    HW121158   3.707   3.386   6.809
 6753SOL    HW221159   3.582   3.445   6.722
 6754SOL     OW21160   6.212   1.169   0.490
 6754SOL    HW121161   6.267   1.096   0.531
 6754SOL    HW221162   6.144   1.128   0.429
 6755SOL     OW21163   3.077   5.740   6.147
 6755SOL    HW121164   3.094   5.830   6.186
 6755SOL    HW221165   3.165   5.695   6.127
 6756SOL     OW21166   3.514   3.403   6.560
 6756SOL    HW121167   3.425   3.360   6.564
 6756SOL    HW221168   3.524   3.451   6.473
 6757SOL     OW21169   4.316   0.210   1.460
 6757SOL    HW121170   4.335   0.125   1.412
 6757SOL    HW221171   4.217   0.217   1.476
 6758SOL     OW21172   4.938   2.979   3.331
 6758SOL    HW121173   5.031   3.010   3.352
 6758SOL    HW221174   4.902   2.926   3.408
 6759SOL     OW21175   1.122   1.686   2.693
 6759SOL    HW121176   1.194   1.739   2.648
 6759SOL    HW221177   1.127   1.701   2.792
 6760SOL     OW21178   5.420   2.235   5.445
 6760SOL    HW121179   5.515   2.266   5.452
 6760SOL    HW221180   5.365   2.306   5.402
 6761SOL     OW21181   3.488   1.322   5.130
 6761SOL    HW121182   3.424   1.287   5.198
 6761SOL    HW221183   3.523   1.411   5.160
 6762SOL     OW21184   5.582   4.836   4.973
 6762SOL    HW121185   5.559   4.859   4.879
 6762SOL    HW221186   5.673   4.871   4.995
 6763SOL     OW21187   5.817   0.152   4.339
 6763SOL    HW121188   5.902   0.184   4.296
 6763SOL    HW221189   5.830   0.058   4.372
 6764SOL     OW21190   0.439   4.910   1.658
 6764SOL    HW121191   0.503   4.938   1.587
 6764SOL    HW221192   0.347   4.901   1.618
 6765SOL     OW21193   0.296   3.738   1.916
 6765SOL    HW121194   0.205   3.766   1.945
 6765SOL    HW221195   0.357   3.735   1.996
 6766SOL     OW21196   5.812   0.154   1.402
 6766SOL    HW121197   5.833   0.248   1.430
 6766SOL    HW221198   5.755   0.111   1.472
 6767SOL     OW21199   3.025   0.232   1.150
 6767SOL    HW121200   3.035   0.314   1.206
 6767SOL    HW221201   2.973   0.254   1.067
 6768SOL     OW21202   1.759   6.806   6.971
 6768SOL    HW121203   1.754   6.900   7.004
 6768SOL    HW221204   1.692   6.750   7.020
 6769SOL     OW21205   4.999   2.977   1.468
 6769SOL    HW121206   4.941   3.038   1.415
 6769SOL    HW221207   4.952   2.889   1.481
 6770SOL     OW21208   0.355   1.526   1.741
 6770SOL    HW121209   0.451   1.504   1.725
 6770SOL    HW221210   0.298   1.476   1.677
 6771SOL     OW21211   4.746   1.784   3.269
 6771SOL    HW121212   4.674   1.716   3.283
 6771SOL    HW221213   4.715   1.853   3.204
 6772SOL     OW21214   3.708   1.744   4.388
 6772SOL    HW121215   3.613   1.774   4.379
 6772SOL    HW221216   3.765   1.790   4.320
 6773SOL     OW21217   0.657   3.705   1.419
 6773SOL    HW121218   0.700   3.665   1.500
 6773SOL    HW221219   0.563   3.671   1.411
 6774SOL     OW21220   0.758   2.581   6.211
 6774SOL    HW121221   0.658   2.583   6.200
 6774SOL    HW221222   0.792   2.673   6.226
 6775SOL     OW21223   1.383   4.284   6.884
 6775SOL    HW121224   1.323   4.233   6.946
 6775SOL    HW221225   1.374   4.247   6.791
 6776SOL     OW21226   5.659   5.527   6.791
 6776SOL    HW121227   5.741   5.516   6.847
 6776SOL    HW221228   5.650   5.623   6.764
 6777SOL     OW21229   4.841   5.371   0.140
 6777SOL    HW121230   4.919   5.376   0.203
 6777SOL    HW221231   4.869   5.323   0.057
 6778SOL     OW21232   6.351   5.566   3.228
 6778SOL    HW121233   6.408   5.608   3.157
 6778SOL    HW221234   6.323   5.475   3.198
 6779SOL     OW21235   6.073   3.551   6.524
 6779SOL    HW121236   6.060   3.617   6.450
 6779SOL    HW221237   6.008   3.476   6.514
 6780SOL     OW21238   0.996   2.956   2.176
 6780SOL    HW121239   1.077   2.987   2.126
 6780SOL    HW221240   1.005   2.980   2.273
 6781SOL     OW21241   5.779   5.044   5.842
 6781SOL    HW121242   5.767   5.143   5.854
 6781SOL    HW221243   5.804   5.025   5.747
 6782SOL     OW21244   5.874   0.828   3.284
 6782SOL    HW121245   5.960   0.787   3.253
 6782SOL    HW221246   5.797   0.780   3.242
 6783SOL     OW21247   0.605   5.711   6.761
 6783SOL    HW121248   0.667   5.633   6.750
 6783SOL    HW221249   0.649   5.794   6.727
 6784SOL     OW21250   4.234   2.964   0.063
 6784SOL    HW121251   4.224   2.974   0.162
 6784SOL    HW221252   4.207   3.049   0.017
 6785SOL     OW21253   6.128   5.824   2.150
 6785SOL    HW121254   6.194   5.781   2.211
 6785SOL    HW221255   6.068   5.755   2.111
 6786SOL     OW21256   1.663   3.737   5.712
 6786SOL    HW121257   1.579   3.714   5.662
 6786SOL    HW221258   1.737   3.754   5.647
 6787SOL     OW21259   1.069   3.648   1.593
 6787SOL    HW121260   1.119   3.606   1.670
 6787SOL    HW221261   1.117   3.626   1.508
 6788SOL     OW21262   2.913   4.352   0.969
 6788SOL    HW121263   2.884   4.270   0.920
 6788SOL    HW221264   3.002   4.382   0.934
 6789SOL     OW21265   0.758   5.657   3.353
 6789SOL    HW121266   0.835   5.657   3.289
 6789SOL    HW221267   0.793   5.664   3.447
 6790SOL     OW21268   1.343   2.820   0.706
 6790SOL    HW121269   1.268   2.843   0.644
 6790SOL    HW221270   1.307   2.808   0.798
 6791SOL     OW21271   3.329   3.998   6.179
 6791SOL    HW121272   3.229   3.993   6.172
 6791SOL    HW221273   3.368   3.914   6.141
 6792SOL     OW21274   0.393   4.759   6.866
 6792SOL    HW121275   0.464   4.702   6.907
 6792SOL    HW221276   0.305   4.741   6.911
 6793SOL     OW21277   5.749   1.552   1.700
 6793SOL    HW121278   5.747   1.452   1.710
 6793SOL    HW221279   5.763   1.576   1.604
 6794SOL     OW21280   4.074   0.999   4.700
 6794SOL    HW121281   4.012   1.070   4.665
 6794SOL    HW221282   4.163   1.008   4.655
 6795SOL     OW21283   3.367   6.133   6.970
 6795SOL    HW121284   3.415   6.055   7.009
 6795SOL    HW221285   3.429   6.184   6.910
 6796SOL     OW21286   3.827   1.940   3.059
 6796SOL    HW121287   3.877   2.012   3.107
 6796SOL    HW221288   3.844   1.947   2.961
 6797SOL     OW21289   6.874   2.479   2.063
 6797SOL    HW121290   6.837   2.394   2.026
 6797SOL    HW221291   6.929   2.459   2.144
 6798SOL     OW21292   6.522   0.282   2.404
 6798SOL    HW121293   6.513   0.248   2.498
 6798SOL    HW221294   6.533   0.205   2.342
 6799SOL     OW21295   4.931   5.781   1.882
 6799SOL    HW121296   5.013   5.837   1.890
 6799SOL    HW221297   4.878   5.785   1.967
 6800SOL     OW21298   3.492   4.077   6.661
 6800SOL    HW121299   3.533   3.986   6.667
 6800SOL    HW221300   3.438   4.084   6.577
 6801SOL     OW21301   1.080   2.537   2.750
 6801SOL    HW121302   1.014   2.528   2.825
 6801SOL    HW221303   1.172   2.546   2.789
 6802SOL     OW21304   2.651   4.665   2.804
 6802SOL    HW121305   2.737   4.658   2.854
 6802SOL    HW221306   2.628   4.762   2.790
 6803SOL     OW21307   4.113   2.310   0.521
 6803SOL    HW121308   4.206   2.294   0.556
 6803SOL    HW221309   4.050   2.320   0.597
 6804SOL     OW21310   1.045   0.188   3.538
 6804SOL    HW121311   1.072   0.242   3.618
 6804SOL    HW221312   1.054   0.091   3.559
 6805SOL     OW21313   5.331   0.915   4.886
 6805SOL    HW121314   5.268   0.868   4.824
 6805SOL    HW221315   5.425   0.905   4.851
 6806SOL     OW21316   5.538   6.369   5.419
 6806SOL    HW121317   5.500   6.282   5.388
 6806SOL    HW221318   5.486   6.444   5.379
 6807SOL     OW21319   3.204   3.145   6.861
 6807SOL    HW121320   3.197   3.244   6.863
 6807SOL    HW221321   3.280   3.116   6.920
 6808SOL     OW21322   2.158   3.422   4.041
 6808SOL    HW121323   2.075   3.382   4.003
 6808SOL    HW221324   2.214   3.350   4.081
 6809SOL     OW21325   1.761   3.498   6.679
 6809SOL    HW121326   1.675   3.480   6.632
 6809SOL    HW221327   1.787   3.417   6.732
 6810SOL     OW21328   5.742   1.495   3.137
 6810SOL    HW121329   5.790   1.558   3.197
 6810SOL    HW221330   5.763   1.401   3.164
 6811SOL     OW21331   4.714   5.650   1.785
 6811SOL    HW121332   4.706   5.571   1.845
 6811SOL    HW221333   4.798   5.701   1.807
 6812SOL     OW21334   3.633   3.020   2.689
 6812SOL    HW121335   3.653   2.966   2.607
 6812SOL    HW221336   3.675   3.111   2.679
 6813SOL     OW21337   5.363   3.256   1.146
 6813SOL    HW121338   5.411   3.170   1.162
 6813SOL    HW221339   5.418   3.315   1.087
 6814SOL     OW21340   2.628   2.955   0.643
 6814SOL    HW121341   2.684   3.034   0.666
 6814SOL    HW221342   2.531   2.975   0.661
 6815SOL     OW21343   1.317   6.961   1.322
 6815SOL    HW121344   1.291   0.030   1.352
 6815SOL    HW221345   1.413   6.944   1.344
 6816SOL     OW21346   6.143   3.776   1.283
 6816SOL    HW121347   6.199   3.858   1.296
 6816SOL    HW221348   6.065   3.778   1.346
 6817SOL     OW21349   0.940   2.374   6.302
 6817SOL    HW121350   1.039   2.384   6.296
 6817SOL    HW221351   0.896   2.459   6.273
 6818SOL     OW21352   3.636   5.508   1.637
 6818SOL    HW121353   3.565   5.489   1.569
 6818SOL    HW221354   3.723   5.473   1.605
 6819SOL     OW21355   3.072   1.486   3.671
 6819SOL    HW121356   2.984   1.439   3.662
 6819SOL    HW221357   3.142   1.435   3.621
 6820SOL     OW21358   1.944   5.469   3.743
 6820SOL    HW121359   1.992   5.419   3.670
 6820SOL    HW221360   2.010   5.520   3.798
 6821SOL     OW21361   2.485   2.599   4.374
 6821SOL    HW121362   2.569   2.632   4.331
 6821SOL    HW221363   2.502   2.510   4.415
 6822SOL     OW21364   5.115   2.019   6.006
 6822SOL    HW121365   5.201   2.049   5.966
 6822SOL    HW221366   5.086   2.084   6.076
 6823SOL     OW21367   3.866   3.533   2.487
 6823SOL    HW121368   3.794   3.516   2.419
 6823SOL    HW221369   3.948   3.481   2.463
 6824SOL     OW21370   1.552   4.992   6.083
 6824SOL    HW121371   1.466   5.025   6.124
 6824SOL    HW221372   1.597   4.930   6.148
 6825SOL     OW21373   5.482   6.936   4.107
 6825SOL    HW121374   5.417   6.948   4.032
 6825SOL    HW221375   5.522   0.002   4.130
 6826SOL     OW21376   0.595   2.957   2.652
 6826SOL    HW121377   0.614   2.965   2.554
 6826SOL    HW221378   0.552   2.868   2.670
 6827SOL     OW21379   5.951   6.149   4.979
 6827SOL    HW121380   5.937   6.189   5.069
 6827SOL    HW221381   5.918   6.212   4.909
 6828SOL     OW21382   1.916   1.782   1.267
 6828SOL    HW121383   1.850   1.775   1.342
 6828SOL    HW221384   2.008   1.799   1.305
 6829SOL     OW21385   5.280   4.957   3.530
 6829SOL    HW121386   5.297   4.971   3.432
 6829SOL    HW221387   5.358   4.909   3.570
 6830SOL     OW21388   5.007   2.183   4.215
 6830SOL    HW121389   5.063   2.253   4.259
 6830SOL    HW221390   4.953   2.224   4.142
 6831SOL     OW21391   6.867   1.437   5.834
 6831SOL    HW121392   6.778   1.414   5.795
 6831SOL    HW221393   6.927   1.357   5.831
 6832SOL     OW21394   2.935   5.406   1.707
 6832SOL    HW121395   2.948   5.416   1.806
 6832SOL    HW221396   2.927   5.309   1.684
 6833SOL     OW21397   4.368   5.554   0.136
 6833SOL    HW121398   4.293   5.518   0.192
 6833SOL    HW221399   4.453   5.506   0.159
 6834SOL     OW21400   3.788   5.716   2.288
 6834SOL    HW121401   3.790   5.627   2.243
 6834SOL    HW221402   3.881   5.746   2.306
 6835SOL     OW21403   3.904   0.066   4.986
 6835SOL    HW121404   3.990   0.018   5.004
 6835SOL    HW221405   3.872   0.044   4.894
 6836SOL     OW21406   3.582   5.561   6.564
 6836SOL    HW121407   3.601   5.620   6.643
 6836SOL    HW221408   3.527   5.611   6.497
 6837SOL     OW21409   0.155   2.662   2.840
 6837SOL    HW121410   0.167   2.744   2.783
 6837SOL    HW221411   0.058   2.644   2.851
 6838SOL     OW21412   2.699   2.030   0.737
 6838SOL    HW121413   2.697   2.020   0.837
 6838SOL    HW221414   2.607   2.016   0.701
 6839SOL     OW21415   4.407   0.842   1.644
 6839SOL    HW121416   4.417   0.755   1.694
 6839SOL    HW221417   4.494   0.866   1.602
 6840SOL     OW21418   0.634   1.104   6.644
 6840SOL    HW121419   0.722   1.147   6.623
 6840SOL    HW221420   0.649   1.026   6.704
 6841SOL     OW21421   0.290   3.538   5.893
 6841SOL    HW121422   0.193   3.515   5.880
 6841SOL    HW221423   0.329   3.567   5.806
 6842SOL     OW21424   2.658   4.826   3.130
 6842SOL    HW121425   2.733   4.809   3.066
 6842SOL    HW221426   2.630   4.740   3.172
 6843SOL     OW21427   4.180   0.231   0.981
 6843SOL    HW121428   4.244   0.168   1.025
 6843SOL    HW221429   4.190   0.224   0.882
 6844SOL     OW21430   5.511   0.606   5.957
 6844SOL    HW121431   5.476   0.513   5.945
 6844SOL    HW221432   5.610   0.606   5.948
 6845SOL     OW21433   4.989   1.845   2.953
 6845SOL    HW121434   5.065   1.809   3.006
 6845SOL    HW221435   4.939   1.769   2.911
 6846SOL     OW21436   2.398   3.379   0.285
 6846SOL    HW121437   2.479   3.365   0.228
 6846SOL    HW221438   2.426   3.414   0.374
 6847SOL     OW21439   6.837   2.649   4.573
 6847SOL    HW121440   6.900   2.638   4.649
 6847SOL    HW221441   6.765   2.714   4.598
 6848SOL     OW21442   6.868   4.964   3.525
 6848SOL    HW121443   6.849   5.060   3.505
 6848SOL    HW221444   6.883   4.915   3.439
 6849SOL     OW21445   3.153   4.250   5.843
 6849SOL    HW121446   3.225   4.318   5.838
 6849SOL    HW221447   3.117   4.246   5.937
 6850SOL     OW21448   4.796   0.035   3.849
 6850SOL    HW121449   4.704   0.073   3.855
 6850SOL    HW221450   4.861   0.096   3.894
 6851SOL     OW21451   1.783   3.758   3.011
 6851SOL    HW121452   1.828   3.816   2.943
 6851SOL    HW221453   1.690   3.737   2.980
 6852SOL     OW21454   4.492   4.466   0.276
 6852SOL    HW121455   4.416   4.400   0.269
 6852SOL    HW221456   4.461   4.555   0.243
 6853SOL     OW21457   4.060   4.801   6.681
 6853SOL    HW121458   3.987   4.817   6.614
 6853SOL    HW221459   4.055   4.706   6.712
 6854SOL     OW21460   5.039   5.440   6.094
 6854SOL    HW121461   5.077   5.349   6.077
 6854SOL    HW221462   5.113   5.506   6.101
 6855SOL     OW21463   4.499   5.275   3.109
 6855SOL    HW121464   4.518   5.240   3.201
 6855SOL    HW221465   4.561   5.350   3.088
 6856SOL     OW21466   6.918   2.806   6.946
 6856SOL    HW121467   6.838   2.819   7.004
 6856SOL    HW221468   6.999   2.797   7.004
 6857SOL     OW21469   1.082   4.271   5.631
 6857SOL    HW121470   0.983   4.275   5.642
 6857SOL    HW221471   1.114   4.180   5.657
 6858SOL     OW21472   1.792   3.929   1.988
 6858SOL    HW121473   1.695   3.942   2.008
 6858SOL    HW221474   1.835   3.881   2.065
 6859SOL     OW21475   2.157   1.936   1.647
 6859SOL    HW121476   2.195   2.008   1.705
 6859SOL    HW221477   2.103   1.873   1.703
 6860SOL     OW21478   0.244   6.117   0.547
 6860SOL    HW121479   0.298   6.085   0.470
 6860SOL    HW221480   0.165   6.168   0.514
 6861SOL     OW21481   6.171   3.187   6.348
 6861SOL    HW121482   6.090   3.224   6.394
 6861SOL    HW221483   6.237   3.157   6.417
 6862SOL     OW21484   0.980   4.583   3.856
 6862SOL    HW121485   0.999   4.681   3.847
 6862SOL    HW221486   1.008   4.536   3.772
 6863SOL     OW21487   5.609   1.609   5.101
 6863SOL    HW121488   5.545   1.551   5.050
 6863SOL    HW221489   5.697   1.562   5.109
 6864SOL     OW21490   1.241   3.349   6.253
 6864SOL    HW121491   1.305   3.279   6.222
 6864SOL    HW221492   1.263   3.376   6.347
 6865SOL     OW21493   2.320   0.619   4.290
 6865SOL    HW121494   2.285   0.662   4.373
 6865SOL    HW221495   2.261   0.643   4.213
 6866SOL     OW21496   1.560   4.632   0.430
 6866SOL    HW121497   1.577   4.724   0.395
 6866SOL    HW221498   1.574   4.631   0.529
 6867SOL     OW21499   2.143   3.290   6.898
 6867SOL    HW121500   2.192   3.321   6.817
 6867SOL    HW221501   2.152   3.358   6.971
 6868SOL     OW21502   3.655   5.372   3.209
 6868SOL    HW121503   3.749   5.398   3.188
 6868SOL    HW221504   3.629   5.293   3.153
 6869SOL     OW21505   2.429   0.600   5.841
 6869SOL    HW121506   2.366   0.607   5.763
 6869SOL    HW221507   2.438   0.690   5.884
 6870SOL     OW21508   5.376   1.924   6.989
 6870SOL    HW121509   5.440   1.931   0.043
 6870SOL    HW221510   5.418   1.963   6.907
 6871SOL     OW21511   6.702   3.284   2.424
 6871SOL    HW121512   6.610   3.300   2.388
 6871SOL    HW221513   6.764   3.353   2.387
 6872SOL     OW21514   1.695   4.108   1.184
 6872SOL    HW121515   1.732   4.195   1.153
 6872SOL    HW221516   1.723   4.092   1.279
 6873SOL     OW21517   0.521   4.174   3.072
 6873SOL    HW121518   0.605   4.122   3.058
 6873SOL    HW221519   0.442   4.112   3.066
 6874SOL     OW21520   4.625   6.520   2.254
 6874SOL    HW121521   4.616   6.471   2.340
 6874SOL    HW221522   4.572   6.472   2.183
 6875SOL     OW21523   2.448   1.138   0.245
 6875SOL    HW121524   2.502   1.054   0.250
 6875SOL    HW221525   2.503   1.211   0.206
 6876SOL     OW21526   5.347   5.449   3.290
 6876SOL    HW121527   5.441   5.458   3.258
 6876SOL    HW221528   5.340   5.369   3.350
 6877SOL     OW21529   0.618   4.218   1.641
 6877SOL    HW121530   0.663   4.130   1.650
 6877SOL    HW221531   0.521   4.204   1.619
 6878SOL     OW21532   1.936   0.714   4.760
 6878SOL    HW121533   1.982   0.643   4.706
 6878SOL    HW221534   1.860   0.752   4.707
 6879SOL     OW21535   1.301   1.735   1.248
 6879SOL    HW121536   1.263   1.663   1.190
 6879SOL    HW221537   1.366   1.790   1.194
 6880SOL     OW21538   1.550   5.917   0.176
 6880SOL    HW121539   1.476   5.929   0.109
 6880SOL    HW221540   1.615   5.993   0.168
 6881SOL     OW21541   6.995   3.304   0.468
 6881SOL    HW121542   6.955   3.287   0.558
 6881SOL    HW221543   6.958   3.389   0.431
 6882SOL     OW21544   3.130   6.233   0.328
 6882SOL    HW121545   3.089   6.276   0.410
 6882SOL    HW221546   3.216   6.189   0.353
 6883SOL     OW21547   5.435   0.491   1.213
 6883SOL    HW121548   5.392   0.580   1.197
 6883SOL    HW221549   5.388   0.422   1.156
 6884SOL     OW21550   2.470   4.846   3.521
 6884SOL    HW121551   2.461   4.946   3.523
 6884SOL    HW221552   2.419   4.806   3.597
 6885SOL     OW21553   6.069   4.613   4.971
 6885SOL    HW121554   6.041   4.574   5.059
 6885SOL    HW221555   5.997   4.598   4.903
 6886SOL     OW21556   5.226   3.336   0.241
 6886SOL    HW121557   5.268   3.271   0.305
 6886SOL    HW221558   5.239   3.304   0.148
 6887SOL     OW21559   5.478   6.102   5.815
 6887SOL    HW121560   5.422   6.027   5.850
 6887SOL    HW221561   5.540   6.067   5.745
 6888SOL     OW21562   6.370   4.131   0.023
 6888SOL    HW121563   6.331   4.044   7.016
 6888SOL    HW221564   6.326   4.160   0.108
 6889SOL     OW21565   0.076   1.590   5.378
 6889SOL    HW121566   0.144   1.615   5.309
 6889SOL    HW221567   7.013   1.568   5.334
 6890SOL     OW21568   4.941   4.569   3.915
 6890SOL    HW121569   4.882   4.518   3.978
 6890SOL    HW221570   5.032   4.527   3.914
 6891SOL     OW21571   1.305   1.480   1.038
 6891SOL    HW121572   1.389   1.465   0.985
 6891SOL    HW221573   1.225   1.460   0.981
 6892SOL     OW21574   2.915   0.935   4.891
 6892SOL    HW121575   2.985   0.864   4.904
 6892SOL    HW221576   2.885   0.935   4.796
 6893SOL     OW21577   6.001   2.983   0.366
 6893SOL    HW121578   5.977   3.056   0.302
 6893SOL    HW221579   6.099   2.967   0.364
 6894SOL     OW21580   5.693   4.763   0.140
 6894SOL    HW121581   5.788   4.733   0.149
 6894SOL    HW221582   5.675   4.788   0.045
 6895SOL     OW21583   0.979   5.893   2.311
 6895SOL    HW121584   0.963   5.835   2.231
 6895SOL    HW221585   0.893   5.930   2.344
 6896SOL     OW21586   4.712   1.519   5.618
 6896SOL    HW121587   4.613   1.525   5.610
 6896SOL    HW221588   4.751   1.611   5.616
 6897SOL     OW21589   4.423   2.479   5.125
 6897SOL    HW121590   4.341   2.478   5.183
 6897SOL    HW221591   4.481   2.557   5.150
 6898SOL     OW21592   1.565   6.629   1.339
 6898SOL    HW121593   1.472   6.594   1.350
 6898SOL    HW221594   1.562   6.726   1.316
 6899SOL     OW21595   5.884   5.965   2.741
 6899SOL    HW121596   5.913   6.060   2.754
 6899SOL    HW221597   5.798   5.951   2.789
 6900SOL     OW21598   6.595   3.588   4.824
 6900SOL    HW121599   6.517   3.631   4.778
 6900SOL    HW221600   6.641   3.526   4.760
 6901SOL     OW21601   5.502   4.941   5.860
 6901SOL    HW121602   5.586   4.995   5.862
 6901SOL    HW221603   5.461   4.938   5.951
 6902SOL     OW21604   0.699   5.933   5.576
 6902SOL    HW121605   0.775   5.978   5.528
 6902SOL    HW221606   0.718   5.835   5.584
 6903SOL     OW21607   1.647   6.296   5.021
 6903SOL    HW121608   1.587   6.271   5.097
 6903SOL    HW221609   1.689   6.214   4.983
 6904SOL     OW21610   0.346   0.561   5.690
 6904SOL    HW121611   0.350   0.468   5.725
 6904SOL    HW221612   0.258   0.577   5.646
 6905SOL     OW21613   5.079   6.056   5.767
 6905SOL    HW121614   5.004   6.121   5.756
 6905SOL    HW221615   5.042   5.964   5.782
 6906SOL     OW21616   2.539   0.714   3.947
 6906SOL    HW121617   2.569   0.758   3.862
 6906SOL    HW221618   2.536   0.615   3.933
 6907SOL     OW21619   5.816   1.891   0.996
 6907SOL    HW121620   5.722   1.886   1.031
 6907SOL    HW221621   5.876   1.927   1.068
 6908SOL     OW21622   3.696   5.506   0.558
 6908SOL    HW121623   3.646   5.421   0.542
 6908SOL    HW221624   3.701   5.523   0.657
 6909SOL     OW21625   5.312   4.339   2.536
 6909SOL    HW121626   5.401   4.294   2.532
 6909SOL    HW221627   5.297   4.377   2.627
 6910SOL     OW21628   0.944   2.354   2.458
 6910SOL    HW121629   0.931   2.450   2.483
 6910SOL    HW221630   0.961   2.348   2.360
 6911SOL     OW21631   2.844   6.641   5.779
 6911SOL    HW121632   2.944   6.631   5.785
 6911SOL    HW221633   2.821   6.703   5.704
 6912SOL     OW21634   3.022   4.087   6.904
 6912SOL    HW121635   3.042   4.117   6.997
 6912SOL    HW221636   3.065   3.998   6.888
 6913SOL     OW21637   4.688   5.747   5.881
 6913SOL    HW121638   4.665   5.712   5.972
 6913SOL    HW221639   4.671   5.676   5.813
 6914SOL     OW21640   6.191   2.205   2.336
 6914SOL    HW121641   6.289   2.227   2.333
 6914SOL    HW221642   6.139   2.289   2.353
 6915SOL     OW21643   0.157   3.329   3.466
 6915SOL    HW121644   0.245   3.367   3.495
 6915SOL    HW221645   0.171   3.238   3.427
 6916SOL     OW21646   4.679   6.443   5.854
 6916SOL    HW121647   4.584   6.456   5.828
 6916SOL    HW221648   4.732   6.524   5.828
 6917SOL     OW21649   3.455   6.115   2.032
 6917SOL    HW121650   3.367   6.162   2.045
 6917SOL    HW221651   3.463   6.041   2.099
 6918SOL     OW21652   1.950   3.285   0.382
 6918SOL    HW121653   1.958   3.231   0.298
 6918SOL    HW221654   1.940   3.382   0.359
 6919SOL     OW21655   6.264   6.263   3.235
 6919SOL    HW121656   6.299   6.312   3.315
 6919SOL    HW221657   6.341   6.235   3.177
 6920SOL     OW21658   6.814   1.932   5.238
 6920SOL    HW121659   6.853   1.892   5.155
 6920SOL    HW221660   6.745   1.870   5.275
 6921SOL     OW21661   4.107   0.086   4.120
 6921SOL    HW121662   4.066   0.039   4.198
 6921SOL    HW221663   4.177   0.028   4.079
 6922SOL     OW21664   2.934   5.246   6.838
 6922SOL    HW121665   2.901   5.221   6.747
 6922SOL    HW221666   2.884   5.327   6.870
 6923SOL     OW21667   5.097   0.110   2.836
 6923SOL    HW121668   5.021   0.045   2.844
 6923SOL    HW221669   5.116   0.128   2.740
 6924SOL     OW21670   3.291   5.697   1.840
 6924SOL    HW121671   3.313   5.605   1.808
 6924SOL    HW221672   3.262   5.753   1.762
 6925SOL     OW21673   6.234   6.507   4.736
 6925SOL    HW121674   6.209   6.586   4.679
 6925SOL    HW221675   6.246   6.537   4.831
 6926SOL     OW21676   2.864   2.296   0.515
 6926SOL    HW121677   2.930   2.302   0.440
 6926SOL    HW221678   2.912   2.278   0.600
 6927SOL     OW21679   3.765   0.360   6.982
 6927SOL    HW121680   3.728   0.393   0.046
 6927SOL    HW221681   3.865   0.368   6.983
 6928SOL     OW21682   3.620   5.199   6.837
 6928SOL    HW121683   3.592   5.258   6.913
 6928SOL    HW221684   3.544   5.186   6.774
 6929SOL     OW21685   4.593   4.821   2.472
 6929SOL    HW121686   4.613   4.768   2.554
 6929SOL    HW221687   4.659   4.897   2.465
 6930SOL     OW21688   1.059   6.395   1.610
 6930SOL    HW121689   1.121   6.336   1.559
 6930SOL    HW221690   1.104   6.481   1.632
 6931SOL     OW21691   3.013   3.376   0.983
 6931SOL    HW121692   3.100   3.351   0.941
 6931SOL    HW221693   3.002   3.326   1.068
 6932SOL     OW21694   3.948   0.421   6.195
 6932SOL    HW121695   3.999   0.401   6.279
 6932SOL    HW221696   3.899   0.508   6.206
 6933SOL     OW21697   2.784   5.836   6.148
 6933SOL    HW121698   2.723   5.826   6.069
 6933SOL    HW221699   2.879   5.821   6.119
 6934SOL     OW21700   5.058   5.114   0.263
 6934SOL    HW121701   5.047   5.017   0.284
 6934SOL    HW221702   5.010   5.135   0.178
 6935SOL     OW21703   3.883   6.165   1.983
 6935SOL    HW121704   3.871   6.242   1.920
 6935SOL    HW221705   3.819   6.174   2.059
 6936SOL     OW21706   0.892   1.731   6.269
 6936SOL    HW121707   0.982   1.694   6.245
 6936SOL    HW221708   0.831   1.655   6.293
 6937SOL     OW21709   5.913   5.302   0.481
 6937SOL    HW121710   5.822   5.261   0.494
 6937SOL    HW221711   5.937   5.300   0.384
 6938SOL     OW21712   2.846   0.906   4.605
 6938SOL    HW121713   2.828   0.974   4.534
 6938SOL    HW221714   2.794   0.823   4.586
 6939SOL     OW21715   5.622   3.603   3.576
 6939SOL    HW121716   5.641   3.670   3.647
 6939SOL    HW221717   5.608   3.513   3.617
 6940SOL     OW21718   2.390   6.643   1.061
 6940SOL    HW121719   2.382   6.604   0.969
 6940SOL    HW221720   2.299   6.656   1.100
 6941SOL     OW21721   3.789   2.928   2.932
 6941SOL    HW121722   3.736   2.958   2.852
 6941SOL    HW221723   3.812   2.831   2.922
 6942SOL     OW21724   6.527   5.150   2.932
 6942SOL    HW121725   6.584   5.114   2.859
 6942SOL    HW221726   6.513   5.248   2.919
 6943SOL     OW21727   4.746   5.031   6.169
 6943SOL    HW121728   4.706   4.995   6.254
 6943SOL    HW221729   4.831   4.983   6.149
 6944SOL     OW21730   0.980   4.554   5.201
 6944SOL    HW121731   0.905   4.577   5.139
 6944SOL    HW221732   1.037   4.635   5.216
 6945SOL     OW21733   5.155   2.076   1.150
 6945SOL    HW121734   5.094   2.102   1.076
 6945SOL    HW221735   5.203   1.992   1.125
 6946SOL     OW21736   5.264   6.156   2.552
 6946SOL    HW121737   5.261   6.204   2.639
 6946SOL    HW221738   5.188   6.187   2.494
 6947SOL     OW21739   6.411   4.355   5.165
 6947SOL    HW121740   6.480   4.408   5.215
 6947SOL    HW221741   6.457   4.295   5.100
 6948SOL     OW21742   6.996   4.240   6.579
 6948SOL    HW121743   7.004   4.317   6.516
 6948SOL    HW221744   6.900   4.212   6.584
 6949SOL     OW21745   2.912   1.254   2.717
 6949SOL    HW121746   2.972   1.233   2.794
 6949SOL    HW221747   2.817   1.234   2.743
 6950SOL     OW21748   1.278   1.028   3.716
 6950SOL    HW121749   1.375   1.035   3.694
 6950SOL    HW221750   1.230   0.987   3.638
 6951SOL     OW21751   1.268   3.676   6.564
 6951SOL    HW121752   1.283   3.651   6.659
 6951SOL    HW221753   1.187   3.735   6.557
 6952SOL     OW21754   4.675   5.675   3.472
 6952SOL    HW121755   4.774   5.663   3.475
 6952SOL    HW221756   4.646   5.727   3.552
 6953SOL     OW21757   6.307   1.228   1.540
 6953SOL    HW121758   6.351   1.164   1.603
 6953SOL    HW221759   6.369   1.249   1.465
 6954SOL     OW21760   0.018   4.124   6.164
 6954SOL    HW121761   7.007   4.081   6.247
 6954SOL    HW221762   0.117   4.128   6.165
 6955SOL     OW21763   5.022   5.536   2.724
 6955SOL    HW121764   4.997   5.451   2.770
 6955SOL    HW221765   4.978   5.613   2.770
 6956SOL     OW21766   5.320   5.262   1.700
 6956SOL    HW121767   5.223   5.237   1.707
 6956SOL    HW221768   5.357   5.278   1.792
 6957SOL     OW21769   5.931   5.352   5.296
 6957SOL    HW121770   6.006   5.286   5.287
 6957SOL    HW221771   5.968   5.441   5.322
 6958SOL     OW21772   3.547   3.336   2.537
 6958SOL    HW121773   3.644   3.315   2.552
 6958SOL    HW221774   3.534   3.435   2.544
 6959SOL     OW21775   1.599   4.152   2.822
 6959SOL    HW121776   1.556   4.210   2.891
 6959SOL    HW221777   1.671   4.203   2.775
 6960SOL     OW21778   5.122   4.644   1.198
 6960SOL    HW121779   5.071   4.572   1.245
 6960SOL    HW221780   5.057   4.711   1.160
 6961SOL     OW21781   4.737   2.639   5.662
 6961SOL    HW121782   4.685   2.683   5.736
 6961SOL    HW221783   4.793   2.565   5.700
 6962SOL     OW21784   2.925   5.946   0.014
 6962SOL    HW121785   2.992   6.017   7.014
 6962SOL    HW221786   2.922   5.935   0.114
 6963SOL     OW21787   0.276   6.428   6.675
 6963SOL    HW121788   0.271   6.425   6.775
 6963SOL    HW221789   0.237   6.514   6.642
 6964SOL     OW21790   2.145   1.683   4.849
 6964SOL    HW121791   2.149   1.603   4.789
 6964SOL    HW221792   2.050   1.709   4.864
 6965SOL     OW21793   1.849   1.564   0.090
 6965SOL    HW121794   1.759   1.571   0.132
 6965SOL    HW221795   1.918   1.552   0.161
 6966SOL     OW21796   1.399   6.618   1.027
 6966SOL    HW121797   1.377   6.709   1.062
 6966SOL    HW221798   1.447   6.565   1.098
 6967SOL     OW21799   3.643   0.561   0.130
 6967SOL    HW121800   3.657   0.549   0.228
 6967SOL    HW221801   3.628   0.658   0.110
 6968SOL     OW21802   2.970   0.646   3.059
 6968SOL    HW121803   3.052   0.694   3.030
 6968SOL    HW221804   2.931   0.691   3.139
 6969SOL     OW21805   1.670   2.698   1.805
 6969SOL    HW121806   1.729   2.774   1.831
 6969SOL    HW221807   1.617   2.724   1.724
 6970SOL     OW21808   3.509   5.759   5.817
 6970SOL    HW121809   3.423   5.798   5.785
 6970SOL    HW221810   3.582   5.780   5.752
 6971SOL     OW21811   5.942   4.020   6.893
 6971SOL    HW121812   5.846   4.035   6.915
 6971SOL    HW221813   5.949   3.959   6.814
 6972SOL     OW21814   5.954   3.779   1.446
 6972SOL    HW121815   5.972   3.850   1.515
 6972SOL    HW221816   5.858   3.750   1.453
 6973SOL     OW21817   0.751   1.475   2.832
 6973SOL    HW121818   0.671   1.415   2.827
 6973SOL    HW221819   0.817   1.438   2.897
 6974SOL     OW21820   4.059   3.269   3.210
 6974SOL    HW121821   4.029   3.218   3.290
 6974SOL    HW221822   4.115   3.346   3.239
 6975SOL     OW21823   3.157   5.317   4.714
 6975SOL    HW121824   3.211   5.359   4.641
 6975SOL    HW221825   3.215   5.299   4.793
 6976SOL     OW21826   4.262   5.154   5.992
 6976SOL    HW121827   4.345   5.210   5.995
 6976SOL    HW221828   4.204   5.184   5.916
 6977SOL     OW21829   4.909   4.730   2.391
 6977SOL    HW121830   4.981   4.701   2.454
 6977SOL    HW221831   4.943   4.723   2.297
 6978SOL     OW21832   0.768   3.813   0.678
 6978SOL    HW121833   0.808   3.723   0.659
 6978SOL    HW221834   0.669   3.807   0.674
 6979SOL     OW21835   1.255   3.470   2.597
 6979SOL    HW121836   1.166   3.457   2.554
 6979SOL    HW221837   1.245   3.525   2.680
 6980SOL     OW21838   2.798   5.071   3.166
 6980SOL    HW121839   2.851   5.063   3.250
 6980SOL    HW221840   2.737   4.992   3.157
 6981SOL     OW21841   4.444   3.019   6.648
 6981SOL    HW121842   4.528   3.021   6.594
 6981SOL    HW221843   4.419   3.112   6.673
 6982SOL     OW21844   0.397   0.454   1.875
 6982SOL    HW121845   0.404   0.362   1.835
 6982SOL    HW221846   0.323   0.455   1.943
 6983SOL     OW21847   6.360   0.091   4.200
 6983SOL    HW121848   6.404   0.006   4.231
 6983SOL    HW221849   6.390   0.113   4.107
 6984SOL     OW21850   1.382   3.589   3.186
 6984SOL    HW121851   1.462   3.647   3.174
 6984SOL    HW221852   1.368   3.572   3.284
 6985SOL     OW21853   5.211   2.874   0.339
 6985SOL    HW121854   5.150   2.841   0.267
 6985SOL    HW221855   5.186   2.832   0.426
 6986SOL     OW21856   4.279   5.271   5.623
 6986SOL    HW121857   4.363   5.325   5.635
 6986SOL    HW221858   4.216   5.321   5.564
 6987SOL     OW21859   6.876   1.001   6.641
 6987SOL    HW121860   6.829   0.938   6.580
 6987SOL    HW221861   6.891   1.089   6.594
 6988SOL     OW21862   2.400   1.485   6.767
 6988SOL    HW121863   2.345   1.436   6.700
 6988SOL    HW221864   2.344   1.507   6.847
 6989SOL     OW21865   0.485   4.166   2.584
 6989SOL    HW121866   0.534   4.086   2.550
 6989SOL    HW221867   0.544   4.246   2.580
 6990SOL     OW21868   3.857   3.577   6.510
 6990SOL    HW121869   3.762   3.569   6.481
 6990SOL    HW221870   3.861   3.620   6.601
 6991SOL     OW21871   5.738   3.383   2.987
 6991SOL    HW121872   5.745   3.287   2.960
 6991SOL    HW221873   5.676   3.391   3.066
 6992SOL     OW21874   1.456   4.814   0.150
 6992SOL    HW121875   1.523   4.792   0.079
 6992SOL    HW221876   1.400   4.891   0.120
 6993SOL     OW21877   3.918   2.313   1.728
 6993SOL    HW121878   3.837   2.337   1.782
 6993SOL    HW221879   3.923   2.371   1.647
 6994SOL     OW21880   2.943   1.217   3.401
 6994SOL    HW121881   2.920   1.306   3.361
 6994SOL    HW221882   3.010   1.231   3.474
 6995SOL     OW21883   0.321   4.361   0.629
 6995SOL    HW121884   0.288   4.454   0.611
 6995SOL    HW221885   0.401   4.365   0.689
 6996SOL     OW21886   0.866   1.207   6.569
 6996SOL    HW121887   0.903   1.194   6.477
 6996SOL    HW221888   0.922   1.274   6.618
 6997SOL     OW21889   6.166   6.345   6.038
 6997SOL    HW121890   6.102   6.301   5.974
 6997SOL    HW221891   6.115   6.388   6.112
 6998SOL     OW21892   0.399   0.374   0.451
 6998SOL    HW121893   0.476   0.363   0.389
 6998SOL    HW221894   0.433   0.382   0.545
 6999SOL     OW21895   6.530   2.695   6.772
 6999SOL    HW121896   6.522   2.790   6.801
 6999SOL    HW221897   6.621   2.680   6.733
 7000SOL     OW21898   0.465   5.729   3.412
 7000SOL    HW121899   0.550   5.678   3.402
 7000SOL    HW221900   0.482   5.827   3.398
 7001SOL     OW21901   0.000   1.408   4.018
 7001SOL    HW121902   0.093   1.372   4.014
 7001SOL    HW221903   0.004   1.507   4.030
 7002SOL     OW21904   1.091   4.907   2.607
 7002SOL    HW121905   1.073   4.984   2.547
 7002SOL    HW221906   1.127   4.941   2.695
 7003SOL     OW21907   0.547   4.909   6.611
 7003SOL    HW121908   0.551   4.823   6.662
 7003SOL    HW221909   0.553   4.889   6.513
 7004SOL     OW21910   1.981   6.956   6.628
 7004SOL    HW121911   1.967   0.031   6.619
 7004SOL    HW221912   2.061   6.939   6.686
 7005SOL     OW21913   1.474   5.431   0.377
 7005SOL    HW121914   1.491   5.346   0.328
 7005SOL    HW221915   1.537   5.502   0.344
 7006SOL     OW21916   0.334   0.487   3.635
 7006SOL    HW121917   0.318   0.465   3.539
 7006SOL    HW221918   0.419   0.445   3.666
 7007SOL     OW21919   2.048   0.437   6.272
 7007SOL    HW121920   2.127   0.485   6.234
 7007SOL    HW221921   2.021   0.363   6.211
 7008SOL     OW21922   4.970   3.216   3.621
 7008SOL    HW121923   5.051   3.169   3.587
 7008SOL    HW221924   4.943   3.288   3.557
 7009SOL     OW21925   4.893   5.905   2.139
 7009SOL    HW121926   4.957   5.929   2.212
 7009SOL    HW221927   4.800   5.930   2.166
 7010SOL     OW21928   5.100   2.985   2.651
 7010SOL    HW121929   5.048   3.024   2.727
 7010SOL    HW221930   5.114   2.888   2.667
 7011SOL     OW21931   2.533   6.788   6.353
 7011SOL    HW121932   2.477   6.716   6.394
 7011SOL    HW221933   2.559   6.761   6.260
 7012SOL     OW21934   0.003   3.497   0.808
 7012SOL    HW121935   0.042   3.414   0.847
 7012SOL    HW221936   7.020   3.567   0.880
 7013SOL     OW21937   3.493   2.710   7.006
 7013SOL    HW121938   3.492   2.648   0.062
 7013SOL    HW221939   3.419   2.685   6.944
 7014SOL     OW21940   6.075   3.219   0.140
 7014SOL    HW121941   6.133   3.162   0.082
 7014SOL    HW221942   6.004   3.262   0.085
 7015SOL     OW21943   6.440   6.179   1.144
 7015SOL    HW121944   6.509   6.228   1.197
 7015SOL    HW221945   6.349   6.198   1.181
 7016SOL     OW21946   3.160   4.713   1.178
 7016SOL    HW121947   3.138   4.731   1.082
 7016SOL    HW221948   3.076   4.698   1.230
 7017SOL     OW21949   6.094   4.569   6.048
 7017SOL    HW121950   5.995   4.575   6.052
 7017SOL    HW221951   6.123   4.474   6.061
 7018SOL     OW21952   5.358   3.688   5.203
 7018SOL    HW121953   5.300   3.665   5.281
 7018SOL    HW221954   5.329   3.776   5.165
 7019SOL     OW21955   3.891   5.477   2.133
 7019SOL    HW121956   3.954   5.467   2.057
 7019SOL    HW221957   3.796   5.475   2.100
 7020SOL     OW21958   0.921   2.126   6.648
 7020SOL    HW121959   1.006   2.083   6.679
 7020SOL    HW221960   0.852   2.055   6.631
 7021SOL     OW21961   0.989   1.695   4.744
 7021SOL    HW121962   1.032   1.730   4.661
 7021SOL    HW221963   0.945   1.607   4.724
 7022SOL     OW21964   2.346   3.795   0.867
 7022SOL    HW121965   2.284   3.808   0.790
 7022SOL    HW221966   2.398   3.711   0.855
 7023SOL     OW21967   0.335   1.646   0.743
 7023SOL    HW121968   0.424   1.627   0.701
 7023SOL    HW221969   0.346   1.654   0.842
 7024SOL     OW21970   3.230   4.045   5.147
 7024SOL    HW121971   3.184   4.128   5.180
 7024SOL    HW221972   3.202   4.027   5.053
 7025SOL     OW21973   3.125   0.877   1.252
 7025SOL    HW121974   3.163   0.945   1.189
 7025SOL    HW221975   3.100   0.795   1.202
 7026SOL     OW21976   3.274   2.209   1.153
 7026SOL    HW121977   3.293   2.149   1.230
 7026SOL    HW221978   3.203   2.275   1.177
 7027SOL     OW21979   3.263   4.852   1.966
 7027SOL    HW121980   3.338   4.788   1.946
 7027SOL    HW221981   3.176   4.809   1.943
 7028SOL     OW21982   3.457   0.423   3.379
 7028SOL    HW121983   3.440   0.520   3.365
 7028SOL    HW221984   3.513   0.410   3.461
 7029SOL     OW21985   3.372   3.821   3.613
 7029SOL    HW121986   3.460   3.833   3.567
 7029SOL    HW221987   3.341   3.909   3.650
 7030SOL     OW21988   6.188   6.976   5.242
 7030SOL    HW121989   6.175   0.004   5.157
 7030SOL    HW221990   6.240   0.008   5.306
 7031SOL     OW21991   4.775   5.855   0.927
 7031SOL    HW121992   4.820   5.766   0.919
 7031SOL    HW221993   4.676   5.842   0.932
 7032SOL     OW21994   4.446   5.133   4.571
 7032SOL    HW121995   4.478   5.144   4.665
 7032SOL    HW221996   4.493   5.199   4.512
 7033SOL     OW21997   1.637   1.719   5.418
 7033SOL    HW121998   1.541   1.738   5.394
 7033SOL    HW221999   1.690   1.803   5.410
 7034SOL     OW22000   6.346   1.587   2.109
 7034SOL    HW122001   6.370   1.561   2.202
 7034SOL    HW222002   6.400   1.533   2.044
 7035SOL     OW22003   2.729   1.618   1.819
 7035SOL    HW122004   2.677   1.666   1.749
 7035SOL    HW222005   2.669   1.594   1.895
 7036SOL     OW22006   6.030   1.503   1.660
 7036SOL    HW122007   5.934   1.494   1.689
 7036SOL    HW222008   6.061   1.596   1.677
 7037SOL     OW22009   1.458   0.246   6.552
 7037SOL    HW122010   1.422   0.295   6.631
 7037SOL    HW222011   1.521   0.305   6.502
 7038SOL     OW22012   0.963   4.704   0.836
 7038SOL    HW122013   0.987   4.761   0.915
 7038SOL    HW222014   1.025   4.724   0.760
 7039SOL     OW22015   6.618   0.041   1.785
 7039SOL    HW122016   6.611   0.101   1.865
 7039SOL    HW222017   6.573   6.977   1.805
 7040SOL     OW22018   5.602   2.547   5.266
 7040SOL    HW122019   5.531   2.480   5.244
 7040SOL    HW222020   5.559   2.630   5.302
 7041SOL     OW22021   1.123   0.381   3.739
 7041SOL    HW122022   1.208   0.422   3.773
 7041SOL    HW222023   1.072   0.342   3.816
 7042SOL     OW22024   6.085   6.108   5.427
 7042SOL    HW122025   6.100   6.013   5.451
 7042SOL    HW222026   6.087   6.164   5.510
 7043SOL     OW22027   1.720   5.752   0.894
 7043SOL    HW122028   1.657   5.746   0.816
 7043SOL    HW222029   1.754   5.845   0.903
 7044SOL     OW22030   4.471   6.291   5.372
 7044SOL    HW122031   4.541   6.275   5.302
 7044SOL    HW222032   4.479   6.385   5.406
 7045SOL     OW22033   5.935   5.982   1.975
 7045SOL    HW122034   5.984   5.904   2.014
 7045SOL    HW222035   5.836   5.967   1.985
 7046SOL     OW22036   2.257   1.658   2.965
 7046SOL    HW122037   2.313   1.741   2.959
 7046SOL    HW222038   2.180   1.666   2.902
 7047SOL     OW22039   1.173   6.929   0.884
 7047SOL    HW122040   1.115   6.988   0.940
 7047SOL    HW222041   1.247   6.892   0.941
 7048SOL     OW22042   0.546   6.303   3.673
 7048SOL    HW122043   0.517   6.390   3.634
 7048SOL    HW222044   0.573   6.241   3.599
 7049SOL     OW22045   3.572   1.602   4.620
 7049SOL    HW122046   3.509   1.615   4.696
 7049SOL    HW222047   3.609   1.691   4.592
 7050SOL     OW22048   3.937   4.239   0.700
 7050SOL    HW122049   4.000   4.291   0.759
 7050SOL    HW222050   3.843   4.253   0.731
 7051SOL     OW22051   1.337   2.165   1.945
 7051SOL    HW122052   1.373   2.225   1.873
 7051SOL    HW222053   1.321   2.074   1.907
 7052SOL     OW22054   4.958   2.388   2.968
 7052SOL    HW122055   4.979   2.340   2.883
 7052SOL    HW222056   4.877   2.347   3.010
 7053SOL     OW22057   1.220   5.062   3.814
 7053SOL    HW122058   1.277   4.981   3.826
 7053SOL    HW222059   1.278   5.142   3.795
 7054SOL     OW22060   5.354   6.923   6.827
 7054SOL    HW122061   5.300   7.004   6.806
 7054SOL    HW222062   5.296   6.854   6.871
 7055SOL     OW22063   2.321   6.835   0.352
 7055SOL    HW122064   2.372   6.840   0.266
 7055SOL    HW222065   2.242   6.896   0.347
 7056SOL     OW22066   6.843   5.270   0.837
 7056SOL    HW122067   6.747   5.299   0.847
 7056SOL    HW222068   6.882   5.253   0.927
 7057SOL     OW22069   3.203   5.810   4.850
 7057SOL    HW122070   3.285   5.843   4.898
 7057SOL    HW222071   3.160   5.739   4.904
 7058SOL     OW22072   6.481   2.292   6.180
 7058SOL    HW122073   6.408   2.243   6.133
 7058SOL    HW222074   6.454   2.388   6.191
 7059SOL     OW22075   1.715   0.446   5.235
 7059SOL    HW122076   1.637   0.460   5.296
 7059SOL    HW222077   1.726   0.349   5.217
 7060SOL     OW22078   3.372   2.543   1.563
 7060SOL    HW122079   3.400   2.638   1.549
 7060SOL    HW222080   3.292   2.541   1.623
 7061SOL     OW22081   1.705   1.079   1.522
 7061SOL    HW122082   1.762   1.001   1.549
 7061SOL    HW222083   1.742   1.162   1.563
 7062SOL     OW22084   3.106   0.726   4.604
 7062SOL    HW122085   3.105   0.823   4.582
 7062SOL    HW222086   3.016   0.686   4.585
 7063SOL     OW22087   0.190   1.189   1.657
 7063SOL    HW122088   0.188   1.175   1.755
 7063SOL    HW222089   0.222   1.106   1.611
 7064SOL     OW22090   3.099   1.296   5.645
 7064SOL    HW122091   3.051   1.367   5.594
 7064SOL    HW222092   3.035   1.252   5.709
 7065SOL     OW22093   3.477   6.192   4.830
 7065SOL    HW122094   3.456   6.186   4.732
 7065SOL    HW222095   3.576   6.182   4.843
 7066SOL     OW22096   3.147   0.458   1.281
 7066SOL    HW122097   3.238   0.416   1.273
 7066SOL    HW222098   3.151   0.535   1.344
 7067SOL     OW22099   2.286   4.207   6.105
 7067SOL    HW122100   2.315   4.139   6.037
 7067SOL    HW222101   2.290   4.167   6.196
 7068SOL     OW22102   5.039   4.247   4.595
 7068SOL    HW122103   5.078   4.203   4.676
 7068SOL    HW222104   4.939   4.248   4.603
 7069SOL     OW22105   5.074   0.772   5.489
 7069SOL    HW122106   5.088   0.867   5.517
 7069SOL    HW222107   5.147   0.715   5.525
 7070SOL     OW22108   0.328   0.975   5.885
 7070SOL    HW122109   0.377   1.008   5.965
 7070SOL    HW222110   0.268   0.899   5.911
 7071SOL     OW22111   4.549   5.991   6.659
 7071SOL    HW122112   4.464   5.952   6.695
 7071SOL    HW222113   4.532   6.030   6.568
 7072SOL     OW22114   0.809   3.782   6.349
 7072SOL    HW122115   0.816   3.766   6.447
 7072SOL    HW222116   0.718   3.815   6.326
 7073SOL     OW22117   4.695   0.902   3.728
 7073SOL    HW122118   4.794   0.915   3.738
 7073SOL    HW222119   4.648   0.946   3.804
 7074SOL     OW22120   5.852   4.074   2.041
 7074SOL    HW122121   5.883   4.153   1.988
 7074SOL    HW222122   5.920   4.052   2.111
 7075SOL     OW22123   2.521   5.121   2.651
 7075SOL    HW122124   2.454   5.170   2.595
 7075SOL    HW222125   2.474   5.050   2.704
 7076SOL     OW22126   5.606   1.956   1.466
 7076SOL    HW122127   5.649   1.867   1.476
 7076SOL    HW222128   5.596   1.999   1.556
 7077SOL     OW22129   3.536   6.039   1.340
 7077SOL    HW122130   3.493   6.034   1.250
 7077SOL    HW222131   3.616   5.978   1.342
 7078SOL     OW22132   6.805   1.313   6.424
 7078SOL    HW122133   6.761   1.403   6.420
 7078SOL    HW222134   6.736   1.244   6.446
 7079SOL     OW22135   1.932   5.375   4.920
 7079SOL    HW122136   1.923   5.378   4.820
 7079SOL    HW222137   2.020   5.336   4.944
 7080SOL     OW22138   4.380   1.408   6.100
 7080SOL    HW122139   4.447   1.390   6.172
 7080SOL    HW222140   4.351   1.504   6.106
 7081SOL     OW22141   2.248   6.335   0.229
 7081SOL    HW122142   2.290   6.302   0.313
 7081SOL    HW222143   2.267   6.432   0.218
 7082SOL     OW22144   0.602   3.923   2.177
 7082SOL    HW122145   0.531   3.990   2.197
 7082SOL    HW222146   0.624   3.927   2.079
 7083SOL     OW22147   5.230   2.815   3.172
 7083SOL    HW122148   5.196   2.877   3.101
 7083SOL    HW222149   5.318   2.848   3.206
 7084SOL     OW22150   1.101   5.282   0.707
 7084SOL    HW122151   1.031   5.306   0.639
 7084SOL    HW222152   1.084   5.333   0.791
 7085SOL     OW22153   0.207   4.221   2.512
 7085SOL    HW122154   0.173   4.228   2.419
 7085SOL    HW222155   0.302   4.189   2.511
 7086SOL     OW22156   4.723   0.548   3.535
 7086SOL    HW122157   4.640   0.568   3.482
 7086SOL    HW222158   4.788   0.623   3.523
 7087SOL     OW22159   5.590   2.330   3.369
 7087SOL    HW122160   5.648   2.303   3.445
 7087SOL    HW222161   5.574   2.252   3.309
 7088SOL     OW22162   5.961   2.659   5.378
 7088SOL    HW122163   5.936   2.568   5.347
 7088SOL    HW222164   6.012   2.706   5.306
 7089SOL     OW22165   3.072   5.675   0.662
 7089SOL    HW122166   3.031   5.729   0.735
 7089SOL    HW222167   3.001   5.646   0.598
 7090SOL     OW22168   4.413   2.907   0.888
 7090SOL    HW122169   4.416   2.828   0.950
 7090SOL    HW222170   4.475   2.892   0.811
 7091SOL     OW22171   6.277   6.726   6.837
 7091SOL    HW122172   6.359   6.728   6.780
 7091SOL    HW222173   6.282   6.799   6.905
 7092SOL     OW22174   4.245   0.151   6.429
 7092SOL    HW122175   4.155   0.177   6.394
 7092SOL    HW222176   4.316   0.200   6.379
 7093SOL     OW22177   3.565   3.479   0.327
 7093SOL    HW122178   3.584   3.526   0.413
 7093SOL    HW222179   3.615   3.392   0.325
 7094SOL     OW22180   4.432   1.117   5.138
 7094SOL    HW122181   4.499   1.062   5.089
 7094SOL    HW222182   4.418   1.078   5.229
 7095SOL     OW22183   2.701   4.725   4.100
 7095SOL    HW122184   2.626   4.790   4.116
 7095SOL    HW222185   2.664   4.634   4.084
 7096SOL     OW22186   6.222   6.220   0.452
 7096SOL    HW122187   6.250   6.315   0.437
 7096SOL    HW222188   6.255   6.188   0.541
 7097SOL     OW22189   5.231   1.685   2.707
 7097SOL    HW122190   5.232   1.590   2.676
 7097SOL    HW222191   5.282   1.742   2.643
 7098SOL     OW22192   0.513   1.333   2.850
 7098SOL    HW122193   0.430   1.291   2.813
 7098SOL    HW222194   0.525   1.303   2.945
 7099SOL     OW22195   3.437   1.845   4.404
 7099SOL    HW122196   3.356   1.898   4.380
 7099SOL    HW222197   3.446   1.840   4.504
 7100SOL     OW22198   0.152   4.255   1.337
 7100SOL    HW122199   0.084   4.324   1.313
 7100SOL    HW222200   0.199   4.223   1.255
 7101SOL     OW22201   2.854   5.610   4.076
 7101SOL    HW122202   2.941   5.567   4.053
 7101SOL    HW222203   2.835   5.598   4.173
 7102SOL     OW22204   5.156   1.318   2.859
 7102SOL    HW122205   5.082   1.330   2.925
 7102SOL    HW222206   5.234   1.276   2.904
 7103SOL     OW22207   5.455   4.039   3.792
 7103SOL    HW122208   5.547   3.999   3.800
 7103SOL    HW222209   5.437   4.096   3.871
 7104SOL     OW22210   5.138   2.795   4.837
 7104SOL    HW122211   5.106   2.731   4.768
 7104SOL    HW222212   5.220   2.842   4.804
 7105SOL     OW22213   3.606   4.112   2.677
 7105SOL    HW122214   3.703   4.088   2.664
 7105SOL    HW222215   3.596   4.163   2.762
 7106SOL     OW22216   2.934   2.149   2.184
 7106SOL    HW122217   2.910   2.223   2.122
 7106SOL    HW222218   2.902   2.170   2.276
 7107SOL     OW22219   3.745   1.032   6.789
 7107SOL    HW122220   3.767   1.117   6.837
 7107SOL    HW222221   3.680   1.052   6.715
 7108SOL     OW22222   3.682   0.398   1.883
 7108SOL    HW122223   3.595   0.364   1.920
 7108SOL    HW222224   3.663   0.468   1.814
 7109SOL     OW22225   3.240   4.859   5.693
 7109SOL    HW122226   3.331   4.896   5.677
 7109SOL    HW222227   3.171   4.925   5.662
 7110SOL     OW22228   2.583   6.141   5.395
 7110SOL    HW122229   2.581   6.085   5.478
 7110SOL    HW222230   2.569   6.082   5.315
 7111SOL     OW22231   6.546   1.004   4.790
 7111SOL    HW122232   6.478   0.931   4.788
 7111SOL    HW222233   6.543   1.054   4.703
 7112SOL     OW22234   0.306   5.254   5.416
 7112SOL    HW122235   0.279   5.165   5.452
 7112SOL    HW222236   0.305   5.251   5.316
 7113SOL     OW22237   3.253   6.750   4.891
 7113SOL    HW122238   3.340   6.785   4.926
 7113SOL    HW222239   3.269   6.700   4.806
 7114SOL     OW22240   5.695   3.802   0.856
 7114SOL    HW122241   5.685   3.863   0.935
 7114SOL    HW222242   5.760   3.843   0.791
 7115SOL     OW22243   4.611   2.946   6.203
 7115SOL    HW122244   4.674   3.021   6.225
 7115SOL    HW222245   4.545   2.978   6.134
 7116SOL     OW22246   6.530   4.647   4.926
 7116SOL    HW122247   6.614   4.686   4.966
 7116SOL    HW222248   6.454   4.709   4.942
 7117SOL     OW22249   4.662   0.215   2.791
 7117SOL    HW122250   4.606   0.174   2.863
 7117SOL    HW222251   4.738   0.265   2.832
 7118SOL     OW22252   4.328   4.353   5.892
 7118SOL    HW122253   4.404   4.309   5.941
 7118SOL    HW222254   4.355   4.447   5.868
 7119SOL     OW22255   2.854   6.515   4.689
 7119SOL    HW122256   2.902   6.462   4.759
 7119SOL    HW222257   2.768   6.470   4.667
 7120SOL     OW22258   4.081   1.615   1.554
 7120SOL    HW122259   4.037   1.655   1.474
 7120SOL    HW222260   4.042   1.526   1.573
 7121SOL     OW22261   1.109   6.148   2.032
 7121SOL    HW122262   1.183   6.200   2.074
 7121SOL    HW222263   1.046   6.117   2.104
 7122SOL     OW22264   3.936   1.694   6.485
 7122SOL    HW122265   3.910   1.599   6.470
 7122SOL    HW222266   4.033   1.699   6.509
 7123SOL     OW22267   5.000   4.530   6.195
 7123SOL    HW122268   5.004   4.529   6.095
 7123SOL    HW222269   4.906   4.542   6.225
 7124SOL     OW22270   2.639   3.048   0.338
 7124SOL    HW122271   2.607   2.961   0.374
 7124SOL    HW222272   2.645   3.042   0.238
 7125SOL     OW22273   1.104   6.622   2.072
 7125SOL    HW122274   1.073   6.546   2.014
 7125SOL    HW222275   1.202   6.634   2.062
 7126SOL     OW22276   3.973   4.555   1.143
 7126SOL    HW122277   3.875   4.569   1.159
 7126SOL    HW222278   4.000   4.467   1.181
 7127SOL     OW22279   2.830   6.163   6.152
 7127SOL    HW122280   2.802   6.072   6.122
 7127SOL    HW222281   2.821   6.227   6.076
 7128SOL     OW22282   3.511   4.140   0.150
 7128SOL    HW122283   3.521   4.057   0.094
 7128SOL    HW222284   3.598   4.159   0.196
 7129SOL     OW22285   0.286   0.626   6.832
 7129SOL    HW122286   0.208   0.563   6.835
 7129SOL    HW222287   0.325   0.635   6.924
 7130SOL     OW22288   3.651   0.494   4.132
 7130SOL    HW122289   3.653   0.508   4.033
 7130SOL    HW222290   3.726   0.547   4.174
 7131SOL     OW22291   2.358   1.678   2.375
 7131SOL    HW122292   2.274   1.704   2.327
 7131SOL    HW222293   2.355   1.714   2.469
 7132SOL     OW22294   4.779   4.383   1.923
 7132SOL    HW122295   4.700   4.368   1.983
 7132SOL    HW222296   4.845   4.309   1.935
 7133SOL     OW22297   4.663   6.196   2.907
 7133SOL    HW122298   4.593   6.162   2.843
 7133SOL    HW222299   4.679   6.127   2.978
 7134SOL     OW22300   4.657   5.114   0.304
 7134SOL    HW122301   4.692   5.063   0.226
 7134SOL    HW222302   4.567   5.151   0.282
 7135SOL     OW22303   2.060   4.367   1.177
 7135SOL    HW122304   2.102   4.451   1.144
 7135SOL    HW222305   1.980   4.388   1.233
 7136SOL     OW22306   1.277   2.720   1.620
 7136SOL    HW122307   1.371   2.754   1.631
 7136SOL    HW222308   1.261   2.697   1.524
 7137SOL     OW22309   2.814   1.044   2.519
 7137SOL    HW122310   2.872   0.987   2.578
 7137SOL    HW222311   2.861   1.130   2.499
 7138SOL     OW22312   6.959   3.130   6.984
 7138SOL    HW122313   6.992   3.223   6.966
 7138SOL    HW222314   6.928   3.123   0.056
 7139SOL     OW22315   5.874   5.669   1.143
 7139SOL    HW122316   5.894   5.688   1.047
 7139SOL    HW222317   5.779   5.640   1.152
 7140SOL     OW22318   6.993   5.171   0.444
 7140SOL    HW122319   6.922   5.163   0.513
 7140SOL    HW222320   6.951   5.181   0.354
 7141SOL     OW22321   3.646   1.405   1.199
 7141SOL    HW122322   3.608   1.413   1.107
 7141SOL    HW222323   3.626   1.489   1.250
 7142SOL     OW22324   4.745   0.204   5.320
 7142SOL    HW122325   4.708   0.152   5.243
 7142SOL    HW222326   4.840   0.228   5.301
 7143SOL     OW22327   3.196   2.459   6.177
 7143SOL    HW122328   3.195   2.524   6.252
 7143SOL    HW222329   3.218   2.506   6.092
 7144SOL     OW22330   6.643   1.331   5.682
 7144SOL    HW122331   6.565   1.384   5.649
 7144SOL    HW222332   6.695   1.295   5.604
 7145SOL     OW22333   6.576   2.348   5.924
 7145SOL    HW122334   6.524   2.364   6.008
 7145SOL    HW222335   6.514   2.311   5.854
 7146SOL     OW22336   0.229   1.628   4.542
 7146SOL    HW122337   0.217   1.665   4.634
 7146SOL    HW222338   0.146   1.581   4.514
 7147SOL     OW22339   6.920   0.150   1.166
 7147SOL    HW122340   6.979   0.078   1.130
 7147SOL    HW222341   6.876   0.198   1.091
 7148SOL     OW22342   5.906   6.868   0.878
 7148SOL    HW122343   5.932   6.788   0.932
 7148SOL    HW222344   5.828   6.845   0.819
 7149SOL     OW22345   5.406   4.153   6.262
 7149SOL    HW122346   5.416   4.096   6.343
 7149SOL    HW222347   5.488   4.147   6.206
 7150SOL     OW22348   2.954   2.262   6.997
 7150SOL    HW122349   2.903   2.205   6.933
 7150SOL    HW222350   3.023   2.314   6.948
 7151SOL     OW22351   5.603   1.301   6.962
 7151SOL    HW122352   5.690   1.263   6.993
 7151SOL    HW222353   5.552   1.232   6.911
 7152SOL     OW22354   4.795   0.144   5.611
 7152SOL    HW122355   4.764   0.209   5.541
 7152SOL    HW222356   4.832   0.063   5.566
 7153SOL     OW22357   4.018   5.850   0.780
 7153SOL    HW122358   3.938   5.855   0.720
 7153SOL    HW222359   4.046   5.754   0.789
 7154SOL     OW22360   5.143   0.929   1.656
 7154SOL    HW122361   5.220   0.916   1.718
 7154SOL    HW222362   5.105   1.021   1.669
 7155SOL     OW22363   1.516   0.098   1.064
 7155SOL    HW122364   1.571   0.123   1.144
 7155SOL    HW222365   1.450   0.171   1.045
 7156SOL     OW22366   6.439   3.812   5.710
 7156SOL    HW122367   6.346   3.844   5.689
 7156SOL    HW222368   6.473   3.859   5.791
 7157SOL     OW22369   0.148   3.918   5.967
 7157SOL    HW122370   0.222   3.960   6.020
 7157SOL    HW222371   0.148   3.955   5.874
 7158SOL     OW22372   5.280   0.244   3.901
 7158SOL    HW122373   5.334   0.265   3.820
 7158SOL    HW222374   5.323   0.284   3.982
 7159SOL     OW22375   0.611   6.336   3.106
 7159SOL    HW122376   0.563   6.253   3.077
 7159SOL    HW222377   0.701   6.338   3.062
 7160SOL     OW22378   5.766   0.010   2.498
 7160SOL    HW122379   5.795   0.079   2.431
 7160SOL    HW222380   5.669   0.023   2.518
 7161SOL     OW22381   3.728   3.753   2.126
 7161SOL    HW122382   3.794   3.821   2.158
 7161SOL    HW222383   3.680   3.788   2.046
 7162SOL     OW22384   0.011   6.242   0.905
 7162SOL    HW122385   0.047   6.240   0.999
 7162SOL    HW222386   6.944   6.199   0.903
 7163SOL     OW22387   6.833   0.234   0.940
 7163SOL    HW122388   6.742   0.194   0.930
 7163SOL    HW222389   6.898   0.180   0.886
 7164SOL     OW22390   1.624   0.308   6.953
 7164SOL    HW122391   1.700   0.368   6.977
 7164SOL    HW222392   1.629   0.224   7.007
 7165SOL     OW22393   4.863   1.872   6.779
 7165SOL    HW122394   4.944   1.864   6.837
 7165SOL    HW222395   4.792   1.924   6.827
 7166SOL     OW22396   6.837   5.545   5.270
 7166SOL    HW122397   6.842   5.622   5.333
 7166SOL    HW222398   6.773   5.566   5.196
 7167SOL     OW22399   0.438   3.206   5.656
 7167SOL    HW122400   0.441   3.176   5.560
 7167SOL    HW222401   0.342   3.220   5.682
 7168SOL     OW22402   1.422   1.168   2.486
 7168SOL    HW122403   1.508   1.118   2.496
 7168SOL    HW222404   1.411   1.231   2.562
 7169SOL     OW22405   1.551   4.461   5.852
 7169SOL    HW122406   1.639   4.414   5.844
 7169SOL    HW222407   1.478   4.398   5.824
 7170SOL     OW22408   4.058   1.584   1.025
 7170SOL    HW122409   4.086   1.519   1.096
 7170SOL    HW222410   3.994   1.651   1.063
 7171SOL     OW22411   6.885   4.389   0.974
 7171SOL    HW122412   6.806   4.423   0.923
 7171SOL    HW222413   6.900   4.293   0.952
 7172SOL     OW22414   0.580   2.381   3.551
 7172SOL    HW122415   0.676   2.409   3.548
 7172SOL    HW222416   0.532   2.435   3.619
 7173SOL     OW22417   3.458   5.697   5.081
 7173SOL    HW122418   3.555   5.717   5.093
 7173SOL    HW222419   3.436   5.608   5.121
 7174SOL     OW22420   6.570   3.895   2.290
 7174SOL    HW122421   6.475   3.866   2.300
 7174SOL    HW222422   6.617   3.837   2.223
 7175SOL     OW22423   6.384   3.689   5.986
 7175SOL    HW122424   6.458   3.673   6.051
 7175SOL    HW222425   6.392   3.624   5.910
 7176SOL     OW22426   0.296   0.990   6.449
 7176SOL    HW122427   0.367   0.930   6.486
 7176SOL    HW222428   0.226   0.934   6.404
 7177SOL     OW22429   1.574   5.586   3.159
 7177SOL    HW122430   1.591   5.684   3.148
 7177SOL    HW222431   1.542   5.569   3.253
 7178SOL     OW22432   1.042   6.455   5.643
 7178SOL    HW122433   1.100   6.523   5.689
 7178SOL    HW222434   1.050   6.468   5.544
 7179SOL     OW22435   4.300   4.879   6.001
 7179SOL    HW122436   4.301   4.979   6.001
 7179SOL    HW222437   4.246   4.846   5.924
 7180SOL     OW22438   1.476   2.909   1.894
 7180SOL    HW122439   1.574   2.927   1.895
 7180SOL    HW222440   1.428   2.988   1.856
 7181SOL     OW22441   2.449   0.509   0.264
 7181SOL    HW122442   2.441   0.558   0.177
 7181SOL    HW222443   2.478   0.573   0.335
 7182SOL     OW22444   1.738   1.344   3.355
 7182SOL    HW122445   1.809   1.278   3.330
 7182SOL    HW222446   1.758   1.382   3.445
 7183SOL     OW22447   1.330   0.172   1.679
 7183SOL    HW122448   1.258   0.176   1.749
 7183SOL    HW222449   1.398   0.103   1.706
 7184SOL     OW22450   0.033   0.826   3.743
 7184SOL    HW122451   6.963   0.795   3.721
 7184SOL    HW222452   0.083   0.752   3.788
 7185SOL     OW22453   3.905   0.451   3.808
 7185SOL    HW122454   3.825   0.499   3.842
 7185SOL    HW222455   3.972   0.439   3.882
 7186SOL     OW22456   6.582   1.161   6.486
 7186SOL    HW122457   6.534   1.075   6.507
 7186SOL    HW222458   6.517   1.236   6.488
 7187SOL     OW22459   3.421   3.222   4.091
 7187SOL    HW122460   3.360   3.292   4.055
 7187SOL    HW222461   3.497   3.207   4.027
 7188SOL     OW22462   4.700   4.685   0.689
 7188SOL    HW122463   4.650   4.612   0.642
 7188SOL    HW222464   4.797   4.679   0.666
 7189SOL     OW22465   0.005   2.296   5.837
 7189SOL    HW122466   6.938   2.255   5.829
 7189SOL    HW222467   0.065   2.237   5.891
 7190SOL     OW22468   5.901   5.487   6.935
 7190SOL    HW122469   5.939   5.396   6.953
 7190SOL    HW222470   5.913   5.545   7.015
 7191SOL     OW22471   6.743   5.010   2.241
 7191SOL    HW122472   6.807   4.941   2.275
 7191SOL    HW222473   6.650   4.988   2.272
 7192SOL     OW22474   2.648   3.890   5.272
 7192SOL    HW122475   2.631   3.809   5.329
 7192SOL    HW222476   2.562   3.925   5.237
 7193SOL     OW22477   3.686   1.536   3.807
 7193SOL    HW122478   3.762   1.588   3.768
 7193SOL    HW222479   3.720   1.479   3.882
 7194SOL     OW22480   2.816   2.194   5.806
 7194SOL    HW122481   2.806   2.114   5.865
 7194SOL    HW222482   2.881   2.258   5.848
 7195SOL     OW22483   0.887   3.205   5.862
 7195SOL    HW122484   0.923   3.243   5.947
 7195SOL    HW222485   0.960   3.197   5.795
 7196SOL     OW22486   2.899   3.760   1.452
 7196SOL    HW122487   2.988   3.714   1.443
 7196SOL    HW222488   2.913   3.850   1.494
 7197SOL     OW22489   3.527   5.090   0.058
 7197SOL    HW122490   3.466   5.151   0.008
 7197SOL    HW222491   3.496   5.081   0.153
 7198SOL     OW22492   1.041   0.528   1.916
 7198SOL    HW122493   1.016   0.514   1.821
 7198SOL    HW222494   0.962   0.513   1.975
 7199SOL     OW22495   5.861   1.080   3.363
 7199SOL    HW122496   5.872   0.990   3.320
 7199SOL    HW222497   5.909   1.148   3.308
 7200SOL     OW22498   1.087   3.248   6.785
 7200SOL    HW122499   0.988   3.237   6.798
 7200SOL    HW222500   1.108   3.250   6.687
 7201SOL     OW22501   5.994   6.247   3.901
 7201SOL    HW122502   6.041   6.222   3.986
 7201SOL    HW222503   6.044   6.209   3.823
 7202SOL     OW22504   4.809   0.111   6.126
 7202SOL    HW122505   4.748   0.155   6.060
 7202SOL    HW222506   4.794   0.012   6.123
 7203SOL     OW22507   0.428   1.726   1.011
 7203SOL    HW122508   0.414   1.647   1.069
 7203SOL    HW222509   0.524   1.753   1.014
 7204SOL     OW22510   5.935   0.947   2.386
 7204SOL    HW122511   6.004   0.991   2.443
 7204SOL    HW222512   5.942   0.979   2.292
 7205SOL     OW22513   3.066   1.483   4.165
 7205SOL    HW122514   2.975   1.483   4.206
 7205SOL    HW222515   3.130   1.531   4.225
 7206SOL     OW22516   2.175   3.436   0.150
 7206SOL    HW122517   2.126   3.509   0.199
 7206SOL    HW222518   2.266   3.424   0.191
 7207SOL     OW22519   1.890   1.541   3.073
 7207SOL    HW122520   1.862   1.452   3.037
 7207SOL    HW222521   1.812   1.586   3.115
 7208SOL     OW22522   3.713   0.617   3.894
 7208SOL    HW122523   3.730   0.664   3.980
 7208SOL    HW222524   3.667   0.679   3.831
 7209SOL     OW22525   3.612   1.044   2.385
 7209SOL    HW122526   3.692   1.059   2.326
 7209SOL    HW222527   3.547   1.118   2.372
 7210SOL     OW22528   3.762   1.402   4.061
 7210SOL    HW122529   3.756   1.431   4.157
 7210SOL    HW222530   3.758   1.303   4.057
 7211SOL     OW22531   3.983   6.138   5.725
 7211SOL    HW122532   3.956   6.221   5.774
 7211SOL    HW222533   3.902   6.084   5.701
 7212SOL     OW22534   0.968   5.360   5.475
 7212SOL    HW122535   0.905   5.378   5.550
 7212SOL    HW222536   1.059   5.339   5.511
 7213SOL     OW22537   4.431   2.775   0.082
 7213SOL    HW122538   4.456   2.790   0.177
 7213SOL    HW222539   4.352   2.831   0.058
 7214SOL     OW22540   5.964   1.051   6.224
 7214SOL    HW122541   5.918   1.056   6.313
 7214SOL    HW222542   6.063   1.053   6.237
 7215SOL     OW22543   6.679   1.658   2.401
 7215SOL    HW122544   6.590   1.613   2.394
 7215SOL    HW222545   6.665   1.757   2.412
 7216SOL     OW22546   5.346   6.657   3.728
 7216SOL    HW122547   5.307   6.748   3.732
 7216SOL    HW222548   5.371   6.636   3.634
 7217SOL     OW22549   1.281   3.086   3.611
 7217SOL    HW122550   1.319   3.094   3.518
 7217SOL    HW222551   1.268   2.990   3.634
 7218SOL     OW22552   6.639   2.096   5.076
 7218SOL    HW122553   6.695   2.025   5.117
 7218SOL    HW222554   6.681   2.186   5.093
 7219SOL     OW22555   2.647   6.485   2.073
 7219SOL    HW122556   2.725   6.528   2.118
 7219SOL    HW222557   2.660   6.490   1.974
 7220SOL     OW22558   6.433   4.126   3.620
 7220SOL    HW122559   6.489   4.121   3.702
 7220SOL    HW222560   6.491   4.152   3.542
 7221SOL     OW22561   4.254   5.127   3.316
 7221SOL    HW122562   4.200   5.090   3.392
 7221SOL    HW222563   4.228   5.079   3.232
 7222SOL     OW22564   0.387   5.970   4.053
 7222SOL    HW122565   0.424   6.062   4.064
 7222SOL    HW222566   0.461   5.906   4.034
 7223SOL     OW22567   6.954   4.862   1.635
 7223SOL    HW122568   6.915   4.911   1.558
 7223SOL    HW222569   6.880   4.830   1.695
 7224SOL     OW22570   4.536   1.962   2.821
 7224SOL    HW122571   4.442   1.981   2.794
 7224SOL    HW222572   4.598   1.997   2.751
 7225SOL     OW22573   1.101   5.991   0.466
 7225SOL    HW122574   1.122   5.928   0.391
 7225SOL    HW222575   1.130   6.083   0.441
 7226SOL     OW22576   5.918   6.392   0.178
 7226SOL    HW122577   5.989   6.342   0.128
 7226SOL    HW222578   5.870   6.330   0.240
 7227SOL     OW22579   1.862   1.447   2.583
 7227SOL    HW122580   1.823   1.524   2.531
 7227SOL    HW222581   1.905   1.482   2.666
 7228SOL     OW22582   5.810   3.106   2.634
 7228SOL    HW122583   5.757   3.171   2.579
 7228SOL    HW222584   5.903   3.139   2.644
 7229SOL     OW22585   5.778   0.372   4.989
 7229SOL    HW122586   5.809   0.445   4.928
 7229SOL    HW222587   5.803   0.284   4.950
 7230SOL     OW22588   2.182   5.436   4.635
 7230SOL    HW122589   2.098   5.398   4.595
 7230SOL    HW222590   2.189   5.406   4.730
 7231SOL     OW22591   3.746   3.439   6.111
 7231SOL    HW122592   3.788   3.506   6.173
 7231SOL    HW222593   3.817   3.395   6.056
 7232SOL     OW22594   4.431   5.952   3.737
 7232SOL    HW122595   4.400   5.943   3.642
 7232SOL    HW222596   4.443   6.049   3.758
 7233SOL     OW22597   0.659   1.453   6.006
 7233SOL    HW122598   0.614   1.408   5.929
 7233SOL    HW222599   0.612   1.539   6.027
 7234SOL     OW22600   5.610   4.571   3.624
 7234SOL    HW122601   5.624   4.539   3.530
 7234SOL    HW222602   5.536   4.518   3.666
 7235SOL     OW22603   6.492   0.235   1.997
 7235SOL    HW122604   6.573   0.283   2.032
 7235SOL    HW222605   6.458   0.283   1.916
 7236SOL     OW22606   1.106   3.925   2.771
 7236SOL    HW122607   1.057   3.852   2.820
 7236SOL    HW222608   1.156   3.886   2.694
 7237SOL     OW22609   5.452   1.311   0.593
 7237SOL    HW122610   5.451   1.381   0.522
 7237SOL    HW222611   5.420   1.351   0.679
 7238SOL     OW22612   4.052   3.390   0.278
 7238SOL    HW122613   4.117   3.462   0.255
 7238SOL    HW222614   3.970   3.400   0.221
 7239SOL     OW22615   5.555   2.535   2.101
 7239SOL    HW122616   5.540   2.632   2.114
 7239SOL    HW222617   5.507   2.484   2.172
 7240SOL     OW22618   6.966   1.572   0.336
 7240SOL    HW122619   0.015   1.568   0.405
 7240SOL    HW222620   6.996   1.526   0.253
 7241SOL     OW22621   2.066   0.312   2.713
 7241SOL    HW122622   2.080   0.214   2.720
 7241SOL    HW222623   2.032   0.348   2.800
 7242SOL     OW22624   6.827   4.753   5.516
 7242SOL    HW122625   6.877   4.820   5.571
 7242SOL    HW222626   6.877   4.734   5.432
 7243SOL     OW22627   5.275   4.696   6.215
 7243SOL    HW122628   5.182   4.668   6.239
 7243SOL    HW222629   5.332   4.615   6.204
 7244SOL     OW22630   0.201   6.197   7.022
 7244SOL    HW122631   0.252   6.268   6.973
 7244SOL    HW222632   0.239   6.107   6.999
 7245SOL     OW22633   1.380   2.827   6.847
 7245SOL    HW122634   1.353   2.731   6.853
 7245SOL    HW222635   1.366   2.861   6.754
 7246SOL     OW22636   4.129   6.873   3.013
 7246SOL    HW122637   4.045   6.911   3.051
 7246SOL    HW222638   4.197   6.946   3.003
 7247SOL     OW22639   2.936   3.771   4.130
 7247SOL    HW122640   2.980   3.690   4.169
 7247SOL    HW222641   2.874   3.744   4.057
 7248SOL     OW22642   2.986   1.385   5.926
 7248SOL    HW122643   2.991   1.290   5.895
 7248SOL    HW222644   3.063   1.436   5.890
 7249SOL     OW22645   3.864   5.376   2.565
 7249SOL    HW122646   3.882   5.305   2.497
 7249SOL    HW222647   3.766   5.395   2.569
 7250SOL     OW22648   5.708   5.406   5.703
 7250SOL    HW122649   5.626   5.461   5.685
 7250SOL    HW222650   5.713   5.331   5.638
 7251SOL     OW22651   0.909   5.100   4.714
 7251SOL    HW122652   0.932   5.114   4.810
 7251SOL    HW222653   0.821   5.052   4.707
 7252SOL     OW22654   4.176   3.563   2.638
 7252SOL    HW122655   4.266   3.523   2.655
 7252SOL    HW222656   4.130   3.513   2.565
 7253SOL     OW22657   2.404   5.277   4.436
 7253SOL    HW122658   2.340   5.203   4.417
 7253SOL    HW222659   2.370   5.331   4.513
 7254SOL     OW22660   6.066   3.449   4.115
 7254SOL    HW122661   6.038   3.369   4.169
 7254SOL    HW222662   6.111   3.515   4.175
 7255SOL     OW22663   4.622   3.676   0.294
 7255SOL    HW122664   4.617   3.586   0.336
 7255SOL    HW222665   4.693   3.730   0.339
 7256SOL     OW22666   3.113   0.398   4.674
 7256SOL    HW122667   3.060   0.320   4.705
 7256SOL    HW222668   3.189   0.414   4.737
 7257SOL     OW22669   1.219   1.340   4.594
 7257SOL    HW122670   1.219   1.403   4.517
 7257SOL    HW222671   1.312   1.303   4.607
 7258SOL     OW22672   6.124   3.248   2.213
 7258SOL    HW122673   6.101   3.179   2.281
 7258SOL    HW222674   6.076   3.228   2.127
 7259SOL     OW22675   1.422   4.524   2.654
 7259SOL    HW122676   1.516   4.492   2.649
 7259SOL    HW222677   1.421   4.624   2.663
 7260SOL     OW22678   5.913   3.003   0.626
 7260SOL    HW122679   5.934   2.993   0.528
 7260SOL    HW222680   5.839   2.939   0.650
 7261SOL     OW22681   6.728   4.179   6.592
 7261SOL    HW122682   6.735   4.084   6.561
 7261SOL    HW222683   6.632   4.203   6.603
 7262SOL     OW22684   5.040   1.440   5.112
 7262SOL    HW122685   5.015   1.417   5.019
 7262SOL    HW222686   5.094   1.366   5.152
 7263SOL     OW22687   6.786   5.686   5.972
 7263SOL    HW122688   6.842   5.613   5.934
 7263SOL    HW222689   6.749   5.659   6.060
 7264SOL     OW22690   5.558   1.473   1.379
 7264SOL    HW122691   5.477   1.443   1.330
 7264SOL    HW222692   5.639   1.428   1.341
 7265SOL     OW22693   3.893   0.647   5.634
 7265SOL    HW122694   3.939   0.609   5.554
 7265SOL    HW222695   3.957   0.701   5.687
 7266SOL     OW22696   0.272   0.687   3.054
 7266SOL    HW122697   0.284   0.757   2.984
 7266SOL    HW222698   0.175   0.662   3.061
 7267SOL     OW22699   6.436   4.196   4.468
 7267SOL    HW122700   6.383   4.175   4.386
 7267SOL    HW222701   6.527   4.229   4.441
 7268SOL     OW22702   6.193   6.538   4.310
 7268SOL    HW122703   6.211   6.635   4.325
 7268SOL    HW222704   6.104   6.514   4.349
 7269SOL     OW22705   2.504   4.599   4.727
 7269SOL    HW122706   2.543   4.633   4.642
 7269SOL    HW222707   2.520   4.666   4.800
 7270SOL     OW22708   0.600   0.572   4.933
 7270SOL    HW122709   0.644   0.650   4.887
 7270SOL    HW222710   0.543   0.605   5.008
 7271SOL     OW22711   0.434   4.836   3.229
 7271SOL    HW122712   0.370   4.904   3.194
 7271SOL    HW222713   0.403   4.745   3.204
 7272SOL     OW22714   6.291   3.755   1.537
 7272SOL    HW122715   6.370   3.697   1.516
 7272SOL    HW222716   6.294   3.837   1.479
 7273SOL     OW22717   0.707   1.894   5.562
 7273SOL    HW122718   0.670   1.966   5.504
 7273SOL    HW222719   0.632   1.838   5.598
 7274SOL     OW22720   0.421   5.243   6.064
 7274SOL    HW122721   0.507   5.292   6.078
 7274SOL    HW222722   0.415   5.212   5.969
 7275SOL     OW22723   0.966   5.883   3.856
 7275SOL    HW122724   1.020   5.898   3.773
 7275SOL    HW222725   0.868   5.884   3.833
 7276SOL     OW22726   5.253   5.670   3.612
 7276SOL    HW122727   5.239   5.642   3.517
 7276SOL    HW222728   5.165   5.675   3.658
 7277SOL     OW22729   4.892   0.789   0.230
 7277SOL    HW122730   4.961   0.774   0.302
 7277SOL    HW222731   4.814   0.728   0.247
 7278SOL     OW22732   3.340   2.981   2.386
 7278SOL    HW122733   3.406   3.054   2.366
 7278SOL    HW222734   3.353   2.950   2.480
 7279SOL     OW22735   3.485   6.505   6.286
 7279SOL    HW122736   3.417   6.577   6.272
 7279SOL    HW222737   3.499   6.457   6.199
 7280SOL     OW22738   4.638   2.043   5.905
 7280SOL    HW122739   4.632   1.997   5.816
 7280SOL    HW222740   4.558   2.101   5.918
 7281SOL     OW22741   5.284   0.971   5.863
 7281SOL    HW122742   5.354   0.926   5.918
 7281SOL    HW222743   5.325   1.005   5.778
 7282SOL     OW22744   5.230   5.727   2.015
 7282SOL    HW122745   5.180   5.797   1.964
 7282SOL    HW222746   5.320   5.713   1.974
 7283SOL     OW22747   2.110   0.879   4.294
 7283SOL    HW122748   2.053   0.874   4.212
 7283SOL    HW222749   2.125   0.975   4.318
 7284SOL     OW22750   0.673   1.983   4.976
 7284SOL    HW122751   0.691   2.065   5.029
 7284SOL    HW222752   0.733   1.909   5.006
 7285SOL     OW22753   5.419   4.558   1.512
 7285SOL    HW122754   5.489   4.577   1.443
 7285SOL    HW222755   5.444   4.476   1.563
 7286SOL     OW22756   2.077   4.094   0.758
 7286SOL    HW122757   2.110   4.088   0.852
 7286SOL    HW222758   2.090   4.007   0.712
 7287SOL     OW22759   5.612   1.540   5.737
 7287SOL    HW122760   5.669   1.510   5.814
 7287SOL    HW222761   5.628   1.480   5.658
 7288SOL     OW22762   2.820   6.767   0.027
 7288SOL    HW122763   2.742   6.770   6.988
 7288SOL    HW222764   2.819   6.682   0.079
 7289SOL     OW22765   5.435   2.210   3.876
 7289SOL    HW122766   5.481   2.175   3.957
 7289SOL    HW222767   5.502   2.238   3.808
 7290SOL     OW22768   2.750   5.304   4.452
 7290SOL    HW122769   2.806   5.379   4.416
 7290SOL    HW222770   2.656   5.314   4.419
 7291SOL     OW22771   3.384   5.425   1.756
 7291SOL    HW122772   3.471   5.455   1.716
 7291SOL    HW222773   3.350   5.345   1.706
 7292SOL     OW22774   3.308   6.943   4.551
 7292SOL    HW122775   3.363   6.869   4.590
 7292SOL    HW222776   3.285   6.921   4.456
 7293SOL     OW22777   2.013   2.025   6.323
 7293SOL    HW122778   2.057   2.062   6.404
 7293SOL    HW222779   1.916   2.049   6.324
 7294SOL     OW22780   4.320   5.749   0.565
 7294SOL    HW122781   4.413   5.713   0.567
 7294SOL    HW222782   4.322   5.848   0.552
 7295SOL     OW22783   5.450   0.174   1.460
 7295SOL    HW122784   5.430   0.128   1.373
 7295SOL    HW222785   5.520   0.122   1.510
 7296SOL     OW22786   4.142   5.290   2.158
 7296SOL    HW122787   4.064   5.232   2.135
 7296SOL    HW222788   4.210   5.236   2.208
 7297SOL     OW22789   5.474   6.478   2.150
 7297SOL    HW122790   5.436   6.471   2.243
 7297SOL    HW222791   5.553   6.539   2.152
 7298SOL     OW22792   6.390   3.651   3.867
 7298SOL    HW122793   6.318   3.715   3.894
 7298SOL    HW222794   6.387   3.571   3.926
 7299SOL     OW22795   5.244   3.730   6.358
 7299SOL    HW122796   5.290   3.646   6.386
 7299SOL    HW222797   5.195   3.769   6.436
 7300SOL     OW22798   4.675   5.022   1.414
 7300SOL    HW122799   4.646   4.936   1.456
 7300SOL    HW222800   4.611   5.095   1.439
 7301SOL     OW22801   6.515   0.989   6.128
 7301SOL    HW122802   6.559   0.978   6.217
 7301SOL    HW222803   6.520   1.085   6.100
 7302SOL     OW22804   5.503   0.881   5.992
 7302SOL    HW122805   5.568   0.895   6.067
 7302SOL    HW222806   5.513   0.788   5.957
 7303SOL     OW22807   3.360   1.060   0.848
 7303SOL    HW122808   3.390   1.060   0.752
 7303SOL    HW222809   3.419   1.000   0.902
 7304SOL     OW22810   3.578   3.904   5.019
 7304SOL    HW122811   3.500   3.846   5.044
 7304SOL    HW222812   3.649   3.896   5.089
 7305SOL     OW22813   5.646   1.152   0.307
 7305SOL    HW122814   5.566   1.212   0.305
 7305SOL    HW222815   5.709   1.177   0.234
 7306SOL     OW22816   5.082   4.815   1.613
 7306SOL    HW122817   5.054   4.720   1.605
 7306SOL    HW222818   5.182   4.820   1.621
 7307SOL     OW22819   4.135   6.767   2.492
 7307SOL    HW122820   4.041   6.736   2.480
 7307SOL    HW222821   4.196   6.688   2.497
 7308SOL     OW22822   6.231   1.364   4.425
 7308SOL    HW122823   6.247   1.328   4.333
 7308SOL    HW222824   6.280   1.307   4.491
 7309SOL     OW22825   4.418   5.509   2.249
 7309SOL    HW122826   4.345   5.535   2.186
 7309SOL    HW222827   4.436   5.584   2.313
 7310SOL     OW22828   1.916   5.455   1.745
 7310SOL    HW122829   1.838   5.510   1.715
 7310SOL    HW222830   1.998   5.483   1.695
 7311SOL     OW22831   2.655   2.365   2.157
 7311SOL    HW122832   2.727   2.381   2.090
 7311SOL    HW222833   2.695   2.330   2.242
 7312SOL     OW22834   0.058   1.851   5.483
 7312SOL    HW122835   0.102   1.785   5.422
 7312SOL    HW222836   0.128   1.902   5.533
 7313SOL     OW22837   3.864   2.586   6.706
 7313SOL    HW122838   3.843   2.622   6.797
 7313SOL    HW222839   3.794   2.520   6.679
 7314SOL     OW22840   0.800   2.862   4.257
 7314SOL    HW122841   0.780   2.776   4.304
 7314SOL    HW222842   0.729   2.929   4.278
 7315SOL     OW22843   0.056   0.802   5.523
 7315SOL    HW122844   0.130   0.866   5.538
 7315SOL    HW222845   7.005   0.820   5.588
 7316SOL     OW22846   3.609   3.668   5.361
 7316SOL    HW122847   3.555   3.717   5.429
 7316SOL    HW222848   3.675   3.730   5.319
 7317SOL     OW22849   3.061   1.057   3.665
 7317SOL    HW122850   3.127   1.130   3.648
 7317SOL    HW222851   3.103   0.969   3.643
 7318SOL     OW22852   1.423   2.101   1.432
 7318SOL    HW122853   1.447   2.106   1.336
 7318SOL    HW222854   1.415   2.005   1.460
 7319SOL     OW22855   0.011   3.944   6.377
 7319SOL    HW122856   0.054   4.000   6.448
 7319SOL    HW222857   0.058   3.856   6.372
 7320SOL     OW22858   6.693   2.348   2.477
 7320SOL    HW122859   6.612   2.370   2.532
 7320SOL    HW222860   6.752   2.429   2.471
 7321SOL     OW22861   2.713   1.507   4.539
 7321SOL    HW122862   2.754   1.598   4.547
 7321SOL    HW222863   2.659   1.488   4.621
 7322SOL     OW22864   0.345   3.527   1.671
 7322SOL    HW122865   0.268   3.560   1.725
 7322SOL    HW222866   0.430   3.545   1.721
 7323SOL     OW22867   2.186   3.839   3.011
 7323SOL    HW122868   2.177   3.878   2.920
 7323SOL    HW222869   2.236   3.902   3.070
 7324SOL     OW22870   5.337   5.937   2.282
 7324SOL    HW122871   5.370   6.006   2.346
 7324SOL    HW222872   5.350   5.846   2.320
 7325SOL     OW22873   3.243   6.482   0.662
 7325SOL    HW122874   3.284   6.433   0.585
 7325SOL    HW222875   3.314   6.535   0.709
 7326SOL     OW22876   2.659   0.222   4.536
 7326SOL    HW122877   2.591   0.150   4.524
 7326SOL    HW222878   2.670   0.272   4.450
 7327SOL     OW22879   1.351   2.560   5.191
 7327SOL    HW122880   1.420   2.629   5.168
 7327SOL    HW222881   1.265   2.584   5.146
 7328SOL     OW22882   2.609   6.759   6.879
 7328SOL    HW122883   2.561   6.837   6.838
 7328SOL    HW222884   2.588   6.676   6.826
 7329SOL     OW22885   4.341   3.318   1.271
 7329SOL    HW122886   4.341   3.237   1.331
 7329SOL    HW222887   4.302   3.395   1.321
 7330SOL     OW22888   4.569   2.378   0.942
 7330SOL    HW122889   4.596   2.328   0.860
 7330SOL    HW222890   4.649   2.423   0.982
 7331SOL     OW22891   5.359   1.143   1.973
 7331SOL    HW122892   5.286   1.188   2.025
 7331SOL    HW222893   5.417   1.091   2.035
 7332SOL     OW22894   3.434   5.151   1.132
 7332SOL    HW122895   3.380   5.115   1.056
 7332SOL    HW222896   3.387   5.132   1.218
 7333SOL     OW22897   0.356   4.819   2.604
 7333SOL    HW122898   0.374   4.877   2.684
 7333SOL    HW222899   0.364   4.723   2.630
 7334SOL     OW22900   3.898   6.789   4.666
 7334SOL    HW122901   3.908   6.875   4.716
 7334SOL    HW222902   3.908   6.712   4.728
 7335SOL     OW22903   2.209   2.886   2.686
 7335SOL    HW122904   2.277   2.816   2.707
 7335SOL    HW222905   2.150   2.900   2.765
 7336SOL     OW22906   1.895   6.421   4.050
 7336SOL    HW122907   1.877   6.323   4.044
 7336SOL    HW222908   1.980   6.437   4.101
 7337SOL     OW22909   5.169   2.323   2.397
 7337SOL    HW122910   5.099   2.378   2.351
 7337SOL    HW222911   5.165   2.338   2.495
 7338SOL     OW22912   6.624   3.317   0.200
 7338SOL    HW122913   6.555   3.303   0.271
 7338SOL    HW222914   6.678   3.398   0.223
 7339SOL     OW22915   1.407   5.892   4.582
 7339SOL    HW122916   1.427   5.887   4.680
 7339SOL    HW222917   1.322   5.844   4.562
 7340SOL     OW22918   2.346   6.626   6.629
 7340SOL    HW122919   2.416   6.597   6.694
 7340SOL    HW222920   2.382   6.621   6.536
 7341SOL     OW22921   6.677   1.970   0.309
 7341SOL    HW122922   6.600   1.999   0.366
 7341SOL    HW222923   6.698   1.874   0.328
 7342SOL     OW22924   0.315   6.281   2.437
 7342SOL    HW122925   0.411   6.307   2.450
 7342SOL    HW222926   0.306   6.182   2.446
 7343SOL     OW22927   5.620   3.140   0.577
 7343SOL    HW122928   5.632   3.137   0.676
 7343SOL    HW222929   5.535   3.092   0.552
 7344SOL     OW22930   1.651   6.229   6.193
 7344SOL    HW122931   1.660   6.181   6.105
 7344SOL    HW222932   1.579   6.298   6.185
 7345SOL     OW22933   3.413   5.189   6.650
 7345SOL    HW122934   3.379   5.103   6.610
 7345SOL    HW222935   3.383   5.266   6.595
 7346SOL     OW22936   4.142   4.752   2.708
 7346SOL    HW122937   4.175   4.770   2.615
 7346SOL    HW222938   4.219   4.756   2.772
 7347SOL     OW22939   6.234   1.982   0.187
 7347SOL    HW122940   6.179   2.038   0.125
 7347SOL    HW222941   6.186   1.970   0.274
 7348SOL     OW22942   6.262   4.323   0.588
 7348SOL    HW122943   6.276   4.227   0.565
 7348SOL    HW222944   6.334   4.353   0.650
 7349SOL     OW22945   3.976   1.944   1.855
 7349SOL    HW122946   4.070   1.973   1.871
 7349SOL    HW222947   3.963   1.923   1.758
 7350SOL     OW22948   3.441   0.816   4.100
 7350SOL    HW122949   3.443   0.790   4.196
 7350SOL    HW222950   3.477   0.909   4.090
 7351SOL     OW22951   2.419   4.453   3.693
 7351SOL    HW122952   2.432   4.385   3.621
 7351SOL    HW222953   2.391   4.407   3.778
 7352SOL     OW22954   5.946   3.602   4.455
 7352SOL    HW122955   5.936   3.522   4.514
 7352SOL    HW222956   5.855   3.640   4.436
 7353SOL     OW22957   6.704   0.639   5.763
 7353SOL    HW122958   6.739   0.622   5.855
 7353SOL    HW222959   6.679   0.553   5.720
 7354SOL     OW22960   0.558   1.319   3.190
 7354SOL    HW122961   0.653   1.342   3.166
 7354SOL    HW222962   0.556   1.278   3.281
 7355SOL     OW22963   2.940   1.548   0.394
 7355SOL    HW122964   2.883   1.512   0.321
 7355SOL    HW222965   2.937   1.648   0.393
 7356SOL     OW22966   3.864   3.636   6.231
 7356SOL    HW122967   3.898   3.617   6.323
 7356SOL    HW222968   3.857   3.735   6.218
 7357SOL     OW22969   5.174   6.129   2.091
 7357SOL    HW122970   5.200   6.225   2.078
 7357SOL    HW222971   5.249   6.080   2.134
 7358SOL     OW22972   5.533   0.832   3.432
 7358SOL    HW122973   5.574   0.769   3.366
 7358SOL    HW222974   5.450   0.791   3.470
 7359SOL     OW22975   4.635   6.992   1.669
 7359SOL    HW122976   4.644   0.020   1.583
 7359SOL    HW222977   4.547   7.015   1.712
 7360SOL     OW22978   2.893   3.378   4.855
 7360SOL    HW122979   2.881   3.475   4.834
 7360SOL    HW222980   2.847   3.357   4.941
 7361SOL     OW22981   0.020   0.482   2.844
 7361SOL    HW122982   7.015   0.401   2.895
 7361SOL    HW222983   0.023   0.561   2.906
 7362SOL     OW22984   3.544   5.523   0.230
 7362SOL    HW122985   3.539   5.457   0.155
 7362SOL    HW222986   3.569   5.476   0.314
 7363SOL     OW22987   4.121   0.966   0.470
 7363SOL    HW122988   4.120   1.044   0.533
 7363SOL    HW222989   4.190   0.900   0.500
 7364SOL     OW22990   5.835   6.283   1.700
 7364SOL    HW122991   5.736   6.286   1.684
 7364SOL    HW222992   5.865   6.188   1.703
 7365SOL     OW22993   4.984   3.851   2.075
 7365SOL    HW122994   4.930   3.776   2.114
 7365SOL    HW222995   4.926   3.907   2.016
 7366SOL     OW22996   1.892   0.555   3.881
 7366SOL    HW122997   1.841   0.473   3.907
 7366SOL    HW222998   1.989   0.533   3.871
 7367SOL     OW22999   3.954   1.230   0.040
 7367SOL    HW123000   3.862   1.262   0.019
 7367SOL    HW223001   3.948   1.142   0.087
 7368SOL     OW23002   3.627   3.212   3.479
 7368SOL    HW123003   3.580   3.179   3.398
 7368SOL    HW223004   3.600   3.307   3.497
 7369SOL     OW23005   5.400   3.193   0.381
 7369SOL    HW123006   5.460   3.121   0.346
 7369SOL    HW223007   5.382   3.177   0.478
 7370SOL     OW23008   1.953   1.132   4.332
 7370SOL    HW123009   2.021   1.204   4.345
 7370SOL    HW223010   1.926   1.095   4.420
 7371SOL     OW23011   4.075   1.203   3.969
 7371SOL    HW123012   4.027   1.265   3.906
 7371SOL    HW223013   4.029   1.203   4.057
 7372SOL     OW23014   5.524   1.279   5.131
 7372SOL    HW123015   5.557   1.211   5.197
 7372SOL    HW223016   5.587   1.283   5.054
 7373SOL     OW23017   6.262   3.125   4.769
 7373SOL    HW123018   6.357   3.100   4.752
 7373SOL    HW223019   6.223   3.167   4.687
 7374SOL     OW23020   6.902   2.104   6.151
 7374SOL    HW123021   6.830   2.141   6.209
 7374SOL    HW223022   6.990   2.139   6.181
 7375SOL     OW23023   1.627   3.839   1.247
 7375SOL    HW123024   1.634   3.931   1.209
 7375SOL    HW223025   1.685   3.832   1.328
 7376SOL     OW23026   6.778   3.788   1.011
 7376SOL    HW123027   6.716   3.792   1.089
 7376SOL    HW223028   6.854   3.727   1.032
 7377SOL     OW23029   2.320   5.789   1.152
 7377SOL    HW123030   2.320   5.777   1.251
 7377SOL    HW223031   2.227   5.784   1.117
 7378SOL     OW23032   1.982   5.370   4.376
 7378SOL    HW123033   1.973   5.293   4.440
 7378SOL    HW223034   1.939   5.450   4.416
 7379SOL     OW23035   4.540   1.366   2.593
 7379SOL    HW123036   4.469   1.313   2.641
 7379SOL    HW223037   4.626   1.315   2.596
 7380SOL     OW23038   5.256   3.530   1.673
 7380SOL    HW123039   5.351   3.544   1.697
 7380SOL    HW223040   5.197   3.578   1.738
 7381SOL     OW23041   3.783   6.997   1.917
 7381SOL    HW123042   3.839   0.030   1.856
 7381SOL    HW223043   3.706   0.028   1.950
 7382SOL     OW23044   6.672   1.261   6.104
 7382SOL    HW123045   6.721   1.347   6.112
 7382SOL    HW223046   6.633   1.253   6.012
 7383SOL     OW23047   2.000   0.044   0.905
 7383SOL    HW123048   1.927   0.113   0.911
 7383SOL    HW223049   2.063   0.069   0.832
 7384SOL     OW23050   6.724   6.763   0.754
 7384SOL    HW123051   6.809   6.813   0.740
 7384SOL    HW223052   6.702   6.760   0.852
 7385SOL     OW23053   5.857   4.502   2.813
 7385SOL    HW123054   5.928   4.566   2.783
 7385SOL    HW223055   5.900   4.417   2.843
 7386SOL     OW23056   5.260   3.944   0.075
 7386SOL    HW123057   5.184   3.883   0.049
 7386SOL    HW223058   5.283   3.928   0.171
 7387SOL     OW23059   6.592   5.632   4.579
 7387SOL    HW123060   6.531   5.695   4.625
 7387SOL    HW223061   6.641   5.680   4.506
 7388SOL     OW23062   2.272   4.286   2.676
 7388SOL    HW123063   2.265   4.339   2.592
 7388SOL    HW223064   2.283   4.189   2.654
 7389SOL     OW23065   6.256   2.820   0.393
 7389SOL    HW123066   6.345   2.799   0.433
 7389SOL    HW223067   6.192   2.745   0.411
 7390SOL     OW23068   2.339   2.800   4.056
 7390SOL    HW123069   2.350   2.741   3.975
 7390SOL    HW223070   2.420   2.857   4.067
 7391SOL     OW23071   3.589   4.164   2.965
 7391SOL    HW123072   3.538   4.131   3.045
 7391SOL    HW223073   3.686   4.141   2.976
 7392SOL     OW23074   3.306   6.763   6.933
 7392SOL    HW123075   3.349   6.766   7.023
 7392SOL    HW223076   3.239   6.689   6.931
 7393SOL     OW23077   4.939   5.432   3.721
 7393SOL    HW123078   4.935   5.518   3.771
 7393SOL    HW223079   4.931   5.450   3.623
 7394SOL     OW23080   2.257   2.184   5.632
 7394SOL    HW123081   2.336   2.228   5.590
 7394SOL    HW223082   2.206   2.132   5.563
 7395SOL     OW23083   2.961   5.955   1.138
 7395SOL    HW123084   2.941   5.955   1.235
 7395SOL    HW223085   2.913   6.031   1.094
 7396SOL     OW23086   1.826   5.418   2.445
 7396SOL    HW123087   1.781   5.330   2.456
 7396SOL    HW223088   1.817   5.450   2.351
 7397SOL     OW23089   6.007   4.623   3.882
 7397SOL    HW123090   6.104   4.603   3.897
 7397SOL    HW223091   5.976   4.687   3.952
 7398SOL     OW23092   3.069   4.853   2.396
 7398SOL    HW123093   3.020   4.773   2.361
 7398SOL    HW223094   3.024   4.937   2.364
 7399SOL     OW23095   5.212   1.422   6.144
 7399SOL    HW123096   5.209   1.332   6.100
 7399SOL    HW223097   5.297   1.468   6.120
 7400SOL     OW23098   4.894   3.067   5.708
 7400SOL    HW123099   4.847   3.092   5.792
 7400SOL    HW223100   4.921   3.150   5.659
 7401SOL     OW23101   1.117   2.441   4.138
 7401SOL    HW123102   1.171   2.386   4.201
 7401SOL    HW223103   1.034   2.390   4.113
 7402SOL     OW23104   3.566   5.356   4.636
 7402SOL    HW123105   3.524   5.266   4.647
 7402SOL    HW223106   3.495   5.425   4.622
 7403SOL     OW23107   2.072   4.234   4.423
 7403SOL    HW123108   1.985   4.184   4.421
 7403SOL    HW223109   2.054   4.331   4.441
 7404SOL     OW23110   3.065   3.504   0.680
 7404SOL    HW123111   3.045   3.588   0.731
 7404SOL    HW223112   3.091   3.432   0.745
 7405SOL     OW23113   3.838   6.893   5.603
 7405SOL    HW123114   3.780   6.813   5.584
 7405SOL    HW223115   3.783   6.976   5.595
 7406SOL     OW23116   0.908   1.992   4.519
 7406SOL    HW123117   0.900   2.041   4.606
 7406SOL    HW223118   0.816   1.964   4.489
 7407SOL     OW23119   1.254   6.147   5.587
 7407SOL    HW123120   1.271   6.228   5.531
 7407SOL    HW223121   1.307   6.070   5.551
 7408SOL     OW23122   4.443   5.406   4.878
 7408SOL    HW123123   4.369   5.429   4.815
 7408SOL    HW223124   4.406   5.355   4.956
 7409SOL     OW23125   6.892   4.032   1.446
 7409SOL    HW123126   6.872   4.080   1.360
 7409SOL    HW223127   6.966   3.966   1.431
 7410SOL     OW23128   6.701   0.670   0.695
 7410SOL    HW123129   6.797   0.685   0.671
 7410SOL    HW223130   6.695   0.598   0.764
 7411SOL     OW23131   2.634   1.548   5.052
 7411SOL    HW123132   2.608   1.455   5.075
 7411SOL    HW223133   2.612   1.609   5.128
 7412SOL     OW23134   3.842   6.878   0.438
 7412SOL    HW123135   3.763   6.843   0.489
 7412SOL    HW223136   3.909   6.915   0.502
 7413SOL     OW23137   4.878   0.817   3.424
 7413SOL    HW123138   4.872   0.907   3.467
 7413SOL    HW223139   4.834   0.820   3.334
 7414SOL     OW23140   2.657   0.770   3.721
 7414SOL    HW123141   2.734   0.831   3.740
 7414SOL    HW223142   2.615   0.795   3.633
 7415SOL     OW23143   4.363   6.559   6.563
 7415SOL    HW123144   4.393   6.609   6.483
 7415SOL    HW223145   4.269   6.526   6.549
 7416SOL     OW23146   1.790   1.105   2.065
 7416SOL    HW123147   1.699   1.088   2.103
 7416SOL    HW223148   1.823   1.022   2.020
 7417SOL     OW23149   0.770   0.545   2.404
 7417SOL    HW123150   0.785   0.521   2.500
 7417SOL    HW223151   0.856   0.579   2.364
 7418SOL     OW23152   1.456   3.830   5.957
 7418SOL    HW123153   1.423   3.736   5.967
 7418SOL    HW223154   1.548   3.837   5.996
 7419SOL     OW23155   0.045   3.333   4.370
 7419SOL    HW123156   0.087   3.418   4.402
 7419SOL    HW223157   0.030   3.272   4.448
 7420SOL     OW23158   0.171   6.384   0.709
 7420SOL    HW123159   0.131   6.325   0.780
 7420SOL    HW223160   0.146   6.349   0.619
 7421SOL     OW23161   5.993   3.774   0.898
 7421SOL    HW123162   5.905   3.793   0.942
 7421SOL    HW223163   6.036   3.695   0.941
 7422SOL     OW23164   5.501   2.864   1.903
 7422SOL    HW123165   5.534   2.859   1.997
 7422SOL    HW223166   5.418   2.808   1.894
 7423SOL     OW23167   4.706   2.506   6.007
 7423SOL    HW123168   4.725   2.463   6.095
 7423SOL    HW223169   4.782   2.487   5.944
 7424SOL     OW23170   0.223   2.296   3.161
 7424SOL    HW123171   0.245   2.367   3.093
 7424SOL    HW223172   0.306   2.272   3.212
 7425SOL     OW23173   5.642   1.096   0.702
 7425SOL    HW123174   5.724   1.147   0.676
 7425SOL    HW223175   5.561   1.147   0.674
 7426SOL     OW23176   3.161   2.645   5.785
 7426SOL    HW123177   3.093   2.684   5.847
 7426SOL    HW223178   3.242   2.616   5.836
 7427SOL     OW23179   3.043   0.592   3.435
 7427SOL    HW123180   3.046   0.495   3.410
 7427SOL    HW223181   2.988   0.604   3.518
 7428SOL     OW23182   3.484   6.800   5.043
 7428SOL    HW123183   3.484   6.730   5.115
 7428SOL    HW223184   3.483   6.891   5.085
 7429SOL     OW23185   0.937   0.066   1.960
 7429SOL    HW123186   0.944   0.072   2.060
 7429SOL    HW223187   0.926   6.993   1.934
 7430SOL     OW23188   6.573   4.715   3.265
 7430SOL    HW123189   6.534   4.798   3.226
 7430SOL    HW223190   6.518   4.636   3.238
 7431SOL     OW23191   0.981   1.670   3.674
 7431SOL    HW123192   0.988   1.619   3.759
 7431SOL    HW223193   0.900   1.639   3.623
 7432SOL     OW23194   1.854   1.289   2.995
 7432SOL    HW123195   1.812   1.262   2.908
 7432SOL    HW223196   1.808   1.242   3.070
 7433SOL     OW23197   3.019   6.421   6.746
 7433SOL    HW123198   2.934   6.447   6.700
 7433SOL    HW223199   3.006   6.334   6.794
 7434SOL     OW23200   4.478   6.956   3.655
 7434SOL    HW123201   4.569   6.918   3.673
 7434SOL    HW223202   4.477   6.995   3.563
 7435SOL     OW23203   4.810   4.155   3.493
 7435SOL    HW123204   4.811   4.202   3.582
 7435SOL    HW223205   4.841   4.061   3.504
 7436SOL     OW23206   5.606   2.949   5.984
 7436SOL    HW123207   5.510   2.949   6.011
 7436SOL    HW223208   5.653   2.873   6.028
 7437SOL     OW23209   3.312   0.190   0.992
 7437SOL    HW123210   3.250   0.214   1.066
 7437SOL    HW223211   3.407   0.205   1.022
 7438SOL     OW23212   2.115   0.202   6.802
 7438SOL    HW123213   2.149   0.192   6.708
 7438SOL    HW223214   2.157   0.282   6.844
 7439SOL     OW23215   0.966   4.901   6.022
 7439SOL    HW123216   0.991   4.805   6.006
 7439SOL    HW223217   1.004   4.958   5.949
 7440SOL     OW23218   5.371   4.249   4.035
 7440SOL    HW123219   5.347   4.214   4.126
 7440SOL    HW223220   5.433   4.326   4.045
 7441SOL     OW23221   5.071   6.077   0.929
 7441SOL    HW123222   5.029   6.037   0.847
 7441SOL    HW223223   5.158   6.119   0.905
 7442SOL     OW23224   5.355   0.705   6.375
 7442SOL    HW123225   5.440   0.758   6.381
 7442SOL    HW223226   5.328   0.697   6.279
 7443SOL     OW23227   0.565   0.535   1.015
 7443SOL    HW123228   0.538   0.576   1.103
 7443SOL    HW223229   0.551   0.436   1.019
 7444SOL     OW23230   1.790   6.215   0.406
 7444SOL    HW123231   1.694   6.192   0.426
 7444SOL    HW223232   1.804   6.313   0.418
 7445SOL     OW23233   4.043   5.989   1.841
 7445SOL    HW123234   3.977   5.920   1.812
 7445SOL    HW223235   3.997   6.055   1.900
 7446SOL     OW23236   5.751   4.534   6.990
 7446SOL    HW123237   5.739   4.442   6.951
 7446SOL    HW223238   5.779   4.597   6.918
 7447SOL     OW23239   0.603   4.835   0.402
 7447SOL    HW123240   0.520   4.815   0.349
 7447SOL    HW223241   0.675   4.770   0.377
 7448SOL     OW23242   4.625   5.442   6.849
 7448SOL    HW123243   4.702   5.396   6.805
 7448SOL    HW223244   4.660   5.507   6.916
 7449SOL     OW23245   6.456   4.366   5.783
 7449SOL    HW123246   6.501   4.434   5.841
 7449SOL    HW223247   6.435   4.285   5.837
 7450SOL     OW23248   5.561   2.067   6.363
 7450SOL    HW123249   5.520   2.050   6.453
 7450SOL    HW223250   5.490   2.088   6.297
 7451SOL     OW23251   4.556   4.431   3.071
 7451SOL    HW123252   4.635   4.390   3.026
 7451SOL    HW223253   4.506   4.488   3.006
 7452SOL     OW23254   6.371   5.418   5.813
 7452SOL    HW123255   6.350   5.322   5.831
 7452SOL    HW223256   6.286   5.467   5.789
 7453SOL     OW23257   3.805   5.783   6.006
 7453SOL    HW123258   3.804   5.699   6.060
 7453SOL    HW223259   3.861   5.852   6.052
 7454SOL     OW23260   3.722   2.628   1.480
 7454SOL    HW123261   3.695   2.653   1.573
 7454SOL    HW223262   3.671   2.547   1.450
 7455SOL     OW23263   6.638   1.031   3.239
 7455SOL    HW123264   6.592   0.942   3.237
 7455SOL    HW223265   6.655   1.063   3.146
 7456SOL     OW23266   2.733   2.055   6.056
 7456SOL    HW123267   2.748   1.957   6.073
 7456SOL    HW223268   2.821   2.102   6.057
 7457SOL     OW23269   1.258   1.508   2.451
 7457SOL    HW123270   1.301   1.450   2.520
 7457SOL    HW223271   1.265   1.604   2.479
 7458SOL     OW23272   1.593   5.526   5.343
 7458SOL    HW123273   1.668   5.493   5.400
 7458SOL    HW223274   1.584   5.468   5.262
 7459SOL     OW23275   5.626   0.104   3.323
 7459SOL    HW123276   5.655   0.101   3.419
 7459SOL    HW223277   5.596   0.197   3.301
 7460SOL     OW23278   1.327   0.209   1.414
 7460SOL    HW123279   1.407   0.264   1.391
 7460SOL    HW223280   1.325   0.191   1.512
 7461SOL     OW23281   1.992   4.687   5.178
 7461SOL    HW123282   2.049   4.651   5.104
 7461SOL    HW223283   1.918   4.622   5.197
 7462SOL     OW23284   1.666   4.288   0.850
 7462SOL    HW123285   1.616   4.283   0.937
 7462SOL    HW223286   1.703   4.380   0.838
 7463SOL     OW23287   4.304   5.178   1.458
 7463SOL    HW123288   4.287   5.119   1.379
 7463SOL    HW223289   4.400   5.171   1.485
 7464SOL     OW23290   6.612   6.073   5.236
 7464SOL    HW123291   6.518   6.094   5.211
 7464SOL    HW223292   6.674   6.106   5.165
 7465SOL     OW23293   1.392   4.507   0.029
 7465SOL    HW123294   1.365   4.436   0.094
 7465SOL    HW223295   1.400   4.468   6.961
 7466SOL     OW23296   6.940   0.536   5.166
 7466SOL    HW123297   6.889   0.451   5.156
 7466SOL    HW223298   7.004   0.528   5.242
 7467SOL     OW23299   0.817   3.821   4.748
 7467SOL    HW123300   0.831   3.786   4.655
 7467SOL    HW223301   0.884   3.893   4.767
 7468SOL     OW23302   5.693   2.723   6.094
 7468SOL    HW123303   5.698   2.685   6.186
 7468SOL    HW223304   5.619   2.677   6.044
 7469SOL     OW23305   0.472   2.177   0.465
 7469SOL    HW123306   0.453   2.245   0.393
 7469SOL    HW223307   0.399   2.108   0.466
 7470SOL     OW23308   5.558   2.488   3.673
 7470SOL    HW123309   5.536   2.586   3.669
 7470SOL    HW223310   5.478   2.436   3.641
 7471SOL     OW23311   3.741   0.062   6.736
 7471SOL    HW123312   3.652   0.023   6.760
 7471SOL    HW223313   3.810   7.013   6.735
 7472SOL     OW23314   6.842   0.028   5.858
 7472SOL    HW123315   6.756   0.059   5.899
 7472SOL    HW223316   6.916   0.089   5.888
 7473SOL     OW23317   4.048   5.934   3.381
 7473SOL    HW123318   4.016   5.902   3.292
 7473SOL    HW223319   4.077   6.030   3.374
 7474SOL     OW23320   5.788   2.080   0.743
 7474SOL    HW123321   5.733   2.017   0.687
 7474SOL    HW223322   5.833   2.028   0.816
 7475SOL     OW23323   4.813   2.669   0.713
 7475SOL    HW123324   4.852   2.751   0.754
 7475SOL    HW223325   4.879   2.594   0.719
 7476SOL     OW23326   2.772   1.034   3.260
 7476SOL    HW123327   2.701   1.007   3.325
 7476SOL    HW223328   2.830   1.104   3.303
 7477SOL     OW23329   1.993   3.448   5.997
 7477SOL    HW123330   1.994   3.548   6.003
 7477SOL    HW223331   2.073   3.417   5.946
 7478SOL     OW23332   0.204   1.529   5.646
 7478SOL    HW123333   0.182   1.577   5.561
 7478SOL    HW223334   0.148   1.565   5.720
 7479SOL     OW23335   5.018   2.267   1.694
 7479SOL    HW123336   4.951   2.210   1.740
 7479SOL    HW223337   5.008   2.362   1.723
 7480SOL     OW23338   4.116   5.891   2.659
 7480SOL    HW123339   4.139   5.915   2.565
 7480SOL    HW223340   4.084   5.972   2.708
 7481SOL     OW23341   0.094   3.761   6.712
 7481SOL    HW123342   0.118   3.843   6.660
 7481SOL    HW223343   0.153   3.755   6.793
 7482SOL     OW23344   5.784   2.550   4.009
 7482SOL    HW123345   5.686   2.568   4.011
 7482SOL    HW223346   5.814   2.515   4.097
 7483SOL     OW23347   4.594   1.863   6.510
 7483SOL    HW123348   4.517   1.915   6.474
 7483SOL    HW223349   4.597   1.773   6.468
 7484SOL     OW23350   3.528   0.215   3.822
 7484SOL    HW123351   3.549   0.276   3.745
 7484SOL    HW223352   3.590   0.236   3.898
 7485SOL     OW23353   3.902   0.070   6.336
 7485SOL    HW123354   3.908   6.997   6.365
 7485SOL    HW223355   3.880   0.074   6.239
 7486SOL     OW23356   3.779   0.320   0.706
 7486SOL    HW123357   3.859   0.360   0.662
 7486SOL    HW223358   3.806   0.238   0.758
 7487SOL     OW23359   3.568   6.481   3.955
 7487SOL    HW123360   3.572   6.570   3.910
 7487SOL    HW223361   3.629   6.481   4.034
 7488SOL     OW23362   1.346   5.621   3.945
 7488SOL    HW123363   1.387   5.538   3.983
 7488SOL    HW223364   1.248   5.606   3.930
 7489SOL     OW23365   5.525   2.738   0.239
 7489SOL    HW123366   5.483   2.823   0.208
 7489SOL    HW223367   5.499   2.721   0.334
 7490SOL     OW23368   1.305   3.063   2.330
 7490SOL    HW123369   1.299   3.007   2.247
 7490SOL    HW223370   1.352   3.010   2.401
 7491SOL     OW23371   4.289   3.825   0.088
 7491SOL    HW123372   4.189   3.834   0.087
 7491SOL    HW223373   4.315   3.754   0.153
 7492SOL     OW23374   1.382   0.442   3.906
 7492SOL    HW123375   1.434   0.370   3.952
 7492SOL    HW223376   1.386   0.526   3.961
 7493SOL     OW23377   6.285   4.806   5.008
 7493SOL    HW123378   6.197   4.758   5.008
 7493SOL    HW223379   6.311   4.828   5.102
 7494SOL     OW23380   6.359   1.227   2.541
 7494SOL    HW123381   6.307   1.239   2.456
 7494SOL    HW223382   6.303   1.253   2.619
 7495SOL     OW23383   1.527   2.970   5.227
 7495SOL    HW123384   1.582   3.007   5.151
 7495SOL    HW223385   1.507   2.874   5.209
 7496SOL     OW23386   6.273   4.045   2.574
 7496SOL    HW123387   6.198   3.978   2.577
 7496SOL    HW223388   6.360   3.997   2.581
 7497SOL     OW23389   6.451   6.704   1.515
 7497SOL    HW123390   6.451   6.804   1.520
 7497SOL    HW223391   6.406   6.674   1.431
 7498SOL     OW23392   3.369   6.506   3.381
 7498SOL    HW123393   3.332   6.559   3.304
 7498SOL    HW223394   3.297   6.446   3.417
 7499SOL     OW23395   3.190   1.620   3.303
 7499SOL    HW123396   3.182   1.686   3.377
 7499SOL    HW223397   3.273   1.639   3.251
 7500SOL     OW23398   3.978   0.857   3.707
 7500SOL    HW123399   3.924   0.934   3.671
 7500SOL    HW223400   3.992   0.790   3.635
 7501SOL     OW23401   6.591   2.029   4.597
 7501SOL    HW123402   6.567   1.991   4.508
 7501SOL    HW223403   6.684   2.065   4.594
 7502SOL     OW23404   4.302   0.898   3.740
 7502SOL    HW123405   4.208   0.901   3.705
 7502SOL    HW223406   4.311   0.962   3.817
 7503SOL     OW23407   1.871   5.836   2.032
 7503SOL    HW123408   1.928   5.755   2.025
 7503SOL    HW223409   1.873   5.871   2.126
 7504SOL     OW23410   5.846   6.281   4.181
 7504SOL    HW123411   5.751   6.252   4.166
 7504SOL    HW223412   5.908   6.220   4.132
 7505SOL     OW23413   0.325   6.194   5.048
 7505SOL    HW123414   0.227   6.184   5.031
 7505SOL    HW223415   0.342   6.188   5.146
 7506SOL     OW23416   2.966   1.937   3.678
 7506SOL    HW123417   2.993   1.929   3.774
 7506SOL    HW223418   3.007   2.019   3.639
 7507SOL     OW23419   6.466   4.220   6.615
 7507SOL    HW123420   6.440   4.135   6.568
 7507SOL    HW223421   6.385   4.259   6.659
 7508SOL     OW23422   3.017   6.324   0.570
 7508SOL    HW123423   2.939   6.293   0.625
 7508SOL    HW223424   3.086   6.365   0.629
 7509SOL     OW23425   5.851   4.404   2.220
 7509SOL    HW123426   5.876   4.341   2.294
 7509SOL    HW223427   5.933   4.442   2.179
 7510SOL     OW23428   3.470   4.146   2.459
 7510SOL    HW123429   3.527   4.134   2.540
 7510SOL    HW223430   3.404   4.219   2.475
 7511SOL     OW23431   4.183   6.072   3.956
 7511SOL    HW123432   4.273   6.066   4.000
 7511SOL    HW223433   4.116   6.106   4.022
 7512SOL     OW23434   4.071   0.958   0.786
 7512SOL    HW123435   4.112   0.867   0.789
 7512SOL    HW223436   4.137   1.026   0.817
 7513SOL     OW23437   1.181   1.368   1.957
 7513SOL    HW123438   1.274   1.360   1.920
 7513SOL    HW223439   1.183   1.419   2.042
 7514SOL     OW23440   0.165   6.720   1.574
 7514SOL    HW123441   0.202   6.783   1.642
 7514SOL    HW223442   0.147   6.632   1.616
 7515SOL     OW23443   0.082   4.081   5.330
 7515SOL    HW123444   0.069   4.164   5.383
 7515SOL    HW223445   7.021   4.026   5.333
 7516SOL     OW23446   1.742   6.448   5.681
 7516SOL    HW123447   1.717   6.387   5.605
 7516SOL    HW223448   1.676   6.439   5.755
 7517SOL     OW23449   0.782   1.220   6.142
 7517SOL    HW123450   0.722   1.288   6.101
 7517SOL    HW223451   0.826   1.167   6.070
 7518SOL     OW23452   4.460   1.662   4.314
 7518SOL    HW123453   4.374   1.669   4.263
 7518SOL    HW223454   4.488   1.566   4.319
 7519SOL     OW23455   3.980   0.184   4.531
 7519SOL    HW123456   4.034   0.160   4.612
 7519SOL    HW223457   3.883   0.185   4.555
 7520SOL     OW23458   1.556   1.418   0.489
 7520SOL    HW123459   1.497   1.344   0.520
 7520SOL    HW223460   1.502   1.487   0.440
 7521SOL     OW23461   4.088   1.544   4.622
 7521SOL    HW123462   4.066   1.582   4.712
 7521SOL    HW223463   4.178   1.500   4.626
 7522SOL     OW23464   2.233   0.126   3.666
 7522SOL    HW123465   2.315   0.070   3.661
 7522SOL    HW223466   2.152   0.068   3.653
 7523SOL     OW23467   6.045   0.587   0.695
 7523SOL    HW123468   5.971   0.527   0.726
 7523SOL    HW223469   6.120   0.584   0.760
 7524SOL     OW23470   0.687   3.984   4.422
 7524SOL    HW123471   0.653   3.997   4.515
 7524SOL    HW223472   0.777   4.025   4.413
 7525SOL     OW23473   3.165   4.605   6.124
 7525SOL    HW123474   3.262   4.610   6.149
 7525SOL    HW223475   3.137   4.692   6.082
 7526SOL     OW23476   2.529   3.993   0.900
 7526SOL    HW123477   2.468   3.920   0.869
 7526SOL    HW223478   2.527   4.068   0.833
 7527SOL     OW23479   3.170   5.164   2.991
 7527SOL    HW123480   3.190   5.102   3.066
 7527SOL    HW223481   3.254   5.180   2.938
 7528SOL     OW23482   6.802   2.167   5.906
 7528SOL    HW123483   6.721   2.222   5.925
 7528SOL    HW223484   6.840   2.133   5.993
 7529SOL     OW23485   6.667   3.364   3.907
 7529SOL    HW123486   6.712   3.289   3.955
 7529SOL    HW223487   6.581   3.387   3.952
 7530SOL     OW23488   1.098   3.149   3.149
 7530SOL    HW123489   1.186   3.109   3.173
 7530SOL    HW223490   1.030   3.125   3.218
 7531SOL     OW23491   3.862   2.107   3.942
 7531SOL    HW123492   3.869   2.018   3.895
 7531SOL    HW223493   3.769   2.118   3.978
 7532SOL     OW23494   4.504   5.936   6.186
 7532SOL    HW123495   4.541   5.849   6.217
 7532SOL    HW223496   4.450   5.978   6.259
 7533SOL     OW23497   4.241   4.306   1.647
 7533SOL    HW123498   4.219   4.403   1.654
 7533SOL    HW223499   4.317   4.284   1.708
 7534SOL     OW23500   4.848   6.102   5.217
 7534SOL    HW123501   4.890   6.191   5.194
 7534SOL    HW223502   4.784   6.076   5.145
 7535SOL     OW23503   0.472   6.382   3.930
 7535SOL    HW123504   0.481   6.324   3.849
 7535SOL    HW223505   0.493   6.329   4.012
 7536SOL     OW23506   6.116   6.203   3.640
 7536SOL    HW123507   6.097   6.180   3.544
 7536SOL    HW223508   6.197   6.154   3.670
 7537SOL     OW23509   1.813   6.509   2.709
 7537SOL    HW123510   1.877   6.530   2.634
 7537SOL    HW223511   1.856   6.444   2.772
 7538SOL     OW23512   0.569   4.524   0.417
 7538SOL    HW123513   0.544   4.607   0.467
 7538SOL    HW223514   0.615   4.548   0.332
 7539SOL     OW23515   6.715   0.032   4.502
 7539SOL    HW123516   6.661   0.106   4.464
 7539SOL    HW223517   6.806   0.066   4.526
 7540SOL     OW23518   5.617   4.708   3.237
 7540SOL    HW123519   5.651   4.659   3.317
 7540SOL    HW223520   5.599   4.644   3.163
 7541SOL     OW23521   2.878   4.281   5.731
 7541SOL    HW123522   2.853   4.367   5.776
 7541SOL    HW223523   2.975   4.263   5.745
 7542SOL     OW23524   6.441   5.490   4.892
 7542SOL    HW123525   6.407   5.578   4.861
 7542SOL    HW223526   6.497   5.448   4.820
 7543SOL     OW23527   2.262   1.355   0.259
 7543SOL    HW123528   2.316   1.271   0.260
 7543SOL    HW223529   2.324   1.434   0.264
 7544SOL     OW23530   6.581   1.350   4.423
 7544SOL    HW123531   6.535   1.314   4.342
 7544SOL    HW223532   6.680   1.337   4.414
 7545SOL     OW23533   1.793   5.445   5.490
 7545SOL    HW123534   1.818   5.360   5.442
 7545SOL    HW223535   1.767   5.423   5.584
 7546SOL     OW23536   2.376   2.611   1.888
 7546SOL    HW123537   2.294   2.657   1.855
 7546SOL    HW223538   2.457   2.655   1.850
 7547SOL     OW23539   3.964   0.411   1.909
 7547SOL    HW123540   3.865   0.399   1.912
 7547SOL    HW223541   3.994   0.464   1.989
 7548SOL     OW23542   2.959   2.507   6.376
 7548SOL    HW123543   3.018   2.585   6.396
 7548SOL    HW223544   2.957   2.491   6.277
 7549SOL     OW23545   5.456   0.521   4.608
 7549SOL    HW123546   5.418   0.504   4.699
 7549SOL    HW223547   5.520   0.448   4.584
 7550SOL     OW23548   2.295   5.589   4.457
 7550SOL    HW123549   2.313   5.541   4.372
 7550SOL    HW223550   2.252   5.527   4.523
 7551SOL     OW23551   6.163   2.428   6.275
 7551SOL    HW123552   6.093   2.493   6.305
 7551SOL    HW223553   6.252   2.473   6.276
 7552SOL     OW23554   2.584   6.711   4.788
 7552SOL    HW123555   2.546   6.750   4.704
 7552SOL    HW223556   2.574   6.611   4.785
 7553SOL     OW23557   6.235   6.407   5.768
 7553SOL    HW123558   6.239   6.407   5.868
 7553SOL    HW223559   6.191   6.490   5.736
 7554SOL     OW23560   4.472   1.505   0.718
 7554SOL    HW123561   4.447   1.439   0.648
 7554SOL    HW223562   4.524   1.580   0.677
 7555SOL     OW23563   4.687   5.048   4.149
 7555SOL    HW123564   4.751   5.108   4.198
 7555SOL    HW223565   4.677   5.081   4.055
 7556SOL     OW23566   1.250   6.280   1.439
 7556SOL    HW123567   1.311   6.246   1.510
 7556SOL    HW223568   1.241   6.211   1.367
 7557SOL     OW23569   4.366   6.993   1.296
 7557SOL    HW123570   4.356   6.981   1.197
 7557SOL    HW223571   4.455   6.958   1.325
 7558SOL     OW23572   0.471   1.657   3.425
 7558SOL    HW123573   0.453   1.655   3.326
 7558SOL    HW223574   0.417   1.586   3.470
 7559SOL     OW23575   2.539   1.534   4.769
 7559SOL    HW123576   2.546   1.541   4.869
 7559SOL    HW223577   2.562   1.622   4.728
 7560SOL     OW23578   1.408   1.578   6.017
 7560SOL    HW123579   1.417   1.482   5.991
 7560SOL    HW223580   1.414   1.635   5.935
 7561SOL     OW23581   5.525   1.601   5.382
 7561SOL    HW123582   5.520   1.688   5.429
 7561SOL    HW223583   5.586   1.609   5.303
 7562SOL     OW23584   2.230   5.551   3.221
 7562SOL    HW123585   2.215   5.649   3.209
 7562SOL    HW223586   2.171   5.500   3.159
 7563SOL     OW23587   3.925   6.091   2.769
 7563SOL    HW123588   3.863   6.168   2.786
 7563SOL    HW223589   3.981   6.074   2.850
 7564SOL     OW23590   3.831   1.553   5.035
 7564SOL    HW123591   3.778   1.545   5.120
 7564SOL    HW223592   3.775   1.522   4.958
 7565SOL     OW23593   6.126   3.633   6.036
 7565SOL    HW123594   6.122   3.537   6.062
 7565SOL    HW223595   6.211   3.652   5.987
 7566SOL     OW23596   4.694   4.648   1.843
 7566SOL    HW123597   4.594   4.650   1.849
 7566SOL    HW223598   4.729   4.570   1.896
 7567SOL     OW23599   1.066   6.921   4.329
 7567SOL    HW123600   0.979   6.915   4.377
 7567SOL    HW223601   1.057   6.986   4.253
 7568SOL     OW23602   5.681   4.540   1.364
 7568SOL    HW123603   5.687   4.517   1.461
 7568SOL    HW223604   5.773   4.558   1.328
 7569SOL     OW23605   4.765   3.298   0.426
 7569SOL    HW123606   4.847   3.341   0.388
 7569SOL    HW223607   4.711   3.366   0.475
 7570SOL     OW23608   0.902   3.576   2.215
 7570SOL    HW123609   1.001   3.565   2.218
 7570SOL    HW223610   0.859   3.510   2.277
 7571SOL     OW23611   4.459   1.565   2.972
 7571SOL    HW123612   4.420   1.618   2.897
 7571SOL    HW223613   4.453   1.467   2.951
 7572SOL     OW23614   4.691   6.680   3.921
 7572SOL    HW123615   4.784   6.712   3.907
 7572SOL    HW223616   4.685   6.583   3.895
 7573SOL     OW23617   4.264   6.591   6.188
 7573SOL    HW123618   4.336   6.619   6.251
 7573SOL    HW223619   4.178   6.636   6.214
 7574SOL     OW23620   0.511   2.436   4.102
 7574SOL    HW123621   0.497   2.357   4.043
 7574SOL    HW223622   0.600   2.477   4.083
 7575SOL     OW23623   0.134   6.458   2.200
 7575SOL    HW123624   0.060   6.468   2.266
 7575SOL    HW223625   0.201   6.393   2.235
 7576SOL     OW23626   4.700   2.376   6.547
 7576SOL    HW123627   4.636   2.346   6.618
 7576SOL    HW223628   4.794   2.365   6.581
 7577SOL     OW23629   0.981   0.366   6.986
 7577SOL    HW123630   0.905   0.306   6.965
 7577SOL    HW223631   0.949   0.443   0.018
 7578SOL     OW23632   6.398   6.367   3.430
 7578SOL    HW123633   6.409   6.459   3.393
 7578SOL    HW223634   6.371   6.373   3.526
 7579SOL     OW23635   0.590   1.969   6.840
 7579SOL    HW123636   0.625   1.889   6.791
 7579SOL    HW223637   0.501   1.947   6.881
 7580SOL     OW23638   2.628   5.450   3.298
 7580SOL    HW123639   2.667   5.400   3.221
 7580SOL    HW223640   2.535   5.419   3.315
 7581SOL     OW23641   6.950   0.331   1.963
 7581SOL    HW123642   0.009   0.371   2.005
 7581SOL    HW223643   6.970   0.236   1.936
 7582SOL     OW23644   2.358   1.596   6.237
 7582SOL    HW123645   2.377   1.631   6.329
 7582SOL    HW223646   2.423   1.636   6.172
 7583SOL     OW23647   5.644   3.259   2.498
 7583SOL    HW123648   5.617   3.355   2.500
 7583SOL    HW223649   5.607   3.215   2.416
 7584SOL     OW23650   0.816   1.257   3.258
 7584SOL    HW123651   0.791   1.165   3.287
 7584SOL    HW223652   0.886   1.294   3.319
 7585SOL     OW23653   1.090   1.312   6.050
 7585SOL    HW123654   1.177   1.324   6.003
 7585SOL    HW223655   1.019   1.363   6.002
 7586SOL     OW23656   2.018   6.970   3.650
 7586SOL    HW123657   1.989   6.876   3.670
 7586SOL    HW223658   1.939   0.001   3.621
 7587SOL     OW23659   4.700   0.142   1.426
 7587SOL    HW123660   4.763   0.190   1.488
 7587SOL    HW223661   4.669   0.205   1.355
 7588SOL     OW23662   2.289   2.528   4.837
 7588SOL    HW123663   2.203   2.497   4.796
 7588SOL    HW223664   2.349   2.563   4.766
 7589SOL     OW23665   6.829   0.609   2.724
 7589SOL    HW123666   6.905   0.557   2.763
 7589SOL    HW223667   6.840   0.617   2.625
 7590SOL     OW23668   6.115   0.860   0.228
 7590SOL    HW123669   6.142   0.780   0.177
 7590SOL    HW223670   6.124   0.942   0.171
 7591SOL     OW23671   3.280   3.294   4.642
 7591SOL    HW123672   3.197   3.268   4.691
 7591SOL    HW223673   3.286   3.244   4.556
 7592SOL     OW23674   0.001   6.099   3.733
 7592SOL    HW123675   7.015   6.040   3.653
 7592SOL    HW223676   6.935   6.141   3.752
 7593SOL     OW23677   0.068   1.261   5.734
 7593SOL    HW123678   0.099   1.355   5.720
 7593SOL    HW223679   0.083   1.208   5.651
 7594SOL     OW23680   6.754   3.820   6.176
 7594SOL    HW123681   6.762   3.876   6.094
 7594SOL    HW223682   6.845   3.790   6.205
 7595SOL     OW23683   1.022   3.338   6.491
 7595SOL    HW123684   0.963   3.410   6.527
 7595SOL    HW223685   0.968   3.276   6.434
 7596SOL     OW23686   2.665   1.290   0.313
 7596SOL    HW123687   2.721   1.366   0.279
 7596SOL    HW223688   2.712   1.245   0.389
 7597SOL     OW23689   2.153   5.013   1.114
 7597SOL    HW123690   2.181   5.107   1.095
 7597SOL    HW223691   2.053   5.007   1.112
 7598SOL     OW23692   6.060   0.856   2.023
 7598SOL    HW123693   6.034   0.951   2.040
 7598SOL    HW223694   5.979   0.803   1.997
 7599SOL     OW23695   3.061   3.984   0.941
 7599SOL    HW123696   3.104   4.061   0.989
 7599SOL    HW223697   2.962   3.989   0.955
 7600SOL     OW23698   1.019   0.007   3.813
 7600SOL    HW123699   1.095   6.994   3.759
 7600SOL    HW223700   1.049   0.090   3.862
 7601SOL     OW23701   2.442   6.519   1.716
 7601SOL    HW123702   2.414   6.600   1.768
 7601SOL    HW223703   2.435   6.538   1.618
 7602SOL     OW23704   0.643   1.100   1.062
 7602SOL    HW123705   0.676   1.118   1.155
 7602SOL    HW223706   0.565   1.159   1.042
 7603SOL     OW23707   4.206   1.306   5.909
 7603SOL    HW123708   4.142   1.251   5.961
 7603SOL    HW223709   4.271   1.350   5.971
 7604SOL     OW23710   1.460   2.518   4.756
 7604SOL    HW123711   1.520   2.461   4.700
 7604SOL    HW223712   1.507   2.603   4.778
 7605SOL     OW23713   2.454   6.079   0.364
 7605SOL    HW123714   2.428   6.036   0.277
 7605SOL    HW223715   2.393   6.046   0.436
 7606SOL     OW23716   6.918   0.460   3.316
 7606SOL    HW123717   6.852   0.495   3.383
 7606SOL    HW223718   6.991   0.411   3.364
 7607SOL     OW23719   1.912   6.117   5.808
 7607SOL    HW123720   1.903   6.216   5.794
 7607SOL    HW223721   1.970   6.079   5.736
 7608SOL     OW23722   0.072   2.188   6.612
 7608SOL    HW123723   7.016   2.181   6.672
 7608SOL    HW223724   0.045   2.230   6.525
 7609SOL     OW23725   3.090   1.545   4.509
 7609SOL    HW123726   3.107   1.551   4.608
 7609SOL    HW223727   3.071   1.450   4.484
 7610SOL     OW23728   4.187   5.137   4.615
 7610SOL    HW123729   4.285   5.136   4.595
 7610SOL    HW223730   4.150   5.045   4.608
 7611SOL     OW23731   4.746   2.431   0.361
 7611SOL    HW123732   4.682   2.431   0.285
 7611SOL    HW223733   4.706   2.477   0.440
 7612SOL     OW23734   3.962   2.109   3.211
 7612SOL    HW123735   4.013   2.187   3.176
 7612SOL    HW223736   3.954   2.116   3.311
 7613SOL     OW23737   0.840   0.322   0.292
 7613SOL    HW123738   0.928   0.344   0.335
 7613SOL    HW223739   0.839   0.226   0.267
 7614SOL     OW23740   5.447   4.306   0.335
 7614SOL    HW123741   5.404   4.275   0.420
 7614SOL    HW223742   5.513   4.379   0.356
 7615SOL     OW23743   6.411   3.169   5.192
 7615SOL    HW123744   6.373   3.183   5.100
 7615SOL    HW223745   6.511   3.180   5.188
 7616SOL     OW23746   6.843   6.803   3.092
 7616SOL    HW123747   6.936   6.790   3.058
 7616SOL    HW223748   6.830   6.749   3.175
 7617SOL     OW23749   6.483   4.164   3.253
 7617SOL    HW123750   6.491   4.217   3.169
 7617SOL    HW223751   6.548   4.087   3.250
 7618SOL     OW23752   2.610   2.185   0.499
 7618SOL    HW123753   2.703   2.224   0.498
 7618SOL    HW223754   2.601   2.122   0.575
 7619SOL     OW23755   1.829   1.407   4.590
 7619SOL    HW123756   1.908   1.444   4.639
 7619SOL    HW223757   1.747   1.461   4.613
 7620SOL     OW23758   3.138   3.721   1.118
 7620SOL    HW123759   3.112   3.684   1.207
 7620SOL    HW223760   3.096   3.811   1.106
 7621SOL     OW23761   6.037   4.325   6.788
 7621SOL    HW123762   5.984   4.245   6.815
 7621SOL    HW223763   5.991   4.372   6.713
 7622SOL     OW23764   3.204   3.675   1.686
 7622SOL    HW123765   3.248   3.714   1.767
 7622SOL    HW223766   3.195   3.746   1.616
 7623SOL     OW23767   5.714   3.944   1.857
 7623SOL    HW123768   5.654   3.880   1.906
 7623SOL    HW223769   5.771   3.994   1.922
 7624SOL     OW23770   0.915   3.569   2.620
 7624SOL    HW123771   0.896   3.546   2.716
 7624SOL    HW223772   0.876   3.499   2.561
 7625SOL     OW23773   5.428   0.700   2.112
 7625SOL    HW123774   5.363   0.680   2.038
 7625SOL    HW223775   5.430   0.623   2.176
 7626SOL     OW23776   4.153   6.850   0.259
 7626SOL    HW123777   4.127   6.788   0.186
 7626SOL    HW223778   4.225   6.912   0.226
 7627SOL     OW23779   4.018   2.704   6.149
 7627SOL    HW123780   4.008   2.685   6.247
 7627SOL    HW223781   4.110   2.739   6.132
 7628SOL     OW23782   3.000   2.783   0.423
 7628SOL    HW123783   2.956   2.732   0.349
 7628SOL    HW223784   3.099   2.774   0.415
 7629SOL     OW23785   6.119   2.276   3.341
 7629SOL    HW123786   6.188   2.208   3.363
 7629SOL    HW223787   6.163   2.365   3.328
 7630SOL     OW23788   1.470   6.350   3.780
 7630SOL    HW123789   1.502   6.393   3.864
 7630SOL    HW223790   1.435   6.259   3.800
 7631SOL     OW23791   0.930   0.989   5.632
 7631SOL    HW123792   0.989   1.053   5.681
 7631SOL    HW223793   0.885   1.037   5.557
 7632SOL     OW23794   4.680   5.359   1.204
 7632SOL    HW123795   4.762   5.403   1.240
 7632SOL    HW223796   4.655   5.400   1.116
 7633SOL     OW23797   6.162   0.809   1.511
 7633SOL    HW123798   6.231   0.873   1.542
 7633SOL    HW223799   6.105   0.852   1.440
 7634SOL     OW23800   0.479   2.406   6.442
 7634SOL    HW123801   0.431   2.443   6.522
 7634SOL    HW223802   0.575   2.391   6.465
 7635SOL     OW23803   2.235   3.183   5.504
 7635SOL    HW123804   2.333   3.202   5.496
 7635SOL    HW223805   2.218   3.088   5.478
 7636SOL     OW23806   6.834   3.568   3.823
 7636SOL    HW123807   6.883   3.556   3.909
 7636SOL    HW223808   6.778   3.487   3.805
 7637SOL     OW23809   0.564   4.393   5.170
 7637SOL    HW123810   0.559   4.479   5.220
 7637SOL    HW223811   0.570   4.413   5.072
 7638SOL     OW23812   0.215   6.050   1.205
 7638SOL    HW123813   0.170   5.965   1.229
 7638SOL    HW223814   0.288   6.032   1.138
 7639SOL     OW23815   1.501   0.146   0.537
 7639SOL    HW123816   1.547   0.225   0.498
 7639SOL    HW223817   1.558   0.065   0.528
 7640SOL     OW23818   3.487   1.438   0.952
 7640SOL    HW123819   3.424   1.373   0.995
 7640SOL    HW223820   3.460   1.453   0.857
 7641SOL     OW23821   0.404   4.285   4.668
 7641SOL    HW123822   0.401   4.277   4.568
 7641SOL    HW223823   0.330   4.231   4.708
 7642SOL     OW23824   5.295   0.726   3.514
 7642SOL    HW123825   5.257   0.814   3.542
 7642SOL    HW223826   5.245   0.694   3.433
 7643SOL     OW23827   5.388   3.670   4.903
 7643SOL    HW123828   5.470   3.642   4.853
 7643SOL    HW223829   5.389   3.629   4.994
 7644SOL     OW23830   5.032   4.014   0.992
 7644SOL    HW123831   5.120   4.044   0.956
 7644SOL    HW223832   4.992   4.086   1.047
 7645SOL     OW23833   4.171   4.766   0.305
 7645SOL    HW123834   4.136   4.689   0.358
 7645SOL    HW223835   4.115   4.778   0.223
 7646SOL     OW23836   0.059   2.421   0.454
 7646SOL    HW123837   0.130   2.462   0.511
 7646SOL    HW223838   0.098   2.394   0.366
 7647SOL     OW23839   6.896   2.473   4.134
 7647SOL    HW123840   6.796   2.477   4.142
 7647SOL    HW223841   6.921   2.467   4.037
 7648SOL     OW23842   1.941   2.262   2.002
 7648SOL    HW123843   1.905   2.170   2.017
 7648SOL    HW223844   2.041   2.258   1.996
 7649SOL     OW23845   3.907   0.702   0.128
 7649SOL    HW123846   3.869   0.754   0.051
 7649SOL    HW223847   3.853   0.618   0.141
 7650SOL     OW23848   3.480   2.294   0.309
 7650SOL    HW123849   3.541   2.326   0.381
 7650SOL    HW223850   3.527   2.226   0.253
 7651SOL     OW23851   3.660   5.076   6.282
 7651SOL    HW123852   3.607   5.147   6.234
 7651SOL    HW223853   3.739   5.118   6.326
 7652SOL     OW23854   1.030   0.888   4.665
 7652SOL    HW123855   0.949   0.833   4.646
 7652SOL    HW223856   1.045   0.953   4.591
 7653SOL     OW23857   2.063   6.939   0.402
 7653SOL    HW123858   2.028   6.898   0.486
 7653SOL    HW223859   2.052   0.016   0.406
 7654SOL     OW23860   6.572   1.939   6.141
 7654SOL    HW123861   6.647   1.968   6.200
 7654SOL    HW223862   6.542   2.017   6.085
 7655SOL     OW23863   3.636   1.762   4.987
 7655SOL    HW123864   3.690   1.721   5.061
 7655SOL    HW223865   3.687   1.838   4.947
 7656SOL     OW23866   5.713   4.345   0.145
 7656SOL    HW123867   5.646   4.302   0.085
 7656SOL    HW223868   5.755   4.422   0.097
 7657SOL     OW23869   1.286   3.972   4.769
 7657SOL    HW123870   1.349   4.039   4.807
 7657SOL    HW223871   1.322   3.880   4.785
 7658SOL     OW23872   2.759   0.658   0.624
 7658SOL    HW123873   2.691   0.584   0.617
 7658SOL    HW223874   2.847   0.619   0.650
 7659SOL     OW23875   5.049   4.640   5.645
 7659SOL    HW123876   5.104   4.720   5.623
 7659SOL    HW223877   5.005   4.605   5.563
 7660SOL     OW23878   6.708   6.409   5.629
 7660SOL    HW123879   6.786   6.418   5.568
 7660SOL    HW223880   6.713   6.478   5.701
 7661SOL     OW23881   3.584   0.783   5.289
 7661SOL    HW123882   3.628   0.693   5.291
 7661SOL    HW223883   3.585   0.818   5.195
 7662SOL     OW23884   6.806   5.722   1.147
 7662SOL    HW123885   6.745   5.654   1.187
 7662SOL    HW223886   6.886   5.676   1.108
 7663SOL     OW23887   0.952   5.192   4.965
 7663SOL    HW123888   0.888   5.128   5.008
 7663SOL    HW223889   0.936   5.284   5.000
 7664SOL     OW23890   4.390   2.101   2.532
 7664SOL    HW123891   4.474   2.048   2.537
 7664SOL    HW223892   4.369   2.122   2.436
 7665SOL     OW23893   3.437   0.670   5.501
 7665SOL    HW123894   3.474   0.739   5.439
 7665SOL    HW223895   3.371   0.614   5.452
 7666SOL     OW23896   5.222   5.166   4.019
 7666SOL    HW123897   5.318   5.177   4.048
 7666SOL    HW223898   5.219   5.138   3.923
 7667SOL     OW23899   4.310   6.488   2.208
 7667SOL    HW123900   4.311   6.512   2.305
 7667SOL    HW223901   4.248   6.411   2.193
 7668SOL     OW23902   1.310   5.701   0.492
 7668SOL    HW123903   1.216   5.702   0.525
 7668SOL    HW223904   1.324   5.779   0.431
 7669SOL     OW23905   2.696   1.586   6.839
 7669SOL    HW123906   2.656   1.506   6.884
 7669SOL    HW223907   2.730   1.650   6.908
 7670SOL     OW23908   0.818   0.525   0.759
 7670SOL    HW123909   0.861   0.615   0.765
 7670SOL    HW223910   0.842   0.470   0.839
 7671SOL     OW23911   3.212   0.027   1.558
 7671SOL    HW123912   3.221   0.100   1.625
 7671SOL    HW223913   3.301   0.011   1.514
 7672SOL     OW23914   5.445   3.424   2.186
 7672SOL    HW123915   5.377   3.377   2.128
 7672SOL    HW223916   5.521   3.362   2.205
 7673SOL     OW23917   1.656   6.812   4.846
 7673SOL    HW123918   1.745   6.768   4.858
 7673SOL    HW223919   1.586   6.742   4.831
 7674SOL     OW23920   3.858   5.669   4.456
 7674SOL    HW123921   3.872   5.607   4.379
 7674SOL    HW223922   3.940   5.726   4.468
 7675SOL     OW23923   4.475   6.274   3.136
 7675SOL    HW123924   4.471   6.369   3.106
 7675SOL    HW223925   4.563   6.234   3.111
 7676SOL     OW23926   3.617   2.857   5.080
 7676SOL    HW123927   3.649   2.935   5.133
 7676SOL    HW223928   3.567   2.795   5.139
 7677SOL     OW23929   6.831   4.789   6.871
 7677SOL    HW123930   6.891   4.768   6.794
 7677SOL    HW223931   6.830   4.711   6.934
 7678SOL     OW23932   3.580   1.675   5.598
 7678SOL    HW123933   3.574   1.703   5.694
 7678SOL    HW223934   3.661   1.618   5.585
 7679SOL     OW23935   3.288   5.367   4.478
 7679SOL    HW123936   3.234   5.325   4.405
 7679SOL    HW223937   3.324   5.455   4.446
 7680SOL     OW23938   1.923   0.019   4.013
 7680SOL    HW123939   1.953   0.054   4.102
 7680SOL    HW223940   1.914   6.942   4.018
 7681SOL     OW23941   1.944   2.452   5.395
 7681SOL    HW123942   1.989   2.407   5.473
 7681SOL    HW223943   1.962   2.400   5.312
 7682SOL     OW23944   3.202   0.861   2.238
 7682SOL    HW123945   3.211   0.915   2.154
 7682SOL    HW223946   3.108   0.867   2.271
 7683SOL     OW23947   0.869   4.331   4.607
 7683SOL    HW123948   0.824   4.377   4.531
 7683SOL    HW223949   0.888   4.236   4.582
 7684SOL     OW23950   5.212   2.777   1.185
 7684SOL    HW123951   5.272   2.700   1.206
 7684SOL    HW223952   5.121   2.761   1.224
 7685SOL     OW23953   2.854   0.285   0.481
 7685SOL    HW123954   2.842   0.275   0.580
 7685SOL    HW223955   2.942   0.329   0.462
 7686SOL     OW23956   6.701   0.013   4.224
 7686SOL    HW123957   6.704   6.981   4.308
 7686SOL    HW223958   6.787   0.002   4.175
 7687SOL     OW23959   5.068   3.203   6.335
 7687SOL    HW123960   5.150   3.200   6.277
 7687SOL    HW223961   5.006   3.273   6.301
 7688SOL     OW23962   5.651   2.683   6.703
 7688SOL    HW123963   5.610   2.759   6.755
 7688SOL    HW223964   5.747   2.702   6.685
 7689SOL     OW23965   5.793   0.155   1.828
 7689SOL    HW123966   5.803   0.059   1.854
 7689SOL    HW223967   5.753   0.206   1.904
 7690SOL     OW23968   5.461   4.893   1.835
 7690SOL    HW123969   5.410   4.972   1.869
 7690SOL    HW223970   5.446   4.815   1.895
 7691SOL     OW23971   4.954   2.926   4.298
 7691SOL    HW123972   4.901   2.941   4.381
 7691SOL    HW223973   4.893   2.893   4.225
 7692SOL     OW23974   3.099   6.704   2.094
 7692SOL    HW123975   3.148   6.779   2.048
 7692SOL    HW223976   3.148   6.679   2.178
 7693SOL     OW23977   2.979   1.684   1.919
 7693SOL    HW123978   2.893   1.673   1.869
 7693SOL    HW223979   3.027   1.764   1.885
 7694SOL     OW23980   4.204   1.854   6.651
 7694SOL    HW123981   4.223   1.871   6.748
 7694SOL    HW223982   4.203   1.756   6.634
 7695SOL     OW23983   5.156   6.671   3.977
 7695SOL    HW123984   5.131   6.673   3.880
 7695SOL    HW223985   5.248   6.633   3.987
 7696SOL     OW23986   2.431   2.382   5.542
 7696SOL    HW123987   2.388   2.419   5.624
 7696SOL    HW223988   2.430   2.451   5.469
 7697SOL     OW23989   5.709   6.662   3.440
 7697SOL    HW123990   5.682   6.572   3.406
 7697SOL    HW223991   5.705   6.728   3.366
 7698SOL     OW23992   6.399   2.885   1.019
 7698SOL    HW123993   6.368   2.946   1.093
 7698SOL    HW223994   6.337   2.894   0.941
 7699SOL     OW23995   4.217   6.108   5.508
 7699SOL    HW123996   4.270   6.064   5.581
 7699SOL    HW223997   4.120   6.087   5.522
 7700SOL     OW23998   5.817   5.290   1.287
 7700SOL    HW123999   5.917   5.290   1.281
 7700SOL    HW224000   5.781   5.207   1.245
 7701SOL     OW24001   1.815   1.809   6.789
 7701SOL    HW124002   1.807   1.873   6.866
 7701SOL    HW224003   1.750   1.734   6.801
 7702SOL     OW24004   5.271   6.694   5.144
 7702SOL    HW124005   5.208   6.689   5.222
 7702SOL    HW224006   5.226   6.741   5.068
 7703SOL     OW24007   0.004   6.716   5.479
 7703SOL    HW124008   6.929   6.715   5.497
 7703SOL    HW224009   0.052   6.669   5.553
 7704SOL     OW24010   1.730   1.744   4.744
 7704SOL    HW124011   1.675   1.665   4.770
 7704SOL    HW224012   1.777   1.724   4.657
 7705SOL     OW24013   0.765   4.267   0.102
 7705SOL    HW124014   0.744   4.306   0.013
 7705SOL    HW224015   0.683   4.266   0.158
 7706SOL     OW24016   3.501   3.235   2.287
 7706SOL    HW124017   3.518   3.289   2.369
 7706SOL    HW224018   3.446   3.289   2.223
 7707SOL     OW24019   6.911   4.412   6.315
 7707SOL    HW124020   6.948   4.351   6.244
 7707SOL    HW224021   6.842   4.472   6.274
 7708SOL     OW24022   1.267   0.108   4.145
 7708SOL    HW124023   1.342   0.066   4.197
 7708SOL    HW224024   1.219   0.173   4.205
 7709SOL     OW24025   6.526   4.622   0.922
 7709SOL    HW124026   6.456   4.687   0.949
 7709SOL    HW224027   6.583   4.662   0.851
 7710SOL     OW24028   6.455   3.148   1.947
 7710SOL    HW124029   6.380   3.124   1.886
 7710SOL    HW224030   6.525   3.077   1.943
 7711SOL     OW24031   0.714   4.745   3.869
 7711SOL    HW124032   0.795   4.728   3.812
 7711SOL    HW224033   0.660   4.662   3.877
 7712SOL     OW24034   0.707   4.649   4.762
 7712SOL    HW124035   0.765   4.595   4.823
 7712SOL    HW224036   0.711   4.745   4.789
 7713SOL     OW24037   0.827   4.966   0.752
 7713SOL    HW124038   0.922   4.949   0.728
 7713SOL    HW224039   0.803   5.061   0.730
 7714SOL     OW24040   5.939   1.820   5.136
 7714SOL    HW124041   5.922   1.871   5.220
 7714SOL    HW224042   5.887   1.861   5.061
 7715SOL     OW24043   3.552   3.108   6.392
 7715SOL    HW124044   3.591   3.162   6.467
 7715SOL    HW224045   3.614   3.112   6.313
 7716SOL     OW24046   1.159   6.803   6.149
 7716SOL    HW124047   1.122   6.722   6.103
 7716SOL    HW224048   1.193   6.867   6.080
 7717SOL     OW24049   0.419   1.997   6.067
 7717SOL    HW124050   0.470   2.011   5.982
 7717SOL    HW224051   0.322   1.984   6.046
 7718SOL     OW24052   0.200   2.872   2.656
 7718SOL    HW124053   0.187   2.963   2.696
 7718SOL    HW224054   0.201   2.880   2.556
 7719SOL     OW24055   1.979   5.497   5.173
 7719SOL    HW124056   2.039   5.577   5.169
 7719SOL    HW224057   1.930   5.488   5.086
 7720SOL     OW24058   4.579   1.142   6.604
 7720SOL    HW124059   4.632   1.200   6.542
 7720SOL    HW224060   4.489   1.184   6.620
 7721SOL     OW24061   5.863   5.921   2.466
 7721SOL    HW124062   5.857   5.934   2.565
 7721SOL    HW224063   5.901   5.831   2.446
 7722SOL     OW24064   0.795   6.143   4.086
 7722SOL    HW124065   0.879   6.136   4.034
 7722SOL    HW224066   0.803   6.218   4.152
 7723SOL     OW24067   4.633   4.290   0.121
 7723SOL    HW124068   4.594   4.337   0.200
 7723SOL    HW224069   4.671   4.202   0.148
 7724SOL     OW24070   1.569   3.761   0.225
 7724SOL    HW124071   1.616   3.840   0.264
 7724SOL    HW224072   1.581   3.761   0.126
 7725SOL     OW24073   5.459   3.456   4.576
 7725SOL    HW124074   5.373   3.442   4.528
 7725SOL    HW224075   5.533   3.408   4.529
 7726SOL     OW24076   1.972   3.612   6.832
 7726SOL    HW124077   2.063   3.632   6.796
 7726SOL    HW224078   1.911   3.590   6.756
 7727SOL     OW24079   4.820   0.616   2.408
 7727SOL    HW124080   4.756   0.543   2.431
 7727SOL    HW224081   4.842   0.611   2.311
 7728SOL     OW24082   1.759   3.501   4.649
 7728SOL    HW124083   1.856   3.520   4.633
 7728SOL    HW224084   1.721   3.570   4.711
 7729SOL     OW24085   0.012   0.844   2.424
 7729SOL    HW124086   0.023   0.895   2.510
 7729SOL    HW224087   0.002   0.746   2.445
 7730SOL     OW24088   6.193   4.824   5.675
 7730SOL    HW124089   6.210   4.788   5.767
 7730SOL    HW224090   6.278   4.863   5.638
 7731SOL     OW24091   6.518   6.874   5.726
 7731SOL    HW124092   6.536   6.970   5.749
 7731SOL    HW224093   6.601   6.833   5.688
 7732SOL     OW24094   4.598   0.937   6.967
 7732SOL    HW124095   4.608   0.839   6.957
 7732SOL    HW224096   4.588   0.980   6.877
 7733SOL     OW24097   6.692   5.357   1.232
 7733SOL    HW124098   6.755   5.348   1.309
 7733SOL    HW224099   6.598   5.356   1.266
 7734SOL     OW24100   4.097   3.597   3.570
 7734SOL    HW124101   4.099   3.511   3.622
 7734SOL    HW224102   4.111   3.674   3.632
 7735SOL     OW24103   0.659   5.843   1.222
 7735SOL    HW124104   0.659   5.787   1.139
 7735SOL    HW224105   0.742   5.824   1.274
 7736SOL     OW24106   1.808   2.136   0.202
 7736SOL    HW124107   1.820   2.070   0.127
 7736SOL    HW224108   1.887   2.198   0.204
 7737SOL     OW24109   4.507   4.182   6.908
 7737SOL    HW124110   4.556   4.230   6.981
 7737SOL    HW224111   4.518   4.084   6.918
 7738SOL     OW24112   1.731   0.930   5.030
 7738SOL    HW124113   1.745   0.896   4.937
 7738SOL    HW224114   1.700   0.856   5.089
 7739SOL     OW24115   1.319   2.702   0.437
 7739SOL    HW124116   1.361   2.725   0.525
 7739SOL    HW224117   1.309   2.785   0.382
 7740SOL     OW24118   2.344   1.131   4.355
 7740SOL    HW124119   2.402   1.210   4.376
 7740SOL    HW224120   2.353   1.062   4.426
 7741SOL     OW24121   0.082   4.646   6.133
 7741SOL    HW124122   0.142   4.571   6.162
 7741SOL    HW224123   0.128   4.733   6.147
 7742SOL     OW24124   4.771   2.486   4.180
 7742SOL    HW124125   4.812   2.415   4.123
 7742SOL    HW224126   4.727   2.443   4.259
 7743SOL     OW24127   3.871   1.324   6.094
 7743SOL    HW124128   3.887   1.423   6.100
 7743SOL    HW224129   3.940   1.275   6.147
 7744SOL     OW24130   0.836   6.920   4.504
 7744SOL    HW124131   0.810   7.016   4.521
 7744SOL    HW224132   0.885   6.884   4.583
 7745SOL     OW24133   2.820   6.851   0.996
 7745SOL    HW124134   2.801   6.806   0.908
 7745SOL    HW224135   2.918   6.872   1.002
 7746SOL     OW24136   0.178   6.386   1.458
 7746SOL    HW124137   0.195   6.455   1.387
 7746SOL    HW224138   0.135   6.430   1.537
 7747SOL     OW24139   0.340   5.408   1.103
 7747SOL    HW124140   0.387   5.375   1.022
 7747SOL    HW224141   0.273   5.340   1.133
 7748SOL     OW24142   4.280   1.036   6.355
 7748SOL    HW124143   4.344   1.111   6.344
 7748SOL    HW224144   4.320   0.951   6.320
 7749SOL     OW24145   3.587   2.903   3.176
 7749SOL    HW124146   3.487   2.903   3.176
 7749SOL    HW224147   3.621   2.866   3.263
 7750SOL     OW24148   5.369   4.929   6.118
 7750SOL    HW124149   5.296   4.981   6.075
 7750SOL    HW224150   5.332   4.846   6.160
 7751SOL     OW24151   6.828   1.247   4.409
 7751SOL    HW124152   6.905   1.233   4.471
 7751SOL    HW224153   6.849   1.208   4.320
 7752SOL     OW24154   6.365   4.934   5.266
 7752SOL    HW124155   6.303   4.911   5.341
 7752SOL    HW224156   6.448   4.880   5.275
 7753SOL     OW24157   2.785   0.571   4.912
 7753SOL    HW124158   2.804   0.556   4.815
 7753SOL    HW224159   2.870   0.564   4.964
 7754SOL     OW24160   5.829   0.133   1.141
 7754SOL    HW124161   5.789   0.157   1.230
 7754SOL    HW224162   5.923   0.104   1.153
 7755SOL     OW24163   1.728   6.243   5.516
 7755SOL    HW124164   1.650   6.210   5.569
 7755SOL    HW224165   1.800   6.173   5.515
 7756SOL     OW24166   4.149   5.703   3.198
 7756SOL    HW124167   4.065   5.654   3.220
 7756SOL    HW224168   4.212   5.641   3.151
 7757SOL     OW24169   3.690   0.338   5.937
 7757SOL    HW124170   3.593   0.335   5.960
 7757SOL    HW224171   3.712   0.426   5.895
 7758SOL     OW24172   3.186   2.645   6.383
 7758SOL    HW124173   3.154   2.720   6.325
 7758SOL    HW224174   3.267   2.675   6.434
 7759SOL     OW24175   1.683   0.450   4.715
 7759SOL    HW124176   1.606   0.400   4.755
 7759SOL    HW224177   1.733   0.390   4.653
 7760SOL     OW24178   5.129   2.179   3.546
 7760SOL    HW124179   5.050   2.117   3.553
 7760SOL    HW224180   5.170   2.168   3.455
 7761SOL     OW24181   4.652   0.887   6.670
 7761SOL    HW124182   4.628   0.982   6.651
 7761SOL    HW224183   4.751   0.881   6.686
 7762SOL     OW24184   1.873   2.621   0.405
 7762SOL    HW124185   1.888   2.587   0.312
 7762SOL    HW224186   1.935   2.574   0.468
 7763SOL     OW24187   2.306   2.348   1.591
 7763SOL    HW124188   2.344   2.326   1.502
 7763SOL    HW224189   2.378   2.345   1.660
 7764SOL     OW24190   3.657   3.509   2.204
 7764SOL    HW124191   3.563   3.478   2.192
 7764SOL    HW224192   3.671   3.595   2.156
 7765SOL     OW24193   6.891   1.565   2.266
 7765SOL    HW124194   6.874   1.594   2.171
 7765SOL    HW224195   6.810   1.584   2.321
 7766SOL     OW24196   6.864   3.546   7.020
 7766SOL    HW124197   6.801   3.560   6.944
 7766SOL    HW224198   6.881   3.633   0.043
 7767SOL     OW24199   5.559   3.891   5.476
 7767SOL    HW124200   5.606   3.978   5.458
 7767SOL    HW224201   5.464   3.909   5.503
 7768SOL     OW24202   4.166   5.502   1.958
 7768SOL    HW124203   4.166   5.584   2.016
 7768SOL    HW224204   4.182   5.421   2.015
 7769SOL     OW24205   6.096   1.911   2.645
 7769SOL    HW124206   6.067   2.007   2.647
 7769SOL    HW224207   6.156   1.892   2.723
 7770SOL     OW24208   3.297   6.131   1.058
 7770SOL    HW124209   3.301   6.220   1.102
 7770SOL    HW224210   3.293   6.059   1.128
 7771SOL     OW24211   2.132   1.471   4.697
 7771SOL    HW124212   2.133   1.432   4.789
 7771SOL    HW224213   2.210   1.438   4.645
 7772SOL     OW24214   5.625   0.861   4.944
 7772SOL    HW124215   5.596   0.838   4.851
 7772SOL    HW224216   5.632   0.777   4.999
 7773SOL     OW24217   3.703   4.567   6.216
 7773SOL    HW124218   3.714   4.524   6.127
 7773SOL    HW224219   3.714   4.666   6.207
 7774SOL     OW24220   5.003   1.548   0.049
 7774SOL    HW124221   5.002   1.467   0.108
 7774SOL    HW224222   4.987   1.629   0.105
 7775SOL     OW24223   1.842   0.181   2.001
 7775SOL    HW124224   1.847   0.281   1.992
 7775SOL    HW224225   1.795   0.143   1.921
 7776SOL     OW24226   3.411   3.742   1.001
 7776SOL    HW124227   3.469   3.663   1.019
 7776SOL    HW224228   3.324   3.732   1.050
 7777SOL     OW24229   1.005   6.959   6.316
 7777SOL    HW124230   1.058   0.014   6.349
 7777SOL    HW224231   1.057   6.910   6.246
 7778SOL     OW24232   4.943   1.388   1.866
 7778SOL    HW124233   4.873   1.316   1.863
 7778SOL    HW224234   4.900   1.477   1.850
 7779SOL     OW24235   4.235   2.928   0.359
 7779SOL    HW124236   4.180   2.858   0.406
 7779SOL    HW224237   4.328   2.926   0.394
 7780SOL     OW24238   0.776   0.288   5.089
 7780SOL    HW124239   0.763   0.362   5.155
 7780SOL    HW224240   0.727   0.309   5.005
 7781SOL     OW24241   1.761   4.632   5.482
 7781SOL    HW124242   1.803   4.577   5.409
 7781SOL    HW224243   1.666   4.604   5.494
 7782SOL     OW24244   4.411   4.749   0.161
 7782SOL    HW124245   4.334   4.749   0.225
 7782SOL    HW224246   4.466   4.831   0.174
 7783SOL     OW24247   2.169   5.841   7.002
 7783SOL    HW124248   2.237   5.817   6.933
 7783SOL    HW224249   2.114   5.761   0.002
 7784SOL     OW24250   6.861   3.230   0.703
 7784SOL    HW124251   6.835   3.133   0.706
 7784SOL    HW224252   6.941   3.245   0.761
 7785SOL     OW24253   2.134   5.510   5.620
 7785SOL    HW124254   2.119   5.411   5.620
 7785SOL    HW224255   2.229   5.530   5.644
 7786SOL     OW24256   3.682   4.092   4.390
 7786SOL    HW124257   3.726   4.101   4.479
 7786SOL    HW224258   3.747   4.116   4.318
 7787SOL     OW24259   2.880   2.352   5.172
 7787SOL    HW124260   2.978   2.374   5.167
 7787SOL    HW224261   2.850   2.318   5.082
 7788SOL     OW24262   0.697   1.924   0.821
 7788SOL    HW124263   0.692   1.889   0.915
 7788SOL    HW224264   0.685   2.023   0.821
 7789SOL     OW24265   2.380   0.546   1.416
 7789SOL    HW124266   2.364   0.644   1.408
 7789SOL    HW224267   2.373   0.519   1.512
 7790SOL     OW24268   6.212   3.865   3.047
 7790SOL    HW124269   6.288   3.806   3.076
 7790SOL    HW224270   6.213   3.949   3.101
 7791SOL     OW24271   0.251   4.685   5.216
 7791SOL    HW124272   0.285   4.723   5.130
 7791SOL    HW224273   0.300   4.726   5.293
 7792SOL     OW24274   2.029   5.408   6.770
 7792SOL    HW124275   1.932   5.431   6.766
 7792SOL    HW224276   2.068   5.411   6.678
 7793SOL     OW24277   1.714   1.015   6.423
 7793SOL    HW124278   1.720   1.112   6.398
 7793SOL    HW224279   1.795   0.967   6.388
 7794SOL     OW24280   5.592   5.179   2.617
 7794SOL    HW124281   5.520   5.154   2.682
 7794SOL    HW224282   5.626   5.270   2.639
 7795SOL     OW24283   1.169   4.260   6.174
 7795SOL    HW124284   1.208   4.173   6.142
 7795SOL    HW224285   1.163   4.259   6.274
 7796SOL     OW24286   4.019   3.861   4.753
 7796SOL    HW124287   4.096   3.798   4.760
 7796SOL    HW224288   3.935   3.809   4.738
 7797SOL     OW24289   0.888   6.858   3.143
 7797SOL    HW124290   0.926   6.778   3.189
 7797SOL    HW224291   0.869   6.835   3.047
 7798SOL     OW24292   4.132   6.208   5.946
 7798SOL    HW124293   4.229   6.188   5.932
 7798SOL    HW224294   4.078   6.162   5.876
 7799SOL     OW24295   6.224   4.895   1.040
 7799SOL    HW124296   6.226   4.915   0.942
 7799SOL    HW224297   6.141   4.933   1.080
 7800SOL     OW24298   0.613   6.311   2.195
 7800SOL    HW124299   0.589   6.352   2.284
 7800SOL    HW224300   0.710   6.286   2.195
 7801SOL     OW24301   3.868   2.226   5.177
 7801SOL    HW124302   3.899   2.149   5.121
 7801SOL    HW224303   3.779   2.206   5.216
 7802SOL     OW24304   5.578   1.969   0.127
 7802SOL    HW124305   5.640   1.890   0.127
 7802SOL    HW224306   5.598   2.028   0.206
 7803SOL     OW24307   2.896   3.940   5.092
 7803SOL    HW124308   2.891   4.036   5.066
 7803SOL    HW224309   2.809   3.912   5.134
 7804SOL     OW24310   4.932   1.071   6.113
 7804SOL    HW124311   4.906   1.003   6.182
 7804SOL    HW224312   4.857   1.135   6.099
 7805SOL     OW24313   5.302   3.231   1.810
 7805SOL    HW124314   5.226   3.167   1.799
 7805SOL    HW224315   5.290   3.308   1.746
 7806SOL     OW24316   4.934   3.449   6.554
 7806SOL    HW124317   4.851   3.405   6.589
 7806SOL    HW224318   4.933   3.447   6.454
 7807SOL     OW24319   0.403   3.037   6.722
 7807SOL    HW124320   0.339   3.033   6.799
 7807SOL    HW224321   0.496   3.048   6.757
 7808SOL     OW24322   1.096   0.945   5.252
 7808SOL    HW124323   1.132   0.870   5.196
 7808SOL    HW224324   1.021   0.990   5.204
 7809SOL     OW24325   1.407   5.375   5.941
 7809SOL    HW124326   1.503   5.375   5.967
 7809SOL    HW224327   1.391   5.308   5.869
 7810SOL     OW24328   2.234   1.029   0.020
 7810SOL    HW124329   2.223   1.050   0.117
 7810SOL    HW224330   2.168   0.958   7.017
 7811SOL     OW24331   0.602   4.589   4.528
 7811SOL    HW124332   0.651   4.512   4.487
 7811SOL    HW224333   0.634   4.602   4.622
 7812SOL     OW24334   0.570   2.117   3.687
 7812SOL    HW124335   0.585   2.019   3.695
 7812SOL    HW224336   0.559   2.142   3.591
 7813SOL     OW24337   6.457   2.384   1.172
 7813SOL    HW124338   6.531   2.363   1.236
 7813SOL    HW224339   6.460   2.481   1.148
 7814SOL     OW24340   2.166   3.634   4.197
 7814SOL    HW124341   2.116   3.695   4.136
 7814SOL    HW224342   2.196   3.553   4.147
 7815SOL     OW24343   0.265   1.941   5.727
 7815SOL    HW124344   0.206   1.894   5.792
 7815SOL    HW224345   0.255   2.040   5.738
 7816SOL     OW24346   1.398   4.519   5.207
 7816SOL    HW124347   1.482   4.487   5.251
 7816SOL    HW224348   1.321   4.462   5.237
 7817SOL     OW24349   5.361   3.255   5.249
 7817SOL    HW124350   5.282   3.314   5.228
 7817SOL    HW224351   5.336   3.159   5.236
 7818SOL     OW24352   4.985   4.134   2.793
 7818SOL    HW124353   4.946   4.068   2.857
 7818SOL    HW224354   4.929   4.137   2.710
 7819SOL     OW24355   0.427   1.528   1.212
 7819SOL    HW124356   0.387   1.439   1.234
 7819SOL    HW224357   0.504   1.546   1.272
 7820SOL     OW24358   2.627   0.095   6.404
 7820SOL    HW124359   2.569   0.108   6.323
 7820SOL    HW224360   2.570   0.070   6.482
 7821SOL     OW24361   3.083   5.121   1.187
 7821SOL    HW124362   3.134   5.150   1.106
 7821SOL    HW224363   2.992   5.088   1.159
 7822SOL     OW24364   1.800   6.740   5.722
 7822SOL    HW124365   1.879   6.772   5.671
 7822SOL    HW224366   1.767   6.654   5.682
 7823SOL     OW24367   1.845   4.141   5.054
 7823SOL    HW124368   1.757   4.124   5.099
 7823SOL    HW224369   1.909   4.067   5.076
 7824SOL     OW24370   0.705   3.606   5.447
 7824SOL    HW124371   0.781   3.556   5.488
 7824SOL    HW224372   0.634   3.541   5.418
 7825SOL     OW24373   3.212   0.811   6.853
 7825SOL    HW124374   3.161   0.753   6.917
 7825SOL    HW224375   3.208   0.771   6.761
 7826SOL     OW24376   0.520   3.429   5.316
 7826SOL    HW124377   0.486   3.429   5.222
 7826SOL    HW224378   0.450   3.390   5.377
 7827SOL     OW24379   6.052   5.317   4.732
 7827SOL    HW124380   5.952   5.322   4.743
 7827SOL    HW224381   6.094   5.296   4.820
 7828SOL     OW24382   0.728   5.109   6.645
 7828SOL    HW124383   0.748   5.124   6.742
 7828SOL    HW224384   0.667   5.030   6.636
 7829SOL     OW24385   3.834   4.569   0.677
 7829SOL    HW124386   3.829   4.620   0.763
 7829SOL    HW224387   3.794   4.478   0.690
 7830SOL     OW24388   2.821   6.174   3.662
 7830SOL    HW124389   2.778   6.093   3.704
 7830SOL    HW224390   2.915   6.182   3.694
 7831SOL     OW24391   1.559   0.323   6.037
 7831SOL    HW124392   1.510   0.251   6.086
 7831SOL    HW224393   1.638   0.352   6.092
 7832SOL     OW24394   6.487   1.149   5.266
 7832SOL    HW124395   6.534   1.099   5.339
 7832SOL    HW224396   6.418   1.090   5.224
 7833SOL     OW24397   0.975   0.711   2.581
 7833SOL    HW124398   1.023   0.678   2.499
 7833SOL    HW224399   1.000   0.807   2.597
 7834SOL     OW24400   6.634   3.228   4.908
 7834SOL    HW124401   6.597   3.306   4.957
 7834SOL    HW224402   6.734   3.235   4.905
 7835SOL     OW24403   3.842   2.191   5.902
 7835SOL    HW124404   3.813   2.273   5.853
 7835SOL    HW224405   3.940   2.178   5.890
 7836SOL     OW24406   3.195   4.105   4.732
 7836SOL    HW124407   3.149   4.192   4.750
 7836SOL    HW224408   3.200   4.090   4.633
 7837SOL     OW24409   0.737   5.471   6.812
 7837SOL    HW124410   0.837   5.466   6.813
 7837SOL    HW224411   0.701   5.438   6.899
 7838SOL     OW24412   4.134   5.486   2.359
 7838SOL    HW124413   4.058   5.548   2.379
 7838SOL    HW224414   4.103   5.411   2.302
 7839SOL     OW24415   6.069   3.845   4.456
 7839SOL    HW124416   6.094   3.840   4.552
 7839SOL    HW224417   6.047   3.753   4.422
 7840SOL     OW24418   2.249   3.011   3.785
 7840SOL    HW124419   2.275   2.941   3.851
 7840SOL    HW224420   2.150   3.027   3.791
 7841SOL     OW24421   4.168   1.913   6.223
 7841SOL    HW124422   4.069   1.903   6.220
 7841SOL    HW224423   4.192   2.010   6.218
 7842SOL     OW24424   1.023   0.800   1.690
 7842SOL    HW124425   1.050   0.798   1.594
 7842SOL    HW224426   0.923   0.801   1.697
 7843SOL     OW24427   6.949   6.505   2.387
 7843SOL    HW124428   6.869   6.445   2.391
 7843SOL    HW224429   6.919   6.600   2.385
 7844SOL     OW24430   3.929   7.004   2.832
 7844SOL    HW124431   3.909   6.996   2.930
 7844SOL    HW224432   3.911   0.075   2.802
 7845SOL     OW24433   6.243   2.933   1.255
 7845SOL    HW124434   6.173   2.862   1.257
 7845SOL    HW224435   6.200   3.022   1.238
 7846SOL     OW24436   1.166   0.838   1.002
 7846SOL    HW124437   1.224   0.910   0.963
 7846SOL    HW224438   1.200   0.812   1.092
 7847SOL     OW24439   5.457   4.452   6.187
 7847SOL    HW124440   5.477   4.440   6.090
 7847SOL    HW224441   5.434   4.364   6.227
 7848SOL     OW24442   4.010   4.332   0.421
 7848SOL    HW124443   3.989   4.244   0.377
 7848SOL    HW224444   4.036   4.316   0.516
 7849SOL     OW24445   4.229   5.296   0.021
 7849SOL    HW124446   4.185   5.219   0.069
 7849SOL    HW224447   4.158   5.359   7.012
 7850SOL     OW24448   0.156   0.570   3.827
 7850SOL    HW124449   0.083   0.503   3.839
 7850SOL    HW224450   0.227   0.532   3.767
 7851SOL     OW24451   6.974   4.923   0.893
 7851SOL    HW124452   7.011   5.016   0.904
 7851SOL    HW224453   6.900   4.909   0.958
 7852SOL     OW24454   1.003   2.803   5.915
 7852SOL    HW124455   0.913   2.841   5.896
 7852SOL    HW224456   1.053   2.791   5.829
 7853SOL     OW24457   4.121   3.116   1.910
 7853SOL    HW124458   4.024   3.090   1.915
 7853SOL    HW224459   4.130   3.202   1.860
 7854SOL     OW24460   4.709   1.196   0.867
 7854SOL    HW124461   4.808   1.187   0.876
 7854SOL    HW224462   4.681   1.168   0.775
 7855SOL     OW24463   5.599   6.636   3.856
 7855SOL    HW124464   5.513   6.646   3.806
 7855SOL    HW224465   5.586   6.666   3.951
 7856SOL     OW24466   2.127   6.639   5.710
 7856SOL    HW124467   2.196   6.678   5.771
 7856SOL    HW224468   2.136   6.678   5.619
 7857SOL     OW24469   6.229   4.633   1.010
 7857SOL    HW124470   6.233   4.729   1.036
 7857SOL    HW224471   6.155   4.620   0.944
 7858SOL     OW24472   7.012   3.701   6.230
 7858SOL    HW124473   6.993   3.665   6.139
 7858SOL    HW224474   0.086   3.687   6.252
 7859SOL     OW24475   4.832   2.028   1.102
 7859SOL    HW124476   4.807   2.034   1.199
 7859SOL    HW224477   4.821   1.934   1.070
 7860SOL     OW24478   2.699   1.245   4.128
 7860SOL    HW124479   2.760   1.318   4.158
 7860SOL    HW224480   2.604   1.270   4.146
 7861SOL     OW24481   1.993   6.070   1.108
 7861SOL    HW124482   1.973   6.129   1.186
 7861SOL    HW224483   2.047   5.991   1.139
 7862SOL     OW24484   1.570   6.626   0.065
 7862SOL    HW124485   1.591   6.528   0.075
 7862SOL    HW224486   1.505   6.638   7.014
 7863SOL     OW24487   1.088   4.530   4.105
 7863SOL    HW124488   1.098   4.620   4.148
 7863SOL    HW224489   1.046   4.542   4.015
 7864SOL     OW24490   2.749   5.948   4.652
 7864SOL    HW124491   2.828   5.891   4.629
 7864SOL    HW224492   2.711   5.919   4.740
 7865SOL     OW24493   5.659   4.227   3.816
 7865SOL    HW124494   5.578   4.277   3.785
 7865SOL    HW224495   5.685   4.159   3.748
 7866SOL     OW24496   0.793   0.749   5.569
 7866SOL    HW124497   0.730   0.792   5.634
 7866SOL    HW224498   0.859   0.817   5.537
 7867SOL     OW24499   4.373   4.941   3.991
 7867SOL    HW124500   4.376   4.974   4.085
 7867SOL    HW224501   4.349   4.843   3.990
 7868SOL     OW24502   3.258   6.704   1.440
 7868SOL    HW124503   3.239   6.606   1.444
 7868SOL    HW224504   3.223   6.741   1.353
 7869SOL     OW24505   6.291   4.788   6.856
 7869SOL    HW124506   6.375   4.740   6.879
 7869SOL    HW224507   6.313   4.877   6.817
 7870SOL     OW24508   6.180   6.668   3.583
 7870SOL    HW124509   6.152   6.724   3.662
 7870SOL    HW224510   6.226   6.726   3.516
 7871SOL     OW24511   4.379   1.261   0.605
 7871SOL    HW124512   4.357   1.244   0.509
 7871SOL    HW224513   4.326   1.199   0.663
 7872SOL     OW24514   0.221   5.474   3.096
 7872SOL    HW124515   0.267   5.387   3.111
 7872SOL    HW224516   0.259   5.518   3.014
 7873SOL     OW24517   4.719   1.965   6.981
 7873SOL    HW124518   4.638   1.914   7.010
 7873SOL    HW224519   4.699   2.063   6.981
 7874SOL     OW24520   5.745   2.370   0.384
 7874SOL    HW124521   5.720   2.429   0.307
 7874SOL    HW224522   5.711   2.409   0.469
 7875SOL     OW24523   6.498   4.723   6.401
 7875SOL    HW124524   6.567   4.698   6.469
 7875SOL    HW224525   6.452   4.641   6.369
 7876SOL     OW24526   1.382   6.530   3.252
 7876SOL    HW124527   1.450   6.589   3.207
 7876SOL    HW224528   1.404   6.522   3.349
 7877SOL     OW24529   6.832   3.019   2.446
 7877SOL    HW124530   6.795   3.111   2.436
 7877SOL    HW224531   6.904   3.004   2.379
 7878SOL     OW24532   3.871   6.672   2.483
 7878SOL    HW124533   3.800   6.739   2.462
 7878SOL    HW224534   3.835   6.603   2.545
 7879SOL     OW24535   3.281   6.231   2.922
 7879SOL    HW124536   3.195   6.181   2.933
 7879SOL    HW224537   3.344   6.204   2.995
 7880SOL     OW24538   1.054   4.423   2.246
 7880SOL    HW124539   1.114   4.418   2.326
 7880SOL    HW224540   0.962   4.393   2.273
 7881SOL     OW24541   4.853   3.833   3.646
 7881SOL    HW124542   4.800   3.761   3.602
 7881SOL    HW224543   4.913   3.875   3.579
 7882SOL     OW24544   0.217   3.040   6.926
 7882SOL    HW124545   0.139   3.098   6.903
 7882SOL    HW224546   0.189   2.945   6.931
 7883SOL     OW24547   0.540   0.129   4.987
 7883SOL    HW124548   0.487   0.099   5.067
 7883SOL    HW224549   0.634   0.147   5.014
 7884SOL     OW24550   1.207   2.966   4.215
 7884SOL    HW124551   1.213   2.997   4.310
 7884SOL    HW224552   1.200   3.045   4.154
 7885SOL     OW24553   0.322   5.962   6.932
 7885SOL    HW124554   0.306   5.866   6.955
 7885SOL    HW224555   0.388   5.967   6.857
 7886SOL     OW24556   5.058   3.785   1.152
 7886SOL    HW124557   5.137   3.824   1.200
 7886SOL    HW224558   5.040   3.838   1.069
 7887SOL     OW24559   4.756   3.172   6.230
 7887SOL    HW124560   4.714   3.263   6.225
 7887SOL    HW224561   4.819   3.161   6.154
 7888SOL     OW24562   4.373   6.085   5.004
 7888SOL    HW124563   4.280   6.114   4.979
 7888SOL    HW224564   4.377   6.069   5.103
 7889SOL     OW24565   6.565   5.214   3.227
 7889SOL    HW124566   6.663   5.225   3.216
 7889SOL    HW224567   6.517   5.244   3.144
 7890SOL     OW24568   1.843   3.300   2.257
 7890SOL    HW124569   1.818   3.213   2.300
 7890SOL    HW224570   1.774   3.368   2.279
 7891SOL     OW24571   0.929   4.990   2.990
 7891SOL    HW124572   0.915   4.894   2.968
 7891SOL    HW224573   0.874   5.047   2.929
 7892SOL     OW24574   2.102   2.161   4.827
 7892SOL    HW124575   2.034   2.133   4.894
 7892SOL    HW224576   2.066   2.237   4.773
 7893SOL     OW24577   5.875   6.647   1.427
 7893SOL    HW124578   5.848   6.651   1.523
 7893SOL    HW224579   5.862   6.736   1.384
 7894SOL     OW24580   3.144   0.520   1.726
 7894SOL    HW124581   3.058   0.469   1.734
 7894SOL    HW224582   3.138   0.605   1.779
 7895SOL     OW24583   0.503   1.247   3.441
 7895SOL    HW124584   0.478   1.153   3.466
 7895SOL    HW224585   0.441   1.311   3.487
 7896SOL     OW24586   3.931   1.592   6.205
 7896SOL    HW124587   3.862   1.644   6.154
 7896SOL    HW224588   3.886   1.541   6.278
 7897SOL     OW24589   3.188   2.967   6.547
 7897SOL    HW124590   3.177   2.945   6.644
 7897SOL    HW224591   3.104   3.010   6.512
 7898SOL     OW24592   4.961   1.335   4.246
 7898SOL    HW124593   4.930   1.392   4.322
 7898SOL    HW224594   4.886   1.276   4.215
 7899SOL     OW24595   4.231   1.177   2.155
 7899SOL    HW124596   4.152   1.164   2.215
 7899SOL    HW224597   4.307   1.213   2.208
 7900SOL     OW24598   0.977   5.685   1.234
 7900SOL    HW124599   0.923   5.628   1.296
 7900SOL    HW224600   1.071   5.690   1.266
 7901SOL     OW24601   6.208   5.292   0.605
 7901SOL    HW124602   6.141   5.267   0.675
 7901SOL    HW224603   6.171   5.368   0.550
 7902SOL     OW24604   4.961   4.717   5.889
 7902SOL    HW124605   4.995   4.677   5.804
 7902SOL    HW224606   4.875   4.766   5.871
 7903SOL     OW24607   7.021   2.996   0.765
 7903SOL    HW124608   0.021   2.960   0.855
 7903SOL    HW224609   6.982   2.924   0.708
 7904SOL     OW24610   6.176   2.419   2.606
 7904SOL    HW124611   6.162   2.452   2.513
 7904SOL    HW224612   6.130   2.331   2.618
 7905SOL     OW24613   1.784   1.970   1.864
 7905SOL    HW124614   1.776   2.058   1.817
 7905SOL    HW224615   1.835   1.906   1.806
 7906SOL     OW24616   0.422   4.332   6.865
 7906SOL    HW124617   0.467   4.364   6.781
 7906SOL    HW224618   0.326   4.309   6.845
 7907SOL     OW24619   6.816   2.605   2.463
 7907SOL    HW124620   6.916   2.604   2.461
 7907SOL    HW224621   6.783   2.700   2.466
 7908SOL     OW24622   6.571   1.189   2.784
 7908SOL    HW124623   6.564   1.280   2.743
 7908SOL    HW224624   6.542   1.120   2.717
 7909SOL     OW24625   4.075   6.679   4.915
 7909SOL    HW124626   4.096   6.582   4.903
 7909SOL    HW224627   4.035   6.694   5.006
 7910SOL     OW24628   6.471   2.819   5.974
 7910SOL    HW124629   6.549   2.783   6.026
 7910SOL    HW224630   6.452   2.760   5.896
 7911SOL     OW24631   7.015   5.456   6.826
 7911SOL    HW124632   0.002   5.427   6.731
 7911SOL    HW224633   0.062   5.523   6.848
 7912SOL     OW24634   0.162   5.021   5.507
 7912SOL    HW124635   0.229   4.948   5.496
 7912SOL    HW224636   0.112   5.034   5.421
 7913SOL     OW24637   1.310   6.300   6.568
 7913SOL    HW124638   1.246   6.227   6.543
 7913SOL    HW224639   1.357   6.275   6.653
 7914SOL     OW24640   6.252   4.088   1.069
 7914SOL    HW124641   6.223   4.156   1.002
 7914SOL    HW224642   6.276   4.003   1.021
 7915SOL     OW24643   3.178   1.082   2.699
 7915SOL    HW124644   3.233   1.153   2.656
 7915SOL    HW224645   3.141   1.115   2.786
 7916SOL     OW24646   4.429   3.927   5.750
 7916SOL    HW124647   4.477   3.840   5.760
 7916SOL    HW224648   4.333   3.910   5.729
 7917SOL     OW24649   3.831   3.371   3.909
 7917SOL    HW124650   3.873   3.334   3.826
 7917SOL    HW224651   3.901   3.380   3.981
 7918SOL     OW24652   6.177   2.226   2.981
 7918SOL    HW124653   6.096   2.285   2.968
 7918SOL    HW224654   6.251   2.280   3.022
 7919SOL     OW24655   5.530   4.219   1.817
 7919SOL    HW124656   5.597   4.193   1.748
 7919SOL    HW224657   5.578   4.242   1.902
 7920SOL     OW24658   6.999   0.087   1.861
 7920SOL    HW124659   6.938   0.055   1.789
 7920SOL    HW224660   0.053   0.023   1.869
 7921SOL     OW24661   2.316   6.005   1.941
 7921SOL    HW124662   2.409   5.996   1.975
 7921SOL    HW224663   2.303   6.097   1.905
 7922SOL     OW24664   0.954   5.249   5.773
 7922SOL    HW124665   0.862   5.277   5.745
 7922SOL    HW224666   0.987   5.177   5.711
 7923SOL     OW24667   0.450   1.840   2.987
 7923SOL    HW124668   0.516   1.795   2.927
 7923SOL    HW224669   0.458   1.940   2.978
 7924SOL     OW24670   1.842   1.093   3.308
 7924SOL    HW124671   1.928   1.063   3.266
 7924SOL    HW224672   1.842   1.069   3.405
 7925SOL     OW24673   0.389   1.411   6.812
 7925SOL    HW124674   0.384   1.457   6.724
 7925SOL    HW224675   0.383   1.478   6.886
 7926SOL     OW24676   3.231   0.253   1.747
 7926SOL    HW124677   3.192   0.214   1.831
 7926SOL    HW224678   3.193   0.345   1.732
 7927SOL     OW24679   4.631   4.419   4.573
 7927SOL    HW124680   4.573   4.410   4.492
 7927SOL    HW224681   4.669   4.511   4.577
 7928SOL     OW24682   0.604   4.365   6.619
 7928SOL    HW124683   0.633   4.445   6.567
 7928SOL    HW224684   0.611   4.283   6.562
 7929SOL     OW24685   3.956   3.991   4.495
 7929SOL    HW124686   3.982   3.965   4.588
 7929SOL    HW224687   3.894   3.922   4.457
 7930SOL     OW24688   4.998   6.433   3.050
 7930SOL    HW124689   4.931   6.413   2.978
 7930SOL    HW224690   5.007   6.532   3.060
 7931SOL     OW24691   3.120   3.640   6.400
 7931SOL    HW124692   3.143   3.666   6.306
 7931SOL    HW224693   3.172   3.696   6.464
 7932SOL     OW24694   3.082   0.462   0.412
 7932SOL    HW124695   3.112   0.512   0.494
 7932SOL    HW224696   3.022   0.520   0.357
 7933SOL     OW24697   1.550   0.812   6.145
 7933SOL    HW124698   1.457   0.844   6.128
 7933SOL    HW224699   1.547   0.719   6.183
 7934SOL     OW24700   4.061   2.549   5.679
 7934SOL    HW124701   4.008   2.635   5.674
 7934SOL    HW224702   4.072   2.511   5.587
 7935SOL     OW24703   4.619   5.490   2.008
 7935SOL    HW124704   4.574   5.485   2.097
 7935SOL    HW224705   4.567   5.550   1.948
 7936SOL     OW24706   4.526   6.218   2.252
 7936SOL    HW124707   4.523   6.276   2.333
 7936SOL    HW224708   4.548   6.124   2.279
 7937SOL     OW24709   6.056   1.046   5.818
 7937SOL    HW124710   6.037   1.049   5.916
 7937SOL    HW224711   6.020   0.961   5.780
 7938SOL     OW24712   6.185   4.679   4.171
 7938SOL    HW124713   6.204   4.632   4.257
 7938SOL    HW224714   6.235   4.635   4.097
 7939SOL     OW24715   0.205   6.626   4.240
 7939SOL    HW124716   0.128   6.688   4.225
 7939SOL    HW224717   0.173   6.544   4.289
 7940SOL     OW24718   1.349   5.521   0.699
 7940SOL    HW124719   1.344   5.593   0.769
 7940SOL    HW224720   1.355   5.564   0.609
 7941SOL     OW24721   0.474   0.645   0.742
 7941SOL    HW124722   0.524   0.726   0.713
 7941SOL    HW224723   0.514   0.608   0.826
 7942SOL     OW24724   1.381   1.047   1.480
 7942SOL    HW124725   1.430   1.094   1.406
 7942SOL    HW224726   1.444   1.030   1.556
 7943SOL     OW24727   6.466   2.399   0.275
 7943SOL    HW124728   6.544   2.345   0.243
 7943SOL    HW224729   6.420   2.350   0.350
 7944SOL     OW24730   0.021   3.758   2.011
 7944SOL    HW124731   7.011   3.664   2.004
 7944SOL    HW224732   0.047   3.778   2.105
 7945SOL     OW24733   5.164   7.019   0.503
 7945SOL    HW124734   5.072   0.026   0.476
 7945SOL    HW224735   5.179   0.017   0.600
 7946SOL     OW24736   1.916   1.375   5.980
 7946SOL    HW124737   1.888   1.339   6.069
 7946SOL    HW224738   1.993   1.438   5.992
 7947SOL     OW24739   4.422   5.554   6.273
 7947SOL    HW124740   4.507   5.571   6.223
 7947SOL    HW224741   4.433   5.472   6.330
 7948SOL     OW24742   0.802   5.242   6.244
 7948SOL    HW124743   0.763   5.151   6.254
 7948SOL    HW224744   0.788   5.294   6.328
 7949SOL     OW24745   6.758   3.905   3.457
 7949SOL    HW124746   6.780   4.001   3.471
 7949SOL    HW224747   6.757   3.858   3.546
 7950SOL     OW24748   3.682   4.926   3.837
 7950SOL    HW124749   3.737   4.895   3.914
 7950SOL    HW224750   3.739   4.981   3.775
 7951SOL     OW24751   2.606   3.263   0.505
 7951SOL    HW124752   2.624   3.189   0.440
 7951SOL    HW224753   2.693   3.300   0.538
 7952SOL     OW24754   5.330   4.822   0.788
 7952SOL    HW124755   5.364   4.889   0.854
 7952SOL    HW224756   5.355   4.730   0.818
 7953SOL     OW24757   1.784   3.317   2.904
 7953SOL    HW124758   1.717   3.246   2.925
 7953SOL    HW224759   1.741   3.390   2.852
 7954SOL     OW24760   5.028   5.349   4.428
 7954SOL    HW124761   5.009   5.391   4.340
 7954SOL    HW224762   5.123   5.367   4.453
 7955SOL     OW24763   2.152   6.025   6.157
 7955SOL    HW124764   2.165   6.121   6.130
 7955SOL    HW224765   2.063   5.993   6.123
 7956SOL     OW24766   6.439   6.603   3.024
 7956SOL    HW124767   6.384   6.673   2.978
 7956SOL    HW224768   6.534   6.611   2.995
 7957SOL     OW24769   1.087   2.071   1.056
 7957SOL    HW124770   1.006   2.116   1.018
 7957SOL    HW224771   1.089   1.976   1.025
 7958SOL     OW24772   2.661   6.091   3.438
 7958SOL    HW124773   2.578   6.057   3.482
 7958SOL    HW224774   2.722   6.130   3.507
 7959SOL     OW24775   4.939   5.173   1.468
 7959SOL    HW124776   4.858   5.120   1.442
 7959SOL    HW224777   5.014   5.111   1.491
 7960SOL     OW24778   1.958   2.263   1.146
 7960SOL    HW124779   1.926   2.263   1.241
 7960SOL    HW224780   1.986   2.356   1.120
 7961SOL     OW24781   1.169   5.905   0.227
 7961SOL    HW124782   1.228   5.986   0.224
 7961SOL    HW224783   1.093   5.918   0.164
 7962SOL     OW24784   1.800   6.666   2.240
 7962SOL    HW124785   1.703   6.643   2.253
 7962SOL    HW224786   1.810   6.765   2.237
 7963SOL     OW24787   0.551   6.519   4.593
 7963SOL    HW124788   0.647   6.535   4.616
 7963SOL    HW224789   0.546   6.449   4.521
 7964SOL     OW24790   6.137   5.338   3.828
 7964SOL    HW124791   6.194   5.346   3.910
 7964SOL    HW224792   6.102   5.428   3.804
 7965SOL     OW24793   4.783   1.909   0.665
 7965SOL    HW124794   4.733   1.912   0.752
 7965SOL    HW224795   4.819   2.000   0.644
 7966SOL     OW24796   0.146   0.322   3.372
 7966SOL    HW124797   0.111   0.230   3.387
 7966SOL    HW224798   0.182   0.329   3.279
 7967SOL     OW24799   3.164   0.322   3.365
 7967SOL    HW124800   3.121   0.256   3.426
 7967SOL    HW224801   3.263   0.322   3.379
 7968SOL     OW24802   2.527   0.918   1.650
 7968SOL    HW124803   2.469   0.853   1.601
 7968SOL    HW224804   2.537   1.001   1.596
 7969SOL     OW24805   3.452   1.725   3.177
 7969SOL    HW124806   3.541   1.736   3.220
 7969SOL    HW224807   3.406   1.814   3.172
 7970SOL     OW24808   0.028   5.044   3.852
 7970SOL    HW124809   6.994   4.964   3.834
 7970SOL    HW224810   0.040   5.054   3.951
 7971SOL     OW24811   3.233   1.614   2.312
 7971SOL    HW124812   3.309   1.563   2.354
 7971SOL    HW224813   3.238   1.605   2.213
 7972SOL     OW24814   6.269   5.094   1.512
 7972SOL    HW124815   6.353   5.138   1.480
 7972SOL    HW224816   6.193   5.124   1.454
 7973SOL     OW24817   4.621   1.950   3.069
 7973SOL    HW124818   4.550   1.994   3.125
 7973SOL    HW224819   4.579   1.908   2.989
 7974SOL     OW24820   5.627   6.377   3.743
 7974SOL    HW124821   5.629   6.472   3.775
 7974SOL    HW224822   5.714   6.356   3.698
 7975SOL     OW24823   1.537   1.622   2.660
 7975SOL    HW124824   1.494   1.699   2.612
 7975SOL    HW224825   1.563   1.651   2.752
 7976SOL     OW24826   1.144   6.595   5.953
 7976SOL    HW124827   1.160   6.505   5.994
 7976SOL    HW224828   1.226   6.623   5.903
 7977SOL     OW24829   5.081   6.686   1.284
 7977SOL    HW124830   5.007   6.672   1.218
 7977SOL    HW224831   5.043   6.725   1.368
 7978SOL     OW24832   3.664   2.123   5.324
 7978SOL    HW124833   3.589   2.156   5.266
 7978SOL    HW224834   3.626   2.068   5.398
 7979SOL     OW24835   4.977   6.284   4.138
 7979SOL    HW124836   5.053   6.323   4.086
 7979SOL    HW224837   4.965   6.188   4.113
 7980SOL     OW24838   2.884   0.635   2.798
 7980SOL    HW124839   2.909   0.627   2.895
 7980SOL    HW224840   2.952   0.589   2.742
 7981SOL     OW24841   0.818   6.170   2.480
 7981SOL    HW124842   0.804   6.269   2.486
 7981SOL    HW224843   0.818   6.131   2.573
 7982SOL     OW24844   6.795   2.534   0.147
 7982SOL    HW124845   6.735   2.606   0.114
 7982SOL    HW224846   6.740   2.457   0.180
 7983SOL     OW24847   4.934   2.708   1.998
 7983SOL    HW124848   4.886   2.701   2.085
 7983SOL    HW224849   4.881   2.763   1.934
 7984SOL     OW24850   0.002   0.585   0.267
 7984SOL    HW124851   0.049   0.502   0.294
 7984SOL    HW224852   0.066   0.646   0.221
 7985SOL     OW24853   0.863   1.253   0.898
 7985SOL    HW124854   0.930   1.204   0.841
 7985SOL    HW224855   0.786   1.193   0.917
 7986SOL     OW24856   4.980   3.038   0.068
 7986SOL    HW124857   4.990   2.957   0.126
 7986SOL    HW224858   4.921   3.016   7.014
 7987SOL     OW24859   0.993   2.846   5.034
 7987SOL    HW124860   0.988   2.944   5.016
 7987SOL    HW224861   0.905   2.812   5.066
 7988SOL     OW24862   3.006   1.510   5.499
 7988SOL    HW124863   2.912   1.522   5.466
 7988SOL    HW224864   3.069   1.513   5.422
 7989SOL     OW24865   3.635   3.199   6.101
 7989SOL    HW124866   3.637   3.288   6.148
 7989SOL    HW224867   3.726   3.157   6.106
 7990SOL     OW24868   2.313   2.863   4.832
 7990SOL    HW124869   2.339   2.899   4.922
 7990SOL    HW224870   2.253   2.784   4.844
 7991SOL     OW24871   1.880   2.748   6.068
 7991SOL    HW124872   1.821   2.780   6.142
 7991SOL    HW224873   1.976   2.762   6.093
 7992SOL     OW24874   2.896   1.517   1.095
 7992SOL    HW124875   2.830   1.572   1.043
 7992SOL    HW224876   2.923   1.437   1.041
 7993SOL     OW24877   2.504   6.330   6.245
 7993SOL    HW124878   2.591   6.293   6.278
 7993SOL    HW224879   2.429   6.275   6.281
 7994SOL     OW24880   5.555   1.058   4.260
 7994SOL    HW124881   5.598   1.096   4.178
 7994SOL    HW224882   5.537   0.961   4.247
 7995SOL     OW24883   4.324   5.548   3.058
 7995SOL    HW124884   4.389   5.484   3.098
 7995SOL    HW224885   4.373   5.617   3.005
 7996SOL     OW24886   4.195   1.265   5.129
 7996SOL    HW124887   4.215   1.336   5.061
 7996SOL    HW224888   4.269   1.198   5.130
 7997SOL     OW24889   5.191   2.504   2.083
 7997SOL    HW124890   5.201   2.408   2.110
 7997SOL    HW224891   5.138   2.553   2.152
 7998SOL     OW24892   6.330   4.905   6.210
 7998SOL    HW124893   6.376   4.820   6.186
 7998SOL    HW224894   6.322   4.912   6.310
 7999SOL     OW24895   1.996   1.307   5.740
 7999SOL    HW124896   1.988   1.209   5.723
 7999SOL    HW224897   1.935   1.333   5.815
 8000SOL     OW24898   5.106   0.433   5.568
 8000SOL    HW124899   5.101   0.359   5.635
 8000SOL    HW224900   5.014   0.467   5.549
 8001SOL     OW24901   2.552   5.401   1.005
 8001SOL    HW124902   2.588   5.359   0.921
 8001SOL    HW224903   2.533   5.498   0.988
 8002SOL     OW24904   5.330   2.125   5.679
 8002SOL    HW124905   5.369   2.171   5.599
 8002SOL    HW224906   5.244   2.082   5.653
 8003SOL     OW24907   4.351   5.929   3.475
 8003SOL    HW124908   4.274   5.966   3.424
 8003SOL    HW224909   4.337   5.831   3.489
 8004SOL     OW24910   1.137   4.524   3.098
 8004SOL    HW124911   1.185   4.592   3.155
 8004SOL    HW224912   1.203   4.479   3.038
 8005SOL     OW24913   1.916   0.792   2.384
 8005SOL    HW124914   1.905   0.880   2.339
 8005SOL    HW224915   1.958   0.805   2.473
 8006SOL     OW24916   3.598   6.336   1.951
 8006SOL    HW124917   3.566   6.247   1.984
 8006SOL    HW224918   3.534   6.370   1.881
 8007SOL     OW24919   0.618   0.890   3.810
 8007SOL    HW124920   0.706   0.929   3.835
 8007SOL    HW224921   0.544   0.939   3.857
 8008SOL     OW24922   5.627   5.266   0.818
 8008SOL    HW124923   5.558   5.265   0.890
 8008SOL    HW224924   5.707   5.215   0.847
 8009SOL     OW24925   6.808   0.123   3.817
 8009SOL    HW124926   6.822   0.025   3.825
 8009SOL    HW224927   6.719   0.148   3.856
 8010SOL     OW24928   1.962   2.831   6.793
 8010SOL    HW124929   1.979   2.778   6.709
 8010SOL    HW224930   1.948   2.767   6.869
 8011SOL     OW24931   2.136   2.828   0.586
 8011SOL    HW124932   2.149   2.754   0.652
 8011SOL    HW224933   2.223   2.874   0.569
 8012SOL     OW24934   2.970   0.348   3.177
 8012SOL    HW124935   3.060   0.344   3.222
 8012SOL    HW224936   2.969   0.423   3.111
 8013SOL     OW24937   5.833   5.623   4.598
 8013SOL    HW124938   5.906   5.683   4.566
 8013SOL    HW224939   5.765   5.676   4.648
 8014SOL     OW24940   2.070   6.712   6.937
 8014SOL    HW124941   2.103   6.626   6.899
 8014SOL    HW224942   1.979   6.699   6.975
 8015SOL     OW24943   1.568   2.012   6.054
 8015SOL    HW124944   1.473   2.030   6.027
 8015SOL    HW224945   1.586   2.054   6.143
 8016SOL     OW24946   4.429   5.998   2.013
 8016SOL    HW124947   4.375   6.082   2.013
 8016SOL    HW224948   4.420   5.952   1.925
 8017SOL     OW24949   6.385   3.267   5.690
 8017SOL    HW124950   6.334   3.243   5.608
 8017SOL    HW224951   6.360   3.204   5.764
 8018SOL     OW24952   5.877   2.898   4.785
 8018SOL    HW124953   5.901   2.957   4.707
 8018SOL    HW224954   5.869   2.954   4.867
 8019SOL     OW24955   2.582   5.037   1.293
 8019SOL    HW124956   2.502   5.000   1.339
 8019SOL    HW224957   2.558   5.063   1.199
 8020SOL     OW24958   5.851   6.324   6.643
 8020SOL    HW124959   5.936   6.311   6.592
 8020SOL    HW224960   5.782   6.260   6.612
 8021SOL     OW24961   6.746   1.167   0.727
 8021SOL    HW124962   6.731   1.081   0.679
 8021SOL    HW224963   6.764   1.240   0.661
 8022SOL     OW24964   4.443   4.947   3.454
 8022SOL    HW124965   4.394   5.026   3.417
 8022SOL    HW224966   4.379   4.888   3.503
 8023SOL     OW24967   6.922   6.087   3.427
 8023SOL    HW124968   6.912   6.000   3.475
 8023SOL    HW224969   6.899   6.075   3.330
 8024SOL     OW24970   4.574   5.840   5.287
 8024SOL    HW124971   4.641   5.830   5.213
 8024SOL    HW224972   4.514   5.760   5.289
 8025SOL     OW24973   3.165   5.760   0.397
 8025SOL    HW124974   3.219   5.682   0.365
 8025SOL    HW224975   3.155   5.756   0.497
 8026SOL     OW24976   2.578   3.357   6.687
 8026SOL    HW124977   2.593   3.270   6.735
 8026SOL    HW224978   2.538   3.338   6.597
 8027SOL     OW24979   4.518   3.658   5.613
 8027SOL    HW124980   4.612   3.641   5.645
 8027SOL    HW224981   4.499   3.600   5.534
 8028SOL     OW24982   5.049   5.577   0.557
 8028SOL    HW124983   5.032   5.507   0.626
 8028SOL    HW224984   5.147   5.597   0.553
 8029SOL     OW24985   2.882   4.495   6.974
 8029SOL    HW124986   2.848   4.580   7.015
 8029SOL    HW224987   2.956   4.458   0.008
 8030SOL     OW24988   6.181   3.132   0.973
 8030SOL    HW124989   6.264   3.169   0.930
 8030SOL    HW224990   6.133   3.074   0.908
 8031SOL     OW24991   3.560   6.523   1.113
 8031SOL    HW124992   3.619   6.468   1.055
 8031SOL    HW224993   3.608   6.544   1.199
 8032SOL     OW24994   4.704   4.936   5.886
 8032SOL    HW124995   4.692   4.966   5.981
 8032SOL    HW224996   4.749   5.007   5.833
 8033SOL     OW24997   6.059   2.012   1.063
 8033SOL    HW124998   6.029   1.956   1.140
 8033SOL    HW224999   6.153   1.988   1.039
 8034SOL     OW25000   6.366   1.578   5.303
 8034SOL    HW125001   6.329   1.496   5.346
 8034SOL    HW225002   6.405   1.555   5.214
 8035SOL     OW25003   5.539   5.511   6.453
 8035SOL    HW125004   5.593   5.494   6.535
 8035SOL    HW225005   5.481   5.592   6.468
 8036SOL     OW25006   1.348   4.310   1.486
 8036SOL    HW125007   1.358   4.238   1.417
 8036SOL    HW225008   1.278   4.283   1.552
 8037SOL     OW25009   2.214   3.146   1.699
 8037SOL    HW125010   2.307   3.172   1.673
 8037SOL    HW225011   2.186   3.066   1.647
 8038SOL     OW25012   5.750   1.420   4.214
 8038SOL    HW125013   5.666   1.380   4.250
 8038SOL    HW225014   5.827   1.393   4.272
 8039SOL     OW25015   2.647   6.260   4.255
 8039SOL    HW125016   2.735   6.268   4.209
 8039SOL    HW225017   2.599   6.179   4.222
 8040SOL     OW25018   5.724   5.778   0.257
 8040SOL    HW125019   5.793   5.713   0.223
 8040SOL    HW225020   5.767   5.839   0.324
 8041SOL     OW25021   3.944   2.094   0.989
 8041SOL    HW125022   3.872   2.108   0.922
 8041SOL    HW225023   3.946   2.171   1.053
 8042SOL     OW25024   2.602   4.488   0.460
 8042SOL    HW125025   2.651   4.557   0.407
 8042SOL    HW225026   2.543   4.435   0.399
 8043SOL     OW25027   2.829   0.790   1.060
 8043SOL    HW125028   2.765   0.717   1.034
 8043SOL    HW225029   2.921   0.751   1.069
 8044SOL     OW25030   3.112   3.436   1.784
 8044SOL    HW125031   3.017   3.407   1.781
 8044SOL    HW225032   3.119   3.531   1.754
 8045SOL     OW25033   6.241   3.049   3.864
 8045SOL    HW125034   6.217   2.977   3.799
 8045SOL    HW225035   6.223   3.016   3.957
 8046SOL     OW25036   0.321   5.215   5.146
 8046SOL    HW125037   0.233   5.254   5.119
 8046SOL    HW225038   0.395   5.260   5.095
 8047SOL     OW25039   2.777   7.010   4.343
 8047SOL    HW125040   2.682   7.017   4.315
 8047SOL    HW225041   2.836   7.011   4.262
 8048SOL     OW25042   6.298   0.881   5.809
 8048SOL    HW125043   6.247   0.804   5.848
 8048SOL    HW225044   6.237   0.958   5.795
 8049SOL     OW25045   1.250   0.150   0.333
 8049SOL    HW125046   1.339   0.135   0.375
 8049SOL    HW225047   1.248   0.108   0.242
 8050SOL     OW25048   0.323   3.048   1.423
 8050SOL    HW125049   0.282   2.957   1.426
 8050SOL    HW225050   0.366   3.067   1.511
 8051SOL     OW25051   3.464   1.719   3.523
 8051SOL    HW125052   3.373   1.746   3.490
 8051SOL    HW225053   3.485   1.627   3.492
 8052SOL     OW25054   3.657   2.121   3.196
 8052SOL    HW125055   3.612   2.115   3.106
 8052SOL    HW225056   3.756   2.122   3.184
 8053SOL     OW25057   4.350   3.377   1.708
 8053SOL    HW125058   4.278   3.401   1.774
 8053SOL    HW225059   4.395   3.293   1.738
 8054SOL     OW25060   4.600   6.149   4.238
 8054SOL    HW125061   4.554   6.085   4.176
 8054SOL    HW225062   4.639   6.225   4.186
 8055SOL     OW25063   0.424   7.018   5.602
 8055SOL    HW125064   0.514   6.994   5.639
 8055SOL    HW225065   0.394   6.946   5.539
 8056SOL     OW25066   4.486   1.313   2.194
 8056SOL    HW125067   4.536   1.296   2.108
 8056SOL    HW225068   4.544   1.289   2.271
 8057SOL     OW25069   3.094   0.156   3.605
 8057SOL    HW125070   3.059   0.236   3.654
 8057SOL    HW225071   3.178   0.124   3.648
 8058SOL     OW25072   2.428   0.249   2.978
 8058SOL    HW125073   2.411   0.325   3.041
 8058SOL    HW225074   2.512   0.202   3.003
 8059SOL     OW25075   2.569   1.003   3.437
 8059SOL    HW125076   2.472   1.030   3.440
 8059SOL    HW225077   2.624   1.073   3.483
 8060SOL     OW25078   0.790   3.073   5.058
 8060SOL    HW125079   0.809   3.159   5.105
 8060SOL    HW225080   0.744   3.010   5.121
 8061SOL     OW25081   6.540   5.892   2.257
 8061SOL    HW125082   6.540   5.879   2.158
 8061SOL    HW225083   6.463   5.951   2.283
 8062SOL     OW25084   1.624   3.490   2.242
 8062SOL    HW125085   1.561   3.432   2.293
 8062SOL    HW225086   1.575   3.535   2.167
 8063SOL     OW25087   2.490   3.049   6.391
 8063SOL    HW125088   2.516   2.956   6.364
 8063SOL    HW225089   2.567   3.093   6.438
 8064SOL     OW25090   6.674   2.410   6.520
 8064SOL    HW125091   6.757   2.447   6.560
 8064SOL    HW225092   6.696   2.361   6.435
 8065SOL     OW25093   4.575   7.015   6.516
 8065SOL    HW125094   4.570   6.984   6.422
 8065SOL    HW225095   4.543   6.942   6.577
 8066SOL     OW25096   2.124   0.069   1.790
 8066SOL    HW125097   2.191   0.072   1.715
 8066SOL    HW225098   2.104   0.162   1.820
 8067SOL     OW25099   4.793   2.391   2.522
 8067SOL    HW125100   4.784   2.342   2.435
 8067SOL    HW225101   4.782   2.489   2.507
 8068SOL     OW25102   6.281   4.537   4.372
 8068SOL    HW125103   6.361   4.519   4.316
 8068SOL    HW225104   6.308   4.586   4.455
 8069SOL     OW25105   1.595   6.500   2.428
 8069SOL    HW125106   1.682   6.462   2.460
 8069SOL    HW225107   1.575   6.584   2.479
 8070SOL     OW25108   3.878   0.258   2.747
 8070SOL    HW125109   3.932   0.334   2.711
 8070SOL    HW225110   3.823   0.218   2.674
 8071SOL     OW25111   4.482   6.053   0.190
 8071SOL    HW125112   4.440   6.144   0.183
 8071SOL    HW225113   4.509   6.037   0.285
 8072SOL     OW25114   4.583   0.183   2.542
 8072SOL    HW125115   4.589   0.282   2.524
 8072SOL    HW225116   4.610   0.166   2.637
 8073SOL     OW25117   5.187   7.000   5.676
 8073SOL    HW125118   5.217   6.989   5.771
 8073SOL    HW225119   5.140   6.917   5.646
 8074SOL     OW25120   3.349   4.238   6.836
 8074SOL    HW125121   3.265   4.187   6.819
 8074SOL    HW225122   3.420   4.209   6.772
 8075SOL     OW25123   5.869   2.334   3.421
 8075SOL    HW125124   5.804   2.354   3.348
 8075SOL    HW225125   5.959   2.316   3.382
 8076SOL     OW25126   4.527   2.663   6.486
 8076SOL    HW125127   4.577   2.580   6.511
 8076SOL    HW225128   4.552   2.690   6.393
 8077SOL     OW25129   1.339   0.026   0.083
 8077SOL    HW125130   1.432   0.056   0.102
 8077SOL    HW225131   1.293   0.093   0.024
 8078SOL     OW25132   5.979   2.608   0.814
 8078SOL    HW125133   5.902   2.617   0.751
 8078SOL    HW225134   6.063   2.635   0.767
 8079SOL     OW25135   0.993   2.312   1.452
 8079SOL    HW125136   1.073   2.312   1.512
 8079SOL    HW225137   1.022   2.316   1.357
 8080SOL     OW25138   4.040   5.098   0.755
 8080SOL    HW125139   4.042   5.149   0.669
 8080SOL    HW225140   3.949   5.060   0.770
 8081SOL     OW25141   5.875   1.953   4.663
 8081SOL    HW125142   5.957   1.990   4.707
 8081SOL    HW225143   5.899   1.869   4.614
 8082SOL     OW25144   6.387   3.453   4.506
 8082SOL    HW125145   6.416   3.537   4.551
 8082SOL    HW225146   6.464   3.414   4.455
 8083SOL     OW25147   6.113   2.264   4.595
 8083SOL    HW125148   6.206   2.274   4.559
 8083SOL    HW225149   6.109   2.185   4.655
 8084SOL     OW25150   6.599   0.316   0.527
 8084SOL    HW125151   6.543   0.246   0.572
 8084SOL    HW225152   6.550   0.403   0.527
 8085SOL     OW25153   5.559   2.140   0.845
 8085SOL    HW125154   5.575   2.213   0.912
 8085SOL    HW225155   5.641   2.128   0.790
 8086SOL     OW25156   2.339   5.857   6.038
 8086SOL    HW125157   2.266   5.802   6.079
 8086SOL    HW225158   2.329   5.952   6.065
 8087SOL     OW25159   2.949   3.922   0.648
 8087SOL    HW125160   3.012   3.880   0.583
 8087SOL    HW225161   2.958   3.877   0.737
 8088SOL     OW25162   4.357   0.753   2.794
 8088SOL    HW125163   4.365   0.768   2.893
 8088SOL    HW225164   4.340   0.657   2.777
 8089SOL     OW25165   6.126   2.610   0.428
 8089SOL    HW125166   6.143   2.552   0.349
 8089SOL    HW225167   6.030   2.600   0.457
 8090SOL     OW25168   4.465   1.739   5.126
 8090SOL    HW125169   4.540   1.743   5.192
 8090SOL    HW225170   4.420   1.828   5.120
 8091SOL     OW25171   2.224   4.774   5.286
 8091SOL    HW125172   2.147   4.743   5.230
 8091SOL    HW225173   2.302   4.712   5.273
 8092SOL     OW25174   6.493   2.167   4.282
 8092SOL    HW125175   6.530   2.204   4.197
 8092SOL    HW225176   6.499   2.067   4.281
 8093SOL     OW25177   5.877   5.434   0.748
 8093SOL    HW125178   5.790   5.414   0.792
 8093SOL    HW225179   5.898   5.363   0.681
 8094SOL     OW25180   0.437   3.976   4.258
 8094SOL    HW125181   0.415   4.073   4.250
 8094SOL    HW225182   0.527   3.966   4.302
 8095SOL     OW25183   6.492   3.437   5.021
 8095SOL    HW125184   6.518   3.514   4.963
 8095SOL    HW225185   6.483   3.467   5.116
 8096SOL     OW25186   4.333   0.311   0.299
 8096SOL    HW125187   4.365   0.402   0.277
 8096SOL    HW225188   4.235   0.305   0.280
 8097SOL     OW25189   4.686   1.347   4.603
 8097SOL    HW125190   4.755   1.392   4.547
 8097SOL    HW225191   4.730   1.281   4.664
 8098SOL     OW25192   2.138   1.334   4.308
 8098SOL    HW125193   2.160   1.371   4.217
 8098SOL    HW225194   2.213   1.276   4.339
 8099SOL     OW25195   3.672   6.036   5.245
 8099SOL    HW125196   3.623   6.000   5.324
 8099SOL    HW225197   3.669   6.136   5.247
 8100SOL     OW25198   6.701   6.287   0.738
 8100SOL    HW125199   6.750   6.235   0.807
 8100SOL    HW225200   6.644   6.226   0.683
 8101SOL     OW25201   0.459   4.857   2.360
 8101SOL    HW125202   0.416   4.877   2.448
 8101SOL    HW225203   0.528   4.926   2.340
 8102SOL     OW25204   6.430   0.448   5.749
 8102SOL    HW125205   6.447   0.460   5.847
 8102SOL    HW225206   6.511   0.407   5.706
 8103SOL     OW25207   1.897   2.245   2.286
 8103SOL    HW125208   1.944   2.301   2.355
 8103SOL    HW225209   1.938   2.261   2.197
 8104SOL     OW25210   3.233   0.011   6.147
 8104SOL    HW125211   3.173   7.019   6.226
 8104SOL    HW225212   3.244   0.110   6.133
 8105SOL     OW25213   2.194   2.821   3.203
 8105SOL    HW125214   2.136   2.847   3.126
 8105SOL    HW225215   2.138   2.780   3.275
 8106SOL     OW25216   0.223   3.700   5.347
 8106SOL    HW125217   0.305   3.755   5.332
 8106SOL    HW225218   0.153   3.756   5.391
 8107SOL     OW25219   1.036   5.536   6.765
 8107SOL    HW125220   0.992   5.621   6.735
 8107SOL    HW225221   1.129   5.532   6.728
 8108SOL     OW25222   2.258   3.400   5.253
 8108SOL    HW125223   2.318   3.343   5.310
 8108SOL    HW225224   2.178   3.427   5.305
 8109SOL     OW25225   1.224   5.255   5.216
 8109SOL    HW125226   1.269   5.195   5.282
 8109SOL    HW225227   1.243   5.222   5.123
 8110SOL     OW25228   1.515   4.557   0.812
 8110SOL    HW125229   1.430   4.551   0.759
 8110SOL    HW225230   1.567   4.636   0.781
 8111SOL     OW25231   3.187   5.728   4.241
 8111SOL    HW125232   3.120   5.800   4.222
 8111SOL    HW225233   3.175   5.653   4.176
 8112SOL     OW25234   4.330   1.183   4.201
 8112SOL    HW125235   4.339   1.119   4.125
 8112SOL    HW225236   4.235   1.186   4.231
 8113SOL     OW25237   3.135   3.076   5.573
 8113SOL    HW125238   3.149   2.979   5.553
 8113SOL    HW225239   3.218   3.112   5.618
 8114SOL     OW25240   2.841   3.383   1.870
 8114SOL    HW125241   2.781   3.458   1.842
 8114SOL    HW225242   2.877   3.402   1.962
 8115SOL     OW25243   3.276   2.889   1.226
 8115SOL    HW125244   3.357   2.839   1.257
 8115SOL    HW225245   3.193   2.841   1.255
 8116SOL     OW25246   4.897   1.418   5.459
 8116SOL    HW125247   4.842   1.445   5.538
 8116SOL    HW225248   4.837   1.403   5.380
 8117SOL     OW25249   2.735   1.722   5.710
 8117SOL    HW125250   2.816   1.764   5.751
 8117SOL    HW225251   2.752   1.624   5.695
 8118SOL     OW25252   1.861   2.482   4.122
 8118SOL    HW125253   1.862   2.534   4.036
 8118SOL    HW225254   1.875   2.545   4.198
 8119SOL     OW25255   0.988   6.394   1.924
 8119SOL    HW125256   0.947   6.361   1.838
 8119SOL    HW225257   1.006   6.315   1.983
 8120SOL     OW25258   4.690   4.227   2.336
 8120SOL    HW125259   4.698   4.326   2.348
 8120SOL    HW225260   4.607   4.207   2.284
 8121SOL     OW25261   6.722   6.206   2.987
 8121SOL    HW125262   6.627   6.224   2.961
 8121SOL    HW225263   6.780   6.206   2.905
 8122SOL     OW25264   6.909   5.414   1.388
 8122SOL    HW125265   6.939   5.469   1.310
 8122SOL    HW225266   6.987   5.395   1.448
 8123SOL     OW25267   1.337   5.096   0.208
 8123SOL    HW125268   1.331   5.046   0.295
 8123SOL    HW225269   1.246   5.126   0.181
 8124SOL     OW25270   1.191   6.664   3.475
 8124SOL    HW125271   1.233   6.594   3.534
 8124SOL    HW225272   1.202   6.754   3.517
 8125SOL     OW25273   5.789   4.940   3.144
 8125SOL    HW125274   5.829   4.930   3.235
 8125SOL    HW225275   5.747   4.854   3.116
 8126SOL     OW25276   6.757   4.563   2.401
 8126SOL    HW125277   6.696   4.591   2.327
 8126SOL    HW225278   6.757   4.464   2.408
 8127SOL     OW25279   4.134   5.623   1.463
 8127SOL    HW125280   4.231   5.600   1.470
 8127SOL    HW225281   4.089   5.603   1.550
 8128SOL     OW25282   3.513   1.950   5.521
 8128SOL    HW125283   3.417   1.948   5.549
 8128SOL    HW225284   3.540   1.859   5.489
 8129SOL     OW25285   4.936   5.975   6.381
 8129SOL    HW125286   4.898   5.975   6.474
 8129SOL    HW225287   4.935   5.881   6.346
 8130SOL     OW25288   0.509   6.989   6.866
 8130SOL    HW125289   0.586   6.993   6.804
 8130SOL    HW225290   0.438   0.030   6.836
 8131SOL     OW25291   2.377   1.308   0.741
 8131SOL    HW125292   2.281   1.326   0.762
 8131SOL    HW225293   2.395   1.210   0.751
 8132SOL     OW25294   5.590   4.526   3.046
 8132SOL    HW125295   5.625   4.436   3.021
 8132SOL    HW225296   5.500   4.539   3.004
 8133SOL     OW25297   0.455   5.932   1.839
 8133SOL    HW125298   0.469   6.020   1.885
 8133SOL    HW225299   0.524   5.867   1.872
 8134SOL     OW25300   1.897   2.589   2.183
 8134SOL    HW125301   1.926   2.509   2.130
 8134SOL    HW225302   1.929   2.672   2.137
 8135SOL     OW25303   3.991   6.368   2.546
 8135SOL    HW125304   4.043   6.370   2.460
 8135SOL    HW225305   3.894   6.380   2.526
 8136SOL     OW25306   2.015   6.115   1.571
 8136SOL    HW125307   2.084   6.166   1.622
 8136SOL    HW225308   1.993   6.030   1.620
 8137SOL     OW25309   2.919   3.706   4.902
 8137SOL    HW125310   2.971   3.751   4.829
 8137SOL    HW225311   2.870   3.774   4.955
 8138SOL     OW25312   4.671   1.252   3.401
 8138SOL    HW125313   4.653   1.267   3.304
 8138SOL    HW225314   4.736   1.320   3.434
 8139SOL     OW25315   1.515   3.080   5.489
 8139SOL    HW125316   1.533   3.023   5.409
 8139SOL    HW225317   1.560   3.039   5.569
 8140SOL     OW25318   4.349   0.693   0.771
 8140SOL    HW125319   4.279   0.692   0.842
 8140SOL    HW225320   4.429   0.642   0.801
 8141SOL     OW25321   5.994   0.833   5.604
 8141SOL    HW125322   5.907   0.794   5.635
 8141SOL    HW225323   6.042   0.767   5.547
 8142SOL     OW25324   2.689   5.859   0.808
 8142SOL    HW125325   2.689   5.843   0.709
 8142SOL    HW225326   2.638   5.943   0.828
 8143SOL     OW25327   6.396   4.448   0.310
 8143SOL    HW125328   6.329   4.393   0.260
 8143SOL    HW225329   6.352   4.487   0.391
 8144SOL     OW25330   1.201   5.498   0.181
 8144SOL    HW125331   1.116   5.449   0.164
 8144SOL    HW225332   1.218   5.504   0.279
 8145SOL     OW25333   5.224   5.375   6.636
 8145SOL    HW125334   5.310   5.347   6.594
 8145SOL    HW225335   5.147   5.344   6.579
 8146SOL     OW25336   6.721   6.189   4.754
 8146SOL    HW125337   6.710   6.288   4.749
 8146SOL    HW225338   6.808   6.164   4.711
 8147SOL     OW25339   2.414   0.580   5.279
 8147SOL    HW125340   2.461   0.524   5.347
 8147SOL    HW225341   2.482   0.621   5.218
 8148SOL     OW25342   5.015   4.910   0.473
 8148SOL    HW125343   5.027   4.815   0.501
 8148SOL    HW225344   4.918   4.930   0.462
 8149SOL     OW25345   1.466   6.773   5.232
 8149SOL    HW125346   1.450   6.824   5.316
 8149SOL    HW225347   1.558   6.794   5.197
 8150SOL     OW25348   0.520   3.888   0.255
 8150SOL    HW125349   0.481   3.961   0.199
 8150SOL    HW225350   0.569   3.928   0.333
 8151SOL     OW25351   6.366   4.905   2.931
 8151SOL    HW125352   6.318   4.894   3.018
 8151SOL    HW225353   6.402   4.998   2.924
 8152SOL     OW25354   5.438   1.523   3.218
 8152SOL    HW125355   5.505   1.584   3.261
 8152SOL    HW225356   5.436   1.540   3.119
 8153SOL     OW25357   0.062   1.635   1.549
 8153SOL    HW125358   0.152   1.624   1.507
 8153SOL    HW225359   7.016   1.639   1.478
 8154SOL     OW25360   1.190   0.644   3.105
 8154SOL    HW125361   1.123   0.636   3.031
 8154SOL    HW225362   1.179   0.732   3.151
 8155SOL     OW25363   1.756   5.130   4.078
 8155SOL    HW125364   1.660   5.142   4.055
 8155SOL    HW225365   1.766   5.065   4.153
 8156SOL     OW25366   1.403   3.921   0.863
 8156SOL    HW125367   1.355   3.900   0.778
 8156SOL    HW225368   1.353   3.882   0.940
 8157SOL     OW25369   6.175   4.996   4.822
 8157SOL    HW125370   6.184   5.090   4.855
 8157SOL    HW225371   6.249   4.941   4.859
 8158SOL     OW25372   6.074   4.977   6.139
 8158SOL    HW125373   6.078   5.067   6.094
 8158SOL    HW225374   6.162   4.959   6.183
 8159SOL     OW25375   2.847   0.099   4.935
 8159SOL    HW125376   2.872   0.171   5.000
 8159SOL    HW225377   2.892   0.115   4.848
 8160SOL     OW25378   5.708   2.066   2.970
 8160SOL    HW125379   5.791   2.018   2.944
 8160SOL    HW225380   5.731   2.142   3.031
 8161SOL     OW25381   6.634   2.942   1.915
 8161SOL    HW125382   6.582   2.876   1.969
 8161SOL    HW225383   6.694   2.893   1.851
 8162SOL     OW25384   1.179   5.962   5.196
 8162SOL    HW125385   1.250   6.025   5.167
 8162SOL    HW225386   1.173   5.886   5.132
 8163SOL     OW25387   3.998   4.829   5.427
 8163SOL    HW125388   3.926   4.795   5.368
 8163SOL    HW225389   3.961   4.847   5.518
 8164SOL     OW25390   5.274   2.107   0.792
 8164SOL    HW125391   5.239   2.180   0.733
 8164SOL    HW225392   5.371   2.123   0.811
 8165SOL     OW25393   0.814   1.855   6.057
 8165SOL    HW125394   0.809   1.954   6.071
 8165SOL    HW225395   0.827   1.809   6.145
 8166SOL     OW25396   2.737   1.783   4.719
 8166SOL    HW125397   2.718   1.867   4.771
 8166SOL    HW225398   2.804   1.802   4.648
 8167SOL     OW25399   2.060   2.778   3.494
 8167SOL    HW125400   1.973   2.783   3.545
 8167SOL    HW225401   2.106   2.867   3.498
 8168SOL     OW25402   1.559   6.514   2.877
 8168SOL    HW125403   1.606   6.430   2.849
 8168SOL    HW225404   1.572   6.585   2.808
 8169SOL     OW25405   4.882   4.076   0.788
 8169SOL    HW125406   4.955   4.088   0.855
 8169SOL    HW225407   4.906   4.123   0.704
 8170SOL     OW25408   0.184   4.226   2.784
 8170SOL    HW125409   0.268   4.270   2.817
 8170SOL    HW225410   0.176   4.238   2.685
 8171SOL     OW25411   2.563   1.944   1.385
 8171SOL    HW125412   2.539   2.041   1.378
 8171SOL    HW225413   2.486   1.889   1.351
 8172SOL     OW25414   1.485   4.184   1.035
 8172SOL    HW125415   1.446   4.125   0.965
 8172SOL    HW225416   1.563   4.139   1.078
 8173SOL     OW25417   5.981   0.414   1.744
 8173SOL    HW125418   5.940   0.453   1.662
 8173SOL    HW225419   5.973   0.315   1.741
 8174SOL     OW25420   2.016   6.671   3.649
 8174SOL    HW125421   2.111   6.647   3.633
 8174SOL    HW225422   1.980   6.616   3.725
 8175SOL     OW25423   0.401   2.178   5.517
 8175SOL    HW125424   0.408   2.153   5.613
 8175SOL    HW225425   0.333   2.119   5.472
 8176SOL     OW25426   2.702   4.842   0.076
 8176SOL    HW125427   2.678   4.851   0.173
 8176SOL    HW225428   2.716   4.745   0.054
 8177SOL     OW25429   2.820   1.119   2.993
 8177SOL    HW125430   2.745   1.155   2.938
 8177SOL    HW225431   2.785   1.081   3.078
 8178SOL     OW25432   2.118   6.797   0.943
 8178SOL    HW125433   2.054   6.869   0.917
 8178SOL    HW225434   2.173   6.826   1.021
 8179SOL     OW25435   5.924   0.297   3.456
 8179SOL    HW125436   5.867   0.352   3.516
 8179SOL    HW225437   6.018   0.294   3.492
 8180SOL     OW25438   4.610   5.706   0.478
 8180SOL    HW125439   4.707   5.728   0.490
 8180SOL    HW225440   4.597   5.661   0.390
 8181SOL     OW25441   6.339   0.650   6.340
 8181SOL    HW125442   6.260   0.682   6.393
 8181SOL    HW225443   6.333   0.685   6.247
 8182SOL     OW25444   3.630   3.758   3.158
 8182SOL    HW125445   3.550   3.727   3.210
 8182SOL    HW225446   3.652   3.691   3.088
 8183SOL     OW25447   6.642   0.366   5.628
 8183SOL    HW125448   6.682   0.274   5.634
 8183SOL    HW225449   6.681   0.413   5.549
 8184SOL     OW25450   0.442   6.033   5.562
 8184SOL    HW125451   0.386   6.039   5.479
 8184SOL    HW225452   0.526   5.983   5.542
 8185SOL     OW25453   0.538   6.018   5.176
 8185SOL    HW125454   0.622   5.983   5.134
 8185SOL    HW225455   0.543   6.118   5.182
 8186SOL     OW25456   1.383   5.238   0.646
 8186SOL    HW125457   1.291   5.266   0.671
 8186SOL    HW225458   1.418   5.173   0.713
 8187SOL     OW25459   1.930   6.662   4.874
 8187SOL    HW125460   1.932   6.569   4.838
 8187SOL    HW225461   1.980   6.723   4.812
 8188SOL     OW25462   1.901   3.181   2.571
 8188SOL    HW125463   1.998   3.157   2.582
 8188SOL    HW225464   1.845   3.115   2.620
 8189SOL     OW25465   5.836   4.882   4.108
 8189SOL    HW125466   5.788   4.839   4.031
 8189SOL    HW225467   5.770   4.904   4.180
 8190SOL     OW25468   6.491   3.664   2.841
 8190SOL    HW125469   6.427   3.690   2.769
 8190SOL    HW225470   6.546   3.587   2.810
 8191SOL     OW25471   3.999   4.778   0.970
 8191SOL    HW125472   4.097   4.790   0.956
 8191SOL    HW225473   3.983   4.715   1.046
 8192SOL     OW25474   0.769   6.131   3.748
 8192SOL    HW125475   0.857   6.172   3.769
 8192SOL    HW225476   0.712   6.197   3.699
 8193SOL     OW25477   0.371   5.040   3.709
 8193SOL    HW125478   0.451   5.007   3.758
 8193SOL    HW225479   0.326   4.963   3.663
 8194SOL     OW25480   5.142   0.622   1.760
 8194SOL    HW125481   5.238   0.639   1.740
 8194SOL    HW225482   5.129   0.616   1.859
 8195SOL     OW25483   6.323   6.979   3.673
 8195SOL    HW125484   6.367   0.043   3.651
 8195SOL    HW225485   6.355   6.948   3.763
 8196SOL     OW25486   5.081   0.820   2.090
 8196SOL    HW125487   5.015   0.876   2.040
 8196SOL    HW225488   5.128   0.876   2.158
 8197SOL     OW25489   4.320   1.777   3.336
 8197SOL    HW125490   4.271   1.848   3.285
 8197SOL    HW225491   4.354   1.815   3.422
 8198SOL     OW25492   1.445   5.911   1.194
 8198SOL    HW125493   1.511   5.842   1.162
 8198SOL    HW225494   1.358   5.866   1.214
 8199SOL     OW25495   5.702   2.435   0.691
 8199SOL    HW125496   5.613   2.476   0.715
 8199SOL    HW225497   5.692   2.337   0.681
 8200SOL     OW25498   5.103   4.241   0.622
 8200SOL    HW125499   5.114   4.340   0.606
 8200SOL    HW225500   5.131   4.219   0.715
 8201SOL     OW25501   5.868   0.073   5.376
 8201SOL    HW125502   5.960   0.037   5.358
 8201SOL    HW225503   5.847   0.146   5.310
 8202SOL     OW25504   1.450   6.343   1.718
 8202SOL    HW125505   1.459   6.264   1.779
 8202SOL    HW225506   1.488   6.320   1.628
 8203SOL     OW25507   1.779   3.175   1.014
 8203SOL    HW125508   1.761   3.123   1.097
 8203SOL    HW225509   1.726   3.260   1.015
 8204SOL     OW25510   1.927   3.299   0.812
 8204SOL    HW125511   1.911   3.250   0.726
 8204SOL    HW225512   1.860   3.270   0.880
 8205SOL     OW25513   0.384   3.913   6.752
 8205SOL    HW125514   0.363   3.850   6.826
 8205SOL    HW225515   0.458   3.975   6.781
 8206SOL     OW25516   3.205   1.321   1.370
 8206SOL    HW125517   3.249   1.327   1.460
 8206SOL    HW225518   3.124   1.263   1.376
 8207SOL     OW25519   3.966   3.662   4.156
 8207SOL    HW125520   3.893   3.652   4.223
 8207SOL    HW225521   3.925   3.667   4.064
 8208SOL     OW25522   1.843   0.513   0.070
 8208SOL    HW125523   1.800   0.591   0.115
 8208SOL    HW225524   1.890   0.457   0.138
 8209SOL     OW25525   5.909   2.315   4.443
 8209SOL    HW125526   5.818   2.311   4.484
 8209SOL    HW225527   5.978   2.297   4.513
 8210SOL     OW25528   2.155   2.534   6.273
 8210SOL    HW125529   2.238   2.480   6.275
 8210SOL    HW225530   2.159   2.599   6.197
 8211SOL     OW25531   4.671   4.368   1.362
 8211SOL    HW125532   4.695   4.343   1.268
 8211SOL    HW225533   4.581   4.333   1.385
 8212SOL     OW25534   2.385   2.645   2.786
 8212SOL    HW125535   2.349   2.553   2.765
 8212SOL    HW225536   2.406   2.651   2.883
 8213SOL     OW25537   5.947   4.480   1.026
 8213SOL    HW125538   5.943   4.575   0.993
 8213SOL    HW225539   6.021   4.471   1.092
 8214SOL     OW25540   5.464   3.425   2.884
 8214SOL    HW125541   5.475   3.383   2.794
 8214SOL    HW225542   5.540   3.398   2.943
 8215SOL     OW25543   2.921   5.510   2.366
 8215SOL    HW125544   2.868   5.476   2.289
 8215SOL    HW225545   2.930   5.610   2.360
 8216SOL     OW25546   5.308   3.404   3.340
 8216SOL    HW125547   5.319   3.483   3.400
 8216SOL    HW225548   5.338   3.321   3.388
 8217SOL     OW25549   1.761   6.062   0.926
 8217SOL    HW125550   1.675   6.058   0.977
 8217SOL    HW225551   1.837   6.078   0.990
 8218SOL     OW25552   5.736   2.091   0.304
 8218SOL    HW125553   5.734   2.186   0.335
 8218SOL    HW225554   5.786   2.036   0.371
 8219SOL     OW25555   5.552   1.562   0.135
 8219SOL    HW125556   5.570   1.631   0.064
 8219SOL    HW225557   5.460   1.527   0.124
 8220SOL     OW25558   4.240   3.498   1.470
 8220SOL    HW125559   4.271   3.425   1.531
 8220SOL    HW225560   4.256   3.586   1.514
 8221SOL     OW25561   5.154   4.172   2.999
 8221SOL    HW125562   5.091   4.176   3.076
 8221SOL    HW225563   5.103   4.174   2.913
 8222SOL     OW25564   6.203   1.266   2.776
 8222SOL    HW125565   6.246   1.261   2.866
 8222SOL    HW225566   6.149   1.184   2.759
 8223SOL     OW25567   7.007   5.469   6.349
 8223SOL    HW125568   0.029   5.401   6.290
 8223SOL    HW225569   6.970   5.542   6.293
 8224SOL     OW25570   1.168   3.503   2.858
 8224SOL    HW125571   1.074   3.486   2.886
 8224SOL    HW225572   1.194   3.596   2.882
 8225SOL     OW25573   4.353   0.813   0.509
 8225SOL    HW125574   4.356   0.761   0.594
 8225SOL    HW225575   4.421   0.886   0.511
 8226SOL     OW25576   4.058   0.346   0.254
 8226SOL    HW125577   4.019   0.254   0.260
 8226SOL    HW225578   4.026   0.390   0.170
 8227SOL     OW25579   5.710   3.806   3.100
 8227SOL    HW125580   5.704   3.739   3.026
 8227SOL    HW225581   5.745   3.762   3.182
 8228SOL     OW25582   6.911   1.905   4.288
 8228SOL    HW125583   6.961   1.882   4.371
 8228SOL    HW225584   6.868   1.995   4.299
 8229SOL     OW25585   4.397   5.726   1.006
 8229SOL    HW125586   4.419   5.630   1.024
 8229SOL    HW225587   4.417   5.780   1.088
 8230SOL     OW25588   4.920   6.852   3.995
 8230SOL    HW125589   4.912   6.920   3.922
 8230SOL    HW225590   5.016   6.827   4.007
 8231SOL     OW25591   3.889   6.215   1.617
 8231SOL    HW125592   3.893   6.121   1.584
 8231SOL    HW225593   3.971   6.264   1.586
 8232SOL     OW25594   2.365   1.832   6.820
 8232SOL    HW125595   2.346   1.805   6.915
 8232SOL    HW225596   2.415   1.758   6.775
 8233SOL     OW25597   7.007   5.456   5.930
 8233SOL    HW125598   0.066   5.451   5.987
 8233SOL    HW225599   6.931   5.412   5.977
 8234SOL     OW25600   3.032   3.325   0.188
 8234SOL    HW125601   2.980   3.254   0.234
 8234SOL    HW225602   3.122   3.333   0.231
 8235SOL     OW25603   4.404   2.417   6.926
 8235SOL    HW125604   4.318   2.455   6.958
 8235SOL    HW225605   4.474   2.488   6.923
 8236SOL     OW25606   5.551   2.398   0.972
 8236SOL    HW125607   5.525   2.493   0.956
 8236SOL    HW225608   5.572   2.385   1.068
 8237SOL     OW25609   3.980   6.508   5.466
 8237SOL    HW125610   3.997   6.442   5.393
 8237SOL    HW225611   3.907   6.474   5.525
 8238SOL     OW25612   1.887   0.983   0.130
 8238SOL    HW125613   1.966   1.023   0.178
 8238SOL    HW225614   1.848   1.052   0.069
 8239SOL     OW25615   6.346   0.950   0.027
 8239SOL    HW125616   6.321   0.864   0.071
 8239SOL    HW225617   6.385   0.931   6.959
 8240SOL     OW25618   4.095   3.393   3.760
 8240SOL    HW125619   4.074   3.305   3.718
 8240SOL    HW225620   4.107   3.380   3.859
 8241SOL     OW25621   4.554   6.706   1.732
 8241SOL    HW125622   4.516   6.648   1.804
 8241SOL    HW225623   4.592   6.789   1.773
 8242SOL     OW25624   1.077   3.551   5.502
 8242SOL    HW125625   1.004   3.503   5.549
 8242SOL    HW225626   1.104   3.500   5.420
 8243SOL     OW25627   0.966   3.482   5.057
 8243SOL    HW125628   1.021   3.431   5.123
 8243SOL    HW225629   0.927   3.420   4.990
 8244SOL     OW25630   1.858   5.616   4.549
 8244SOL    HW125631   1.768   5.654   4.530
 8244SOL    HW225632   1.909   5.680   4.607
 8245SOL     OW25633   3.757   3.350   0.623
 8245SOL    HW125634   3.712   3.265   0.652
 8245SOL    HW225635   3.819   3.330   0.547
 8246SOL     OW25636   4.645   3.802   5.354
 8246SOL    HW125637   4.548   3.817   5.374
 8246SOL    HW225638   4.656   3.715   5.306
 8247SOL     OW25639   1.021   6.655   0.690
 8247SOL    HW125640   1.032   6.752   0.668
 8247SOL    HW225641   0.948   6.645   0.758
 8248SOL     OW25642   0.371   4.334   3.686
 8248SOL    HW125643   0.349   4.267   3.615
 8248SOL    HW225644   0.314   4.319   3.766
 8249SOL     OW25645   1.429   5.414   2.985
 8249SOL    HW125646   1.475   5.480   3.043
 8249SOL    HW225647   1.340   5.451   2.957
 8250SOL     OW25648   3.567   3.750   1.903
 8250SOL    HW125649   3.575   3.655   1.874
 8250SOL    HW225650   3.470   3.776   1.906
 8251SOL     OW25651   5.806   1.548   4.779
 8251SOL    HW125652   5.855   1.557   4.865
 8251SOL    HW225653   5.868   1.568   4.703
 8252SOL     OW25654   1.242   3.721   4.176
 8252SOL    HW125655   1.196   3.795   4.225
 8252SOL    HW225656   1.216   3.725   4.079
 8253SOL     OW25657   2.331   2.932   5.376
 8253SOL    HW125658   2.399   2.863   5.402
 8253SOL    HW225659   2.352   2.966   5.284
 8254SOL     OW25660   4.247   5.670   3.466
 8254SOL    HW125661   4.189   5.698   3.389
 8254SOL    HW225662   4.269   5.573   3.457
 8255SOL     OW25663   4.048   4.984   3.529
 8255SOL    HW125664   3.991   5.015   3.454
 8255SOL    HW225665   4.007   5.011   3.616
 8256SOL     OW25666   5.807   2.924   4.177
 8256SOL    HW125667   5.787   3.020   4.194
 8256SOL    HW225668   5.902   2.904   4.203
 8257SOL     OW25669   6.019   4.865   4.644
 8257SOL    HW125670   6.025   4.908   4.554
 8257SOL    HW225671   6.090   4.903   4.704
 8258SOL     OW25672   4.971   1.503   0.345
 8258SOL    HW125673   4.924   1.584   0.379
 8258SOL    HW225674   5.065   1.503   0.378
 8259SOL     OW25675   4.270   1.322   1.570
 8259SOL    HW125676   4.255   1.223   1.575
 8259SOL    HW225677   4.358   1.344   1.612
 8260SOL     OW25678   2.932   5.738   0.273
 8260SOL    HW125679   2.865   5.811   0.290
 8260SOL    HW225680   3.011   5.750   0.333
 8261SOL     OW25681   5.158   0.809   1.386
 8261SOL    HW125682   5.178   0.803   1.484
 8261SOL    HW225683   5.062   0.835   1.374
 8262SOL     OW25684   0.709   2.261   0.587
 8262SOL    HW125685   0.736   2.356   0.601
 8262SOL    HW225686   0.644   2.256   0.511
 8263SOL     OW25687   5.783   1.412   0.818
 8263SOL    HW125688   5.835   1.358   0.752
 8263SOL    HW225689   5.737   1.487   0.771
 8264SOL     OW25690   1.583   4.443   2.342
 8264SOL    HW125691   1.660   4.430   2.405
 8264SOL    HW225692   1.602   4.394   2.257
 8265SOL     OW25693   1.845   1.083   2.347
 8265SOL    HW125694   1.824   1.118   2.256
 8265SOL    HW225695   1.945   1.079   2.359
 8266SOL     OW25696   2.892   0.770   3.285
 8266SOL    HW125697   2.875   0.868   3.298
 8266SOL    HW225698   2.970   0.742   3.342
 8267SOL     OW25699   0.492   3.760   0.692
 8267SOL    HW125700   0.479   3.741   0.595
 8267SOL    HW225701   0.501   3.674   0.742
 8268SOL     OW25702   3.536   5.987   6.196
 8268SOL    HW125703   3.609   5.923   6.215
 8268SOL    HW225704   3.574   6.076   6.173
 8269SOL     OW25705   6.324   1.926   1.065
 8269SOL    HW125706   6.408   1.944   1.013
 8269SOL    HW225707   6.307   2.002   1.127
 8270SOL     OW25708   3.164   6.408   4.217
 8270SOL    HW125709   3.230   6.392   4.143
 8270SOL    HW225710   3.131   6.321   4.252
 8271SOL     OW25711   6.478   2.397   2.623
 8271SOL    HW125712   6.487   2.392   2.723
 8271SOL    HW225713   6.381   2.401   2.599
 8272SOL     OW25714   3.971   1.364   4.434
 8272SOL    HW125715   4.013   1.433   4.493
 8272SOL    HW225716   3.887   1.402   4.394
 8273SOL     OW25717   2.166   6.748   1.493
 8273SOL    HW125718   2.200   6.655   1.485
 8273SOL    HW225719   2.067   6.746   1.511
 8274SOL     OW25720   5.193   4.266   3.291
 8274SOL    HW125721   5.124   4.323   3.334
 8274SOL    HW225722   5.157   4.173   3.278
 8275SOL     OW25723   4.980   2.082   6.610
 8275SOL    HW125724   4.966   2.015   6.683
 8275SOL    HW225725   4.948   2.043   6.523
 8276SOL     OW25726   0.192   1.802   2.850
 8276SOL    HW125727   0.209   1.784   2.753
 8276SOL    HW225728   0.277   1.834   2.893
 8277SOL     OW25729   6.361   0.768   6.746
 8277SOL    HW125730   6.288   0.702   6.761
 8277SOL    HW225731   6.445   0.736   6.789
 8278SOL     OW25732   1.659   2.518   6.548
 8278SOL    HW125733   1.667   2.601   6.603
 8278SOL    HW225734   1.613   2.539   6.462
 8279SOL     OW25735   0.202   5.902   3.872
 8279SOL    HW125736   0.167   5.984   3.827
 8279SOL    HW225737   0.266   5.928   3.944
 8280SOL     OW25738   3.107   1.986   6.021
 8280SOL    HW125739   3.063   2.074   6.041
 8280SOL    HW225740   3.186   2.000   5.962
 8281SOL     OW25741   5.386   5.535   2.689
 8281SOL    HW125742   5.474   5.581   2.682
 8281SOL    HW225743   5.336   5.571   2.768
 8282SOL     OW25744   5.391   2.663   6.281
 8282SOL    HW125745   5.392   2.578   6.228
 8282SOL    HW225746   5.396   2.640   6.379
 8283SOL     OW25747   2.074   2.366   5.644
 8283SOL    HW125748   2.111   2.439   5.702
 8283SOL    HW225749   2.142   2.292   5.637
 8284SOL     OW25750   6.504   3.927   1.784
 8284SOL    HW125751   6.409   3.898   1.776
 8284SOL    HW225752   6.520   3.963   1.877
 8285SOL     OW25753   4.064   3.267   4.344
 8285SOL    HW125754   3.971   3.293   4.368
 8285SOL    HW225755   4.069   3.167   4.335
 8286SOL     OW25756   6.942   1.856   6.289
 8286SOL    HW125757   6.861   1.851   6.348
 8286SOL    HW225758   6.942   1.943   6.239
 8287SOL     OW25759   1.477   6.100   4.184
 8287SOL    HW125760   1.459   6.016   4.132
 8287SOL    HW225761   1.404   6.166   4.167
 8288SOL     OW25762   3.035   1.942   3.329
 8288SOL    HW125763   2.935   1.937   3.327
 8288SOL    HW225764   3.065   2.027   3.285
 8289SOL     OW25765   0.106   5.795   6.702
 8289SOL    HW125766   0.198   5.781   6.664
 8289SOL    HW225767   0.038   5.782   6.630
 8290SOL     OW25768   6.669   2.506   0.594
 8290SOL    HW125769   6.590   2.461   0.552
 8290SOL    HW225770   6.753   2.471   0.553
 8291SOL     OW25771   4.063   0.049   1.226
 8291SOL    HW125772   4.133   7.006   1.254
 8291SOL    HW225773   4.107   0.130   1.188
 8292SOL     OW25774   2.998   0.032   6.289
 8292SOL    HW125775   2.940   0.004   6.365
 8292SOL    HW225776   2.946   0.093   6.228
 8293SOL     OW25777   5.590   5.515   4.833
 8293SOL    HW125778   5.596   5.506   4.932
 8293SOL    HW225779   5.498   5.489   4.802
 8294SOL     OW25780   5.364   2.950   6.927
 8294SOL    HW125781   5.455   2.910   6.915
 8294SOL    HW225782   5.302   2.910   6.859
 8295SOL     OW25783   4.567   3.632   6.747
 8295SOL    HW125784   4.569   3.646   6.846
 8295SOL    HW225785   4.550   3.720   6.701
 8296SOL     OW25786   1.300   5.056   6.191
 8296SOL    HW125787   1.276   5.113   6.270
 8296SOL    HW225788   1.232   5.070   6.118
 8297SOL     OW25789   0.995   2.719   3.806
 8297SOL    HW125790   0.918   2.715   3.742
 8297SOL    HW225791   0.968   2.767   3.889
 8298SOL     OW25792   5.126   1.556   2.221
 8298SOL    HW125793   5.212   1.580   2.176
 8298SOL    HW225794   5.061   1.631   2.210
 8299SOL     OW25795   6.668   2.270   1.325
 8299SOL    HW125796   6.624   2.199   1.380
 8299SOL    HW225797   6.737   2.228   1.266
 8300SOL     OW25798   0.470   5.191   3.455
 8300SOL    HW125799   0.544   5.247   3.493
 8300SOL    HW225800   0.409   5.162   3.528
 8301SOL     OW25801   3.428   2.611   6.582
 8301SOL    HW125802   3.448   2.687   6.520
 8301SOL    HW225803   3.510   2.555   6.593
 8302SOL     OW25804   5.914   5.753   5.964
 8302SOL    HW125805   5.925   5.840   6.012
 8302SOL    HW225806   5.891   5.771   5.868
 8303SOL     OW25807   6.981   0.304   6.389
 8303SOL    HW125808   6.989   0.302   6.290
 8303SOL    HW225809   0.040   0.347   6.428
 8304SOL     OW25810   6.815   2.870   0.531
 8304SOL    HW125811   6.759   2.935   0.583
 8304SOL    HW225812   6.774   2.856   0.441
 8305SOL     OW25813   3.332   5.926   3.414
 8305SOL    HW125814   3.304   5.876   3.332
 8305SOL    HW225815   3.264   5.912   3.487
 8306SOL     OW25816   0.925   3.245   4.182
 8306SOL    HW125817   0.943   3.207   4.091
 8306SOL    HW225818   1.012   3.268   4.226
 8307SOL     OW25819   3.197   5.435   0.641
 8307SOL    HW125820   3.134   5.358   0.638
 8307SOL    HW225821   3.146   5.520   0.639
 8308SOL     OW25822   3.508   0.366   3.125
 8308SOL    HW125823   3.460   0.369   3.213
 8308SOL    HW225824   3.596   0.414   3.133
 8309SOL     OW25825   5.514   6.218   2.087
 8309SOL    HW125826   5.466   6.304   2.106
 8309SOL    HW225827   5.602   6.238   2.044
 8310SOL     OW25828   6.569   4.494   6.996
 8310SOL    HW125829   6.507   4.425   6.958
 8310SOL    HW225830   6.663   4.472   6.970
 8311SOL     OW25831   6.598   0.670   6.380
 8311SOL    HW125832   6.614   0.767   6.396
 8311SOL    HW225833   6.501   0.654   6.362
 8312SOL     OW25834   5.642   6.592   1.126
 8312SOL    HW125835   5.580   6.613   1.050
 8312SOL    HW225836   5.731   6.563   1.090
 8313SOL     OW25837   3.286   1.290   2.528
 8313SOL    HW125838   3.249   1.376   2.564
 8313SOL    HW225839   3.381   1.280   2.556
 8314SOL     OW25840   0.082   6.312   3.414
 8314SOL    HW125841   0.011   6.242   3.418
 8314SOL    HW225842   0.070   6.377   3.489
 8315SOL     OW25843   5.003   4.809   6.416
 8315SOL    HW125844   4.913   4.768   6.432
 8315SOL    HW225845   4.997   4.908   6.425
 8316SOL     OW25846   2.696   5.656   6.851
 8316SOL    HW125847   2.684   5.734   6.913
 8316SOL    HW225848   2.635   5.582   6.879
 8317SOL     OW25849   2.058   4.264   2.392
 8317SOL    HW125850   2.005   4.259   2.477
 8317SOL    HW225851   2.035   4.185   2.335
 8318SOL     OW25852   3.617   1.118   5.601
 8318SOL    HW125853   3.528   1.163   5.589
 8318SOL    HW225854   3.643   1.074   5.516
 8319SOL     OW25855   3.443   0.784   4.928
 8319SOL    HW125856   3.475   0.802   4.835
 8319SOL    HW225857   3.509   0.725   4.975
 8320SOL     OW25858   4.075   4.868   1.712
 8320SOL    HW125859   3.996   4.809   1.726
 8320SOL    HW225860   4.113   4.852   1.621
 8321SOL     OW25861   0.239   0.970   1.479
 8321SOL    HW125862   0.146   1.005   1.467
 8321SOL    HW225863   0.235   0.885   1.532
 8322SOL     OW25864   5.745   6.531   0.023
 8322SOL    HW125865   5.798   6.490   0.098
 8322SOL    HW225866   5.681   6.598   0.060
 8323SOL     OW25867   1.259   1.912   1.850
 8323SOL    HW125868   1.286   1.821   1.821
 8323SOL    HW225869   1.181   1.943   1.795
 8324SOL     OW25870   6.757   1.394   1.969
 8324SOL    HW125871   6.791   1.475   2.015
 8324SOL    HW225872   6.670   1.365   2.009
 8325SOL     OW25873   3.095   4.002   3.834
 8325SOL    HW125874   3.169   3.999   3.901
 8325SOL    HW225875   3.030   3.929   3.853
 8326SOL     OW25876   3.286   3.407   5.983
 8326SOL    HW125877   3.334   3.355   5.912
 8326SOL    HW225878   3.305   3.367   6.072
 8327SOL     OW25879   4.867   2.106   6.217
 8327SOL    HW125880   4.910   2.176   6.274
 8327SOL    HW225881   4.802   2.150   6.154
 8328SOL     OW25882   2.425   2.112   4.551
 8328SOL    HW125883   2.338   2.160   4.538
 8328SOL    HW225884   2.407   2.022   4.591
 8329SOL     OW25885   0.078   2.432   4.931
 8329SOL    HW125886   0.138   2.387   4.865
 8329SOL    HW225887   0.028   2.364   4.983
 8330SOL     OW25888   2.735   6.760   0.759
 8330SOL    HW125889   2.654   6.777   0.703
 8330SOL    HW225890   2.796   6.697   0.712
 8331SOL     OW25891   2.536   6.907   0.593
 8331SOL    HW125892   2.463   6.845   0.565
 8331SOL    HW225893   2.620   6.885   0.544
 8332SOL     OW25894   4.952   5.691   3.124
 8332SOL    HW125895   5.001   5.650   3.201
 8332SOL    HW225896   4.858   5.712   3.150
 8333SOL     OW25897   1.300   5.628   6.251
 8333SOL    HW125898   1.276   5.532   6.248
 8333SOL    HW225899   1.246   5.674   6.321
 8334SOL     OW25900   5.679   0.539   3.980
 8334SOL    HW125901   5.702   0.628   4.019
 8334SOL    HW225902   5.763   0.492   3.953
 8335SOL     OW25903   5.801   6.833   5.499
 8335SOL    HW125904   5.888   6.788   5.517
 8335SOL    HW225905   5.815   6.908   5.433
 8336SOL     OW25906   0.776   2.011   2.273
 8336SOL    HW125907   0.676   2.002   2.280
 8336SOL    HW225908   0.817   1.986   2.361
 8337SOL     OW25909   0.520   6.199   1.963
 8337SOL    HW125910   0.561   6.234   2.047
 8337SOL    HW225911   0.592   6.169   1.900
 8338SOL     OW25912   1.987   4.978   0.730
 8338SOL    HW125913   2.067   4.960   0.787
 8338SOL    HW225914   1.982   4.911   0.656
 8339SOL     OW25915   5.669   0.649   3.189
 8339SOL    HW125916   5.584   0.686   3.150
 8339SOL    HW225917   5.656   0.553   3.213
 8340SOL     OW25918   4.800   3.434   1.051
 8340SOL    HW125919   4.882   3.441   0.994
 8340SOL    HW225920   4.724   3.480   1.006
 8341SOL     OW25921   1.969   0.048   1.270
 8341SOL    HW125922   2.034   0.003   1.208
 8341SOL    HW225923   1.985   0.146   1.269
 8342SOL     OW25924   4.571   0.474   1.057
 8342SOL    HW125925   4.556   0.573   1.057
 8342SOL    HW225926   4.555   0.438   1.149
 8343SOL     OW25927   1.691   4.843   5.864
 8343SOL    HW125928   1.782   4.864   5.899
 8343SOL    HW225929   1.629   4.825   5.941
 8344SOL     OW25930   3.578   0.324   5.328
 8344SOL    HW125931   3.628   0.255   5.276
 8344SOL    HW225932   3.630   0.409   5.331
 8345SOL     OW25933   6.412   1.554   2.405
 8345SOL    HW125934   6.361   1.472   2.381
 8345SOL    HW225935   6.353   1.635   2.394
 8346SOL     OW25936   3.105   5.339   1.933
 8346SOL    HW125937   3.134   5.296   2.018
 8346SOL    HW225938   3.181   5.392   1.895
 8347SOL     OW25939   3.482   5.339   3.656
 8347SOL    HW125940   3.415   5.383   3.597
 8347SOL    HW225941   3.545   5.408   3.693
 8348SOL     OW25942   1.497   0.463   0.588
 8348SOL    HW125943   1.481   0.516   0.671
 8348SOL    HW225944   1.419   0.475   0.526
 8349SOL     OW25945   5.837   5.544   1.631
 8349SOL    HW125946   5.864   5.603   1.555
 8349SOL    HW225947   5.799   5.459   1.596
 8350SOL     OW25948   6.503   0.445   4.935
 8350SOL    HW125949   6.417   0.413   4.975
 8350SOL    HW225950   6.528   0.533   4.974
 8351SOL     OW25951   2.879   6.584   2.203
 8351SOL    HW125952   2.948   6.633   2.151
 8351SOL    HW225953   2.887   6.608   2.300
 8352SOL     OW25954   6.620   6.320   1.325
 8352SOL    HW125955   6.716   6.305   1.351
 8352SOL    HW225956   6.613   6.403   1.270
 8353SOL     OW25957   0.449   4.154   2.183
 8353SOL    HW125958   0.468   4.228   2.248
 8353SOL    HW225959   0.428   4.193   2.093
 8354SOL     OW25960   2.215   0.369   0.518
 8354SOL    HW125961   2.233   0.271   0.509
 8354SOL    HW225962   2.296   0.415   0.552
 8355SOL     OW25963   3.172   1.430   0.477
 8355SOL    HW125964   3.096   1.473   0.428
 8355SOL    HW225965   3.224   1.500   0.527
 8356SOL     OW25966   2.343   5.410   0.598
 8356SOL    HW125967   2.439   5.436   0.595
 8356SOL    HW225968   2.286   5.492   0.595
 8357SOL     OW25969   5.140   5.834   3.973
 8357SOL    HW125970   5.213   5.778   4.010
 8357SOL    HW225971   5.179   5.910   3.920
 8358SOL     OW25972   2.723   2.043   4.842
 8358SOL    HW125973   2.696   2.131   4.880
 8358SOL    HW225974   2.745   1.980   4.917
 8359SOL     OW25975   4.684   5.099   3.885
 8359SOL    HW125976   4.731   5.029   3.830
 8359SOL    HW225977   4.591   5.110   3.850
 8360SOL     OW25978   4.601   0.662   3.045
 8360SOL    HW125979   4.665   0.738   3.047
 8360SOL    HW225980   4.507   0.697   3.048
 8361SOL     OW25981   1.791   0.877   2.826
 8361SOL    HW125982   1.868   0.885   2.763
 8361SOL    HW225983   1.750   0.786   2.817
 8362SOL     OW25984   2.331   2.956   0.420
 8362SOL    HW125985   2.264   2.919   0.355
 8362SOL    HW225986   2.370   3.040   0.383
 8363SOL     OW25987   0.016   3.648   1.031
 8363SOL    HW125988   0.040   3.592   1.109
 8363SOL    HW225989   0.095   3.703   1.003
 8364SOL     OW25990   6.501   4.898   4.426
 8364SOL    HW125991   6.442   4.879   4.347
 8364SOL    HW225992   6.571   4.827   4.433
 8365SOL     OW25993   1.209   3.677   5.730
 8365SOL    HW125994   1.239   3.617   5.804
 8365SOL    HW225995   1.175   3.622   5.654
 8366SOL     OW25996   2.958   6.989   3.437
 8366SOL    HW125997   2.995   6.902   3.404
 8366SOL    HW225998   3.027   0.013   3.492
 8367SOL     OW25999   5.328   5.590   4.082
 8367SOL    HW126000   5.228   5.582   4.077
 8367SOL    HW226001   5.366   5.589   3.989
 8368SOL     OW26002   3.206   5.602   6.519
 8368SOL    HW126003   3.132   5.591   6.453
 8368SOL    HW226004   3.177   5.568   6.608
 8369SOL     OW26005   2.775   1.519   1.355
 8369SOL    HW126006   2.853   1.536   1.294
 8369SOL    HW226007   2.692   1.553   1.313
 8370SOL     OW26008   1.577   1.554   0.229
 8370SOL    HW126009   1.518   1.474   0.216
 8370SOL    HW226010   1.634   1.541   0.310
 8371SOL     OW26011   2.251   2.507   0.284
 8371SOL    HW126012   2.312   2.439   0.326
 8371SOL    HW226013   2.156   2.485   0.305
 8372SOL     OW26014   7.009   0.668   1.297
 8372SOL    HW126015   0.011   0.624   1.383
 8372SOL    HW226016   6.909   0.675   1.290
 8373SOL     OW26017   1.773   6.687   5.106
 8373SOL    HW126018   1.837   6.690   5.030
 8373SOL    HW226019   1.817   6.646   5.186
 8374SOL     OW26020   6.505   0.493   6.038
 8374SOL    HW126021   6.414   0.451   6.047
 8374SOL    HW226022   6.563   0.461   6.112
 8375SOL     OW26023   4.111   1.029   6.119
 8375SOL    HW126024   4.113   0.929   6.115
 8375SOL    HW226025   4.194   1.062   6.163
 8376SOL     OW26026   4.411   0.420   4.261
 8376SOL    HW126027   4.322   0.378   4.282
 8376SOL    HW226028   4.457   0.367   4.190
 8377SOL     OW26029   5.648   4.839   0.692
 8377SOL    HW126030   5.698   4.865   0.610
 8377SOL    HW226031   5.671   4.745   0.717
 8378SOL     OW26032   5.107   2.873   3.873
 8378SOL    HW126033   5.125   2.840   3.965
 8378SOL    HW226034   5.147   2.810   3.806
 8379SOL     OW26035   5.211   2.354   2.679
 8379SOL    HW126036   5.118   2.328   2.704
 8379SOL    HW226037   5.276   2.298   2.730
 8380SOL     OW26038   5.316   1.991   3.674
 8380SOL    HW126039   5.367   2.068   3.712
 8380SOL    HW226040   5.346   1.976   3.580
 8381SOL     OW26041   2.408   5.447   4.227
 8381SOL    HW126042   2.460   5.443   4.142
 8381SOL    HW226043   2.412   5.358   4.272
 8382SOL     OW26044   0.697   4.448   2.668
 8382SOL    HW126045   0.780   4.493   2.634
 8382SOL    HW226046   0.617   4.491   2.627
 8383SOL     OW26047   3.515   1.382   6.301
 8383SOL    HW126048   3.452   1.451   6.338
 8383SOL    HW226049   3.529   1.400   6.203
 8384SOL     OW26050   0.675   6.676   1.862
 8384SOL    HW126051   0.669   6.722   1.773
 8384SOL    HW226052   0.614   6.597   1.863
 8385SOL     OW26053   4.828   2.487   1.023
 8385SOL    HW126054   4.800   2.575   1.061
 8385SOL    HW226055   4.925   2.471   1.041
 8386SOL     OW26056   0.761   4.309   2.889
 8386SOL    HW126057   0.722   4.366   2.818
 8386SOL    HW226058   0.777   4.217   2.853
 8387SOL     OW26059   1.071   1.794   0.984
 8387SOL    HW126060   1.122   1.752   0.909
 8387SOL    HW226061   1.001   1.731   1.018
 8388SOL     OW26062   0.704   6.630   3.037
 8388SOL    HW126063   0.747   6.540   3.038
 8388SOL    HW226064   0.753   6.690   2.974
 8389SOL     OW26065   5.761   2.373   3.113
 8389SOL    HW126066   5.804   2.457   3.080
 8389SOL    HW226067   5.665   2.390   3.134
 8390SOL     OW26068   5.622   1.353   6.232
 8390SOL    HW126069   5.547   1.393   6.180
 8390SOL    HW226070   5.703   1.412   6.224
 8391SOL     OW26071   6.680   6.543   1.574
 8391SOL    HW126072   6.645   6.486   1.648
 8391SOL    HW226073   6.604   6.577   1.519
 8392SOL     OW26074   4.293   3.009   5.792
 8392SOL    HW126075   4.206   3.013   5.842
 8392SOL    HW226076   4.284   2.945   5.715
 8393SOL     OW26077   5.393   0.029   1.199
 8393SOL    HW126078   5.438   0.099   1.143
 8393SOL    HW226079   5.314   7.016   1.149
 8394SOL     OW26080   5.841   2.743   2.229
 8394SOL    HW126081   5.863   2.699   2.316
 8394SOL    HW226082   5.843   2.675   2.156
 8395SOL     OW26083   2.262   1.165   5.141
 8395SOL    HW126084   2.176   1.131   5.103
 8395SOL    HW226085   2.249   1.187   5.238
 8396SOL     OW26086   4.711   5.482   4.958
 8396SOL    HW126087   4.615   5.456   4.968
 8396SOL    HW226088   4.722   5.539   4.876
 8397SOL     OW26089   6.206   0.236   3.216
 8397SOL    HW126090   6.246   0.160   3.268
 8397SOL    HW226091   6.200   0.210   3.119
 8398SOL     OW26092   5.376   2.157   6.179
 8398SOL    HW126093   5.407   2.252   6.185
 8398SOL    HW226094   5.399   2.121   6.089
 8399SOL     OW26095   0.452   4.510   1.543
 8399SOL    HW126096   0.397   4.561   1.477
 8399SOL    HW226097   0.408   4.422   1.561
 8400SOL     OW26098   1.586   1.520   4.672
 8400SOL    HW126099   1.577   1.505   4.770
 8400SOL    HW226100   1.535   1.602   4.646
 8401SOL     OW26101   2.112   0.205   5.503
 8401SOL    HW126102   2.113   0.293   5.549
 8401SOL    HW226103   2.071   0.136   5.563
 8402SOL     OW26104   3.353   0.726   6.413
 8402SOL    HW126105   3.288   0.731   6.489
 8402SOL    HW226106   3.447   0.725   6.449
 8403SOL     OW26107   5.989   4.888   5.177
 8403SOL    HW126108   5.924   4.816   5.153
 8403SOL    HW226109   6.032   4.865   5.264
 8404SOL     OW26110   0.738   1.536   6.483
 8404SOL    HW126111   0.639   1.548   6.473
 8404SOL    HW226112   0.768   1.461   6.424
 8405SOL     OW26113   4.450   0.375   5.484
 8405SOL    HW126114   4.354   0.368   5.457
 8405SOL    HW226115   4.502   0.419   5.411
 8406SOL     OW26116   5.572   0.321   6.259
 8406SOL    HW126117   5.536   0.412   6.236
 8406SOL    HW226118   5.504   0.252   6.236
 8407SOL     OW26119   3.973   6.955   4.323
 8407SOL    HW126120   3.904   6.884   4.310
 8407SOL    HW226121   3.954   7.007   4.405
 8408SOL     OW26122   4.161   1.340   1.319
 8408SOL    HW126123   4.068   1.303   1.324
 8408SOL    HW226124   4.201   1.342   1.411
 8409SOL     OW26125   4.493   2.068   2.238
 8409SOL    HW126126   4.570   2.023   2.192
 8409SOL    HW226127   4.409   2.016   2.220
 8410SOL     OW26128   6.879   1.612   1.713
 8410SOL    HW126129   6.870   1.518   1.747
 8410SOL    HW226130   6.962   1.620   1.657
 8411SOL     OW26131   1.191   6.347   1.037
 8411SOL    HW126132   1.139   6.298   1.106
 8411SOL    HW226133   1.252   6.413   1.081
 8412SOL     OW26134   2.489   2.166   0.177
 8412SOL    HW126135   2.439   2.222   0.243
 8412SOL    HW226136   2.434   2.155   0.094
 8413SOL     OW26137   3.754   5.334   4.448
 8413SOL    HW126138   3.844   5.296   4.470
 8413SOL    HW226139   3.696   5.331   4.529
 8414SOL     OW26140   1.274   0.461   1.116
 8414SOL    HW126141   1.322   0.418   1.040
 8414SOL    HW226142   1.248   0.391   1.183
 8415SOL     OW26143   2.782   1.544   6.015
 8415SOL    HW126144   2.822   1.631   6.044
 8415SOL    HW226145   2.854   1.484   5.979
 8416SOL     OW26146   6.799   2.418   5.479
 8416SOL    HW126147   6.804   2.318   5.473
 8416SOL    HW226148   6.804   2.458   5.387
 8417SOL     OW26149   2.303   3.312   6.047
 8417SOL    HW126150   2.274   3.297   5.953
 8417SOL    HW226151   2.348   3.401   6.054
 8418SOL     OW26152   0.514   6.069   2.317
 8418SOL    HW126153   0.460   5.998   2.271
 8418SOL    HW226154   0.525   6.147   2.255
 8419SOL     OW26155   4.247   1.808   4.189
 8419SOL    HW126156   4.228   1.880   4.123
 8419SOL    HW226157   4.174   1.803   4.257
 8420SOL     OW26158   3.385   1.000   1.765
 8420SOL    HW126159   3.381   0.920   1.705
 8420SOL    HW226160   3.476   1.041   1.758
 8421SOL     OW26161   4.432   6.732   6.339
 8421SOL    HW126162   4.420   6.831   6.331
 8421SOL    HW226163   4.521   6.705   6.302
 8422SOL     OW26164   5.451   2.778   3.629
 8422SOL    HW126165   5.366   2.750   3.674
 8422SOL    HW226166   5.447   2.755   3.532
 8423SOL     OW26167   6.856   5.221   0.208
 8423SOL    HW126168   6.883   5.211   0.113
 8423SOL    HW226169   6.826   5.315   0.225
 8424SOL     OW26170   3.201   0.226   4.902
 8424SOL    HW126171   3.250   0.313   4.912
 8424SOL    HW226172   3.126   0.222   4.968
 8425SOL     OW26173   3.609   4.118   2.202
 8425SOL    HW126174   3.545   4.130   2.125
 8425SOL    HW226175   3.560   4.129   2.288
 8426SOL     OW26176   3.883   2.993   1.975
 8426SOL    HW126177   3.891   3.021   2.070
 8426SOL    HW226178   3.802   3.037   1.934
 8427SOL     OW26179   3.865   3.478   3.428
 8427SOL    HW126180   3.929   3.554   3.439
 8427SOL    HW226181   3.913   3.399   3.391
 8428SOL     OW26182   6.201   6.862   2.270
 8428SOL    HW126183   6.243   6.778   2.302
 8428SOL    HW226184   6.269   6.918   2.223
 8429SOL     OW26185   2.748   5.709   5.047
 8429SOL    HW126186   2.801   5.624   5.044
 8429SOL    HW226187   2.795   5.776   5.103
 8430SOL     OW26188   4.873   0.078   4.997
 8430SOL    HW126189   4.917   0.158   4.956
 8430SOL    HW226190   4.776   0.097   5.011
 8431SOL     OW26191   1.814   4.052   5.714
 8431SOL    HW126192   1.822   4.039   5.615
 8431SOL    HW226193   1.883   4.118   5.744
 8432SOL     OW26194   6.478   5.332   6.226
 8432SOL    HW126195   6.547   5.397   6.196
 8432SOL    HW226196   6.504   5.240   6.196
 8433SOL     OW26197   5.653   2.043   1.221
 8433SOL    HW126198   5.729   2.107   1.209
 8433SOL    HW226199   5.664   1.995   1.308
 8434SOL     OW26200   2.576   5.566   4.418
 8434SOL    HW126201   2.573   5.643   4.483
 8434SOL    HW226202   2.483   5.540   4.394
 8435SOL     OW26203   5.609   1.685   3.364
 8435SOL    HW126204   5.582   1.723   3.452
 8435SOL    HW226205   5.692   1.730   3.332
 8436SOL     OW26206   2.236   5.854   2.257
 8436SOL    HW126207   2.259   5.885   2.165
 8436SOL    HW226208   2.178   5.773   2.251
 8437SOL     OW26209   0.569   5.414   1.336
 8437SOL    HW126210   0.485   5.462   1.311
 8437SOL    HW226211   0.588   5.343   1.268
 8438SOL     OW26212   0.378   3.723   2.292
 8438SOL    HW126213   0.435   3.803   2.277
 8438SOL    HW226214   0.404   3.679   2.377
 8439SOL     OW26215   6.344   4.271   2.745
 8439SOL    HW126216   6.322   4.177   2.718
 8439SOL    HW226217   6.311   4.288   2.838
 8440SOL     OW26218   1.771   2.227   2.805
 8440SOL    HW126219   1.762   2.162   2.729
 8440SOL    HW226220   1.854   2.281   2.792
 8441SOL     OW26221   0.112   1.844   5.906
 8441SOL    HW126222   0.064   1.786   5.839
 8441SOL    HW226223   0.156   1.786   5.974
 8442SOL     OW26224   4.039   2.109   6.865
 8442SOL    HW126225   4.055   2.208   6.854
 8442SOL    HW226226   4.118   2.059   6.831
 8443SOL     OW26227   1.708   4.426   2.630
 8443SOL    HW126228   1.760   4.342   2.618
 8443SOL    HW226229   1.755   4.486   2.694
 8444SOL     OW26230   5.586   5.490   5.106
 8444SOL    HW126231   5.632   5.537   5.180
 8444SOL    HW226232   5.604   5.392   5.112
 8445SOL     OW26233   4.518   6.835   6.726
 8445SOL    HW126234   4.494   6.745   6.689
 8445SOL    HW226235   4.598   6.826   6.786
 8446SOL     OW26236   6.494   5.137   5.040
 8446SOL    HW126237   6.564   5.183   5.095
 8446SOL    HW226238   6.434   5.083   5.099
 8447SOL     OW26239   3.891   0.989   3.964
 8447SOL    HW126240   3.960   1.062   3.962
 8447SOL    HW226241   3.905   0.928   3.886
 8448SOL     OW26242   3.481   6.193   3.096
 8448SOL    HW126243   3.534   6.109   3.079
 8448SOL    HW226244   3.539   6.272   3.077
 8449SOL     OW26245   1.799   2.111   3.527
 8449SOL    HW126246   1.775   2.207   3.520
 8449SOL    HW226247   1.878   2.100   3.587
 8450SOL     OW26248   6.799   0.846   6.889
 8450SOL    HW126249   6.824   0.883   6.800
 8450SOL    HW226250   6.877   0.851   6.951
 8451SOL     OW26251   3.924   2.725   1.316
 8451SOL    HW126252   3.899   2.822   1.309
 8451SOL    HW226253   3.871   2.683   1.390
 8452SOL     OW26254   5.176   1.163   6.034
 8452SOL    HW126255   5.209   1.090   5.973
 8452SOL    HW226256   5.105   1.127   6.094
 8453SOL     OW26257   7.003   6.716   0.201
 8453SOL    HW126258   6.988   6.623   0.168
 8453SOL    HW226259   6.918   6.753   0.238
 8454SOL     OW26260   5.883   4.415   6.602
 8454SOL    HW126261   5.827   4.343   6.560
 8454SOL    HW226262   5.829   4.499   6.608
 8455SOL     OW26263   6.469   0.967   2.594
 8455SOL    HW126264   6.442   1.061   2.572
 8455SOL    HW226265   6.569   0.962   2.603
 8456SOL     OW26266   6.832   0.216   2.648
 8456SOL    HW126267   6.790   0.210   2.739
 8456SOL    HW226268   6.931   0.225   2.658
 8457SOL     OW26269   6.696   6.809   4.991
 8457SOL    HW126270   6.744   6.721   4.994
 8457SOL    HW226271   6.761   6.883   5.007
 8458SOL     OW26272   0.520   6.713   6.632
 8458SOL    HW126273   0.592   6.779   6.652
 8458SOL    HW226274   0.502   6.713   6.533
 8459SOL     OW26275   1.311   6.009   3.583
 8459SOL    HW126276   1.354   5.945   3.520
 8459SOL    HW226277   1.359   6.097   3.578
 8460SOL     OW26278   4.164   3.521   3.302
 8460SOL    HW126279   4.081   3.558   3.260
 8460SOL    HW226280   4.175   3.561   3.393
 8461SOL     OW26281   6.266   3.316   3.807
 8461SOL    HW126282   6.285   3.334   3.710
 8461SOL    HW226283   6.267   3.217   3.823
 8462SOL     OW26284   2.567   2.756   1.733
 8462SOL    HW126285   2.653   2.708   1.747
 8462SOL    HW226286   2.543   2.755   1.636
 8463SOL     OW26287   5.618   0.525   1.899
 8463SOL    HW126288   5.631   0.491   1.806
 8463SOL    HW226289   5.525   0.503   1.929
 8464SOL     OW26290   0.176   1.737   4.813
 8464SOL    HW126291   0.189   1.831   4.783
 8464SOL    HW226292   0.131   1.737   4.903
 8465SOL     OW26293   1.277   1.562   6.913
 8465SOL    HW126294   1.323   1.493   6.857
 8465SOL    HW226295   1.344   1.624   6.953
 8466SOL     OW26296   0.254   0.098   4.056
 8466SOL    HW126297   0.258   0.081   3.958
 8466SOL    HW226298   0.270   0.013   4.106
 8467SOL     OW26299   3.671   5.145   1.262
 8467SOL    HW126300   3.593   5.144   1.200
 8467SOL    HW226301   3.756   5.139   1.208
 8468SOL     OW26302   4.461   2.380   0.393
 8468SOL    HW126303   4.499   2.439   0.464
 8468SOL    HW226304   4.500   2.288   0.402
 8469SOL     OW26305   4.124   2.409   6.211
 8469SOL    HW126306   4.101   2.397   6.307
 8469SOL    HW226307   4.048   2.377   6.154
 8470SOL     OW26308   1.789   3.042   6.756
 8470SOL    HW126309   1.850   2.964   6.773
 8470SOL    HW226310   1.703   3.027   6.804
 8471SOL     OW26311   4.628   1.659   3.961
 8471SOL    HW126312   4.683   1.738   3.935
 8471SOL    HW226313   4.535   1.671   3.927
 8472SOL     OW26314   1.313   6.636   2.873
 8472SOL    HW126315   1.400   6.589   2.865
 8472SOL    HW226316   1.328   6.735   2.875
 8473SOL     OW26317   6.706   5.910   6.153
 8473SOL    HW126318   6.678   5.938   6.061
 8473SOL    HW226319   6.650   5.957   6.221
 8474SOL     OW26320   3.565   5.289   0.428
 8474SOL    HW126321   3.653   5.244   0.413
 8474SOL    HW226322   3.491   5.225   0.405
 8475SOL     OW26323   4.744   1.371   2.915
 8475SOL    HW126324   4.723   1.286   2.867
 8475SOL    HW226325   4.843   1.386   2.916
 8476SOL     OW26326   4.326   0.412   2.398
 8476SOL    HW126327   4.348   0.419   2.301
 8476SOL    HW226328   4.269   0.332   2.414
 8477SOL     OW26329   2.566   0.610   2.449
 8477SOL    HW126330   2.552   0.704   2.418
 8477SOL    HW226331   2.478   0.566   2.465
 8478SOL     OW26332   1.790   0.516   5.812
 8478SOL    HW126333   1.829   0.556   5.896
 8478SOL    HW226334   1.830   0.562   5.732
 8479SOL     OW26335   5.365   1.233   2.411
 8479SOL    HW126336   5.343   1.153   2.357
 8479SOL    HW226337   5.448   1.276   2.376
 8480SOL     OW26338   1.816   1.338   1.546
 8480SOL    HW126339   1.912   1.314   1.560
 8480SOL    HW226340   1.797   1.345   1.449
 8481SOL     OW26341   4.420   7.019   5.263
 8481SOL    HW126342   4.454   0.003   5.357
 8481SOL    HW226343   4.472   6.950   5.214
 8482SOL     OW26344   0.516   0.341   2.287
 8482SOL    HW126345   0.608   0.306   2.307
 8482SOL    HW226346   0.523   0.436   2.256
 8483SOL     OW26347   5.567   6.250   1.623
 8483SOL    HW126348   5.491   6.288   1.676
 8483SOL    HW226349   5.559   6.151   1.619
 8484SOL     OW26350   0.288   4.548   4.414
 8484SOL    HW126351   0.333   4.468   4.374
 8484SOL    HW226352   0.353   4.597   4.472
 8485SOL     OW26353   2.553   3.309   5.586
 8485SOL    HW126354   2.554   3.301   5.487
 8485SOL    HW226355   2.591   3.398   5.613
 8486SOL     OW26356   4.294   0.514   2.670
 8486SOL    HW126357   4.293   0.506   2.570
 8486SOL    HW226358   4.201   0.530   2.703
 8487SOL     OW26359   4.377   0.962   0.795
 8487SOL    HW126360   4.364   0.865   0.776
 8487SOL    HW226361   4.469   0.989   0.768
 8488SOL     OW26362   5.446   3.236   4.785
 8488SOL    HW126363   5.478   3.307   4.723
 8488SOL    HW226364   5.355   3.259   4.818
 8489SOL     OW26365   3.790   5.822   2.803
 8489SOL    HW126366   3.865   5.879   2.769
 8489SOL    HW226367   3.703   5.855   2.765
 8490SOL     OW26368   4.090   5.623   2.669
 8490SOL    HW126369   4.085   5.721   2.690
 8490SOL    HW226370   4.176   5.603   2.624
 8491SOL     OW26371   0.915   1.255   1.964
 8491SOL    HW126372   0.890   1.252   1.867
 8491SOL    HW226373   1.014   1.267   1.973
 8492SOL     OW26374   5.570   4.073   4.725
 8492SOL    HW126375   5.648   4.019   4.758
 8492SOL    HW226376   5.598   4.125   4.644
 8493SOL     OW26377   3.939   2.366   0.726
 8493SOL    HW126378   3.930   2.465   0.736
 8493SOL    HW226379   4.004   2.332   0.794
 8494SOL     OW26380   3.960   5.991   6.583
 8494SOL    HW126381   4.010   5.950   6.659
 8494SOL    HW226382   3.874   6.030   6.617
 8495SOL     OW26383   0.702   2.599   6.981
 8495SOL    HW126384   0.623   2.569   0.011
 8495SOL    HW226385   0.724   2.693   7.005
 8496SOL     OW26386   6.854   2.012   3.115
 8496SOL    HW126387   6.895   1.977   3.030
 8496SOL    HW226388   6.771   1.960   3.136
 8497SOL     OW26389   5.912   4.666   3.037
 8497SOL    HW126390   5.919   4.604   3.116
 8497SOL    HW226391   5.870   4.617   2.961
 8498SOL     OW26392   6.349   0.990   1.115
 8498SOL    HW126393   6.402   0.961   1.195
 8498SOL    HW226394   6.350   1.089   1.108
 8499SOL     OW26395   1.515   4.067   6.427
 8499SOL    HW126396   1.602   4.020   6.412
 8499SOL    HW226397   1.454   4.051   6.350
 8500SOL     OW26398   3.101   0.875   6.173
 8500SOL    HW126399   3.164   0.877   6.095
 8500SOL    HW226400   3.147   0.913   6.254
 8501SOL     OW26401   3.037   4.224   6.243
 8501SOL    HW126402   3.037   4.304   6.183
 8501SOL    HW226403   3.054   4.254   6.337
 8502SOL     OW26404   0.920   6.832   1.884
 8502SOL    HW126405   0.840   6.779   1.856
 8502SOL    HW226406   0.969   6.781   1.956
 8503SOL     OW26407   3.128   6.379   3.420
 8503SOL    HW126408   3.060   6.419   3.359
 8503SOL    HW226409   3.166   6.297   3.379
 8504SOL     OW26410   1.527   5.520   3.418
 8504SOL    HW126411   1.594   5.494   3.487
 8504SOL    HW226412   1.453   5.452   3.416
 8505SOL     OW26413   4.716   2.776   4.232
 8505SOL    HW126414   4.696   2.681   4.205
 8505SOL    HW226415   4.644   2.836   4.198
 8506SOL     OW26416   0.884   6.701   0.401
 8506SOL    HW126417   0.787   6.708   0.427
 8506SOL    HW226418   0.939   6.748   0.470
 8507SOL     OW26419   1.493   0.198   5.217
 8507SOL    HW126420   1.506   0.230   5.311
 8507SOL    HW226421   1.583   0.186   5.174
 8508SOL     OW26422   0.652   2.976   5.643
 8508SOL    HW126423   0.622   2.883   5.623
 8508SOL    HW226424   0.586   3.041   5.605
 8509SOL     OW26425   5.916   2.217   4.935
 8509SOL    HW126426   5.880   2.124   4.933
 8509SOL    HW226427   5.894   2.264   4.850
 8510SOL     OW26428   5.298   6.856   2.102
 8510SOL    HW126429   5.392   6.822   2.109
 8510SOL    HW226430   5.252   6.845   2.190
 8511SOL     OW26431   6.521   5.128   1.385
 8511SOL    HW126432   6.588   5.183   1.435
 8511SOL    HW226433   6.554   5.034   1.377
 8512SOL     OW26434   3.381   3.063   0.864
 8512SOL    HW126435   3.355   2.969   0.886
 8512SOL    HW226436   3.385   3.117   0.949
 8513SOL     OW26437   1.151   3.961   1.246
 8513SOL    HW126438   1.084   3.889   1.264
 8513SOL    HW226439   1.116   4.023   1.176
 8514SOL     OW26440   2.661   2.204   5.284
 8514SOL    HW126441   2.691   2.204   5.380
 8514SOL    HW226442   2.737   2.235   5.226
 8515SOL     OW26443   2.185   0.098   0.702
 8515SOL    HW126444   2.239   0.126   0.622
 8515SOL    HW226445   2.247   0.079   0.778
 8516SOL     OW26446   5.436   2.979   4.326
 8516SOL    HW126447   5.362   3.042   4.303
 8516SOL    HW226448   5.487   3.015   4.403
 8517SOL     OW26449   2.028   1.751   6.426
 8517SOL    HW126450   2.127   1.738   6.431
 8517SOL    HW226451   2.008   1.825   6.362
 8518SOL     OW26452   5.108   4.893   6.704
 8518SOL    HW126453   5.117   4.881   6.803
 8518SOL    HW226454   5.197   4.879   6.661
 8519SOL     OW26455   0.613   3.265   0.569
 8519SOL    HW126456   0.674   3.339   0.541
 8519SOL    HW226457   0.530   3.303   0.608
 8520SOL     OW26458   3.573   4.095   5.676
 8520SOL    HW126459   3.590   4.139   5.588
 8520SOL    HW226460   3.557   4.165   5.745
 8521SOL     OW26461   2.043   6.401   5.536
 8521SOL    HW126462   1.991   6.366   5.614
 8521SOL    HW226463   2.124   6.345   5.521
 8522SOL     OW26464   0.621   6.735   0.051
 8522SOL    HW126465   0.552   6.770   0.113
 8522SOL    HW226466   0.676   6.810   0.016
 8523SOL     OW26467   3.906   1.941   0.434
 8523SOL    HW126468   3.903   1.991   0.521
 8523SOL    HW226469   3.899   2.005   0.358
 8524SOL     OW26470   2.281   5.391   5.377
 8524SOL    HW126471   2.221   5.425   5.449
 8524SOL    HW226472   2.227   5.374   5.294
 8525SOL     OW26473   6.219   3.578   2.140
 8525SOL    HW126474   6.183   3.646   2.077
 8525SOL    HW226475   6.143   3.530   2.185
 8526SOL     OW26476   0.387   4.457   0.091
 8526SOL    HW126477   0.292   4.439   0.118
 8526SOL    HW226478   0.404   4.416   0.001
 8527SOL     OW26479   2.736   1.017   5.699
 8527SOL    HW126480   2.690   1.090   5.750
 8527SOL    HW226481   2.679   0.934   5.701
 8528SOL     OW26482   5.709   0.835   0.746
 8528SOL    HW126483   5.698   0.934   0.738
 8528SOL    HW226484   5.761   0.814   0.829
 8529SOL     OW26485   1.103   6.333   0.071
 8529SOL    HW126486   1.010   6.298   0.063
 8529SOL    HW226487   1.101   6.425   0.109
 8530SOL     OW26488   4.003   3.876   3.164
 8530SOL    HW126489   3.994   3.778   3.144
 8530SOL    HW226490   4.088   3.891   3.215
 8531SOL     OW26491   6.492   5.147   4.340
 8531SOL    HW126492   6.483   5.060   4.389
 8531SOL    HW226493   6.482   5.131   4.242
 8532SOL     OW26494   3.116   5.548   6.764
 8532SOL    HW126495   3.051   5.612   6.806
 8532SOL    HW226496   3.154   5.488   6.834
 8533SOL     OW26497   2.659   6.853   5.233
 8533SOL    HW126498   2.610   6.843   5.146
 8533SOL    HW226499   2.732   6.785   5.239
 8534SOL     OW26500   2.209   2.421   2.907
 8534SOL    HW126501   2.281   2.360   2.874
 8534SOL    HW226502   2.154   2.374   2.976
 8535SOL     OW26503   6.116   0.469   2.099
 8535SOL    HW126504   6.117   0.371   2.078
 8535SOL    HW226505   6.092   0.482   2.195
 8536SOL     OW26506   0.914   1.215   4.308
 8536SOL    HW126507   0.983   1.212   4.235
 8536SOL    HW226508   0.823   1.210   4.268
 8537SOL     OW26509   5.947   1.142   3.073
 8537SOL    HW126510   6.016   1.070   3.083
 8537SOL    HW226511   5.990   1.231   3.084
 8538SOL     OW26512   1.045   2.627   0.220
 8538SOL    HW126513   1.115   2.563   0.250
 8538SOL    HW226514   0.981   2.581   0.158
 8539SOL     OW26515   5.294   2.757   2.402
 8539SOL    HW126516   5.197   2.775   2.417
 8539SOL    HW226517   5.317   2.770   2.306
 8540SOL     OW26518   3.727   0.889   1.458
 8540SOL    HW126519   3.664   0.836   1.401
 8540SOL    HW226520   3.674   0.951   1.516
 8541SOL     OW26521   1.895   2.674   4.320
 8541SOL    HW126522   1.985   2.654   4.280
 8541SOL    HW226523   1.854   2.751   4.272
 8542SOL     OW26524   3.453   4.386   0.541
 8542SOL    HW126525   3.495   4.459   0.487
 8542SOL    HW226526   3.445   4.303   0.485
 8543SOL     OW26527   2.955   2.053   6.573
 8543SOL    HW126528   2.956   2.118   6.497
 8543SOL    HW226529   3.040   2.062   6.625
 8544SOL     OW26530   6.204   2.475   4.256
 8544SOL    HW126531   6.216   2.558   4.311
 8544SOL    HW226532   6.107   2.450   4.255
 8545SOL     OW26533   4.496   6.606   5.248
 8545SOL    HW126534   4.490   6.583   5.345
 8545SOL    HW226535   4.556   6.541   5.201
 8546SOL     OW26536   4.745   2.241   6.991
 8546SOL    HW126537   4.676   2.311   6.967
 8546SOL    HW226538   4.827   2.255   6.935
 8547SOL     OW26539   1.177   4.655   2.068
 8547SOL    HW126540   1.103   4.596   2.099
 8547SOL    HW226541   1.247   4.661   2.140
 8548SOL     OW26542   6.302   1.899   5.533
 8548SOL    HW126543   6.298   1.890   5.433
 8548SOL    HW226544   6.343   1.816   5.571
 8549SOL     OW26545   5.455   3.262   5.497
 8549SOL    HW126546   5.445   3.355   5.532
 8549SOL    HW226547   5.428   3.259   5.401
 8550SOL     OW26548   0.916   4.444   6.076
 8550SOL    HW126549   1.012   4.472   6.085
 8550SOL    HW226550   0.910   4.358   6.026
 8551SOL     OW26551   2.361   4.394   0.930
 8551SOL    HW126552   2.432   4.390   0.861
 8551SOL    HW226553   2.359   4.308   0.981
 8552SOL     OW26554   2.969   6.762   4.495
 8552SOL    HW126555   2.919   6.772   4.409
 8552SOL    HW226556   3.040   6.692   4.485
 8553SOL     OW26557   5.998   5.200   6.980
 8553SOL    HW126558   5.951   5.157   6.904
 8553SOL    HW226559   6.058   5.134   0.002
 8554SOL     OW26560   5.613   3.861   6.891
 8554SOL    HW126561   5.528   3.902   6.925
 8554SOL    HW226562   5.628   3.774   6.937
 8555SOL     OW26563   1.943   6.864   4.395
 8555SOL    HW126564   1.946   6.796   4.322
 8555SOL    HW226565   1.929   6.818   4.482
 8556SOL     OW26566   5.958   6.902   4.284
 8556SOL    HW126567   5.986   6.966   4.213
 8556SOL    HW226568   5.938   6.813   4.242
 8557SOL     OW26569   6.818   0.992   0.295
 8557SOL    HW126570   6.814   1.070   0.357
 8557SOL    HW226571   6.747   0.925   0.321
 8558SOL     OW26572   0.745   5.237   2.243
 8558SOL    HW126573   0.772   5.325   2.205
 8558SOL    HW226574   0.763   5.236   2.341
 8559SOL     OW26575   0.570   1.472   5.538
 8559SOL    HW126576   0.512   1.437   5.611
 8559SOL    HW226577   0.666   1.464   5.564
 8560SOL     OW26578   6.403   2.055   6.702
 8560SOL    HW126579   6.430   1.959   6.705
 8560SOL    HW226580   6.304   2.062   6.718
 8561SOL     OW26581   4.922   5.751   5.527
 8561SOL    HW126582   4.964   5.783   5.442
 8561SOL    HW226583   4.908   5.652   5.523
 8562SOL     OW26584   3.669   6.944   4.469
 8562SOL    HW126585   3.682   6.961   4.567
 8562SOL    HW226586   3.593   6.999   4.435
 8563SOL     OW26587   2.790   3.191   6.872
 8563SOL    HW126588   2.825   3.281   6.898
 8563SOL    HW226589   2.836   3.160   6.789
 8564SOL     OW26590   0.363   6.060   3.207
 8564SOL    HW126591   0.325   6.116   3.134
 8564SOL    HW226592   0.341   6.101   3.295
 8565SOL     OW26593   3.472   0.778   1.611
 8565SOL    HW126594   3.463   0.714   1.687
 8565SOL    HW226595   3.391   0.770   1.552
 8566SOL     OW26596   1.451   4.002   3.528
 8566SOL    HW126597   1.446   3.957   3.617
 8566SOL    HW226598   1.510   3.949   3.467
 8567SOL     OW26599   5.001   5.694   0.169
 8567SOL    HW126600   5.059   5.613   0.178
 8567SOL    HW226601   5.030   5.747   0.089
 8568SOL     OW26602   5.596   0.648   0.247
 8568SOL    HW126603   5.628   0.610   0.160
 8568SOL    HW226604   5.649   0.730   0.269
 8569SOL     OW26605   4.017   1.125   5.440
 8569SOL    HW126606   3.978   1.034   5.450
 8569SOL    HW226607   4.116   1.121   5.455
 8570SOL     OW26608   0.173   3.270   6.230
 8570SOL    HW126609   0.123   3.185   6.249
 8570SOL    HW226610   0.261   3.248   6.190
 8571SOL     OW26611   0.191   4.139   4.761
 8571SOL    HW126612   0.132   4.071   4.717
 8571SOL    HW226613   0.140   4.224   4.776
 8572SOL     OW26614   2.980   4.907   5.406
 8572SOL    HW126615   2.960   4.937   5.499
 8572SOL    HW226616   2.954   4.978   5.341
 8573SOL     OW26617   3.606   6.319   4.284
 8573SOL    HW126618   3.661   6.313   4.367
 8573SOL    HW226619   3.538   6.392   4.293
 8574SOL     OW26620   0.310   3.829   4.060
 8574SOL    HW126621   0.308   3.876   3.971
 8574SOL    HW226622   0.356   3.888   4.127
 8575SOL     OW26623   3.029   3.475   6.596
 8575SOL    HW126624   3.067   3.547   6.537
 8575SOL    HW226625   2.931   3.469   6.581
 8576SOL     OW26626   1.848   0.472   0.801
 8576SOL    HW126627   1.943   0.463   0.771
 8576SOL    HW226628   1.804   0.545   0.750
 8577SOL     OW26629   6.743   5.725   4.385
 8577SOL    HW126630   6.776   5.815   4.413
 8577SOL    HW226631   6.741   5.720   4.285
 8578SOL     OW26632   5.080   0.490   2.797
 8578SOL    HW126633   5.056   0.537   2.712
 8578SOL    HW226634   5.002   0.437   2.829
 8579SOL     OW26635   0.289   4.925   2.982
 8579SOL    HW126636   0.194   4.954   2.980
 8579SOL    HW226637   0.297   4.839   3.033
 8580SOL     OW26638   2.600   4.943   6.147
 8580SOL    HW126639   2.507   4.980   6.154
 8580SOL    HW226640   2.598   4.858   6.094
 8581SOL     OW26641   3.454   2.984   0.000
 8581SOL    HW126642   3.474   2.888   0.019
 8581SOL    HW226643   3.468   3.003   6.926
 8582SOL     OW26644   4.498   4.407   0.776
 8582SOL    HW126645   4.463   4.314   0.782
 8582SOL    HW226646   4.527   4.438   0.867
 8583SOL     OW26647   5.492   6.604   5.300
 8583SOL    HW126648   5.581   6.606   5.255
 8583SOL    HW226649   5.422   6.638   5.237
 8584SOL     OW26650   0.434   5.309   6.874
 8584SOL    HW126651   0.386   5.285   6.958
 8584SOL    HW226652   0.417   5.405   6.852
 8585SOL     OW26653   0.837   1.571   1.092
 8585SOL    HW126654   0.799   1.562   1.183
 8585SOL    HW226655   0.888   1.488   1.068
 8586SOL     OW26656   3.981   5.177   4.419
 8586SOL    HW126657   4.018   5.140   4.504
 8586SOL    HW226658   4.043   5.156   4.343
 8587SOL     OW26659   6.698   1.898   1.985
 8587SOL    HW126660   6.749   1.875   1.902
 8587SOL    HW226661   6.756   1.882   2.065
 8588SOL     OW26662   3.406   1.916   6.955
 8588SOL    HW126663   3.331   1.908   6.890
 8588SOL    HW226664   3.486   1.867   6.920
 8589SOL     OW26665   3.162   1.422   5.281
 8589SOL    HW126666   3.234   1.488   5.305
 8589SOL    HW226667   3.204   1.334   5.259
 8590SOL     OW26668   6.283   5.818   5.218
 8590SOL    HW126669   6.202   5.759   5.218
 8590SOL    HW226670   6.317   5.829   5.124
 8591SOL     OW26671   0.825   2.532   0.585
 8591SOL    HW126672   0.911   2.517   0.537
 8591SOL    HW226673   0.784   2.618   0.554
 8592SOL     OW26674   6.534   5.952   6.388
 8592SOL    HW126675   6.446   5.916   6.355
 8592SOL    HW226676   6.523   5.988   6.480
 8593SOL     OW26677   0.446   5.813   3.150
 8593SOL    HW126678   0.411   5.904   3.174
 8593SOL    HW226679   0.420   5.748   3.222
 8594SOL     OW26680   3.664   4.154   3.338
 8594SOL    HW126681   3.601   4.103   3.279
 8594SOL    HW226682   3.750   4.170   3.289
 8595SOL     OW26683   1.599   3.071   1.642
 8595SOL    HW126684   1.529   3.100   1.707
 8595SOL    HW226685   1.619   3.147   1.580
 8596SOL     OW26686   6.706   4.292   2.397
 8596SOL    HW126687   6.658   4.310   2.483
 8596SOL    HW226688   6.754   4.205   2.403
 8597SOL     OW26689   2.719   1.976   0.354
 8597SOL    HW126690   2.671   2.061   0.332
 8597SOL    HW226691   2.699   1.949   0.448
 8598SOL     OW26692   5.519   3.583   1.767
 8598SOL    HW126693   5.605   3.626   1.741
 8598SOL    HW226694   5.477   3.635   1.842
 8599SOL     OW26695   0.764   3.397   0.944
 8599SOL    HW126696   0.675   3.352   0.943
 8599SOL    HW226697   0.752   3.495   0.960
 8600SOL     OW26698   6.348   2.898   6.219
 8600SOL    HW126699   6.419   2.852   6.165
 8600SOL    HW226700   6.258   2.877   6.182
 8601SOL     OW26701   0.092   0.576   5.380
 8601SOL    HW126702   0.171   0.522   5.408
 8601SOL    HW226703   0.071   0.644   5.451
 8602SOL     OW26704   1.719   6.596   1.769
 8602SOL    HW126705   1.657   6.592   1.847
 8602SOL    HW226706   1.674   6.644   1.694
 8603SOL     OW26707   4.792   3.475   1.658
 8603SOL    HW126708   4.769   3.385   1.694
 8603SOL    HW226709   4.716   3.509   1.602
 8604SOL     OW26710   5.942   2.370   2.844
 8604SOL    HW126711   5.991   2.457   2.852
 8604SOL    HW226712   5.844   2.388   2.841
 8605SOL     OW26713   2.771   5.634   1.709
 8605SOL    HW126714   2.841   5.702   1.686
 8605SOL    HW226715   2.806   5.542   1.691
 8606SOL     OW26716   3.856   5.725   5.341
 8606SOL    HW126717   3.860   5.626   5.336
 8606SOL    HW226718   3.823   5.762   5.254
 8607SOL     OW26719   3.107   5.718   1.120
 8607SOL    HW126720   3.090   5.655   1.196
 8607SOL    HW226721   3.039   5.791   1.122
 8608SOL     OW26722   5.964   6.382   2.228
 8608SOL    HW126723   6.014   6.306   2.187
 8608SOL    HW226724   5.983   6.386   2.326
 8609SOL     OW26725   4.628   0.582   6.152
 8609SOL    HW126726   4.710   0.566   6.096
 8609SOL    HW226727   4.655   0.607   6.245
 8610SOL     OW26728   0.271   6.469   5.389
 8610SOL    HW126729   0.209   6.528   5.337
 8610SOL    HW226730   0.366   6.498   5.373
 8611SOL     OW26731   1.210   1.999   3.344
 8611SOL    HW126732   1.226   1.953   3.431
 8611SOL    HW226733   1.177   2.092   3.362
 8612SOL     OW26734   5.066   2.920   5.070
 8612SOL    HW126735   5.089   2.867   4.988
 8612SOL    HW226736   4.982   2.882   5.111
 8613SOL     OW26737   1.246   0.749   0.149
 8613SOL    HW126738   1.226   0.823   0.213
 8613SOL    HW226739   1.171   0.741   0.084
 8614SOL     OW26740   1.458   1.626   3.548
 8614SOL    HW126741   1.441   1.528   3.565
 8614SOL    HW226742   1.431   1.678   3.628
 8615SOL     OW26743   4.251   2.153   5.317
 8615SOL    HW126744   4.266   2.149   5.416
 8615SOL    HW226745   4.305   2.082   5.272
 8616SOL     OW26746   1.190   3.214   0.201
 8616SOL    HW126747   1.207   3.198   0.104
 8616SOL    HW226748   1.273   3.195   0.253
 8617SOL     OW26749   5.852   2.621   0.553
 8617SOL    HW126750   5.785   2.694   0.564
 8617SOL    HW226751   5.816   2.537   0.596
 8618SOL     OW26752   3.984   0.865   2.901
 8618SOL    HW126753   3.952   0.865   2.995
 8618SOL    HW226754   4.057   0.933   2.890
 8619SOL     OW26755   4.281   5.908   0.853
 8619SOL    HW126756   4.187   5.893   0.821
 8619SOL    HW226757   4.310   5.830   0.908
 8620SOL     OW26758   6.525   5.841   3.382
 8620SOL    HW126759   6.544   5.938   3.396
 8620SOL    HW226760   6.438   5.818   3.427
 8621SOL     OW26761   5.276   0.514   3.694
 8621SOL    HW126762   5.358   0.475   3.735
 8621SOL    HW226763   5.300   0.595   3.640
 8622SOL     OW26764   4.913   5.118   0.012
 8622SOL    HW126765   4.971   5.144   6.958
 8622SOL    HW226766   4.842   5.055   7.004
 8623SOL     OW26767   6.321   2.515   3.755
 8623SOL    HW126768   6.291   2.463   3.835
 8623SOL    HW226769   6.388   2.584   3.783
 8624SOL     OW26770   6.760   3.789   3.695
 8624SOL    HW126771   6.678   3.819   3.742
 8624SOL    HW226772   6.787   3.699   3.730
 8625SOL     OW26773   3.610   1.134   6.563
 8625SOL    HW126774   3.511   1.127   6.566
 8625SOL    HW226775   3.645   1.093   6.479
 8626SOL     OW26776   3.090   3.057   2.514
 8626SOL    HW126777   3.095   3.052   2.414
 8626SOL    HW226778   3.167   3.007   2.554
 8627SOL     OW26779   2.455   0.544   6.863
 8627SOL    HW126780   2.436   0.606   6.787
 8627SOL    HW226781   2.554   0.545   6.882
 8628SOL     OW26782   6.182   1.565   0.685
 8628SOL    HW126783   6.230   1.505   0.621
 8628SOL    HW226784   6.122   1.626   0.634
 8629SOL     OW26785   1.549   5.147   3.610
 8629SOL    HW126786   1.627   5.184   3.559
 8629SOL    HW226787   1.572   5.056   3.645
 8630SOL     OW26788   5.434   4.737   4.034
 8630SOL    HW126789   5.354   4.771   3.985
 8630SOL    HW226790   5.448   4.791   4.117
 8631SOL     OW26791   4.479   5.986   4.058
 8631SOL    HW126792   4.454   5.979   3.961
 8631SOL    HW226793   4.470   5.896   4.101
 8632SOL     OW26794   3.838   0.480   3.537
 8632SOL    HW126795   3.878   0.453   3.625
 8632SOL    HW226796   3.889   0.436   3.463
 8633SOL     OW26797   6.623   6.966   3.294
 8633SOL    HW126798   6.642   6.896   3.364
 8633SOL    HW226799   6.606   6.921   3.207
 8634SOL     OW26800   6.470   5.996   1.715
 8634SOL    HW126801   6.534   5.932   1.673
 8634SOL    HW226802   6.456   6.074   1.654
 8635SOL     OW26803   6.455   3.520   5.789
 8635SOL    HW126804   6.423   3.590   5.726
 8635SOL    HW226805   6.421   3.430   5.760
 8636SOL     OW26806   5.515   5.473   0.633
 8636SOL    HW126807   5.583   5.420   0.684
 8636SOL    HW226808   5.541   5.477   0.537
 8637SOL     OW26809   1.755   0.796   1.301
 8637SOL    HW126810   1.830   0.771   1.362
 8637SOL    HW226811   1.733   0.718   1.242
 8638SOL     OW26812   4.673   5.243   0.923
 8638SOL    HW126813   4.751   5.198   0.880
 8638SOL    HW226814   4.682   5.343   0.913
 8639SOL     OW26815   6.221   2.429   2.023
 8639SOL    HW126816   6.299   2.464   1.970
 8639SOL    HW226817   6.197   2.496   2.094
 8640SOL     OW26818   4.665   6.454   1.442
 8640SOL    HW126819   4.693   6.390   1.371
 8640SOL    HW226820   4.685   6.414   1.532
 8641SOL     OW26821   5.413   4.896   3.282
 8641SOL    HW126822   5.476   4.819   3.272
 8641SOL    HW226823   5.465   4.979   3.303
 8642SOL     OW26824   4.270   1.716   1.739
 8642SOL    HW126825   4.192   1.686   1.685
 8642SOL    HW226826   4.240   1.731   1.834
 8643SOL     OW26827   4.501   0.201   6.956
 8643SOL    HW126828   4.471   0.220   6.862
 8643SOL    HW226829   4.581   0.140   6.953
 8644SOL     OW26830   6.832   3.665   5.557
 8644SOL    HW126831   6.754   3.718   5.525
 8644SOL    HW226832   6.914   3.723   5.558
 8645SOL     OW26833   6.254   4.133   1.888
 8645SOL    HW126834   6.353   4.142   1.901
 8645SOL    HW226835   6.234   4.044   1.846
 8646SOL     OW26836   5.498   6.554   0.900
 8646SOL    HW126837   5.510   6.616   0.823
 8646SOL    HW226838   5.401   6.538   0.916
 8647SOL     OW26839   4.265   4.879   2.157
 8647SOL    HW126840   4.321   4.800   2.181
 8647SOL    HW226841   4.251   4.882   2.058
 8648SOL     OW26842   5.921   1.709   4.528
 8648SOL    HW126843   5.942   1.611   4.526
 8648SOL    HW226844   5.985   1.758   4.469
 8649SOL     OW26845   6.856   4.910   5.894
 8649SOL    HW126846   6.910   4.973   5.948
 8649SOL    HW226847   6.832   4.830   5.950
 8650SOL     OW26848   7.015   4.992   1.910
 8650SOL    HW126849   0.051   4.999   1.829
 8650SOL    HW226850   6.949   4.918   1.896
 8651SOL     OW26851   3.620   2.989   1.135
 8651SOL    HW126852   3.650   2.926   1.063
 8651SOL    HW226853   3.678   3.070   1.134
 8652SOL     OW26854   1.010   3.126   3.611
 8652SOL    HW126855   0.975   3.099   3.521
 8652SOL    HW226856   1.110   3.121   3.612
 8653SOL     OW26857   5.234   3.085   6.657
 8653SOL    HW126858   5.292   3.097   6.577
 8653SOL    HW226859   5.232   3.169   6.710
 8654SOL     OW26860   0.693   5.311   1.797
 8654SOL    HW126861   0.771   5.249   1.796
 8654SOL    HW226862   0.627   5.283   1.728
 8655SOL     OW26863   6.512   6.356   2.853
 8655SOL    HW126864   6.490   6.418   2.928
 8655SOL    HW226865   6.433   6.350   2.791
 8656SOL     OW26866   6.821   2.111   1.159
 8656SOL    HW126867   6.808   2.028   1.212
 8656SOL    HW226868   6.785   2.098   1.066
 8657SOL     OW26869   2.461   4.325   0.298
 8657SOL    HW126870   2.515   4.241   0.306
 8657SOL    HW226871   2.364   4.302   0.298
 8658SOL     OW26872   0.563   5.801   6.336
 8658SOL    HW126873   0.467   5.796   6.363
 8658SOL    HW226874   0.572   5.775   6.240
 8659SOL     OW26875   4.240   0.134   3.773
 8659SOL    HW126876   4.193   0.214   3.810
 8659SOL    HW226877   4.173   0.070   3.736
 8660SOL     OW26878   5.562   4.814   0.348
 8660SOL    HW126879   5.601   4.807   0.256
 8660SOL    HW226880   5.634   4.842   0.412
 8661SOL     OW26881   6.531   3.345   1.580
 8661SOL    HW126882   6.458   3.381   1.639
 8661SOL    HW226883   6.516   3.248   1.563
 8662SOL     OW26884   0.614   0.318   0.747
 8662SOL    HW126885   0.705   0.287   0.720
 8662SOL    HW226886   0.612   0.418   0.749
 8663SOL     OW26887   1.612   5.627   1.123
 8663SOL    HW126888   1.666   5.658   1.045
 8663SOL    HW226889   1.591   5.530   1.113
 8664SOL     OW26890   4.601   5.157   1.841
 8664SOL    HW126891   4.505   5.181   1.858
 8664SOL    HW226892   4.608   5.060   1.819
 8665SOL     OW26893   5.031   5.722   4.612
 8665SOL    HW126894   5.122   5.689   4.636
 8665SOL    HW226895   4.986   5.658   4.550
 8666SOL     OW26896   6.036   4.169   4.206
 8666SOL    HW126897   5.950   4.219   4.216
 8666SOL    HW226898   6.075   4.151   4.297
 8667SOL     OW26899   5.545   2.803   3.266
 8667SOL    HW126900   5.522   2.721   3.318
 8667SOL    HW226901   5.604   2.862   3.321
 8668SOL     OW26902   3.267   0.955   4.342
 8668SOL    HW126903   3.229   0.985   4.430
 8668SOL    HW226904   3.291   1.035   4.287
 8669SOL     OW26905   4.326   6.737   5.550
 8669SOL    HW126906   4.368   6.824   5.523
 8669SOL    HW226907   4.231   6.753   5.577
 8670SOL     OW26908   3.975   4.832   2.912
 8670SOL    HW126909   4.022   4.796   2.831
 8670SOL    HW226910   4.036   4.827   2.991
 8671SOL     OW26911   6.341   6.342   2.652
 8671SOL    HW126912   6.277   6.265   2.656
 8671SOL    HW226913   6.293   6.423   2.619
 8672SOL     OW26914   3.747   5.114   5.515
 8672SOL    HW126915   3.784   5.024   5.490
 8672SOL    HW226916   3.822   5.177   5.532
 8673SOL     OW26917   5.063   2.141   0.313
 8673SOL    HW126918   4.968   2.152   0.284
 8673SOL    HW226919   5.120   2.209   0.268
 8674SOL     OW26920   0.850   0.094   2.736
 8674SOL    HW126921   0.785   0.153   2.688
 8674SOL    HW226922   0.889   0.028   2.671
 8675SOL     OW26923   2.406   2.717   2.421
 8675SOL    HW126924   2.362   2.707   2.332
 8675SOL    HW226925   2.426   2.813   2.438
 8676SOL     OW26926   4.094   0.607   4.027
 8676SOL    HW126927   4.184   0.645   4.003
 8676SOL    HW226928   4.028   0.681   4.039
 8677SOL     OW26929   2.218   4.369   5.346
 8677SOL    HW126930   2.311   4.374   5.309
 8677SOL    HW226931   2.199   4.452   5.397
 8678SOL     OW26932   1.534   0.863   6.534
 8678SOL    HW126933   1.592   0.922   6.477
 8678SOL    HW226934   1.521   0.775   6.489
 8679SOL     OW26935   6.315   2.039   4.614
 8679SOL    HW126936   6.314   2.013   4.518
 8679SOL    HW226937   6.409   2.057   4.643
 8680SOL     OW26938   0.818   4.042   0.812
 8680SOL    HW126939   0.808   4.022   0.909
 8680SOL    HW226940   0.792   3.961   0.759
 8681SOL     OW26941   4.051   3.536   1.227
 8681SOL    HW126942   4.128   3.541   1.291
 8681SOL    HW226943   4.015   3.443   1.225
 8682SOL     OW26944   1.840   5.567   2.685
 8682SOL    HW126945   1.829   5.499   2.757
 8682SOL    HW226946   1.820   5.525   2.596
 8683SOL     OW26947   5.401   3.080   6.434
 8683SOL    HW126948   5.479   3.040   6.482
 8683SOL    HW226949   5.434   3.145   6.366
 8684SOL     OW26950   6.719   2.826   4.197
 8684SOL    HW126951   6.724   2.808   4.099
 8684SOL    HW226952   6.807   2.807   4.239
 8685SOL     OW26953   0.472   1.316   5.189
 8685SOL    HW126954   0.514   1.397   5.230
 8685SOL    HW226955   0.542   1.262   5.143
 8686SOL     OW26956   6.614   1.862   3.692
 8686SOL    HW126957   6.675   1.800   3.643
 8686SOL    HW226958   6.550   1.904   3.627
 8687SOL     OW26959   3.713   0.821   2.821
 8687SOL    HW126960   3.805   0.837   2.855
 8687SOL    HW226961   3.649   0.883   2.866
 8688SOL     OW26962   1.460   0.342   2.016
 8688SOL    HW126963   1.493   0.317   1.925
 8688SOL    HW226964   1.361   0.355   2.013
 8689SOL     OW26965   4.531   5.522   0.706
 8689SOL    HW126966   4.579   5.554   0.624
 8689SOL    HW226967   4.489   5.433   0.687
 8690SOL     OW26968   1.353   0.614   2.755
 8690SOL    HW126969   1.328   0.684   2.822
 8690SOL    HW226970   1.297   0.532   2.771
 8691SOL     OW26971   5.649   1.653   0.772
 8691SOL    HW126972   5.709   1.663   0.693
 8691SOL    HW226973   5.687   1.703   0.850
 8692SOL     OW26974   1.646   1.591   3.866
 8692SOL    HW126975   1.645   1.664   3.797
 8692SOL    HW226976   1.694   1.623   3.948
 8693SOL     OW26977   5.140   1.993   6.873
 8693SOL    HW126978   5.219   1.957   6.923
 8693SOL    HW226979   5.157   1.987   6.775
 8694SOL     OW26980   3.842   6.542   0.003
 8694SOL    HW126981   3.757   6.492   7.012
 8694SOL    HW226982   3.854   6.561   0.100
 8695SOL     OW26983   4.481   4.314   5.256
 8695SOL    HW126984   4.541   4.257   5.200
 8695SOL    HW226985   4.439   4.384   5.198
 8696SOL     OW26986   1.868   5.013   1.024
 8696SOL    HW126987   1.875   4.978   0.931
 8696SOL    HW226988   1.854   5.112   1.022
 8697SOL     OW26989   4.948   5.051   6.577
 8697SOL    HW126990   5.010   5.012   6.645
 8697SOL    HW226991   4.855   5.054   6.614
 8698SOL     OW26992   6.208   6.091   4.480
 8698SOL    HW126993   6.157   6.039   4.411
 8698SOL    HW226994   6.168   6.181   4.491
 8699SOL     OW26995   1.318   1.376   5.446
 8699SOL    HW126996   1.325   1.338   5.354
 8699SOL    HW226997   1.222   1.394   5.467
 8700SOL     OW26998   2.697   2.265   5.569
 8700SOL    HW126999   2.599   2.283   5.562
 8700SOL    HW227000   2.715   2.210   5.650
 8701SOL     OW27001   1.282   2.245   3.881
 8701SOL    HW127002   1.299   2.209   3.790
 8701SOL    HW227003   1.210   2.315   3.877
 8702SOL     OW27004   5.138   5.417   0.222
 8702SOL    HW127005   5.198   5.482   0.269
 8702SOL    HW227006   5.179   5.392   0.134
 8703SOL     OW27007   0.911   5.245   1.152
 8703SOL    HW127008   0.829   5.189   1.168
 8703SOL    HW227009   0.990   5.185   1.140
 8704SOL     OW27010   0.389   4.232   1.936
 8704SOL    HW127011   0.296   4.262   1.913
 8704SOL    HW227012   0.409   4.146   1.890
 8705SOL     OW27013   4.796   6.438   4.670
 8705SOL    HW127014   4.818   6.509   4.603
 8705SOL    HW227015   4.841   6.459   4.757
 8706SOL     OW27016   5.012   1.748   6.026
 8706SOL    HW127017   5.052   1.839   6.010
 8706SOL    HW227018   5.069   1.679   5.981
 8707SOL     OW27019   4.902   2.008   5.806
 8707SOL    HW127020   4.835   2.070   5.847
 8707SOL    HW227021   4.976   1.991   5.871
 8708SOL     OW27022   3.853   1.772   0.749
 8708SOL    HW127023   3.847   1.675   0.772
 8708SOL    HW227024   3.858   1.826   0.833
 8709SOL     OW27025   6.228   3.508   0.839
 8709SOL    HW127026   6.291   3.434   0.815
 8709SOL    HW227027   6.279   3.583   0.881
 8710SOL     OW27028   6.702   3.366   3.626
 8710SOL    HW127029   6.711   3.284   3.571
 8710SOL    HW227030   6.679   3.341   3.721
 8711SOL     OW27031   0.829   1.986   3.945
 8711SOL    HW127032   0.729   1.981   3.946
 8711SOL    HW227033   0.859   2.053   3.877
 8712SOL     OW27034   3.654   0.965   6.372
 8712SOL    HW127035   3.683   1.015   6.291
 8712SOL    HW227036   3.704   0.878   6.377
 8713SOL     OW27037   5.639   4.871   2.789
 8713SOL    HW127038   5.615   4.968   2.793
 8713SOL    HW227039   5.562   4.817   2.823
 8714SOL     OW27040   2.088   1.611   4.373
 8714SOL    HW127041   2.070   1.647   4.464
 8714SOL    HW227042   2.057   1.516   4.368
 8715SOL     OW27043   5.961   1.138   2.129
 8715SOL    HW127044   6.056   1.153   2.104
 8715SOL    HW227045   5.904   1.210   2.090
 8716SOL     OW27046   0.796   1.542   1.948
 8716SOL    HW127047   0.767   1.587   2.032
 8716SOL    HW227048   0.810   1.444   1.965
 8717SOL     OW27049   4.427   3.247   0.482
 8717SOL    HW127050   4.364   3.253   0.405
 8717SOL    HW227051   4.489   3.326   0.480
 8718SOL     OW27052   0.299   2.960   5.908
 8718SOL    HW127053   0.211   2.966   5.954
 8718SOL    HW227054   0.301   3.026   5.833
 8719SOL     OW27055   6.599   0.874   5.693
 8719SOL    HW127056   6.631   0.783   5.718
 8719SOL    HW227057   6.514   0.894   5.743
 8720SOL     OW27058   4.502   4.037   5.983
 8720SOL    HW127059   4.468   4.006   5.894
 8720SOL    HW227060   4.574   3.974   6.014
 8721SOL     OW27061   7.010   1.108   4.611
 8721SOL    HW127062   6.970   1.019   4.586
 8721SOL    HW227063   0.083   1.110   4.583
 8722SOL     OW27064   3.063   2.947   0.723
 8722SOL    HW127065   3.041   2.885   0.648
 8722SOL    HW227066   3.125   2.902   0.787
 8723SOL     OW27067   0.231   5.190   0.369
 8723SOL    HW127068   0.136   5.177   0.396
 8723SOL    HW227069   0.273   5.100   0.354
 8724SOL     OW27070   5.600   6.149   6.618
 8724SOL    HW127071   5.576   6.062   6.661
 8724SOL    HW227072   5.519   6.185   6.571
 8725SOL     OW27073   2.014   6.254   1.334
 8725SOL    HW127074   2.038   6.196   1.412
 8725SOL    HW227075   2.096   6.298   1.298
 8726SOL     OW27076   6.086   0.025   1.205
 8726SOL    HW127077   6.152   0.088   1.162
 8726SOL    HW227078   6.087   0.039   1.304
 8727SOL     OW27079   6.197   6.218   1.443
 8727SOL    HW127080   6.170   6.177   1.356
 8727SOL    HW227081   6.143   6.301   1.458
 8728SOL     OW27082   2.370   6.684   5.476
 8728SOL    HW127083   2.425   6.681   5.560
 8728SOL    HW227084   2.340   6.777   5.459
 8729SOL     OW27085   5.625   6.420   4.600
 8729SOL    HW127086   5.692   6.491   4.584
 8729SOL    HW227087   5.544   6.437   4.543
 8730SOL     OW27088   6.773   6.577   1.028
 8730SOL    HW127089   6.770   6.673   1.055
 8730SOL    HW227090   6.864   6.540   1.047
 8731SOL     OW27091   0.738   1.856   2.553
 8731SOL    HW127092   0.723   1.779   2.616
 8731SOL    HW227093   0.783   1.931   2.601
 8732SOL     OW27094   6.252   5.585   1.882
 8732SOL    HW127095   6.246   5.685   1.886
 8732SOL    HW227096   6.161   5.546   1.886
 8733SOL     OW27097   6.918   6.876   1.700
 8733SOL    HW127098   6.987   6.851   1.768
 8733SOL    HW227099   6.936   6.828   1.614
 8734SOL     OW27100   0.053   5.571   0.355
 8734SOL    HW127101   0.061   5.670   0.355
 8734SOL    HW227102   0.133   5.531   0.402
 8735SOL     OW27103   6.913   2.498   6.611
 8735SOL    HW127104   6.996   2.466   6.657
 8735SOL    HW227105   6.878   2.579   6.657
 8736SOL     OW27106   0.306   4.916   6.069
 8736SOL    HW127107   0.362   4.944   6.147
 8736SOL    HW227108   0.365   4.875   5.999
 8737SOL     OW27109   3.770   6.189   6.645
 8737SOL    HW127110   3.744   6.229   6.557
 8737SOL    HW227111   3.845   6.241   6.684
 8738SOL     OW27112   1.140   3.621   4.921
 8738SOL    HW127113   1.066   3.560   4.951
 8738SOL    HW227114   1.226   3.593   4.965
 8739SOL     OW27115   1.233   3.189   5.537
 8739SOL    HW127116   1.305   3.120   5.546
 8739SOL    HW227117   1.276   3.279   5.524
 8740SOL     OW27118   1.308   6.533   1.332
 8740SOL    HW127119   1.257   6.616   1.355
 8740SOL    HW227120   1.257   6.453   1.364
 8741SOL     OW27121   1.503   3.591   2.038
 8741SOL    HW127122   1.517   3.690   2.050
 8741SOL    HW227123   1.490   3.572   1.940
 8742SOL     OW27124   4.894   6.315   2.146
 8742SOL    HW127125   4.806   6.350   2.181
 8742SOL    HW227126   4.877   6.253   2.070
 8743SOL     OW27127   2.326   4.828   3.162
 8743SOL    HW127128   2.350   4.768   3.086
 8743SOL    HW227129   2.404   4.834   3.225
 8744SOL     OW27130   3.312   3.575   5.641
 8744SOL    HW127131   3.385   3.530   5.590
 8744SOL    HW227132   3.275   3.651   5.586
 8745SOL     OW27133   6.364   1.766   0.084
 8745SOL    HW127134   6.274   1.731   0.055
 8745SOL    HW227135   6.351   1.851   0.135
 8746SOL     OW27136   5.206   4.200   5.105
 8746SOL    HW127137   5.247   4.289   5.124
 8746SOL    HW227138   5.137   4.179   5.175
 8747SOL     OW27139   0.899   2.323   4.055
 8747SOL    HW127140   0.897   2.263   3.975
 8747SOL    HW227141   0.889   2.268   4.138
 8748SOL     OW27142   2.936   6.941   0.220
 8748SOL    HW127143   3.032   6.967   0.205
 8748SOL    HW227144   2.895   6.913   0.134
 8749SOL     OW27145   4.297   1.658   3.957
 8749SOL    HW127146   4.295   1.581   4.022
 8749SOL    HW227147   4.306   1.744   4.007
 8750SOL     OW27148   1.959   0.558   5.320
 8750SOL    HW127149   1.873   0.520   5.285
 8750SOL    HW227150   2.035   0.529   5.261
 8751SOL     OW27151   2.388   0.454   3.189
 8751SOL    HW127152   2.405   0.551   3.205
 8751SOL    HW227153   2.289   0.437   3.189
 8752SOL     OW27154   2.146   1.924   6.082
 8752SOL    HW127155   2.076   1.889   6.020
 8752SOL    HW227156   2.102   1.973   6.157
 8753SOL     OW27157   6.134   1.251   4.821
 8753SOL    HW127158   6.073   1.232   4.743
 8753SOL    HW227159   6.113   1.188   4.896
 8754SOL     OW27160   2.044   1.069   4.996
 8754SOL    HW127161   1.944   1.074   5.000
 8754SOL    HW227162   2.071   1.012   4.919
 8755SOL     OW27163   2.325   1.678   1.038
 8755SOL    HW127164   2.272   1.743   1.093
 8755SOL    HW227165   2.301   1.689   0.942
 8756SOL     OW27166   2.030   3.839   4.057
 8756SOL    HW127167   2.009   3.904   4.130
 8756SOL    HW227168   2.027   3.887   3.969
 8757SOL     OW27169   3.960   6.068   4.216
 8757SOL    HW127170   4.001   6.086   4.306
 8757SOL    HW227171   3.867   6.106   4.214
 8758SOL     OW27172   5.210   6.404   2.079
 8758SOL    HW127173   5.127   6.454   2.105
 8758SOL    HW227174   5.290   6.460   2.101
 8759SOL     OW27175   5.314   1.567   5.580
 8759SOL    HW127176   5.377   1.537   5.509
 8759SOL    HW227177   5.363   1.620   5.649
 8760SOL     OW27178   1.419   3.171   3.818
 8760SOL    HW127179   1.468   3.254   3.791
 8760SOL    HW227180   1.357   3.144   3.744
 8761SOL     OW27181   5.517   6.161   1.243
 8761SOL    HW127182   5.612   6.182   1.269
 8761SOL    HW227183   5.470   6.119   1.320
 8762SOL     OW27184   0.682   3.701   0.131
 8762SOL    HW127185   0.639   3.629   0.076
 8762SOL    HW227186   0.612   3.766   0.161
 8763SOL     OW27187   0.021   6.090   6.289
 8763SOL    HW127188   7.004   6.180   6.271
 8763SOL    HW227189   6.995   6.047   6.366
 8764SOL     OW27190   3.829   1.893   5.344
 8764SOL    HW127191   3.802   1.989   5.344
 8764SOL    HW227192   3.768   1.841   5.405
 8765SOL     OW27193   6.690   0.278   4.831
 8765SOL    HW127194   6.618   0.343   4.855
 8765SOL    HW227195   6.651   0.187   4.820
 8766SOL     OW27196   2.272   4.406   2.431
 8766SOL    HW127197   2.188   4.363   2.398
 8766SOL    HW227198   2.334   4.421   2.355
 8767SOL     OW27199   4.615   1.533   4.949
 8767SOL    HW127200   4.627   1.558   4.853
 8767SOL    HW227201   4.585   1.613   5.001
 8768SOL     OW27202   1.067   3.933   0.054
 8768SOL    HW127203   1.096   3.910   6.984
 8768SOL    HW227204   1.119   4.012   0.087
 8769SOL     OW27205   1.651   0.717   5.202
 8769SOL    HW127206   1.551   0.718   5.213
 8769SOL    HW227207   1.684   0.622   5.205
 8770SOL     OW27208   5.680   1.651   2.915
 8770SOL    HW127209   5.743   1.653   2.838
 8770SOL    HW227210   5.709   1.581   2.980
 8771SOL     OW27211   2.354   2.619   5.377
 8771SOL    HW127212   2.265   2.660   5.356
 8771SOL    HW227213   2.426   2.670   5.330
 8772SOL     OW27214   5.930   6.106   6.466
 8772SOL    HW127215   6.009   6.105   6.404
 8772SOL    HW227216   5.943   6.036   6.537
 8773SOL     OW27217   3.052   1.922   2.798
 8773SOL    HW127218   3.031   1.913   2.895
 8773SOL    HW227219   3.124   1.856   2.773
 8774SOL     OW27220   1.305   0.797   0.544
 8774SOL    HW127221   1.248   0.833   0.470
 8774SOL    HW227222   1.249   0.740   0.605
 8775SOL     OW27223   6.722   6.381   3.973
 8775SOL    HW127224   6.649   6.449   3.974
 8775SOL    HW227225   6.774   6.388   4.059
 8776SOL     OW27226   3.412   3.905   4.558
 8776SOL    HW127227   3.424   3.830   4.623
 8776SOL    HW227228   3.501   3.946   4.539
 8777SOL     OW27229   6.504   5.671   2.407
 8777SOL    HW127230   6.538   5.579   2.390
 8777SOL    HW227231   6.513   5.726   2.323
 8778SOL     OW27232   0.944   2.324   3.008
 8778SOL    HW127233   1.011   2.395   3.027
 8778SOL    HW227234   0.979   2.235   3.038
 8779SOL     OW27235   1.602   4.625   1.299
 8779SOL    HW127236   1.523   4.598   1.354
 8779SOL    HW227237   1.587   4.596   1.204
 8780SOL     OW27238   2.192   6.476   4.670
 8780SOL    HW127239   2.214   6.432   4.583
 8780SOL    HW227240   2.255   6.443   4.740
 8781SOL     OW27241   0.671   2.398   3.062
 8781SOL    HW127242   0.765   2.382   3.033
 8781SOL    HW227243   0.627   2.463   3.000
 8782SOL     OW27244   4.899   1.581   3.165
 8782SOL    HW127245   4.833   1.649   3.197
 8782SOL    HW227246   4.983   1.627   3.135
 8783SOL     OW27247   5.983   2.658   6.345
 8783SOL    HW127248   5.947   2.708   6.266
 8783SOL    HW227249   5.908   2.631   6.405
 8784SOL     OW27250   5.226   4.165   6.050
 8784SOL    HW127251   5.131   4.195   6.049
 8784SOL    HW227252   5.259   4.160   6.144
 8785SOL     OW27253   5.085   4.342   6.452
 8785SOL    HW127254   5.180   4.329   6.479
 8785SOL    HW227255   5.071   4.436   6.422
 8786SOL     OW27256   1.081   6.379   0.683
 8786SOL    HW127257   1.090   6.477   0.702
 8786SOL    HW227258   1.009   6.341   0.741
 8787SOL     OW27259   1.407   2.778   0.145
 8787SOL    HW127260   1.399   2.717   0.066
 8787SOL    HW227261   1.316   2.800   0.179
 8788SOL     OW27262   1.317   1.749   5.001
 8788SOL    HW127263   1.368   1.748   5.087
 8788SOL    HW227264   1.234   1.695   5.010
 8789SOL     OW27265   0.686   0.711   0.257
 8789SOL    HW127266   0.634   0.792   0.283
 8789SOL    HW227267   0.779   0.718   0.294
 8790SOL     OW27268   4.362   1.607   0.067
 8790SOL    HW127269   4.360   1.520   0.017
 8790SOL    HW227270   4.439   1.607   0.130
 8791SOL     OW27271   5.015   5.866   5.300
 8791SOL    HW127272   5.074   5.850   5.221
 8791SOL    HW227273   4.943   5.930   5.275
 8792SOL     OW27274   5.359   6.818   2.838
 8792SOL    HW127275   5.271   6.782   2.808
 8792SOL    HW227276   5.430   6.795   2.771
 8793SOL     OW27277   1.295   4.696   3.253
 8793SOL    HW127278   1.334   4.738   3.171
 8793SOL    HW227279   1.218   4.751   3.285
 8794SOL     OW27280   2.676   5.843   2.863
 8794SOL    HW127281   2.719   5.755   2.886
 8794SOL    HW227282   2.595   5.827   2.807
 8795SOL     OW27283   2.485   5.686   5.169
 8795SOL    HW127284   2.581   5.659   5.166
 8795SOL    HW227285   2.476   5.784   5.151
 8796SOL     OW27286   6.159   2.882   5.741
 8796SOL    HW127287   6.170   2.836   5.828
 8796SOL    HW227288   6.099   2.961   5.752
 8797SOL     OW27289   1.154   6.194   6.820
 8797SOL    HW127290   1.246   6.163   6.843
 8797SOL    HW227291   1.139   6.285   6.857
 8798SOL     OW27292   3.394   3.279   5.775
 8798SOL    HW127293   3.395   3.199   5.716
 8798SOL    HW227294   3.473   3.337   5.754
 8799SOL     OW27295   3.735   0.211   3.225
 8799SOL    HW127296   3.661   0.158   3.185
 8799SOL    HW227297   3.793   0.249   3.153
 8800SOL     OW27298   4.436   5.275   0.648
 8800SOL    HW127299   4.530   5.278   0.615
 8800SOL    HW227300   4.404   5.180   0.651
 8801SOL     OW27301   3.185   6.600   5.531
 8801SOL    HW127302   3.198   6.506   5.498
 8801SOL    HW227303   3.204   6.664   5.457
 8802SOL     OW27304   2.102   6.849   1.949
 8802SOL    HW127305   2.093   6.942   1.911
 8802SOL    HW227306   2.071   6.849   2.044
 8803SOL     OW27307   4.080   6.178   1.134
 8803SOL    HW127308   4.060   6.097   1.189
 8803SOL    HW227309   4.046   6.259   1.181
 8804SOL     OW27310   3.142   1.077   1.042
 8804SOL    HW127311   3.178   1.168   1.063
 8804SOL    HW227312   3.185   1.043   0.959
 8805SOL     OW27313   0.266   0.270   3.140
 8805SOL    HW127314   0.290   0.324   3.059
 8805SOL    HW227315   0.350   0.238   3.185
 8806SOL     OW27316   1.909   4.892   0.319
 8806SOL    HW127317   1.972   4.910   0.395
 8806SOL    HW227318   1.816   4.880   0.355
 8807SOL     OW27319   1.945   6.060   6.524
 8807SOL    HW127320   1.905   6.039   6.614
 8807SOL    HW227321   1.902   6.142   6.487
 8808SOL     OW27322   5.856   2.189   1.136
 8808SOL    HW127323   5.851   2.271   1.077
 8808SOL    HW227324   5.940   2.139   1.115
 8809SOL     OW27325   6.181   4.310   0.899
 8809SOL    HW127326   6.114   4.384   0.900
 8809SOL    HW227327   6.267   4.343   0.861
 8810SOL     OW27328   5.074   1.471   4.050
 8810SOL    HW127329   5.171   1.494   4.048
 8810SOL    HW227330   5.047   1.450   4.144
 8811SOL     OW27331   1.340   1.747   3.799
 8811SOL    HW127332   1.300   1.825   3.846
 8811SOL    HW227333   1.292   1.663   3.828
 8812SOL     OW27334   2.135   1.052   0.289
 8812SOL    HW127335   2.177   0.969   0.328
 8812SOL    HW227336   2.120   1.119   0.362
 8813SOL     OW27337   1.202   5.912   0.719
 8813SOL    HW127338   1.175   5.944   0.628
 8813SOL    HW227339   1.199   5.989   0.783
 8814SOL     OW27340   5.113   6.189   6.738
 8814SOL    HW127341   5.126   6.289   6.734
 8814SOL    HW227342   5.167   6.146   6.665
 8815SOL     OW27343   6.251   5.816   3.257
 8815SOL    HW127344   6.241   5.840   3.354
 8815SOL    HW227345   6.308   5.734   3.249
 8816SOL     OW27346   0.906   5.466   1.906
 8816SOL    HW127347   0.932   5.447   2.001
 8816SOL    HW227348   0.813   5.432   1.890
 8817SOL     OW27349   2.158   4.595   5.502
 8817SOL    HW127350   2.179   4.677   5.449
 8817SOL    HW227351   2.110   4.622   5.586
 8818SOL     OW27352   7.020   4.554   4.927
 8818SOL    HW127353   0.029   4.462   4.948
 8818SOL    HW227354   6.997   4.560   4.830
 8819SOL     OW27355   6.107   0.172   4.257
 8819SOL    HW127356   6.109   0.185   4.357
 8819SOL    HW227357   6.194   0.136   4.226
 8820SOL     OW27358   0.871   3.086   3.874
 8820SOL    HW127359   0.922   3.103   3.790
 8820SOL    HW227360   0.919   3.018   3.929
 8821SOL     OW27361   1.561   6.699   6.253
 8821SOL    HW127362   1.529   6.629   6.316
 8821SOL    HW227363   1.628   6.758   6.299
 8822SOL     OW27364   0.660   1.855   3.478
 8822SOL    HW127365   0.602   1.777   3.455
 8822SOL    HW227366   0.668   1.915   3.398
 8823SOL     OW27367   2.432   4.676   1.701
 8823SOL    HW127368   2.423   4.774   1.680
 8823SOL    HW227369   2.411   4.622   1.620
 8824SOL     OW27370   4.585   4.029   1.116
 8824SOL    HW127371   4.641   4.010   1.197
 8824SOL    HW227372   4.489   4.020   1.139
 8825SOL     OW27373   1.860   2.518   1.062
 8825SOL    HW127374   1.840   2.574   1.143
 8825SOL    HW227375   1.951   2.540   1.028
 8826SOL     OW27376   5.385   0.802   0.227
 8826SOL    HW127377   5.393   0.887   0.280
 8826SOL    HW227378   5.468   0.747   0.240
 8827SOL     OW27379   6.848   1.315   3.204
 8827SOL    HW127380   6.940   1.342   3.176
 8827SOL    HW227381   6.809   1.254   3.135
 8828SOL     OW27382   1.455   6.320   3.061
 8828SOL    HW127383   1.499   6.377   2.992
 8828SOL    HW227384   1.413   6.379   3.131
 8829SOL     OW27385   1.297   1.410   0.684
 8829SOL    HW127386   1.224   1.402   0.753
 8829SOL    HW227387   1.386   1.410   0.730
 8830SOL     OW27388   1.346   1.388   0.204
 8830SOL    HW127389   1.302   1.434   0.280
 8830SOL    HW227390   1.294   1.403   0.120
 8831SOL     OW27391   0.022   1.283   1.942
 8831SOL    HW127392   0.084   1.339   1.997
 8831SOL    HW227393   6.951   1.311   1.958
 8832SOL     OW27394   6.959   0.814   1.909
 8832SOL    HW127395   0.024   0.772   1.932
 8832SOL    HW227396   6.913   0.844   1.993
 8833SOL     OW27397   1.380   5.050   2.662
 8833SOL    HW127398   1.333   5.040   2.750
 8833SOL    HW227399   1.337   5.125   2.611
 8834SOL     OW27400   5.969   3.970   3.899
 8834SOL    HW127401   5.921   4.007   3.979
 8834SOL    HW227402   5.972   4.040   3.827
 8835SOL     OW27403   0.680   0.922   6.853
 8835SOL    HW127404   0.779   0.915   6.842
 8835SOL    HW227405   0.640   0.830   6.854
 8836SOL     OW27406   5.053   1.962   1.832
 8836SOL    HW127407   5.110   1.984   1.752
 8836SOL    HW227408   5.111   1.923   1.904
 8837SOL     OW27409   0.918   2.686   2.131
 8837SOL    HW127410   0.949   2.776   2.160
 8837SOL    HW227411   0.921   2.681   2.031
 8838SOL     OW27412   2.310   6.098   3.190
 8838SOL    HW127413   2.409   6.114   3.182
 8838SOL    HW227414   2.272   6.159   3.260
 8839SOL     OW27415   5.640   6.089   4.123
 8839SOL    HW127416   5.570   6.082   4.194
 8839SOL    HW227417   5.703   6.012   4.129
 8840SOL     OW27418   4.667   0.781   2.090
 8840SOL    HW127419   4.683   0.783   2.188
 8840SOL    HW227420   4.676   0.873   2.052
 8841SOL     OW27421   2.940   7.020   4.133
 8841SOL    HW127422   2.921   0.047   4.048
 8841SOL    HW227423   2.973   6.929   4.111
 8842SOL     OW27424   1.379   2.641   1.850
 8842SOL    HW127425   1.449   2.708   1.877
 8842SOL    HW227426   1.331   2.673   1.769
 8843SOL     OW27427   0.231   3.020   4.471
 8843SOL    HW127428   0.298   3.080   4.515
 8843SOL    HW227429   0.257   3.005   4.376
 8844SOL     OW27430   5.875   1.485   6.262
 8844SOL    HW127431   5.922   1.411   6.213
 8844SOL    HW227432   5.911   1.573   6.231
 8845SOL     OW27433   5.348   3.380   6.889
 8845SOL    HW127434   5.327   3.303   6.949
 8845SOL    HW227435   5.445   3.381   6.868
 8846SOL     OW27436   3.145   4.897   3.426
 8846SOL    HW127437   3.124   4.812   3.377
 8846SOL    HW227438   3.183   4.875   3.516
 8847SOL     OW27439   1.241   0.885   2.873
 8847SOL    HW127440   1.205   0.892   2.780
 8847SOL    HW227441   1.165   0.889   2.938
 8848SOL     OW27442   1.114   0.923   3.530
 8848SOL    HW127443   1.024   0.935   3.572
 8848SOL    HW227444   1.114   0.837   3.477
 8849SOL     OW27445   2.637   6.823   1.468
 8849SOL    HW127446   2.702   6.819   1.392
 8849SOL    HW227447   2.686   6.824   1.555
 8850SOL     OW27448   2.729   2.616   0.007
 8850SOL    HW127449   2.651   2.658   6.983
 8850SOL    HW227450   2.708   2.520   0.026
 8851SOL     OW27451   1.850   3.602   2.315
 8851SOL    HW127452   1.772   3.557   2.270
 8851SOL    HW227453   1.934   3.555   2.288
 8852SOL     OW27454   0.612   2.247   5.112
 8852SOL    HW127455   0.650   2.314   5.175
 8852SOL    HW227456   0.635   2.272   5.018
 8853SOL     OW27457   4.842   0.614   1.764
 8853SOL    HW127458   4.766   0.552   1.784
 8853SOL    HW227459   4.923   0.560   1.740
 8854SOL     OW27460   0.764   2.777   4.710
 8854SOL    HW127461   0.783   2.759   4.613
 8854SOL    HW227462   0.808   2.863   4.736
 8855SOL     OW27463   5.343   4.829   1.560
 8855SOL    HW127464   5.364   4.742   1.515
 8855SOL    HW227465   5.427   4.870   1.595
 8856SOL     OW27466   6.116   0.466   5.860
 8856SOL    HW127467   6.096   0.396   5.791
 8856SOL    HW227468   6.167   0.426   5.936
 8857SOL     OW27469   0.210   1.951   6.626
 8857SOL    HW127470   0.167   2.031   6.584
 8857SOL    HW227471   0.307   1.968   6.639
 8858SOL     OW27472   6.691   5.644   5.045
 8858SOL    HW127473   6.661   5.595   4.963
 8858SOL    HW227474   6.686   5.743   5.028
 8859SOL     OW27475   0.809   5.595   2.927
 8859SOL    HW127476   0.748   5.628   2.855
 8859SOL    HW227477   0.772   5.510   2.966
 8860SOL     OW27478   0.158   3.417   2.393
 8860SOL    HW127479   0.172   3.498   2.451
 8860SOL    HW227480   0.215   3.342   2.427
 8861SOL     OW27481   3.902   2.794   1.747
 8861SOL    HW127482   3.891   2.850   1.665
 8861SOL    HW227483   3.884   2.850   1.828
 8862SOL     OW27484   4.351   4.707   4.754
 8862SOL    HW127485   4.366   4.653   4.837
 8862SOL    HW227486   4.263   4.683   4.713
 8863SOL     OW27487   1.249   4.171   2.563
 8863SOL    HW127488   1.306   4.108   2.616
 8863SOL    HW227489   1.225   4.129   2.475
 8864SOL     OW27490   6.362   2.160   5.168
 8864SOL    HW127491   6.310   2.083   5.206
 8864SOL    HW227492   6.450   2.127   5.135
 8865SOL     OW27493   2.974   2.233   0.757
 8865SOL    HW127494   2.881   2.206   0.785
 8865SOL    HW227495   3.014   2.291   0.828
 8866SOL     OW27496   5.759   6.298   1.981
 8866SOL    HW127497   5.837   6.329   2.035
 8866SOL    HW227498   5.782   6.302   1.884
 8867SOL     OW27499   6.412   3.280   2.826
 8867SOL    HW127500   6.369   3.192   2.804
 8867SOL    HW227501   6.499   3.287   2.777
 8868SOL     OW27502   0.100   3.288   3.774
 8868SOL    HW127503   0.144   3.223   3.712
 8868SOL    HW227504   0.017   3.248   3.812
 8869SOL     OW27505   4.882   0.287   3.610
 8869SOL    HW127506   4.829   0.355   3.560
 8869SOL    HW227507   4.979   0.313   3.610
 8870SOL     OW27508   1.451   0.977   1.758
 8870SOL    HW127509   1.478   0.881   1.757
 8870SOL    HW227510   1.352   0.985   1.768
 8871SOL     OW27511   0.314   0.187   1.413
 8871SOL    HW127512   0.215   0.199   1.412
 8871SOL    HW227513   0.336   0.093   1.437
 8872SOL     OW27514   0.034   4.130   3.369
 8872SOL    HW127515   0.111   4.155   3.427
 8872SOL    HW227516   6.971   4.143   3.419
 8873SOL     OW27517   2.425   1.876   2.902
 8873SOL    HW127518   2.372   1.904   2.982
 8873SOL    HW227519   2.522   1.873   2.925
 8874SOL     OW27520   2.857   6.212   0.783
 8874SOL    HW127521   2.873   6.290   0.844
 8874SOL    HW227522   2.781   6.158   0.818
 8875SOL     OW27523   6.121   3.314   5.207
 8875SOL    HW127524   6.161   3.320   5.116
 8875SOL    HW227525   6.062   3.234   5.213
 8876SOL     OW27526   3.692   0.645   0.594
 8876SOL    HW127527   3.748   0.728   0.588
 8876SOL    HW227528   3.676   0.622   0.689
 8877SOL     OW27529   0.627   5.184   1.182
 8877SOL    HW127530   0.616   5.122   1.260
 8877SOL    HW227531   0.614   5.133   1.097
 8878SOL     OW27532   5.180   3.639   1.926
 8878SOL    HW127533   5.097   3.680   1.962
 8878SOL    HW227534   5.193   3.548   1.967
 8879SOL     OW27535   7.007   4.516   3.700
 8879SOL    HW127536   0.067   4.471   3.734
 8879SOL    HW227537   7.019   4.541   3.604
 8880SOL     OW27538   4.137   2.309   3.120
 8880SOL    HW127539   4.138   2.312   3.020
 8880SOL    HW227540   4.212   2.363   3.157
 8881SOL     OW27541   3.195   4.917   2.610
 8881SOL    HW127542   3.118   4.921   2.673
 8881SOL    HW227543   3.163   4.885   2.521
 8882SOL     OW27544   4.253   0.505   0.578
 8882SOL    HW127545   4.302   0.521   0.492
 8882SOL    HW227546   4.300   0.552   0.652
 8883SOL     OW27547   0.119   6.344   3.155
 8883SOL    HW127548   0.159   6.433   3.136
 8883SOL    HW227549   0.114   6.330   3.254
 8884SOL     OW27550   4.315   2.843   5.564
 8884SOL    HW127551   4.260   2.814   5.485
 8884SOL    HW227552   4.408   2.862   5.534
 8885SOL     OW27553   5.523   5.898   0.555
 8885SOL    HW127554   5.429   5.881   0.586
 8885SOL    HW227555   5.522   5.939   0.464
 8886SOL     OW27556   4.764   6.858   6.856
 8886SOL    HW127557   4.855   6.865   6.816
 8886SOL    HW227558   4.767   6.800   6.937
 8887SOL     OW27559   3.679   0.448   1.530
 8887SOL    HW127560   3.634   0.476   1.445
 8887SOL    HW227561   3.714   0.529   1.577
 8888SOL     OW27562   3.267   2.069   2.381
 8888SOL    HW127563   3.170   2.061   2.403
 8888SOL    HW227564   3.278   2.088   2.284
 8889SOL     OW27565   1.289   4.803   0.832
 8889SOL    HW127566   1.289   4.734   0.760
 8889SOL    HW227567   1.246   4.766   0.914
 8890SOL     OW27568   1.224   5.681   7.000
 8890SOL    HW127569   1.213   5.641   0.068
 8890SOL    HW227570   1.171   5.627   6.934
 8891SOL     OW27571   6.590   3.801   5.459
 8891SOL    HW127572   6.570   3.886   5.411
 8891SOL    HW227573   6.552   3.804   5.551
 8892SOL     OW27574   3.008   5.257   4.944
 8892SOL    HW127575   3.047   5.277   4.854
 8892SOL    HW227576   3.039   5.167   4.975
 8893SOL     OW27577   0.766   4.354   5.635
 8893SOL    HW127578   0.763   4.255   5.641
 8893SOL    HW227579   0.804   4.381   5.547
 8894SOL     OW27580   5.168   1.836   2.037
 8894SOL    HW127581   5.110   1.828   2.118
 8894SOL    HW227582   5.251   1.782   2.049
 8895SOL     OW27583   6.918   3.276   1.174
 8895SOL    HW127584   6.957   3.282   1.266
 8895SOL    HW227585   6.829   3.322   1.174
 8896SOL     OW27586   1.027   1.751   3.291
 8896SOL    HW127587   1.031   1.836   3.343
 8896SOL    HW227588   1.091   1.685   3.330
 8897SOL     OW27589   1.801   5.533   4.082
 8897SOL    HW127590   1.859   5.452   4.088
 8897SOL    HW227591   1.705   5.505   4.082
 8898SOL     OW27592   4.847   3.698   2.684
 8898SOL    HW127593   4.847   3.778   2.624
 8898SOL    HW227594   4.762   3.696   2.737
 8899SOL     OW27595   2.043   3.518   2.729
 8899SOL    HW127596   2.057   3.451   2.802
 8899SOL    HW227597   2.092   3.489   2.647
 8900SOL     OW27598   4.057   1.772   4.460
 8900SOL    HW127599   4.120   1.844   4.490
 8900SOL    HW227600   4.047   1.704   4.533
 8901SOL     OW27601   1.730   5.809   5.028
 8901SOL    HW127602   1.648   5.820   5.085
 8901SOL    HW227603   1.735   5.715   4.995
 8902SOL     OW27604   0.404   4.935   0.072
 8902SOL    HW127605   0.350   5.020   0.073
 8902SOL    HW227606   0.428   4.912   7.000
 8903SOL     OW27607   1.344   0.439   5.217
 8903SOL    HW127608   1.394   0.367   5.169
 8903SOL    HW227609   1.263   0.463   5.164
 8904SOL     OW27610   0.716   1.007   3.365
 8904SOL    HW127611   0.755   0.928   3.317
 8904SOL    HW227612   0.644   0.975   3.427
 8905SOL     OW27613   2.002   4.549   1.879
 8905SOL    HW127614   1.939   4.489   1.928
 8905SOL    HW227615   2.093   4.543   1.919
 8906SOL     OW27616   6.040   0.217   6.351
 8906SOL    HW127617   6.130   0.260   6.359
 8906SOL    HW227618   6.049   0.119   6.369
 8907SOL     OW27619   2.979   3.299   5.164
 8907SOL    HW127620   3.010   3.249   5.083
 8907SOL    HW227621   2.961   3.233   5.237
 8908SOL     OW27622   1.650   4.825   6.286
 8908SOL    HW127623   1.635   4.727   6.278
 8908SOL    HW227624   1.706   4.843   6.367
 8909SOL     OW27625   2.176   5.408   1.661
 8909SOL    HW127626   2.142   5.354   1.583
 8909SOL    HW227627   2.263   5.451   1.636
 8910SOL     OW27628   1.026   1.317   3.439
 8910SOL    HW127629   1.086   1.239   3.420
 8910SOL    HW227630   1.061   1.369   3.517
 8911SOL     OW27631   5.484   2.581   4.837
 8911SOL    HW127632   5.521   2.673   4.829
 8911SOL    HW227633   5.542   2.527   4.898
 8912SOL     OW27634   3.490   3.155   3.732
 8912SOL    HW127635   3.547   3.152   3.814
 8912SOL    HW227636   3.548   3.144   3.651
 8913SOL     OW27637   5.044   5.729   1.166
 8913SOL    HW127638   5.140   5.734   1.140
 8913SOL    HW227639   5.004   5.821   1.165
 8914SOL     OW27640   4.782   5.775   5.113
 8914SOL    HW127641   4.817   5.740   5.200
 8914SOL    HW227642   4.839   5.741   5.038
 8915SOL     OW27643   1.544   1.167   3.804
 8915SOL    HW127644   1.491   1.251   3.814
 8915SOL    HW227645   1.640   1.185   3.825
 8916SOL     OW27646   5.489   1.261   1.780
 8916SOL    HW127647   5.441   1.215   1.855
 8916SOL    HW227648   5.430   1.265   1.700
 8917SOL     OW27649   5.893   1.781   0.079
 8917SOL    HW127650   5.814   1.775   0.141
 8917SOL    HW227651   5.894   1.871   0.036
 8918SOL     OW27652   1.068   3.785   2.447
 8918SOL    HW127653   1.013   3.866   2.427
 8918SOL    HW227654   1.008   3.708   2.470
 8919SOL     OW27655   6.089   3.070   2.431
 8919SOL    HW127656   6.069   3.134   2.505
 8919SOL    HW227657   6.116   2.982   2.469
 8920SOL     OW27658   1.026   1.383   0.051
 8920SOL    HW127659   0.977   1.429   7.000
 8920SOL    HW227660   1.007   1.429   0.138
 8921SOL     OW27661   0.805   3.262   1.877
 8921SOL    HW127662   0.770   3.339   1.930
 8921SOL    HW227663   0.768   3.177   1.912
 8922SOL     OW27664   3.640   4.944   3.425
 8922SOL    HW127665   3.583   4.905   3.498
 8922SOL    HW227666   3.647   5.043   3.437
 8923SOL     OW27667   2.452   1.052   3.996
 8923SOL    HW127668   2.422   1.044   4.091
 8923SOL    HW227669   2.544   1.014   3.986
 8924SOL     OW27670   6.204   5.250   4.926
 8924SOL    HW127671   6.302   5.267   4.920
 8924SOL    HW227672   6.178   5.232   5.021
 8925SOL     OW27673   0.678   7.009   3.569
 8925SOL    HW127674   0.672   0.082   3.597
 8925SOL    HW227675   0.727   7.003   3.482
 8926SOL     OW27676   5.848   1.085   6.918
 8926SOL    HW127677   5.890   1.040   6.839
 8926SOL    HW227678   5.806   1.016   6.977
 8927SOL     OW27679   1.714   0.908   6.726
 8927SOL    HW127680   1.639   0.904   6.660
 8927SOL    HW227681   1.791   0.855   6.692
 8928SOL     OW27682   1.557   6.839   5.755
 8928SOL    HW127683   1.644   6.800   5.725
 8928SOL    HW227684   1.557   6.847   5.855
 8929SOL     OW27685   0.330   1.815   3.660
 8929SOL    HW127686   0.347   1.764   3.576
 8929SOL    HW227687   0.293   1.905   3.638
 8930SOL     OW27688   2.294   5.052   3.868
 8930SOL    HW127689   2.225   4.996   3.821
 8930SOL    HW227690   2.261   5.146   3.874
 8931SOL     OW27691   4.304   3.618   0.281
 8931SOL    HW127692   4.328   3.661   0.368
 8931SOL    HW227693   4.378   3.557   0.253
 8932SOL     OW27694   0.754   3.698   3.348
 8932SOL    HW127695   0.663   3.703   3.388
 8932SOL    HW227696   0.820   3.740   3.411
 8933SOL     OW27697   4.708   1.759   6.064
 8933SOL    HW127698   4.673   1.807   6.145
 8933SOL    HW227699   4.802   1.789   6.046
 8934SOL     OW27700   2.348   5.901   2.885
 8934SOL    HW127701   2.373   5.830   2.819
 8934SOL    HW227702   2.248   5.907   2.892
 8935SOL     OW27703   6.595   5.059   6.898
 8935SOL    HW127704   6.683   5.017   6.875
 8935SOL    HW227705   6.568   5.032   6.990
 8936SOL     OW27706   3.978   2.665   0.683
 8936SOL    HW127707   4.032   2.669   0.599
 8936SOL    HW227708   4.024   2.716   0.755
 8937SOL     OW27709   0.616   0.632   5.810
 8937SOL    HW127710   0.655   0.708   5.863
 8937SOL    HW227711   0.520   0.651   5.790
 8938SOL     OW27712   4.857   6.018   1.709
 8938SOL    HW127713   4.897   6.063   1.629
 8938SOL    HW227714   4.877   5.920   1.706
 8939SOL     OW27715   5.417   2.189   4.933
 8939SOL    HW127716   5.509   2.160   4.959
 8939SOL    HW227717   5.367   2.112   4.893
 8940SOL     OW27718   6.064   6.963   2.506
 8940SOL    HW127719   5.966   6.985   2.512
 8940SOL    HW227720   6.084   6.924   2.416
 8941SOL     OW27721   3.904   1.204   6.538
 8941SOL    HW127722   3.938   1.235   6.627
 8941SOL    HW227723   3.804   1.203   6.539
 8942SOL     OW27724   1.024   2.227   5.253
 8942SOL    HW127725   0.989   2.275   5.173
 8942SOL    HW227726   0.960   2.237   5.329
 8943SOL     OW27727   5.142   3.485   1.199
 8943SOL    HW127728   5.132   3.388   1.178
 8943SOL    HW227729   5.085   3.508   1.278
 8944SOL     OW27730   3.923   5.944   1.556
 8944SOL    HW127731   3.911   5.897   1.643
 8944SOL    HW227732   3.918   5.878   1.481
 8945SOL     OW27733   2.454   1.363   4.031
 8945SOL    HW127734   2.373   1.361   4.090
 8945SOL    HW227735   2.432   1.322   3.943
 8946SOL     OW27736   3.944   0.763   4.768
 8946SOL    HW127737   3.997   0.841   4.735
 8946SOL    HW227738   3.924   0.775   4.865
 8947SOL     OW27739   3.779   3.806   5.161
 8947SOL    HW127740   3.817   3.740   5.096
 8947SOL    HW227741   3.849   3.830   5.229
 8948SOL     OW27742   6.155   4.820   3.120
 8948SOL    HW127743   6.162   4.828   3.220
 8948SOL    HW227744   6.074   4.768   3.096
 8949SOL     OW27745   1.864   5.498   5.932
 8949SOL    HW127746   1.868   5.595   5.910
 8949SOL    HW227747   1.832   5.447   5.853
 8950SOL     OW27748   4.494   2.378   4.903
 8950SOL    HW127749   4.443   2.410   4.823
 8950SOL    HW227750   4.467   2.432   4.983
 8951SOL     OW27751   2.455   1.740   5.759
 8951SOL    HW127752   2.544   1.746   5.714
 8951SOL    HW227753   2.417   1.832   5.772
 8952SOL     OW27754   6.651   6.610   3.695
 8952SOL    HW127755   6.657   6.564   3.607
 8952SOL    HW227756   6.680   6.548   3.768
 8953SOL     OW27757   1.582   5.085   6.450
 8953SOL    HW127758   1.554   4.994   6.420
 8953SOL    HW227759   1.514   5.153   6.421
 8954SOL     OW27760   2.502   6.643   5.709
 8954SOL    HW127761   2.479   6.622   5.804
 8954SOL    HW227762   2.582   6.590   5.682
 8955SOL     OW27763   6.607   3.705   4.167
 8955SOL    HW127764   6.585   3.679   4.072
 8955SOL    HW227765   6.522   3.722   4.216
 8956SOL     OW27766   1.198   0.319   4.813
 8956SOL    HW127767   1.141   0.389   4.770
 8956SOL    HW227768   1.148   0.232   4.815
 8957SOL     OW27769   2.586   5.960   2.049
 8957SOL    HW127770   2.648   6.025   2.004
 8957SOL    HW227771   2.537   6.006   2.123
 8958SOL     OW27772   2.619   0.120   4.036
 8958SOL    HW127773   2.578   0.187   4.097
 8958SOL    HW227774   2.556   0.043   4.024
 8959SOL     OW27775   3.315   5.542   0.388
 8959SOL    HW127776   3.329   5.483   0.468
 8959SOL    HW227777   3.392   5.532   0.326
 8960SOL     OW27778   3.737   5.779   0.989
 8960SOL    HW127779   3.641   5.806   0.991
 8960SOL    HW227780   3.768   5.759   1.082
 8961SOL     OW27781   1.132   2.482   3.877
 8961SOL    HW127782   1.139   2.463   3.975
 8961SOL    HW227783   1.080   2.566   3.863
 8962SOL     OW27784   5.129   0.368   3.514
 8962SOL    HW127785   5.180   0.435   3.569
 8962SOL    HW227786   5.137   0.392   3.417
 8963SOL     OW27787   0.198   1.029   3.612
 8963SOL    HW127788   0.282   1.025   3.667
 8963SOL    HW227789   0.141   0.950   3.634
 8964SOL     OW27790   0.004   3.560   3.183
 8964SOL    HW127791   6.965   3.603   3.248
 8964SOL    HW227792   7.015   3.460   3.186
 8965SOL     OW27793   1.500   5.033   1.470
 8965SOL    HW127794   1.532   5.079   1.553
 8965SOL    HW227795   1.512   5.093   1.392
 8966SOL     OW27796   3.451   2.201   5.187
 8966SOL    HW127797   3.358   2.220   5.217
 8966SOL    HW227798   3.450   2.172   5.091
 8967SOL     OW27799   5.056   6.656   0.911
 8967SOL    HW127800   5.132   6.633   0.849
 8967SOL    HW227801   5.007   6.735   0.875
 8968SOL     OW27802   4.861   4.395   3.087
 8968SOL    HW127803   4.869   4.364   3.182
 8968SOL    HW227804   4.824   4.320   3.031
 8969SOL     OW27805   6.499   0.691   4.452
 8969SOL    HW127806   6.447   0.621   4.403
 8969SOL    HW227807   6.594   0.690   4.421
 8970SOL     OW27808   3.588   2.085   1.310
 8970SOL    HW127809   3.566   2.147   1.235
 8970SOL    HW227810   3.663   2.123   1.364
 8971SOL     OW27811   4.624   6.357   2.470
 8971SOL    HW127812   4.617   6.411   2.553
 8971SOL    HW227813   4.666   6.269   2.490
 8972SOL     OW27814   5.281   6.881   4.661
 8972SOL    HW127815   5.226   6.846   4.585
 8972SOL    HW227816   5.375   6.851   4.652
 8973SOL     OW27817   2.139   5.195   0.148
 8973SOL    HW127818   2.172   5.224   0.058
 8973SOL    HW227819   2.162   5.099   0.162
 8974SOL     OW27820   0.676   2.998   3.661
 8974SOL    HW127821   0.707   3.020   3.753
 8974SOL    HW227822   0.688   3.078   3.602
 8975SOL     OW27823   3.867   0.649   6.555
 8975SOL    HW127824   3.897   0.730   6.606
 8975SOL    HW227825   3.944   0.587   6.542
 8976SOL     OW27826   0.972   5.332   4.233
 8976SOL    HW127827   0.936   5.327   4.327
 8976SOL    HW227828   1.055   5.277   4.227
 8977SOL     OW27829   5.646   1.176   6.563
 8977SOL    HW127830   5.589   1.176   6.645
 8977SOL    HW227831   5.656   1.270   6.530
 8978SOL     OW27832   4.983   4.898   1.048
 8978SOL    HW127833   4.994   4.865   0.955
 8978SOL    HW227834   4.924   4.979   1.049
 8979SOL     OW27835   1.438   4.587   4.938
 8979SOL    HW127836   1.535   4.570   4.954
 8979SOL    HW227837   1.385   4.554   5.017
 8980SOL     OW27838   3.812   3.086   4.979
 8980SOL    HW127839   3.761   3.142   4.914
 8980SOL    HW227840   3.791   2.989   4.963
 8981SOL     OW27841   2.739   1.452   5.700
 8981SOL    HW127842   2.715   1.434   5.604
 8981SOL    HW227843   2.749   1.365   5.749
 8982SOL     OW27844   3.933   4.191   1.054
 8982SOL    HW127845   3.845   4.234   1.076
 8982SOL    HW227846   3.917   4.115   0.991
 8983SOL     OW27847   4.530   5.020   1.011
 8983SOL    HW127848   4.476   4.985   0.934
 8983SOL    HW227849   4.591   5.093   0.979
 8984SOL     OW27850   1.312   6.526   3.669
 8984SOL    HW127851   1.290   6.600   3.732
 8984SOL    HW227852   1.384   6.469   3.708
 8985SOL     OW27853   2.992   3.087   6.154
 8985SOL    HW127854   3.030   3.159   6.096
 8985SOL    HW227855   2.893   3.082   6.140
 8986SOL     OW27856   3.408   6.474   2.763
 8986SOL    HW127857   3.395   6.375   2.771
 8986SOL    HW227858   3.404   6.501   2.667
 8987SOL     OW27859   5.135   5.943   1.879
 8987SOL    HW127860   5.211   5.964   1.818
 8987SOL    HW227861   5.141   6.001   1.961
 8988SOL     OW27862   0.679   4.664   5.127
 8988SOL    HW127863   0.609   4.722   5.085
 8988SOL    HW227864   0.704   4.591   5.063
 8989SOL     OW27865   2.760   2.830   6.676
 8989SOL    HW127866   2.726   2.750   6.626
 8989SOL    HW227867   2.715   2.837   6.764
 8990SOL     OW27868   0.050   5.680   3.198
 8990SOL    HW127869   0.046   5.654   3.295
 8990SOL    HW227870   0.111   5.617   3.150
 8991SOL     OW27871   1.253   2.399   4.884
 8991SOL    HW127872   1.338   2.408   4.832
 8991SOL    HW227873   1.270   2.416   4.981
 8992SOL     OW27874   6.962   2.319   1.445
 8992SOL    HW127875   6.865   2.343   1.451
 8992SOL    HW227876   6.973   2.220   1.447
 8993SOL     OW27877   4.308   2.531   0.984
 8993SOL    HW127878   4.264   2.570   1.064
 8993SOL    HW227879   4.397   2.494   1.010
 8994SOL     OW27880   1.750   5.765   2.903
 8994SOL    HW127881   1.808   5.846   2.911
 8994SOL    HW227882   1.794   5.699   2.842
 8995SOL     OW27883   0.574   0.254   1.446
 8995SOL    HW127884   0.486   0.247   1.400
 8995SOL    HW227885   0.578   0.339   1.498
 8996SOL     OW27886   4.117   6.720   5.945
 8996SOL    HW127887   4.021   6.704   5.967
 8996SOL    HW227888   4.173   6.699   6.026
 8997SOL     OW27889   6.163   0.571   4.596
 8997SOL    HW127890   6.205   0.558   4.506
 8997SOL    HW227891   6.203   0.651   4.640
 8998SOL     OW27892   6.727   3.497   4.573
 8998SOL    HW127893   6.728   3.526   4.477
 8998SOL    HW227894   6.762   3.404   4.580
 8999SOL     OW27895   4.041   6.768   6.249
 8999SOL    HW127896   4.038   6.848   6.188
 8999SOL    HW227897   3.966   6.774   6.315
 9000SOL     OW27898   1.915   3.912   0.964
 9000SOL    HW127899   1.846   3.912   1.037
 9000SOL    HW227900   1.993   3.968   0.992
 9001SOL     OW27901   0.829   5.498   1.425
 9001SOL    HW127902   0.817   5.565   1.498
 9001SOL    HW227903   0.739   5.470   1.390
 9002SOL     OW27904   0.623   4.678   5.984
 9002SOL    HW127905   0.709   4.664   5.935
 9002SOL    HW227906   0.571   4.751   5.941
 9003SOL     OW27907   5.474   0.051   0.822
 9003SOL    HW127908   5.480   0.136   0.769
 9003SOL    HW227909   5.565   0.022   0.849
 9004SOL     OW27910   5.197   4.922   1.205
 9004SOL    HW127911   5.217   4.831   1.242
 9004SOL    HW227912   5.110   4.920   1.157
 9005SOL     OW27913   5.391   0.677   5.610
 9005SOL    HW127914   5.329   0.681   5.688
 9005SOL    HW227915   5.438   0.589   5.609
 9006SOL     OW27916   3.814   5.602   0.325
 9006SOL    HW127917   3.768   5.601   0.413
 9006SOL    HW227918   3.840   5.509   0.299
 9007SOL     OW27919   1.616   1.138   2.811
 9007SOL    HW127920   1.656   1.068   2.871
 9007SOL    HW227921   1.644   1.121   2.717
 9008SOL     OW27922   0.596   5.732   1.989
 9008SOL    HW127923   0.557   5.744   2.080
 9008SOL    HW227924   0.695   5.750   1.992
 9009SOL     OW27925   3.383   6.451   1.766
 9009SOL    HW127926   3.365   6.413   1.676
 9009SOL    HW227927   3.298   6.486   1.805
 9010SOL     OW27928   1.808   6.140   4.595
 9010SOL    HW127929   1.766   6.140   4.686
 9010SOL    HW227930   1.791   6.228   4.551
 9011SOL     OW27931   2.223   2.210   2.019
 9011SOL    HW127932   2.277   2.141   1.970
 9011SOL    HW227933   2.284   2.268   2.073
 9012SOL     OW27934   1.836   6.299   6.980
 9012SOL    HW127935   1.808   6.294   6.884
 9012SOL    HW227936   1.840   6.207   7.019
 9013SOL     OW27937   2.024   0.099   4.479
 9013SOL    HW127938   2.074   0.078   4.563
 9013SOL    HW227939   1.991   0.014   4.438
 9014SOL     OW27940   5.392   2.965   4.015
 9014SOL    HW127941   5.309   2.915   4.040
 9014SOL    HW227942   5.432   3.006   4.097
 9015SOL     OW27943   4.419   0.804   6.265
 9015SOL    HW127944   4.465   0.732   6.213
 9015SOL    HW227945   4.320   0.789   6.262
 9016SOL     OW27946   5.111   5.522   5.814
 9016SOL    HW127947   5.210   5.514   5.804
 9016SOL    HW227948   5.090   5.579   5.893
 9017SOL     OW27949   3.536   6.999   5.243
 9017SOL    HW127950   3.588   0.062   5.241
 9017SOL    HW227951   3.555   6.951   5.329
 9018SOL     OW27952   3.618   4.318   6.977
 9018SOL    HW127953   3.677   4.290   0.030
 9018SOL    HW227954   3.526   4.280   6.990
 9019SOL     OW27955   0.401   3.208   3.710
 9019SOL    HW127956   0.469   3.220   3.783
 9019SOL    HW227957   0.406   3.284   3.646
 9020SOL     OW27958   4.997   4.623   2.800
 9020SOL    HW127959   5.039   4.583   2.882
 9020SOL    HW227960   4.968   4.717   2.820
 9021SOL     OW27961   0.424   0.968   4.422
 9021SOL    HW127962   0.474   1.054   4.415
 9021SOL    HW227963   0.326   0.986   4.431
 9022SOL     OW27964   4.086   4.021   6.412
 9022SOL    HW127965   4.091   4.118   6.389
 9022SOL    HW227966   4.125   3.967   6.338
 9023SOL     OW27967   6.867   4.351   0.392
 9023SOL    HW127968   6.930   4.278   0.367
 9023SOL    HW227969   6.773   4.321   0.375
 9024SOL     OW27970   2.166   5.675   6.364
 9024SOL    HW127971   2.168   5.683   6.265
 9024SOL    HW227972   2.084   5.721   6.399
 9025SOL     OW27973   1.034   5.698   0.967
 9025SOL    HW127974   0.992   5.786   0.944
 9025SOL    HW227975   1.039   5.689   1.067
 9026SOL     OW27976   5.098   1.306   0.717
 9026SOL    HW127977   5.179   1.359   0.742
 9026SOL    HW227978   5.125   1.231   0.657
 9027SOL     OW27979   0.832   4.472   3.377
 9027SOL    HW127980   0.842   4.474   3.277
 9027SOL    HW227981   0.895   4.539   3.417
 9028SOL     OW27982   3.770   4.822   6.549
 9028SOL    HW127983   3.748   4.727   6.527
 9028SOL    HW227984   3.797   4.870   6.465
 9029SOL     OW27985   4.583   6.899   4.104
 9029SOL    HW127986   4.636   6.983   4.115
 9029SOL    HW227987   4.642   6.827   4.067
 9030SOL     OW27988   3.237   1.569   2.027
 9030SOL    HW127989   3.155   1.600   1.979
 9030SOL    HW227990   3.318   1.600   1.977
 9031SOL     OW27991   4.590   6.771   4.849
 9031SOL    HW127992   4.545   6.685   4.824
 9031SOL    HW227993   4.574   6.839   4.777
 9032SOL     OW27994   5.282   2.696   1.897
 9032SOL    HW127995   5.241   2.629   1.959
 9032SOL    HW227996   5.213   2.728   1.832
 9033SOL     OW27997   0.406   6.832   2.838
 9033SOL    HW127998   0.417   6.910   2.899
 9033SOL    HW227999   0.319   6.786   2.857
 9034SOL     OW28000   4.517   6.718   4.320
 9034SOL    HW128001   4.602   6.770   4.333
 9034SOL    HW228002   4.440   6.782   4.311
 9035SOL     OW28003   2.959   5.719   6.898
 9035SOL    HW128004   2.950   5.808   6.944
 9035SOL    HW228005   2.872   5.670   6.905
 9036SOL     OW28006   1.171   4.420   5.028
 9036SOL    HW128007   1.101   4.386   5.090
 9036SOL    HW228008   1.127   4.463   4.949
 9037SOL     OW28009   6.907   0.832   2.175
 9037SOL    HW128010   6.880   0.737   2.189
 9037SOL    HW228011   6.953   0.867   2.256
 9038SOL     OW28012   4.497   3.323   5.520
 9038SOL    HW128013   4.597   3.330   5.523
 9038SOL    HW228014   4.462   3.295   5.610
 9039SOL     OW28015   4.472   6.328   6.235
 9039SOL    HW128016   4.451   6.405   6.296
 9039SOL    HW228017   4.566   6.337   6.201
 9040SOL     OW28018   2.174   1.818   1.402
 9040SOL    HW128019   2.176   1.857   1.494
 9040SOL    HW228020   2.223   1.877   1.339
 9041SOL     OW28021   6.316   2.118   2.777
 9041SOL    HW128022   6.263   2.169   2.844
 9041SOL    HW228023   6.303   2.020   2.791
 9042SOL     OW28024   3.760   5.819   0.687
 9042SOL    HW128025   3.760   5.796   0.784
 9042SOL    HW228026   3.668   5.806   0.650
 9043SOL     OW28027   2.978   2.844   1.070
 9043SOL    HW128028   3.001   2.810   1.161
 9043SOL    HW228029   3.060   2.884   1.028
 9044SOL     OW28030   1.188   0.622   0.714
 9044SOL    HW128031   1.127   0.686   0.759
 9044SOL    HW228032   1.165   0.529   0.743
 9045SOL     OW28033   4.534   1.098   3.599
 9045SOL    HW128034   4.603   1.030   3.625
 9045SOL    HW228035   4.568   1.154   3.524
 9046SOL     OW28036   3.396   2.876   2.151
 9046SOL    HW128037   3.489   2.850   2.179
 9046SOL    HW228038   3.342   2.897   2.232
 9047SOL     OW28039   1.545   4.570   6.255
 9047SOL    HW128040   1.479   4.586   6.329
 9047SOL    HW228041   1.500   4.587   6.167
 9048SOL     OW28042   6.995   1.663   5.785
 9048SOL    HW128043   6.929   1.704   5.723
 9048SOL    HW228044   6.952   1.590   5.837
 9049SOL     OW28045   2.578   6.995   5.491
 9049SOL    HW128046   2.587   6.977   5.393
 9049SOL    HW228047   2.504   0.038   5.506
 9050SOL     OW28048   1.162   4.404   0.838
 9050SOL    HW128049   1.215   4.319   0.837
 9050SOL    HW228050   1.064   4.382   0.835
 9051SOL     OW28051   2.776   1.250   1.934
 9051SOL    HW128052   2.678   1.256   1.915
 9051SOL    HW228053   2.801   1.318   2.003
 9052SOL     OW28054   2.014   2.809   5.772
 9052SOL    HW128055   2.013   2.874   5.695
 9052SOL    HW228056   2.025   2.860   5.858
 9053SOL     OW28057   1.011   0.535   6.758
 9053SOL    HW128058   0.998   0.462   6.826
 9053SOL    HW228059   1.023   0.622   6.805
 9054SOL     OW28060   1.581   5.956   2.660
 9054SOL    HW128061   1.681   5.948   2.652
 9054SOL    HW228062   1.550   5.906   2.741
 9055SOL     OW28063   0.304   2.809   5.388
 9055SOL    HW128064   0.205   2.823   5.400
 9055SOL    HW228065   0.321   2.766   5.300
 9056SOL     OW28066   6.152   2.864   3.701
 9056SOL    HW128067   6.147   2.769   3.668
 9056SOL    HW228068   6.061   2.905   3.699
 9057SOL     OW28069   4.246   1.997   3.961
 9057SOL    HW128070   4.332   2.020   3.917
 9057SOL    HW228071   4.203   2.080   3.996
 9058SOL     OW28072   2.663   0.516   5.713
 9058SOL    HW128073   2.678   0.419   5.736
 9058SOL    HW228074   2.582   0.549   5.762
 9059SOL     OW28075   1.032   2.751   3.144
 9059SOL    HW128076   1.060   2.777   3.237
 9059SOL    HW228077   1.099   2.786   3.078
 9060SOL     OW28078   5.043   3.273   5.617
 9060SOL    HW128079   5.068   3.301   5.710
 9060SOL    HW228080   5.116   3.300   5.554
 9061SOL     OW28081   2.332   5.367   2.622
 9061SOL    HW128082   2.338   5.424   2.704
 9061SOL    HW228083   2.241   5.325   2.617
 9062SOL     OW28084   1.769   6.268   1.575
 9062SOL    HW128085   1.740   6.209   1.651
 9062SOL    HW228086   1.852   6.230   1.534
 9063SOL     OW28087   2.523   2.136   2.044
 9063SOL    HW128088   2.557   2.222   2.083
 9063SOL    HW228089   2.586   2.062   2.068
 9064SOL     OW28090   5.406   3.978   0.356
 9064SOL    HW128091   5.502   3.950   0.360
 9064SOL    HW228092   5.399   4.076   0.372
 9065SOL     OW28093   2.981   1.062   0.473
 9065SOL    HW128094   3.021   1.109   0.394
 9065SOL    HW228095   2.938   0.977   0.442
 9066SOL     OW28096   5.367   6.630   6.917
 9066SOL    HW128097   5.277   6.670   6.930
 9066SOL    HW228098   5.423   6.645   6.999
 9067SOL     OW28099   1.175   0.770   2.018
 9067SOL    HW128100   1.137   0.694   1.966
 9067SOL    HW228101   1.103   0.813   2.072
 9068SOL     OW28102   1.234   6.043   6.345
 9068SOL    HW128103   1.238   5.960   6.401
 9068SOL    HW228104   1.326   6.067   6.315
 9069SOL     OW28105   1.204   1.689   6.224
 9069SOL    HW128106   1.185   1.595   6.253
 9069SOL    HW228107   1.276   1.689   6.155
 9070SOL     OW28108   1.589   4.694   3.555
 9070SOL    HW128109   1.605   4.701   3.457
 9070SOL    HW228110   1.640   4.766   3.602
 9071SOL     OW28111   4.650   6.343   0.271
 9071SOL    HW128112   4.741   6.327   0.233
 9071SOL    HW228113   4.638   6.285   0.352
 9072SOL     OW28114   5.216   4.561   0.270
 9072SOL    HW128115   5.247   4.604   0.355
 9072SOL    HW228116   5.275   4.589   0.195
 9073SOL     OW28117   2.234   0.738   0.918
 9073SOL    HW128118   2.190   0.738   0.828
 9073SOL    HW228119   2.182   0.681   0.981
 9074SOL     OW28120   0.616   0.590   2.777
 9074SOL    HW128121   0.545   0.590   2.847
 9074SOL    HW228122   0.614   0.676   2.727
 9075SOL     OW28123   0.608   0.595   1.784
 9075SOL    HW128124   0.519   0.555   1.805
 9075SOL    HW228125   0.671   0.523   1.755
 9076SOL     OW28126   0.882   1.814   4.948
 9076SOL    HW128127   0.938   1.888   4.985
 9076SOL    HW228128   0.925   1.778   4.865
 9077SOL     OW28129   5.949   6.033   1.698
 9077SOL    HW128130   5.867   6.009   1.646
 9077SOL    HW228131   5.945   5.989   1.788
 9078SOL     OW28132   4.527   2.868   5.389
 9078SOL    HW128133   4.624   2.871   5.413
 9078SOL    HW228134   4.517   2.825   5.299
 9079SOL     OW28135   3.668   0.624   5.001
 9079SOL    HW128136   3.689   0.552   4.935
 9079SOL    HW228137   3.750   0.678   5.019
 9080SOL     OW28138   4.931   1.182   6.452
 9080SOL    HW128139   4.923   1.200   6.550
 9080SOL    HW228140   5.025   1.202   6.422
 9081SOL     OW28141   5.292   6.938   3.634
 9081SOL    HW128142   5.314   0.008   3.606
 9081SOL    HW228143   5.331   6.873   3.568
 9082SOL     OW28144   2.831   0.639   2.381
 9082SOL    HW128145   2.873   0.651   2.471
 9082SOL    HW228146   2.731   0.647   2.390
 9083SOL     OW28147   4.825   4.424   4.146
 9083SOL    HW128148   4.867   4.343   4.188
 9083SOL    HW228149   4.846   4.505   4.201
 9084SOL     OW28150   4.110   3.708   2.857
 9084SOL    HW128151   4.133   3.664   2.770
 9084SOL    HW228152   4.161   3.663   2.931
 9085SOL     OW28153   0.890   2.913   0.469
 9085SOL    HW128154   0.916   3.009   0.484
 9085SOL    HW228155   0.967   2.854   0.491
 9086SOL     OW28156   6.911   3.806   0.094
 9086SOL    HW128157   6.969   3.786   0.173
 9086SOL    HW228158   6.955   3.876   0.038
 9087SOL     OW28159   5.121   3.141   2.156
 9087SOL    HW128160   5.123   3.041   2.157
 9087SOL    HW228161   5.094   3.175   2.246
 9088SOL     OW28162   5.509   5.695   1.319
 9088SOL    HW128163   5.581   5.625   1.325
 9088SOL    HW228164   5.435   5.662   1.260
 9089SOL     OW28165   4.207   0.835   5.510
 9089SOL    HW128166   4.172   0.820   5.603
 9089SOL    HW228167   4.242   0.749   5.474
 9090SOL     OW28168   5.945   1.654   3.270
 9090SOL    HW128169   6.010   1.614   3.335
 9090SOL    HW228170   5.916   1.744   3.303
 9091SOL     OW28171   3.770   2.876   5.868
 9091SOL    HW128172   3.689   2.891   5.924
 9091SOL    HW228173   3.748   2.892   5.772
 9092SOL     OW28174   0.013   3.426   6.386
 9092SOL    HW128175   0.095   3.383   6.350
 9092SOL    HW228176   7.009   3.502   6.327
 9093SOL     OW28177   2.226   6.788   5.001
 9093SOL    HW128178   2.158   6.843   5.049
 9093SOL    HW228179   2.318   6.817   5.029
 9094SOL     OW28180   1.920   3.699   0.816
 9094SOL    HW128181   1.945   3.792   0.840
 9094SOL    HW228182   1.966   3.673   0.731
 9095SOL     OW28183   6.655   6.945   6.389
 9095SOL    HW128184   6.747   6.970   6.421
 9095SOL    HW228185   6.654   6.848   6.366
 9096SOL     OW28186   5.665   5.157   4.461
 9096SOL    HW128187   5.674   5.158   4.560
 9096SOL    HW228188   5.737   5.212   4.420
 9097SOL     OW28189   1.282   2.108   5.752
 9097SOL    HW128190   1.344   2.180   5.781
 9097SOL    HW228191   1.326   2.019   5.763
 9098SOL     OW28192   2.311   4.643   4.057
 9098SOL    HW128193   2.232   4.643   4.118
 9098SOL    HW228194   2.382   4.583   4.094
 9099SOL     OW28195   2.274   1.323   6.956
 9099SOL    HW128196   2.271   1.232   6.997
 9099SOL    HW228197   2.186   1.369   6.970
 9100SOL     OW28198   1.833   4.854   3.945
 9100SOL    HW128199   1.802   4.944   3.974
 9100SOL    HW228200   1.924   4.862   3.903
 9101SOL     OW28201   0.449   2.534   0.053
 9101SOL    HW128202   0.383   2.553   7.003
 9101SOL    HW228203   0.462   2.617   0.109
 9102SOL     OW28204   3.976   0.557   3.045
 9102SOL    HW128205   3.902   0.623   3.063
 9102SOL    HW228206   3.992   0.551   2.947
 9103SOL     OW28207   6.506   0.686   1.191
 9103SOL    HW128208   6.446   0.758   1.226
 9103SOL    HW228209   6.569   0.657   1.263
 9104SOL     OW28210   6.267   1.884   5.936
 9104SOL    HW128211   6.325   1.911   5.860
 9104SOL    HW228212   6.212   1.804   5.910
 9105SOL     OW28213   3.145   0.744   6.579
 9105SOL    HW128214   3.089   0.827   6.574
 9105SOL    HW228215   3.088   0.666   6.601
 9106SOL     OW28216   2.217   3.018   6.540
 9106SOL    HW128217   2.269   3.006   6.625
 9106SOL    HW228218   2.253   2.958   6.470
 9107SOL     OW28219   3.487   1.479   0.679
 9107SOL    HW128220   3.480   1.398   0.621
 9107SOL    HW228221   3.511   1.559   0.624
 9108SOL     OW28222   0.387   6.195   5.863
 9108SOL    HW128223   0.336   6.118   5.824
 9108SOL    HW228224   0.485   6.180   5.849
 9109SOL     OW28225   6.014   4.317   2.630
 9109SOL    HW128226   6.086   4.367   2.583
 9109SOL    HW228227   5.925   4.340   2.591
 9110SOL     OW28228   1.006   6.640   3.260
 9110SOL    HW128229   1.064   6.604   3.186
 9110SOL    HW228230   1.055   6.632   3.347
 9111SOL     OW28231   3.667   2.563   5.603
 9111SOL    HW128232   3.732   2.488   5.614
 9111SOL    HW228233   3.670   2.597   5.509
 9112SOL     OW28234   0.411   5.355   2.219
 9112SOL    HW128235   0.451   5.362   2.127
 9112SOL    HW228236   0.363   5.267   2.228
 9113SOL     OW28237   6.419   0.457   4.307
 9113SOL    HW128238   6.336   0.418   4.267
 9113SOL    HW228239   6.478   0.490   4.233
 9114SOL     OW28240   1.177   0.455   5.899
 9114SOL    HW128241   1.175   0.540   5.951
 9114SOL    HW228242   1.228   0.468   5.815
 9115SOL     OW28243   4.660   4.062   5.244
 9115SOL    HW128244   4.674   3.963   5.250
 9115SOL    HW228245   4.644   4.099   5.335
 9116SOL     OW28246   1.377   6.932   3.476
 9116SOL    HW128247   1.426   6.999   3.419
 9116SOL    HW228248   1.287   6.915   3.436
 9117SOL     OW28249   1.716   6.404   0.162
 9117SOL    HW128250   1.743   6.347   0.084
 9117SOL    HW228251   1.785   6.474   0.176
 9118SOL     OW28252   6.728   4.062   1.683
 9118SOL    HW128253   6.737   4.017   1.595
 9118SOL    HW228254   6.647   4.027   1.730
 9119SOL     OW28255   3.340   1.258   1.107
 9119SOL    HW128256   3.301   1.266   1.199
 9119SOL    HW228257   3.395   1.174   1.102
 9120SOL     OW28258   6.403   3.703   4.646
 9120SOL    HW128259   6.306   3.702   4.669
 9120SOL    HW228260   6.441   3.794   4.662
 9121SOL     OW28261   4.060   1.164   4.265
 9121SOL    HW128262   4.038   1.229   4.338
 9121SOL    HW228263   4.013   1.078   4.282
 9122SOL     OW28264   0.127   2.310   1.831
 9122SOL    HW128265   0.199   2.313   1.762
 9122SOL    HW228266   0.073   2.394   1.827
 9123SOL     OW28267   0.888   6.403   4.291
 9123SOL    HW128268   0.827   6.477   4.263
 9123SOL    HW228269   0.970   6.403   4.234
 9124SOL     OW28270   3.994   6.137   0.872
 9124SOL    HW128271   4.038   6.163   0.957
 9124SOL    HW228272   3.968   6.040   0.876
 9125SOL     OW28273   5.348   6.539   1.510
 9125SOL    HW128274   5.265   6.533   1.565
 9125SOL    HW228275   5.404   6.458   1.524
 9126SOL     OW28276   4.542   4.506   1.017
 9126SOL    HW128277   4.458   4.470   1.057
 9126SOL    HW228278   4.560   4.597   1.055
 9127SOL     OW28279   6.219   4.540   5.374
 9127SOL    HW128280   6.297   4.536   5.311
 9127SOL    HW228281   6.250   4.518   5.467
 9128SOL     OW28282   5.889   3.491   6.222
 9128SOL    HW128283   5.831   3.541   6.286
 9128SOL    HW228284   5.842   3.483   6.134
 9129SOL     OW28285   0.556   3.006   0.509
 9129SOL    HW128286   0.583   3.101   0.525
 9129SOL    HW228287   0.457   3.002   0.491
 9130SOL     OW28288   3.176   3.494   5.249
 9130SOL    HW128289   3.115   3.415   5.240
 9130SOL    HW228290   3.121   3.578   5.243
 9131SOL     OW28291   5.754   2.828   0.400
 9131SOL    HW128292   5.845   2.863   0.379
 9131SOL    HW228293   5.708   2.801   0.315
 9132SOL     OW28294   1.183   4.394   3.668
 9132SOL    HW128295   1.238   4.388   3.584
 9132SOL    HW228296   1.114   4.321   3.668
 9133SOL     OW28297   5.072   0.229   1.337
 9133SOL    HW128298   5.047   0.137   1.365
 9133SOL    HW228299   5.147   0.224   1.271
 9134SOL     OW28300   4.653   4.920   0.002
 9134SOL    HW128301   4.657   4.823   6.999
 9134SOL    HW228302   4.606   4.971   6.952
 9135SOL     OW28303   6.538   5.459   2.237
 9135SOL    HW128304   6.536   5.532   2.170
 9135SOL    HW228305   6.457   5.401   2.226
 9136SOL     OW28306   1.083   5.024   0.030
 9136SOL    HW128307   1.118   4.939   7.012
 9136SOL    HW228308   1.066   5.009   0.127
 9137SOL     OW28309   5.498   5.575   5.589
 9137SOL    HW128310   5.405   5.544   5.568
 9137SOL    HW228311   5.515   5.662   5.542
 9138SOL     OW28312   1.906   4.276   6.164
 9138SOL    HW128313   1.973   4.259   6.092
 9138SOL    HW228314   1.851   4.357   6.140
 9139SOL     OW28315   0.347   0.249   1.677
 9139SOL    HW128316   0.334   0.249   1.578
 9139SOL    HW228317   0.260   0.269   1.722
 9140SOL     OW28318   1.883   3.878   2.241
 9140SOL    HW128319   1.862   3.786   2.273
 9140SOL    HW228320   1.982   3.888   2.229
 9141SOL     OW28321   0.614   5.581   4.672
 9141SOL    HW128322   0.701   5.592   4.625
 9141SOL    HW228323   0.549   5.649   4.636
 9142SOL     OW28324   1.645   4.645   3.279
 9142SOL    HW128325   1.570   4.695   3.236
 9142SOL    HW228326   1.729   4.660   3.226
 9143SOL     OW28327   6.222   3.419   2.701
 9143SOL    HW128328   6.257   3.483   2.633
 9143SOL    HW228329   6.294   3.396   2.766
 9144SOL     OW28330   3.270   4.347   5.539
 9144SOL    HW128331   3.251   4.376   5.633
 9144SOL    HW228332   3.286   4.249   5.537
 9145SOL     OW28333   2.010   6.521   6.100
 9145SOL    HW128334   1.922   6.560   6.129
 9145SOL    HW228335   1.999   6.480   6.009
 9146SOL     OW28336   6.235   2.398   3.983
 9146SOL    HW128337   6.178   2.316   3.975
 9146SOL    HW228338   6.244   2.423   4.080
 9147SOL     OW28339   4.475   0.816   5.859
 9147SOL    HW128340   4.418   0.882   5.809
 9147SOL    HW228341   4.568   0.818   5.822
 9148SOL     OW28342   4.236   5.678   2.164
 9148SOL    HW128343   4.178   5.640   2.235
 9148SOL    HW228344   4.296   5.748   2.203
 9149SOL     OW28345   0.795   4.208   1.409
 9149SOL    HW128346   0.722   4.277   1.406
 9149SOL    HW228347   0.754   4.117   1.418
 9150SOL     OW28348   2.870   3.914   0.225
 9150SOL    HW128349   2.876   3.843   0.155
 9150SOL    HW228350   2.889   3.873   0.315
 9151SOL     OW28351   2.162   3.031   3.526
 9151SOL    HW128352   2.102   3.106   3.499
 9151SOL    HW228353   2.208   3.055   3.612
 9152SOL     OW28354   1.775   4.956   2.291
 9152SOL    HW128355   1.845   4.992   2.353
 9152SOL    HW228356   1.815   4.885   2.233
 9153SOL     OW28357   0.164   3.547   0.568
 9153SOL    HW128358   0.140   3.614   0.498
 9153SOL    HW228359   0.085   3.530   0.626
 9154SOL     OW28360   4.622   5.168   3.335
 9154SOL    HW128361   4.611   5.079   3.379
 9154SOL    HW228362   4.612   5.241   3.404
 9155SOL     OW28363   1.101   6.182   2.706
 9155SOL    HW128364   1.119   6.158   2.611
 9155SOL    HW228365   1.182   6.227   2.745
 9156SOL     OW28366   0.374   4.258   5.429
 9156SOL    HW128367   0.279   4.234   5.450
 9156SOL    HW228368   0.424   4.175   5.404
 9157SOL     OW28369   1.863   4.935   5.226
 9157SOL    HW128370   1.918   4.986   5.291
 9157SOL    HW228371   1.900   4.842   5.217
 9158SOL     OW28372   0.104   3.132   4.810
 9158SOL    HW128373   0.138   3.185   4.887
 9158SOL    HW228374   0.158   3.048   4.800
 9159SOL     OW28375   2.185   1.464   4.068
 9159SOL    HW128376   2.188   1.560   4.098
 9159SOL    HW228377   2.090   1.433   4.066
 9160SOL     OW28378   0.861   3.023   6.612
 9160SOL    HW128379   0.779   2.994   6.562
 9160SOL    HW228380   0.901   3.102   6.566
 9161SOL     OW28381   5.497   2.748   3.007
 9161SOL    HW128382   5.555   2.822   2.971
 9161SOL    HW228383   5.514   2.736   3.104
 9162SOL     OW28384   4.026   2.217   1.953
 9162SOL    HW128385   3.981   2.262   1.876
 9162SOL    HW228386   3.965   2.147   1.991
 9163SOL     OW28387   1.762   2.942   3.732
 9163SOL    HW128388   1.763   2.899   3.641
 9163SOL    HW228389   1.744   2.872   3.801
 9164SOL     OW28390   3.267   6.649   0.297
 9164SOL    HW128391   3.185   6.617   0.251
 9164SOL    HW228392   3.305   6.575   0.353
 9165SOL     OW28393   5.905   1.102   6.479
 9165SOL    HW128394   5.954   1.188   6.493
 9165SOL    HW228395   5.810   1.113   6.511
 9166SOL     OW28396   4.155   6.659   1.798
 9166SOL    HW128397   4.108   6.719   1.733
 9166SOL    HW228398   4.227   6.609   1.750
 9167SOL     OW28399   1.264   2.065   4.253
 9167SOL    HW128400   1.184   2.006   4.248
 9167SOL    HW228401   1.243   2.145   4.310
 9168SOL     OW28402   6.563   5.895   4.968
 9168SOL    HW128403   6.519   5.971   5.014
 9168SOL    HW228404   6.635   5.929   4.908
 9169SOL     OW28405   6.416   6.103   0.019
 9169SOL    HW128406   6.437   6.040   6.968
 9169SOL    HW228407   6.450   6.194   7.020
 9170SOL     OW28408   1.955   1.097   6.076
 9170SOL    HW128409   2.032   1.141   6.029
 9170SOL    HW228410   1.901   1.166   6.124
 9171SOL     OW28411   4.321   5.418   0.435
 9171SOL    HW128412   4.365   5.406   0.524
 9171SOL    HW228413   4.257   5.495   0.439
 9172SOL     OW28414   4.736   1.752   5.224
 9172SOL    HW128415   4.810   1.788   5.281
 9172SOL    HW228416   4.734   1.653   5.232
 9173SOL     OW28417   6.229   4.152   5.293
 9173SOL    HW128418   6.237   4.144   5.392
 9173SOL    HW228419   6.271   4.238   5.262
 9174SOL     OW28420   6.058   4.691   0.428
 9174SOL    HW128421   6.112   4.770   0.454
 9174SOL    HW228422   6.070   4.618   0.495
 9175SOL     OW28423   2.473   1.123   1.475
 9175SOL    HW128424   2.547   1.137   1.409
 9175SOL    HW228425   2.445   1.211   1.514
 9176SOL     OW28426   1.709   1.199   2.561
 9176SOL    HW128427   1.767   1.148   2.496
 9176SOL    HW228428   1.747   1.291   2.573
 9177SOL     OW28429   0.914   5.929   3.370
 9177SOL    HW128430   0.873   5.861   3.310
 9177SOL    HW228431   0.938   5.886   3.457
 9178SOL     OW28432   1.476   3.610   1.155
 9178SOL    HW128433   1.399   3.657   1.113
 9178SOL    HW228434   1.544   3.677   1.184
 9179SOL     OW28435   4.131   4.913   3.149
 9179SOL    HW128436   4.055   4.938   3.209
 9179SOL    HW228437   4.177   4.832   3.184
 9180SOL     OW28438   0.504   0.743   5.131
 9180SOL    HW128439   0.433   0.696   5.184
 9180SOL    HW228440   0.525   0.831   5.173
 9181SOL     OW28441   2.632   2.106   3.540
 9181SOL    HW128442   2.632   2.068   3.633
 9181SOL    HW228443   2.538   2.128   3.513
 9182SOL     OW28444   6.557   1.753   2.746
 9182SOL    HW128445   6.580   1.777   2.840
 9182SOL    HW228446   6.585   1.827   2.685
 9183SOL     OW28447   2.266   1.281   5.778
 9183SOL    HW128448   2.186   1.315   5.729
 9183SOL    HW228449   2.335   1.354   5.784
 9184SOL     OW28450   2.744   4.794   1.438
 9184SOL    HW128451   2.722   4.891   1.436
 9184SOL    HW228452   2.736   4.759   1.531
 9185SOL     OW28453   1.215   1.086   5.443
 9185SOL    HW128454   1.163   1.029   5.379
 9185SOL    HW228455   1.303   1.109   5.404
 9186SOL     OW28456   5.791   6.336   6.349
 9186SOL    HW128457   5.834   6.257   6.392
 9186SOL    HW228458   5.726   6.304   6.280
 9187SOL     OW28459   4.972   2.696   1.281
 9187SOL    HW128460   4.934   2.668   1.369
 9187SOL    HW228461   4.914   2.766   1.240
 9188SOL     OW28462   1.419   0.846   2.138
 9188SOL    HW128463   1.458   0.758   2.165
 9188SOL    HW228464   1.338   0.830   2.080
 9189SOL     OW28465   2.914   0.476   6.096
 9189SOL    HW128466   3.006   0.500   6.127
 9189SOL    HW228467   2.848   0.500   6.167
 9190SOL     OW28468   3.825   0.905   5.443
 9190SOL    HW128469   3.759   0.867   5.379
 9190SOL    HW228470   3.850   0.835   5.510
 9191SOL     OW28471   5.467   6.856   1.460
 9191SOL    HW128472   5.416   6.860   1.374
 9191SOL    HW228473   5.404   6.847   1.536
 9192SOL     OW28474   5.109   4.136   4.828
 9192SOL    HW128475   5.119   4.157   4.926
 9192SOL    HW228476   5.037   4.067   4.817
 9193SOL     OW28477   4.148   3.471   2.992
 9193SOL    HW128478   4.223   3.408   3.012
 9193SOL    HW228479   4.061   3.420   2.991
 9194SOL     OW28480   3.330   5.125   2.736
 9194SOL    HW128481   3.387   5.067   2.795
 9194SOL    HW228482   3.276   5.067   2.675
 9195SOL     OW28483   0.677   3.243   3.565
 9195SOL    HW128484   0.734   3.282   3.493
 9195SOL    HW228485   0.706   3.278   3.654
 9196SOL     OW28486   5.102   5.570   3.337
 9196SOL    HW128487   5.041   5.497   3.366
 9196SOL    HW228488   5.191   5.531   3.312
 9197SOL     OW28489   4.777   1.889   0.255
 9197SOL    HW128490   4.848   1.885   0.324
 9197SOL    HW228491   4.750   1.985   0.241
 9198SOL     OW28492   6.178   2.673   5.574
 9198SOL    HW128493   6.173   2.755   5.630
 9198SOL    HW228494   6.100   2.670   5.511
 9199SOL     OW28495   0.793   3.800   6.637
 9199SOL    HW128496   0.713   3.852   6.608
 9199SOL    HW228497   0.800   3.801   6.736
 9200SOL     OW28498   4.942   6.367   1.585
 9200SOL    HW128499   4.857   6.326   1.619
 9200SOL    HW228500   4.933   6.385   1.487
 9201SOL     OW28501   0.015   2.852   2.009
 9201SOL    HW128502   0.092   2.902   1.970
 9201SOL    HW228503   6.973   2.829   1.936
 9202SOL     OW28504   2.328   6.090   4.329
 9202SOL    HW128505   2.283   6.001   4.333
 9202SOL    HW228506   2.407   6.086   4.267
 9203SOL     OW28507   5.309   1.858   0.902
 9203SOL    HW128508   5.324   1.954   0.878
 9203SOL    HW228509   5.237   1.820   0.844
 9204SOL     OW28510   5.092   4.596   2.551
 9204SOL    HW128511   5.064   4.588   2.647
 9204SOL    HW228512   5.062   4.515   2.501
 9205SOL     OW28513   3.962   2.506   1.545
 9205SOL    HW128514   4.028   2.533   1.475
 9205SOL    HW228515   3.872   2.542   1.522
 9206SOL     OW28516   6.754   6.179   5.040
 9206SOL    HW128517   6.754   6.250   4.970
 9206SOL    HW228518   6.813   6.103   5.012
 9207SOL     OW28519   4.974   6.288   0.261
 9207SOL    HW128520   5.045   6.287   0.191
 9207SOL    HW228521   5.005   6.344   0.338
 9208SOL     OW28522   4.930   4.583   1.688
 9208SOL    HW128523   4.854   4.628   1.734
 9208SOL    HW228524   4.984   4.531   1.755
 9209SOL     OW28525   4.540   0.374   3.693
 9209SOL    HW128526   4.597   0.433   3.636
 9209SOL    HW228527   4.451   0.418   3.708
 9210SOL     OW28528   0.982   6.886   6.799
 9210SOL    HW128529   1.046   6.862   6.872
 9210SOL    HW228530   0.991   6.819   6.725
 9211SOL     OW28531   4.795   1.473   6.666
 9211SOL    HW128532   4.810   1.531   6.746
 9211SOL    HW228533   4.787   1.530   6.584
 9212SOL     OW28534   6.154   3.382   6.134
 9212SOL    HW128535   6.217   3.338   6.197
 9212SOL    HW228536   6.060   3.370   6.165
 9213SOL     OW28537   6.486   5.645   2.028
 9213SOL    HW128538   6.505   5.733   1.985
 9213SOL    HW228539   6.391   5.619   2.010
 9214SOL     OW28540   2.097   1.699   6.735
 9214SOL    HW128541   2.152   1.764   6.683
 9214SOL    HW228542   2.011   1.743   6.763
 9215SOL     OW28543   0.028   3.895   3.797
 9215SOL    HW128544   0.102   3.847   3.750
 9215SOL    HW228545   6.963   3.861   3.764
 9216SOL     OW28546   2.302   6.913   3.835
 9216SOL    HW128547   2.262   7.004   3.822
 9216SOL    HW228548   2.314   6.869   3.747
 9217SOL     OW28549   3.482   2.289   6.828
 9217SOL    HW128550   3.409   2.322   6.887
 9217SOL    HW228551   3.444   2.265   6.738
 9218SOL     OW28552   4.668   5.905   5.548
 9218SOL    HW128553   4.761   5.870   5.562
 9218SOL    HW228554   4.645   5.901   5.451
 9219SOL     OW28555   3.509   2.778   5.698
 9219SOL    HW128556   3.452   2.722   5.759
 9219SOL    HW228557   3.571   2.718   5.646
 9220SOL     OW28558   0.639   6.570   3.533
 9220SOL    HW128559   0.662   6.592   3.628
 9220SOL    HW228560   0.581   6.643   3.496
 9221SOL     OW28561   2.895   1.537   1.594
 9221SOL    HW128562   2.832   1.552   1.670
 9221SOL    HW228563   2.845   1.543   1.507
 9222SOL     OW28564   2.201   5.820   3.223
 9222SOL    HW128565   2.133   5.795   3.154
 9222SOL    HW228566   2.230   5.914   3.208
 9223SOL     OW28567   6.313   2.478   4.787
 9223SOL    HW128568   6.293   2.573   4.762
 9223SOL    HW228569   6.285   2.417   4.713
 9224SOL     OW28570   1.694   5.184   2.493
 9224SOL    HW128571   1.638   5.197   2.412
 9224SOL    HW228572   1.655   5.111   2.549
 9225SOL     OW28573   0.630   5.405   6.072
 9225SOL    HW128574   0.685   5.339   6.125
 9225SOL    HW228575   0.690   5.459   6.014
 9226SOL     OW28576   0.587   0.337   4.780
 9226SOL    HW128577   0.580   0.414   4.844
 9226SOL    HW228578   0.599   0.252   4.832
 9227SOL     OW28579   3.878   3.534   0.072
 9227SOL    HW128580   3.803   3.469   0.058
 9227SOL    HW228581   3.901   3.576   7.008
 9228SOL     OW28582   3.443   3.522   5.209
 9228SOL    HW128583   3.344   3.531   5.221
 9228SOL    HW228584   3.489   3.598   5.254
 9229SOL     OW28585   0.216   4.959   0.635
 9229SOL    HW128586   0.242   4.931   0.543
 9229SOL    HW228587   0.122   4.993   0.635
 9230SOL     OW28588   3.992   6.987   6.063
 9230SOL    HW128589   4.087   7.016   6.065
 9230SOL    HW228590   3.943   0.014   5.992
 9231SOL     OW28591   6.189   6.545   1.723
 9231SOL    HW128592   6.224   6.487   1.796
 9231SOL    HW228593   6.226   6.637   1.732
 9232SOL     OW28594   1.031   5.357   2.140
 9232SOL    HW128595   1.057   5.373   2.235
 9232SOL    HW228596   1.092   5.290   2.099
 9233SOL     OW28597   1.048   0.026   5.635
 9233SOL    HW128598   1.111   6.972   5.645
 9233SOL    HW228599   1.099   0.112   5.640
 9234SOL     OW28600   3.654   4.336   6.440
 9234SOL    HW128601   3.605   4.382   6.514
 9234SOL    HW228602   3.632   4.381   6.353
 9235SOL     OW28603   2.382   2.646   3.077
 9235SOL    HW128604   2.374   2.605   3.169
 9235SOL    HW228605   2.326   2.728   3.073
 9236SOL     OW28606   1.904   3.707   6.066
 9236SOL    HW128607   1.931   3.803   6.061
 9236SOL    HW228608   1.807   3.699   6.043
 9237SOL     OW28609   6.515   5.165   3.816
 9237SOL    HW128610   6.491   5.261   3.800
 9237SOL    HW228611   6.528   5.119   3.728
 9238SOL     OW28612   1.087   2.596   5.142
 9238SOL    HW128613   1.053   2.680   5.100
 9238SOL    HW228614   1.028   2.520   5.118
 9239SOL     OW28615   1.597   5.687   5.858
 9239SOL    HW128616   1.560   5.674   5.766
 9239SOL    HW228617   1.526   5.667   5.925
 9240SOL     OW28618   3.428   1.342   4.519
 9240SOL    HW128619   3.379   1.355   4.433
 9240SOL    HW228620   3.483   1.423   4.538
 9241SOL     OW28621   5.193   6.326   0.076
 9241SOL    HW128622   5.269   6.376   0.117
 9241SOL    HW228623   5.139   6.388   0.019
 9242SOL     OW28624   2.629   2.714   0.276
 9242SOL    HW128625   2.697   2.649   0.311
 9242SOL    HW228626   2.634   2.716   0.176
 9243SOL     OW28627   2.087   0.462   0.273
 9243SOL    HW128628   2.113   0.444   0.368
 9243SOL    HW228629   2.075   0.375   0.225
 9244SOL     OW28630   2.857   6.253   0.045
 9244SOL    HW128631   2.860   6.241   6.969
 9244SOL    HW228632   2.948   6.236   0.083
 9245SOL     OW28633   0.586   4.948   2.946
 9245SOL    HW128634   0.637   5.025   2.908
 9245SOL    HW228635   0.489   4.958   2.924
 9246SOL     OW28636   5.018   6.904   6.790
 9246SOL    HW128637   5.065   6.882   6.876
 9246SOL    HW228638   5.072   6.971   6.739
 9247SOL     OW28639   3.431   6.750   2.822
 9247SOL    HW128640   3.458   6.655   2.803
 9247SOL    HW228641   3.337   6.765   2.790
 9248SOL     OW28642   2.782   0.126   0.239
 9248SOL    HW128643   2.825   0.035   0.242
 9248SOL    HW228644   2.822   0.184   0.310
 9249SOL     OW28645   3.443   0.574   0.463
 9249SOL    HW128646   3.533   0.578   0.505
 9249SOL    HW228647   3.430   0.485   0.420
 9250SOL     OW28648   0.538   3.743   3.027
 9250SOL    HW128649   0.527   3.643   3.025
 9250SOL    HW228650   0.467   3.785   2.971
 9251SOL     OW28651   4.037   1.740   1.320
 9251SOL    HW128652   3.998   1.803   1.254
 9251SOL    HW228653   4.137   1.746   1.316
 9252SOL     OW28654   5.591   1.725   4.741
 9252SOL    HW128655   5.664   1.658   4.730
 9252SOL    HW228656   5.625   1.804   4.792
 9253SOL     OW28657   2.453   4.847   3.976
 9253SOL    HW128658   2.379   4.782   3.996
 9253SOL    HW228659   2.414   4.932   3.942
 9254SOL     OW28660   0.057   5.872   2.502
 9254SOL    HW128661   7.001   5.933   2.511
 9254SOL    HW228662   0.127   5.916   2.447
 9255SOL     OW28663   6.436   3.246   0.764
 9255SOL    HW128664   6.430   3.182   0.687
 9255SOL    HW228665   6.512   3.309   0.748
 9256SOL     OW28666   2.302   6.391   0.895
 9256SOL    HW128667   2.385   6.420   0.846
 9256SOL    HW228668   2.224   6.397   0.833
 9257SOL     OW28669   6.690   5.936   4.677
 9257SOL    HW128670   6.664   5.930   4.581
 9257SOL    HW228671   6.681   6.030   4.708
 9258SOL     OW28672   5.247   4.692   2.326
 9258SOL    HW128673   5.244   4.787   2.359
 9258SOL    HW228674   5.263   4.631   2.404
 9259SOL     OW28675   1.039   2.576   6.915
 9259SOL    HW128676   1.009   2.510   6.847
 9259SOL    HW228677   0.995   2.664   6.897
 9260SOL     OW28678   5.374   4.254   4.815
 9260SOL    HW128679   5.430   4.179   4.780
 9260SOL    HW228680   5.280   4.224   4.826
 9261SOL     OW28681   1.443   3.564   1.771
 9261SOL    HW128682   1.348   3.538   1.758
 9261SOL    HW228683   1.502   3.486   1.749
 9262SOL     OW28684   0.380   6.705   6.367
 9262SOL    HW128685   0.415   6.613   6.388
 9262SOL    HW228686   0.295   6.697   6.316
 9263SOL     OW28687   2.508   4.455   2.908
 9263SOL    HW128688   2.484   4.393   2.834
 9263SOL    HW228689   2.566   4.529   2.873
 9264SOL     OW28690   5.199   3.414   5.832
 9264SOL    HW128691   5.192   3.507   5.867
 9264SOL    HW228692   5.294   3.383   5.838
 9265SOL     OW28693   5.026   0.024   2.044
 9265SOL    HW128694   4.949   0.047   1.985
 9265SOL    HW228695   5.111   0.026   1.991
 9266SOL     OW28696   0.740   4.844   1.006
 9266SOL    HW128697   0.661   4.899   0.978
 9266SOL    HW228698   0.804   4.837   0.930
 9267SOL     OW28699   6.840   1.449   3.831
 9267SOL    HW128700   6.897   1.409   3.903
 9267SOL    HW228701   6.878   1.425   3.742
 9268SOL     OW28702   0.527   1.065   1.455
 9268SOL    HW128703   0.428   1.074   1.443
 9268SOL    HW228704   0.555   1.114   1.537
 9269SOL     OW28705   3.819   0.361   1.165
 9269SOL    HW128706   3.877   0.369   1.246
 9269SOL    HW228707   3.868   0.398   1.086
 9270SOL     OW28708   2.250   0.782   5.419
 9270SOL    HW128709   2.164   0.816   5.380
 9270SOL    HW228710   2.295   0.721   5.354
 9271SOL     OW28711   1.821   4.350   5.870
 9271SOL    HW128712   1.891   4.281   5.889
 9271SOL    HW228713   1.861   4.425   5.819
 9272SOL     OW28714   6.863   6.839   5.248
 9272SOL    HW128715   6.788   6.782   5.282
 9272SOL    HW228716   6.948   6.809   5.290
 9273SOL     OW28717   6.199   3.573   4.351
 9273SOL    HW128718   6.266   3.519   4.404
 9273SOL    HW228719   6.115   3.583   4.405
 9274SOL     OW28720   6.872   3.173   0.230
 9274SOL    HW128721   6.791   3.232   0.222
 9274SOL    HW228722   6.921   3.196   0.315
 9275SOL     OW28723   5.223   1.788   0.173
 9275SOL    HW128724   5.128   1.818   0.159
 9275SOL    HW228725   5.286   1.857   0.137
 9276SOL     OW28726   1.879   3.582   0.064
 9276SOL    HW128727   1.929   3.585   7.000
 9276SOL    HW228728   1.806   3.515   0.058
 9277SOL     OW28729   4.048   5.811   2.375
 9277SOL    HW128730   3.980   5.875   2.411
 9277SOL    HW228731   4.088   5.849   2.292
 9278SOL     OW28732   0.636   0.548   5.497
 9278SOL    HW128733   0.703   0.622   5.502
 9278SOL    HW228734   0.584   0.543   5.582
 9279SOL     OW28735   3.141   6.029   1.846
 9279SOL    HW128736   3.177   6.122   1.851
 9279SOL    HW228737   3.214   5.966   1.817
 9280SOL     OW28738   1.225   5.084   1.781
 9280SOL    HW128739   1.217   5.088   1.681
 9280SOL    HW228740   1.247   4.991   1.809
 9281SOL     OW28741   1.328   5.712   0.897
 9281SOL    HW128742   1.380   5.789   0.861
 9281SOL    HW228743   1.232   5.722   0.872
 9282SOL     OW28744   1.868   0.318   4.498
 9282SOL    HW128745   1.908   0.227   4.509
 9282SOL    HW228746   1.863   0.342   4.401
 9283SOL     OW28747   4.751   5.626   7.006
 9283SOL    HW128748   4.769   5.559   0.056
 9283SOL    HW228749   4.707   5.707   0.022
 9284SOL     OW28750   4.441   6.240   1.055
 9284SOL    HW128751   4.375   6.296   1.107
 9284SOL    HW228752   4.525   6.293   1.041
 9285SOL     OW28753   6.880   5.862   3.591
 9285SOL    HW128754   6.794   5.815   3.572
 9285SOL    HW228755   6.952   5.794   3.608
 9286SOL     OW28756   4.991   6.753   1.542
 9286SOL    HW128757   4.898   6.769   1.510
 9286SOL    HW228758   4.989   6.702   1.628
 9287SOL     OW28759   4.601   4.485   0.542
 9287SOL    HW128760   4.554   4.457   0.458
 9287SOL    HW228761   4.560   4.438   0.620
 9288SOL     OW28762   3.991   1.659   2.524
 9288SOL    HW128763   3.897   1.635   2.503
 9288SOL    HW228764   4.050   1.580   2.509
 9289SOL     OW28765   4.670   5.724   2.385
 9289SOL    HW128766   4.726   5.642   2.402
 9289SOL    HW228767   4.723   5.806   2.406
 9290SOL     OW28768   5.317   1.236   3.588
 9290SOL    HW128769   5.387   1.245   3.658
 9290SOL    HW228770   5.353   1.267   3.500
 9291SOL     OW28771   0.936   4.010   5.720
 9291SOL    HW128772   0.931   4.030   5.622
 9291SOL    HW228773   0.891   3.923   5.739
 9292SOL     OW28774   1.032   1.660   6.883
 9292SOL    HW128775   1.120   1.614   6.883
 9292SOL    HW228776   0.991   1.655   6.792
 9293SOL     OW28777   4.717   1.037   5.411
 9293SOL    HW128778   4.721   0.997   5.319
 9293SOL    HW228779   4.807   1.033   5.453
 9294SOL     OW28780   5.163   6.108   6.028
 9294SOL    HW128781   5.136   6.101   5.932
 9294SOL    HW228782   5.245   6.054   6.044
 9295SOL     OW28783   6.274   0.498   3.179
 9295SOL    HW128784   6.233   0.408   3.192
 9295SOL    HW228785   6.353   0.508   3.239
 9296SOL     OW28786   1.511   4.244   5.587
 9296SOL    HW128787   1.436   4.193   5.544
 9296SOL    HW228788   1.548   4.191   5.663
 9297SOL     OW28789   6.619   5.150   1.998
 9297SOL    HW128790   6.658   5.104   2.078
 9297SOL    HW228791   6.523   5.170   2.015
 9298SOL     OW28792   0.460   4.540   6.221
 9298SOL    HW128793   0.543   4.535   6.165
 9298SOL    HW228794   0.431   4.448   6.246
 9299SOL     OW28795   3.232   1.928   3.876
 9299SOL    HW128796   3.314   1.884   3.842
 9299SOL    HW228797   3.250   2.024   3.894
 9300SOL     OW28798   2.403   5.559   5.603
 9300SOL    HW128799   2.449   5.470   5.609
 9300SOL    HW228800   2.471   5.630   5.582
 9301SOL     OW28801   0.846   3.862   4.245
 9301SOL    HW128802   0.768   3.901   4.294
 9301SOL    HW228803   0.861   3.913   4.161
 9302SOL     OW28804   3.145   5.236   3.909
 9302SOL    HW128805   3.157   5.235   4.008
 9302SOL    HW228806   3.056   5.197   3.885
 9303SOL     OW28807   2.535   4.555   6.831
 9303SOL    HW128808   2.557   4.528   6.737
 9303SOL    HW228809   2.446   4.600   6.832
 9304SOL     OW28810   5.666   5.771   6.313
 9304SOL    HW128811   5.745   5.725   6.353
 9304SOL    HW228812   5.637   5.723   6.231
 9305SOL     OW28813   1.651   1.627   1.088
 9305SOL    HW128814   1.619   1.721   1.096
 9305SOL    HW228815   1.680   1.609   0.993
 9306SOL     OW28816   6.832   6.326   4.452
 9306SOL    HW128817   6.874   6.248   4.498
 9306SOL    HW228818   6.735   6.307   4.436
 9307SOL     OW28819   2.106   3.899   1.345
 9307SOL    HW128820   2.123   3.847   1.261
 9307SOL    HW228821   2.175   3.971   1.354
 9308SOL     OW28822   2.488   3.674   1.207
 9308SOL    HW128823   2.402   3.715   1.177
 9308SOL    HW228824   2.469   3.603   1.275
 9309SOL     OW28825   4.560   5.243   5.787
 9309SOL    HW128826   4.579   5.226   5.884
 9309SOL    HW228827   4.568   5.158   5.736
 9310SOL     OW28828   6.617   6.031   5.918
 9310SOL    HW128829   6.587   6.115   5.964
 9310SOL    HW228830   6.648   6.054   5.825
 9311SOL     OW28831   5.787   4.388   0.561
 9311SOL    HW128832   5.744   4.300   0.581
 9311SOL    HW228833   5.732   4.436   0.493
 9312SOL     OW28834   5.678   3.304   4.467
 9312SOL    HW128835   5.632   3.218   4.489
 9312SOL    HW228836   5.755   3.318   4.529
 9313SOL     OW28837   0.573   0.592   2.208
 9313SOL    HW128838   0.640   0.574   2.280
 9313SOL    HW228839   0.601   0.672   2.155
 9314SOL     OW28840   4.563   4.769   1.131
 9314SOL    HW128841   4.642   4.732   1.180
 9314SOL    HW228842   4.574   4.868   1.119
 9315SOL     OW28843   6.138   5.173   5.702
 9315SOL    HW128844   6.211   5.154   5.768
 9315SOL    HW228845   6.078   5.244   5.739
 9316SOL     OW28846   5.706   6.778   0.676
 9316SOL    HW128847   5.699   6.680   0.657
 9316SOL    HW228848   5.649   6.828   0.611
 9317SOL     OW28849   2.506   6.436   3.069
 9317SOL    HW128850   2.541   6.419   2.976
 9317SOL    HW228851   2.407   6.421   3.070
 9318SOL     OW28852   3.342   6.928   3.507
 9318SOL    HW128853   3.397   6.851   3.474
 9318SOL    HW228854   3.364   7.010   3.454
 9319SOL     OW28855   3.588   1.902   0.173
 9319SOL    HW128856   3.553   1.836   0.107
 9319SOL    HW228857   3.572   1.995   0.139
 9320SOL     OW28858   6.876   6.610   6.897
 9320SOL    HW128859   6.938   6.687   6.910
 9320SOL    HW228860   6.873   6.554   6.981
 9321SOL     OW28861   0.544   2.751   3.931
 9321SOL    HW128862   0.610   2.678   3.946
 9321SOL    HW228863   0.561   2.827   3.994
 9322SOL     OW28864   4.992   2.695   6.873
 9322SOL    HW128865   5.075   2.705   6.819
 9322SOL    HW228866   4.942   2.782   6.875
 9323SOL     OW28867   0.638   2.086   5.386
 9323SOL    HW128868   0.653   2.042   5.297
 9323SOL    HW228869   0.548   2.129   5.388
 9324SOL     OW28870   0.519   4.615   1.096
 9324SOL    HW128871   0.562   4.703   1.079
 9324SOL    HW228872   0.434   4.607   1.045
 9325SOL     OW28873   1.119   4.851   3.384
 9325SOL    HW128874   1.021   4.859   3.402
 9325SOL    HW228875   1.162   4.941   3.391
 9326SOL     OW28876   4.979   4.459   1.333
 9326SOL    HW128877   5.004   4.507   1.417
 9326SOL    HW228878   4.890   4.416   1.345
 9327SOL     OW28879   2.607   1.723   3.267
 9327SOL    HW128880   2.592   1.634   3.223
 9327SOL    HW228881   2.576   1.718   3.362
 9328SOL     OW28882   1.180   6.993   3.276
 9328SOL    HW128883   1.111   6.959   3.211
 9328SOL    HW228884   1.199   0.066   3.256
 9329SOL     OW28885   1.880   5.143   6.411
 9329SOL    HW128886   1.809   5.085   6.451
 9329SOL    HW228887   1.837   5.225   6.372
 9330SOL     OW28888   0.436   6.378   0.807
 9330SOL    HW128889   0.343   6.412   0.795
 9330SOL    HW228890   0.455   6.309   0.737
 9331SOL     OW28891   2.020   4.830   4.418
 9331SOL    HW128892   2.056   4.922   4.431
 9331SOL    HW228893   1.933   4.821   4.466
 9332SOL     OW28894   6.472   5.099   0.275
 9332SOL    HW128895   6.447   5.167   0.206
 9332SOL    HW228896   6.515   5.144   0.353
 9333SOL     OW28897   2.175   4.615   1.147
 9333SOL    HW128898   2.236   4.663   1.083
 9333SOL    HW228899   2.189   4.650   1.239
 9334SOL     OW28900   6.920   5.247   6.968
 9334SOL    HW128901   6.977   5.167   6.950
 9334SOL    HW228902   6.954   5.325   6.914
 9335SOL     OW28903   0.291   3.351   1.159
 9335SOL    HW128904   0.356   3.328   1.232
 9335SOL    HW228905   0.205   3.382   1.200
 9336SOL     OW28906   4.244   5.752   5.540
 9336SOL    HW128907   4.324   5.807   5.560
 9336SOL    HW228908   4.162   5.799   5.572
 9337SOL     OW28909   3.128   1.513   4.958
 9337SOL    HW128910   3.140   1.500   5.056
 9337SOL    HW228911   3.034   1.542   4.939
 9338SOL     OW28912   4.932   6.326   0.981
 9338SOL    HW128913   4.951   6.228   0.975
 9338SOL    HW228914   4.833   6.340   0.979
 9339SOL     OW28915   6.838   3.538   5.195
 9339SOL    HW128916   6.825   3.637   5.207
 9339SOL    HW228917   6.762   3.489   5.237
 9340SOL     OW28918   2.384   4.805   2.377
 9340SOL    HW128919   2.450   4.738   2.344
 9340SOL    HW228920   2.419   4.898   2.361
 9341SOL     OW28921   5.734   5.465   0.190
 9341SOL    HW128922   5.818   5.516   0.172
 9341SOL    HW228923   5.751   5.367   0.175
 9342SOL     OW28924   2.988   0.220   5.142
 9342SOL    HW128925   3.072   0.256   5.185
 9342SOL    HW228926   2.927   0.186   5.213
 9343SOL     OW28927   5.087   3.392   1.479
 9343SOL    HW128928   5.121   3.467   1.534
 9343SOL    HW228929   4.998   3.362   1.514
 9344SOL     OW28930   5.688   7.013   4.997
 9344SOL    HW128931   5.666   6.916   4.994
 9344SOL    HW228932   5.644   0.038   4.921
 9345SOL     OW28933   6.974   4.811   6.657
 9345SOL    HW128934   0.038   4.849   6.689
 9345SOL    HW228935   6.991   4.742   6.587
 9346SOL     OW28936   5.395   0.231   2.106
 9346SOL    HW128937   5.406   0.308   2.044
 9346SOL    HW228938   5.347   0.262   2.189
 9347SOL     OW28939   4.860   6.734   1.969
 9347SOL    HW128940   4.769   6.696   1.952
 9347SOL    HW228941   4.868   6.823   1.924
 9348SOL     OW28942   2.488   4.933   1.995
 9348SOL    HW128943   2.557   4.860   1.993
 9348SOL    HW228944   2.534   5.022   1.993
 9349SOL     OW28945   6.112   5.903   0.775
 9349SOL    HW128946   6.015   5.929   0.771
 9349SOL    HW228947   6.155   5.919   0.686
 9350SOL     OW28948   6.221   0.263   0.203
 9350SOL    HW128949   6.237   0.205   0.283
 9350SOL    HW228950   6.228   0.359   0.231
 9351SOL     OW28951   4.754   3.756   6.292
 9351SOL    HW128952   4.748   3.663   6.326
 9351SOL    HW228953   4.850   3.777   6.269
 9352SOL     OW28954   2.137   2.074   0.132
 9352SOL    HW128955   2.097   2.151   0.182
 9352SOL    HW228956   2.202   2.108   0.065
 9353SOL     OW28957   1.069   3.234   1.817
 9353SOL    HW128958   1.066   3.135   1.807
 9353SOL    HW228959   0.977   3.269   1.834
 9354SOL     OW28960   5.573   2.158   2.723
 9354SOL    HW128961   5.613   2.114   2.643
 9354SOL    HW228962   5.631   2.141   2.803
 9355SOL     OW28963   0.100   1.753   2.222
 9355SOL    HW128964   0.158   1.710   2.153
 9355SOL    HW228965   0.053   1.682   2.275
 9356SOL     OW28966   5.003   2.731   2.470
 9356SOL    HW128967   5.033   2.709   2.563
 9356SOL    HW228968   4.903   2.739   2.469
 9357SOL     OW28969   2.470   4.743   0.243
 9357SOL    HW128970   2.518   4.680   0.181
 9357SOL    HW228971   2.377   4.710   0.259
 9358SOL     OW28972   5.173   3.480   2.522
 9358SOL    HW128973   5.077   3.455   2.536
 9358SOL    HW228974   5.180   3.543   2.444
 9359SOL     OW28975   4.906   5.726   6.228
 9359SOL    HW128976   4.943   5.645   6.272
 9359SOL    HW228977   4.963   5.750   6.149
 9360SOL     OW28978   1.619   1.297   4.963
 9360SOL    HW128979   1.600   1.395   4.973
 9360SOL    HW228980   1.685   1.268   5.032
 9361SOL     OW28981   2.202   1.483   2.727
 9361SOL    HW128982   2.108   1.492   2.761
 9361SOL    HW228983   2.200   1.441   2.636
 9362SOL     OW28984   2.124   1.592   3.209
 9362SOL    HW128985   2.186   1.619   3.136
 9362SOL    HW228986   2.037   1.563   3.170
 9363SOL     OW28987   1.325   6.537   2.326
 9363SOL    HW128988   1.418   6.532   2.361
 9363SOL    HW228989   1.324   6.588   2.240
 9364SOL     OW28990   5.255   4.160   0.900
 9364SOL    HW128991   5.353   4.178   0.887
 9364SOL    HW228992   5.219   4.222   0.970
 9365SOL     OW28993   1.932   1.377   4.062
 9365SOL    HW128994   1.874   1.456   4.043
 9365SOL    HW228995   1.890   1.321   4.133
 9366SOL     OW28996   2.973   1.670   2.340
 9366SOL    HW128997   3.070   1.646   2.336
 9366SOL    HW228998   2.929   1.648   2.253
 9367SOL     OW28999   6.206   6.503   3.958
 9367SOL    HW129000   6.208   6.421   4.015
 9367SOL    HW229001   6.112   6.528   3.938
 9368SOL     OW29002   4.895   2.923   0.803
 9368SOL    HW129003   4.896   3.004   0.745
 9368SOL    HW229004   4.979   2.920   0.858
 9369SOL     OW29005   0.430   1.979   5.107
 9369SOL    HW129006   0.362   2.037   5.063
 9369SOL    HW229007   0.515   1.982   5.055
 9370SOL     OW29008   5.612   5.407   3.198
 9370SOL    HW129009   5.648   5.316   3.181
 9370SOL    HW229010   5.607   5.457   3.112
 9371SOL     OW29011   1.003   0.112   0.475
 9371SOL    HW129012   1.073   0.155   0.418
 9371SOL    HW229013   0.955   0.042   0.422
 9372SOL     OW29014   5.770   5.973   7.015
 9372SOL    HW129015   5.791   6.070   7.006
 9372SOL    HW229016   5.673   5.958   6.999
 9373SOL     OW29017   5.560   2.338   4.168
 9373SOL    HW129018   5.549   2.422   4.114
 9373SOL    HW229019   5.600   2.360   4.256
 9374SOL     OW29020   4.938   4.031   0.183
 9374SOL    HW129021   4.838   4.033   0.190
 9374SOL    HW229022   4.965   3.970   0.109
 9375SOL     OW29023   6.687   0.909   4.360
 9375SOL    HW129024   6.624   0.953   4.424
 9375SOL    HW229025   6.773   0.888   4.406
 9376SOL     OW29026   2.126   2.924   1.570
 9376SOL    HW129027   2.026   2.913   1.572
 9376SOL    HW229028   2.158   2.917   1.475
 9377SOL     OW29029   5.994   5.029   2.999
 9377SOL    HW129030   6.075   4.972   3.009
 9377SOL    HW229031   5.914   4.979   3.032
 9378SOL     OW29032   3.340   6.386   1.167
 9378SOL    HW129033   3.416   6.440   1.131
 9378SOL    HW229034   3.254   6.428   1.140
 9379SOL     OW29035   5.308   5.155   5.298
 9379SOL    HW129036   5.236   5.129   5.234
 9379SOL    HW229037   5.319   5.083   5.367
 9380SOL     OW29038   6.187   5.947   6.037
 9380SOL    HW129039   6.257   5.914   5.973
 9380SOL    HW229040   6.203   6.044   6.056
 9381SOL     OW29041   1.402   0.385   0.061
 9381SOL    HW129042   1.481   0.347   0.012
 9381SOL    HW229043   1.398   0.484   0.046
 9382SOL     OW29044   5.484   1.906   3.075
 9382SOL    HW129045   5.422   1.850   3.020
 9382SOL    HW229046   5.571   1.916   3.027
 9383SOL     OW29047   6.475   5.614   5.967
 9383SOL    HW129048   6.444   5.535   5.914
 9383SOL    HW229049   6.458   5.698   5.914
 9384SOL     OW29050   4.054   6.475   3.174
 9384SOL    HW129051   3.954   6.480   3.181
 9384SOL    HW229052   4.095   6.548   3.229
 9385SOL     OW29053   3.801   0.961   4.296
 9385SOL    HW129054   3.811   0.899   4.374
 9385SOL    HW229055   3.744   1.039   4.323
 9386SOL     OW29056   4.099   0.352   5.620
 9386SOL    HW129057   4.180   0.343   5.678
 9386SOL    HW229058   4.038   0.422   5.657
 9387SOL     OW29059   4.171   5.611   0.752
 9387SOL    HW129060   4.219   5.677   0.695
 9387SOL    HW229061   4.236   5.563   0.811
 9388SOL     OW29062   6.497   6.848   2.275
 9388SOL    HW129063   6.440   6.797   2.211
 9388SOL    HW229064   6.568   6.787   2.311
 9389SOL     OW29065   3.245   1.741   6.798
 9389SOL    HW129066   3.179   1.743   6.723
 9389SOL    HW229067   3.280   1.648   6.808
 9390SOL     OW29068   3.013   5.525   1.308
 9390SOL    HW129069   3.050   5.470   1.383
 9390SOL    HW229070   2.978   5.466   1.236
 9391SOL     OW29071   6.492   1.475   5.056
 9391SOL    HW129072   6.587   1.493   5.031
 9391SOL    HW229073   6.465   1.386   5.020
 9392SOL     OW29074   0.832   6.570   4.636
 9392SOL    HW129075   0.851   6.667   4.651
 9392SOL    HW229076   0.895   6.534   4.567
 9393SOL     OW29077   3.970   1.922   4.784
 9393SOL    HW129078   3.902   1.863   4.741
 9393SOL    HW229079   4.061   1.897   4.750
 9394SOL     OW29080   6.306   2.457   1.752
 9394SOL    HW129081   6.213   2.427   1.728
 9394SOL    HW229082   6.353   2.487   1.669
 9395SOL     OW29083   2.044   3.028   5.964
 9395SOL    HW129084   2.050   2.995   6.059
 9395SOL    HW229085   1.969   3.093   5.956
 9396SOL     OW29086   6.815   1.047   6.219
 9396SOL    HW129087   6.765   1.134   6.221
 9396SOL    HW229088   6.809   1.008   6.127
 9397SOL     OW29089   2.480   2.351   0.707
 9397SOL    HW129090   2.549   2.320   0.642
 9397SOL    HW229091   2.494   2.448   0.728
 9398SOL     OW29092   2.557   1.606   0.927
 9398SOL    HW129093   2.486   1.646   0.984
 9398SOL    HW229094   2.640   1.662   0.932
 9399SOL     OW29095   0.279   0.375   5.921
 9399SOL    HW129096   0.348   0.315   5.960
 9399SOL    HW229097   0.281   0.463   5.968
 9400SOL     OW29098   4.103   1.634   3.409
 9400SOL    HW129099   4.113   1.538   3.436
 9400SOL    HW229100   4.194   1.672   3.387
 9401SOL     OW29101   4.678   6.386   4.114
 9401SOL    HW129102   4.751   6.443   4.150
 9401SOL    HW229103   4.593   6.439   4.108
 9402SOL     OW29104   2.474   5.183   0.156
 9402SOL    HW129105   2.483   5.282   0.156
 9402SOL    HW229106   2.481   5.149   0.062
 9403SOL     OW29107   5.545   0.029   4.519
 9403SOL    HW129108   5.503   0.064   4.435
 9403SOL    HW229109   5.578   6.958   4.502
 9404SOL     OW29110   1.197   3.963   5.709
 9404SOL    HW129111   1.203   3.864   5.714
 9404SOL    HW229112   1.103   3.992   5.729
 9405SOL     OW29113   0.497   0.286   0.977
 9405SOL    HW129114   0.533   0.202   1.017
 9405SOL    HW229115   0.529   0.294   0.882
 9406SOL     OW29116   6.692   1.050   5.008
 9406SOL    HW129117   6.627   1.093   5.072
 9406SOL    HW229118   6.646   1.033   4.921
 9407SOL     OW29119   4.057   5.436   3.302
 9407SOL    HW129120   3.999   5.390   3.369
 9407SOL    HW229121   4.149   5.447   3.340
 9408SOL     OW29122   4.112   1.858   0.223
 9408SOL    HW129123   4.135   1.950   0.192
 9408SOL    HW229124   4.043   1.864   0.295
 9409SOL     OW29125   6.025   3.678   3.629
 9409SOL    HW129126   5.947   3.737   3.645
 9409SOL    HW229127   6.042   3.622   3.710
 9410SOL     OW29128   4.051   6.886   1.678
 9410SOL    HW129129   4.041   6.975   1.721
 9410SOL    HW229130   3.997   6.882   1.594
 9411SOL     OW29131   4.674   5.519   1.551
 9411SOL    HW129132   4.746   5.529   1.482
 9411SOL    HW229133   4.698   5.574   1.632
 9412SOL     OW29134   6.032   3.008   3.228
 9412SOL    HW129135   6.060   2.921   3.270
 9412SOL    HW229136   5.985   2.989   3.141
 9413SOL     OW29137   3.548   5.164   3.877
 9413SOL    HW129138   3.522   5.208   3.791
 9413SOL    HW229139   3.583   5.073   3.859
 9414SOL     OW29140   2.458   0.838   2.322
 9414SOL    HW129141   2.417   0.770   2.262
 9414SOL    HW229142   2.509   0.905   2.268
 9415SOL     OW29143   2.228   1.386   2.456
 9415SOL    HW129144   2.321   1.349   2.462
 9415SOL    HW229145   2.232   1.485   2.447
 9416SOL     OW29146   1.655   2.311   1.444
 9416SOL    HW129147   1.590   2.312   1.520
 9416SOL    HW229148   1.716   2.232   1.453
 9417SOL     OW29149   1.753   0.200   5.149
 9417SOL    HW129150   1.775   0.104   5.169
 9417SOL    HW229151   1.795   0.226   5.062
 9418SOL     OW29152   4.505   4.001   1.511
 9418SOL    HW129153   4.562   3.948   1.448
 9418SOL    HW229154   4.472   4.083   1.464
 9419SOL     OW29155   3.016   5.111   4.193
 9419SOL    HW129156   2.971   5.036   4.243
 9419SOL    HW229157   3.100   5.076   4.150
 9420SOL     OW29158   1.774   1.484   4.336
 9420SOL    HW129159   1.681   1.449   4.327
 9420SOL    HW229160   1.812   1.456   4.425
 9421SOL     OW29161   2.037   5.375   4.098
 9421SOL    HW129162   2.042   5.285   4.055
 9421SOL    HW229163   2.034   5.365   4.198
 9422SOL     OW29164   4.232   1.227   2.635
 9422SOL    HW129165   4.219   1.230   2.734
 9422SOL    HW229166   4.187   1.145   2.599
 9423SOL     OW29167   4.858   0.092   4.508
 9423SOL    HW129168   4.824   0.048   4.425
 9423SOL    HW229169   4.783   0.142   4.552
 9424SOL     OW29170   3.250   6.150   3.938
 9424SOL    HW129171   3.284   6.138   4.031
 9424SOL    HW229172   3.255   6.247   3.913
 9425SOL     OW29173   1.095   5.303   3.217
 9425SOL    HW129174   1.008   5.259   3.239
 9425SOL    HW229175   1.156   5.237   3.173
 9426SOL     OW29176   3.469   5.565   0.978
 9426SOL    HW129177   3.413   5.648   0.970
 9426SOL    HW229178   3.414   5.485   0.952
 9427SOL     OW29179   2.563   5.138   4.087
 9427SOL    HW129180   2.625   5.083   4.031
 9427SOL    HW229181   2.547   5.226   4.043
 9428SOL     OW29182   5.096   6.262   2.319
 9428SOL    HW129183   5.177   6.320   2.306
 9428SOL    HW229184   5.034   6.273   2.241
 9429SOL     OW29185   0.269   3.144   2.967
 9429SOL    HW129186   0.325   3.177   2.890
 9429SOL    HW229187   0.295   3.194   3.050
 9430SOL     OW29188   5.595   0.038   2.136
 9430SOL    HW129189   5.515   0.097   2.129
 9430SOL    HW229190   5.675   0.084   2.099
 9431SOL     OW29191   6.611   4.289   0.315
 9431SOL    HW129192   6.537   4.355   0.300
 9431SOL    HW229193   6.629   4.239   0.231
 9432SOL     OW29194   6.614   6.630   4.282
 9432SOL    HW129195   6.611   6.634   4.182
 9432SOL    HW229196   6.707   6.607   4.311
 9433SOL     OW29197   2.845   5.064   4.488
 9433SOL    HW129198   2.921   5.063   4.552
 9433SOL    HW229199   2.797   5.152   4.495
 9434SOL     OW29200   5.429   4.106   2.816
 9434SOL    HW129201   5.449   4.054   2.899
 9434SOL    HW229202   5.388   4.194   2.841
 9435SOL     OW29203   1.649   2.319   5.087
 9435SOL    HW129204   1.598   2.256   5.145
 9435SOL    HW229205   1.675   2.400   5.140
 9436SOL     OW29206   2.961   2.026   5.616
 9436SOL    HW129207   2.907   2.004   5.535
 9436SOL    HW229208   2.929   2.113   5.654
 9437SOL     OW29209   0.487   5.270   4.108
 9437SOL    HW129210   0.582   5.242   4.097
 9437SOL    HW229211   0.428   5.211   4.051
 9438SOL     OW29212   0.633   6.631   2.345
 9438SOL    HW129213   0.676   6.641   2.254
 9438SOL    HW229214   0.688   6.681   2.412
 9439SOL     OW29215   1.173   3.582   1.342
 9439SOL    HW129216   1.255   3.538   1.378
 9439SOL    HW229217   1.172   3.575   1.242
 9440SOL     OW29218   3.778   5.574   4.783
 9440SOL    HW129219   3.685   5.572   4.821
 9440SOL    HW229220   3.773   5.591   4.685
 9441SOL     OW29221   1.684   5.788   5.400
 9441SOL    HW129222   1.780   5.778   5.426
 9441SOL    HW229223   1.648   5.699   5.371
 9442SOL     OW29224   0.647   3.561   1.156
 9442SOL    HW129225   0.736   3.526   1.185
 9442SOL    HW229226   0.616   3.630   1.222
 9443SOL     OW29227   1.455   3.034   1.197
 9443SOL    HW129228   1.467   2.998   1.105
 9443SOL    HW229229   1.541   3.074   1.229
 9444SOL     OW29230   1.306   4.322   5.805
 9444SOL    HW129231   1.330   4.281   5.893
 9444SOL    HW229232   1.217   4.288   5.775
 9445SOL     OW29233   6.260   3.020   1.763
 9445SOL    HW129234   6.239   2.922   1.754
 9445SOL    HW229235   6.232   3.067   1.679
 9446SOL     OW29236   6.038   4.492   0.622
 9446SOL    HW129237   6.113   4.426   0.623
 9446SOL    HW229238   5.953   4.445   0.594
 9447SOL     OW29239   6.010   1.777   1.733
 9447SOL    HW129240   6.094   1.826   1.710
 9447SOL    HW229241   5.964   1.823   1.809
 9448SOL     OW29242   5.810   5.881   0.505
 9448SOL    HW129243   5.717   5.903   0.534
 9448SOL    HW229244   5.848   5.810   0.565
 9449SOL     OW29245   6.636   4.932   5.392
 9449SOL    HW129246   6.705   4.892   5.452
 9449SOL    HW229247   6.570   4.984   5.447
 9450SOL     OW29248   2.704   6.173   3.958
 9450SOL    HW129249   2.785   6.117   3.941
 9450SOL    HW229250   2.725   6.269   3.939
 9451SOL     OW29251   4.174   3.817   5.960
 9451SOL    HW129252   4.199   3.724   5.986
 9451SOL    HW229253   4.085   3.816   5.914
 9452SOL     OW29254   3.221   4.152   1.238
 9452SOL    HW129255   3.135   4.102   1.248
 9452SOL    HW229256   3.224   4.194   1.147
 9453SOL     OW29257   3.032   5.247   1.432
 9453SOL    HW129258   3.075   5.212   1.349
 9453SOL    HW229259   2.933   5.232   1.428
 9454SOL     OW29260   2.117   2.043   5.444
 9454SOL    HW129261   2.095   2.066   5.350
 9454SOL    HW229262   2.101   1.945   5.459
 9455SOL     OW29263   1.918   1.950   2.584
 9455SOL    HW129264   1.993   1.984   2.527
 9455SOL    HW229265   1.844   2.017   2.585
 9456SOL     OW29266   1.104   3.503   0.846
 9456SOL    HW129267   1.029   3.562   0.876
 9456SOL    HW229268   1.106   3.501   0.746
 9457SOL     OW29269   6.560   3.631   0.025
 9457SOL    HW129270   6.572   3.635   6.949
 9457SOL    HW229271   6.571   3.722   0.064
 9458SOL     OW29272   0.975   5.839   4.548
 9458SOL    HW129273   1.017   5.913   4.601
 9458SOL    HW229274   0.946   5.874   4.459
 9459SOL     OW29275   4.261   6.256   1.955
 9459SOL    HW129276   4.246   6.201   1.872
 9459SOL    HW229277   4.188   6.323   1.964
 9460SOL     OW29278   0.847   2.571   5.505
 9460SOL    HW129279   0.845   2.570   5.605
 9460SOL    HW229280   0.942   2.578   5.473
 9461SOL     OW29281   1.731   0.613   2.526
 9461SOL    HW129282   1.815   0.559   2.528
 9461SOL    HW229283   1.734   0.678   2.450
 9462SOL     OW29284   0.316   2.881   3.081
 9462SOL    HW129285   0.290   2.923   2.994
 9462SOL    HW229286   0.351   2.951   3.143
 9463SOL     OW29287   5.710   1.860   6.594
 9463SOL    HW129288   5.635   1.814   6.546
 9463SOL    HW229289   5.787   1.797   6.604
 9464SOL     OW29290   4.382   6.669   5.808
 9464SOL    HW129291   4.380   6.710   5.717
 9464SOL    HW229292   4.289   6.655   5.841
 9465SOL     OW29293   5.429   6.456   4.397
 9465SOL    HW129294   5.455   6.423   4.307
 9465SOL    HW229295   5.350   6.516   4.389
 9466SOL     OW29296   2.771   1.509   0.162
 9466SOL    HW129297   2.791   1.596   0.118
 9466SOL    HW229298   2.692   1.467   0.117
 9467SOL     OW29299   2.078   3.267   2.091
 9467SOL    HW129300   2.139   3.341   2.060
 9467SOL    HW229301   1.996   3.306   2.132
 9468SOL     OW29302   0.480   2.575   6.211
 9468SOL    HW129303   0.474   2.501   6.278
 9468SOL    HW229304   0.439   2.658   6.250
 9469SOL     OW29305   6.872   4.253   2.736
 9469SOL    HW129306   6.939   4.295   2.797
 9469SOL    HW229307   6.878   4.296   2.646
 9470SOL     OW29308   6.220   3.150   1.499
 9470SOL    HW129309   6.315   3.147   1.467
 9470SOL    HW229310   6.159   3.166   1.421
 9471SOL     OW29311   0.248   2.772   6.205
 9471SOL    HW129312   0.221   2.818   6.121
 9471SOL    HW229313   0.196   2.687   6.215
 9472SOL     OW29314   6.544   2.420   4.632
 9472SOL    HW129315   6.528   2.519   4.621
 9472SOL    HW229316   6.497   2.371   4.559
 9473SOL     OW29317   3.370   5.752   5.335
 9473SOL    HW129318   3.297   5.683   5.346
 9473SOL    HW229319   3.409   5.744   5.244
 9474SOL     OW29320   3.301   5.450   3.479
 9474SOL    HW129321   3.232   5.512   3.517
 9474SOL    HW229322   3.258   5.389   3.412
 9475SOL     OW29323   1.743   3.288   1.462
 9475SOL    HW129324   1.760   3.354   1.389
 9475SOL    HW229325   1.827   3.274   1.515
 9476SOL     OW29326   2.849   3.597   5.681
 9476SOL    HW129327   2.908   3.519   5.662
 9476SOL    HW229328   2.892   3.681   5.648
 9477SOL     OW29329   0.504   2.058   1.091
 9477SOL    HW129330   0.549   1.970   1.072
 9477SOL    HW229331   0.493   2.108   1.005
 9478SOL     OW29332   5.312   3.994   5.546
 9478SOL    HW129333   5.305   4.057   5.469
 9478SOL    HW229334   5.261   4.031   5.624
 9479SOL     OW29335   6.167   5.577   5.070
 9479SOL    HW129336   6.129   5.626   4.992
 9479SOL    HW229337   6.238   5.514   5.039
 9480SOL     OW29338   5.736   3.820   6.287
 9480SOL    HW129339   5.717   3.806   6.385
 9480SOL    HW229340   5.650   3.842   6.240
 9481SOL     OW29341   6.907   3.459   2.375
 9481SOL    HW129342   7.006   3.464   2.359
 9481SOL    HW229343   6.891   3.426   2.468
 9482SOL     OW29344   4.219   0.173   2.565
 9482SOL    HW129345   4.181   0.105   2.628
 9482SOL    HW229346   4.318   0.161   2.558
 9483SOL     OW29347   1.695   1.893   0.702
 9483SOL    HW129348   1.678   1.914   0.606
 9483SOL    HW229349   1.705   1.979   0.753
 9484SOL     OW29350   5.979   0.801   2.887
 9484SOL    HW129351   6.014   0.747   2.965
 9484SOL    HW229352   5.921   0.743   2.831
 9485SOL     OW29353   1.066   6.854   2.743
 9485SOL    HW129354   1.141   6.892   2.797
 9485SOL    HW229355   1.049   6.911   2.663
 9486SOL     OW29356   2.744   6.365   2.558
 9486SOL    HW129357   2.844   6.370   2.556
 9486SOL    HW229358   2.714   6.275   2.529
 9487SOL     OW29359   2.977   3.459   3.331
 9487SOL    HW129360   2.930   3.544   3.359
 9487SOL    HW229361   2.977   3.453   3.231
 9488SOL     OW29362   1.096   1.402   1.563
 9488SOL    HW129363   1.133   1.487   1.526
 9488SOL    HW229364   1.042   1.422   1.645
 9489SOL     OW29365   2.875   4.151   0.782
 9489SOL    HW129366   2.848   4.222   0.716
 9489SOL    HW229367   2.920   4.076   0.734
 9490SOL     OW29368   5.275   1.639   6.940
 9490SOL    HW129369   5.295   1.727   6.984
 9490SOL    HW229370   5.220   1.583   7.002
 9491SOL     OW29371   6.904   5.215   5.688
 9491SOL    HW129372   6.996   5.253   5.699
 9491SOL    HW229373   6.838   5.272   5.738
 9492SOL     OW29374   2.688   4.322   1.425
 9492SOL    HW129375   2.772   4.348   1.378
 9492SOL    HW229376   2.608   4.348   1.371
 9493SOL     OW29377   5.653   6.365   2.497
 9493SOL    HW129378   5.682   6.283   2.447
 9493SOL    HW229379   5.672   6.446   2.441
 9494SOL     OW29380   3.421   2.840   6.159
 9494SOL    HW129381   3.474   2.863   6.240
 9494SOL    HW229382   3.429   2.913   6.092
 9495SOL     OW29383   5.704   2.146   4.562
 9495SOL    HW129384   5.760   2.064   4.575
 9495SOL    HW229385   5.608   2.120   4.555
 9496SOL     OW29386   6.203   3.720   0.153
 9496SOL    HW129387   6.143   3.676   0.220
 9496SOL    HW229388   6.148   3.763   0.081
 9497SOL     OW29389   0.956   5.933   5.934
 9497SOL    HW129390   0.959   5.926   6.033
 9497SOL    HW229391   0.864   5.960   5.905
 9498SOL     OW29392   3.674   0.582   6.743
 9498SOL    HW129393   3.747   0.608   6.680
 9498SOL    HW229394   3.713   0.533   6.821
 9499SOL     OW29395   4.160   4.576   6.143
 9499SOL    HW129396   4.223   4.509   6.183
 9499SOL    HW229397   4.197   4.609   6.056
 9500SOL     OW29398   5.425   5.702   1.652
 9500SOL    HW129399   5.430   5.655   1.564
 9500SOL    HW229400   5.495   5.664   1.714
 9501SOL     OW29401   3.052   1.890   4.876
 9501SOL    HW129402   3.034   1.912   4.780
 9501SOL    HW229403   2.967   1.859   4.920
 9502SOL     OW29404   4.025   3.187   5.749
 9502SOL    HW129405   4.037   3.157   5.655
 9502SOL    HW229406   3.999   3.109   5.806
 9503SOL     OW29407   1.593   6.997   1.400
 9503SOL    HW129408   1.637   0.041   1.460
 9503SOL    HW229409   1.658   6.967   1.330
 9504SOL     OW29410   0.845   3.252   6.911
 9504SOL    HW129411   0.771   3.191   6.884
 9504SOL    HW229412   0.874   3.231   7.004
 9505SOL     OW29413   4.895   2.817   3.554
 9505SOL    HW129414   4.849   2.732   3.581
 9505SOL    HW229415   4.878   2.887   3.623
 9506SOL     OW29416   0.289   2.203   0.832
 9506SOL    HW129417   0.269   2.285   0.886
 9506SOL    HW229418   0.204   2.154   0.814
 9507SOL     OW29419   1.392   2.097   4.722
 9507SOL    HW129420   1.386   2.177   4.663
 9507SOL    HW229421   1.482   2.054   4.711
 9508SOL     OW29422   4.695   1.539   6.201
 9508SOL    HW129423   4.692   1.617   6.139
 9508SOL    HW229424   4.789   1.504   6.206
 9509SOL     OW29425   3.205   6.426   6.108
 9509SOL    HW129426   3.135   6.491   6.137
 9509SOL    HW229427   3.251   6.460   6.026
 9510SOL     OW29428   6.818   4.376   3.029
 9510SOL    HW129429   6.854   4.387   2.936
 9510SOL    HW229430   6.881   4.320   3.083
 9511SOL     OW29431   2.100   1.245   1.460
 9511SOL    HW129432   2.139   1.337   1.454
 9511SOL    HW229433   2.078   1.212   1.368
 9512SOL     OW29434   1.646   2.978   4.968
 9512SOL    HW129435   1.722   3.039   4.946
 9512SOL    HW229436   1.655   2.893   4.916
 9513SOL     OW29437   2.227   4.330   4.207
 9513SOL    HW129438   2.180   4.278   4.278
 9513SOL    HW229439   2.298   4.387   4.249
 9514SOL     OW29440   2.840   2.612   6.078
 9514SOL    HW129441   2.893   2.690   6.043
 9514SOL    HW229442   2.742   2.634   6.073
 9515SOL     OW29443   2.570   5.352   5.655
 9515SOL    HW129444   2.567   5.271   5.596
 9515SOL    HW229445   2.572   5.323   5.751
 9516SOL     OW29446   5.470   4.290   5.684
 9516SOL    HW129447   5.399   4.220   5.692
 9516SOL    HW229448   5.486   4.331   5.773
 9517SOL     OW29449   0.927   5.735   2.001
 9517SOL    HW129450   0.909   5.647   1.956
 9517SOL    HW229451   1.025   5.748   2.010
 9518SOL     OW29452   0.763   3.228   5.316
 9518SOL    HW129453   0.686   3.282   5.350
 9518SOL    HW229454   0.813   3.189   5.394
 9519SOL     OW29455   3.313   2.900   3.510
 9519SOL    HW129456   3.288   2.941   3.597
 9519SOL    HW229457   3.389   2.836   3.525
 9520SOL     OW29458   5.304   0.424   6.236
 9520SOL    HW129459   5.209   0.428   6.266
 9520SOL    HW229460   5.323   0.334   6.196
 9521SOL     OW29461   3.530   1.584   1.380
 9521SOL    HW129462   3.456   1.547   1.436
 9521SOL    HW229463   3.536   1.683   1.395
 9522SOL     OW29464   3.265   6.409   1.436
 9522SOL    HW129465   3.303   6.329   1.484
 9522SOL    HW229466   3.292   6.407   1.340
 9523SOL     OW29467   2.599   4.970   4.306
 9523SOL    HW129468   2.614   5.022   4.222
 9523SOL    HW229469   2.656   5.009   4.379
 9524SOL     OW29470   2.109   4.037   0.255
 9524SOL    HW129471   2.116   4.132   0.286
 9524SOL    HW229472   2.162   4.026   0.171
 9525SOL     OW29473   2.455   3.173   5.816
 9525SOL    HW129474   2.502   3.101   5.868
 9525SOL    HW229475   2.518   3.213   5.750
 9526SOL     OW29476   5.273   5.366   0.010
 9526SOL    HW129477   5.365   5.382   0.046
 9526SOL    HW229478   5.252   5.435   6.964
 9527SOL     OW29479   4.151   6.928   5.021
 9527SOL    HW129480   4.153   6.858   4.949
 9527SOL    HW229481   4.173   6.885   5.109
 9528SOL     OW29482   5.119   2.693   0.506
 9528SOL    HW129483   5.084   2.647   0.424
 9528SOL    HW229484   5.210   2.658   0.528
 9529SOL     OW29485   5.582   1.000   1.703
 9529SOL    HW129486   5.680   0.982   1.716
 9529SOL    HW229487   5.557   1.084   1.750
 9530SOL     OW29488   1.261   5.407   3.427
 9530SOL    HW129489   1.203   5.399   3.508
 9530SOL    HW229490   1.230   5.342   3.358
 9531SOL     OW29491   3.294   5.609   2.367
 9531SOL    HW129492   3.315   5.520   2.326
 9531SOL    HW229493   3.267   5.673   2.295
 9532SOL     OW29494   6.216   4.886   3.775
 9532SOL    HW129495   6.228   4.983   3.753
 9532SOL    HW229496   6.204   4.875   3.873
 9533SOL     OW29497   1.800   4.092   3.101
 9533SOL    HW129498   1.779   4.125   3.010
 9533SOL    HW229499   1.853   4.007   3.095
 9534SOL     OW29500   5.284   5.390   4.492
 9534SOL    HW129501   5.358   5.450   4.462
 9534SOL    HW229502   5.295   5.371   4.590
 9535SOL     OW29503   0.226   1.731   3.887
 9535SOL    HW129504   0.272   1.758   3.803
 9535SOL    HW229505   0.129   1.756   3.882
 9536SOL     OW29506   3.230   4.093   4.452
 9536SOL    HW129507   3.289   4.015   4.471
 9536SOL    HW229508   3.172   4.072   4.373
 9537SOL     OW29509   6.606   1.363   4.142
 9537SOL    HW129510   6.650   1.280   4.109
 9537SOL    HW229511   6.637   1.442   4.089
 9538SOL     OW29512   5.144   6.796   4.888
 9538SOL    HW129513   5.045   6.809   4.883
 9538SOL    HW229514   5.188   6.848   4.815
 9539SOL     OW29515   3.302   3.930   2.604
 9539SOL    HW129516   3.316   3.952   2.700
 9539SOL    HW229517   3.390   3.924   2.558
 9540SOL     OW29518   4.500   4.886   3.099
 9540SOL    HW129519   4.585   4.929   3.071
 9540SOL    HW229520   4.480   4.910   3.194
 9541SOL     OW29521   1.889   5.249   5.280
 9541SOL    HW129522   1.956   5.184   5.317
 9541SOL    HW229523   1.937   5.324   5.235
 9542SOL     OW29524   5.967   4.289   3.159
 9542SOL    HW129525   5.894   4.329   3.103
 9542SOL    HW229526   6.033   4.360   3.183
 9543SOL     OW29527   2.358   0.351   5.881
 9543SOL    HW129528   2.366   0.296   5.965
 9543SOL    HW229529   2.388   0.444   5.899
 9544SOL     OW29530   6.138   3.588   4.970
 9544SOL    HW129531   6.219   3.531   4.976
 9544SOL    HW229532   6.059   3.539   5.005
 9545SOL     OW29533   6.677   4.615   2.110
 9545SOL    HW129534   6.607   4.565   2.162
 9545SOL    HW229535   6.634   4.692   2.062
 9546SOL     OW29536   2.798   2.884   1.423
 9546SOL    HW129537   2.851   2.801   1.406
 9546SOL    HW229538   2.775   2.928   1.336
 9547SOL     OW29539   4.469   0.012   3.403
 9547SOL    HW129540   4.391   0.032   3.344
 9547SOL    HW229541   4.523   0.095   3.416
 9548SOL     OW29542   1.037   4.925   6.292
 9548SOL    HW129543   1.135   4.926   6.310
 9548SOL    HW229544   1.021   4.910   6.194
 9549SOL     OW29545   4.211   2.243   1.265
 9549SOL    HW129546   4.294   2.226   1.211
 9549SOL    HW229547   4.228   2.215   1.360
 9550SOL     OW29548   6.072   2.974   1.974
 9550SOL    HW129549   6.117   2.973   2.063
 9550SOL    HW229550   6.132   3.016   1.906
 9551SOL     OW29551   5.850   2.979   6.702
 9551SOL    HW129552   5.772   2.987   6.640
 9551SOL    HW229553   5.902   2.897   6.680
 9552SOL     OW29554   3.243   1.835   0.889
 9552SOL    HW129555   3.223   1.814   0.793
 9552SOL    HW229556   3.236   1.934   0.903
 9553SOL     OW29557   5.465   1.439   6.422
 9553SOL    HW129558   5.495   1.476   6.510
 9553SOL    HW229559   5.543   1.399   6.374
 9554SOL     OW29560   2.968   0.678   3.692
 9554SOL    HW129561   2.980   0.602   3.756
 9554SOL    HW229562   2.949   0.762   3.744
 9555SOL     OW29563   0.036   6.977   3.443
 9555SOL    HW129564   0.064   7.003   3.535
 9555SOL    HW229565   7.018   6.886   3.445
 9556SOL     OW29566   2.108   4.883   6.881
 9556SOL    HW129567   2.170   4.912   6.955
 9556SOL    HW229568   2.102   4.784   6.880
 9557SOL     OW29569   5.770   0.708   0.990
 9557SOL    HW129570   5.718   0.691   1.074
 9557SOL    HW229571   5.811   0.622   0.959
 9558SOL     OW29572   4.957   6.421   6.392
 9558SOL    HW129573   4.958   6.380   6.484
 9558SOL    HW229574   4.966   6.348   6.324
 9559SOL     OW29575   1.874   4.643   0.151
 9559SOL    HW129576   1.783   4.601   0.153
 9559SOL    HW229577   1.865   4.742   0.139
 9560SOL     OW29578   2.794   7.018   2.474
 9560SOL    HW129579   2.715   0.042   2.515
 9560SOL    HW229580   2.762   6.947   2.411
 9561SOL     OW29581   0.938   0.793   0.335
 9561SOL    HW129582   0.997   0.718   0.365
 9561SOL    HW229583   0.930   0.860   0.408
 9562SOL     OW29584   2.257   6.209   2.529
 9562SOL    HW129585   2.305   6.197   2.616
 9562SOL    HW229586   2.285   6.296   2.487
 9563SOL     OW29587   0.753   5.983   6.368
 9563SOL    HW129588   0.742   6.064   6.312
 9563SOL    HW229589   0.691   5.911   6.336
 9564SOL     OW29590   1.699   1.038   0.664
 9564SOL    HW129591   1.601   1.026   0.646
 9564SOL    HW229592   1.745   1.065   0.579
 9565SOL     OW29593   2.877   1.733   4.488
 9565SOL    HW129594   2.840   1.781   4.408
 9565SOL    HW229595   2.921   1.649   4.459
 9566SOL     OW29596   3.493   0.233   0.183
 9566SOL    HW129597   3.414   0.255   0.240
 9566SOL    HW229598   3.486   0.279   0.095
 9567SOL     OW29599   7.019   4.079   1.108
 9567SOL    HW129600   6.982   4.043   1.022
 9567SOL    HW229601   0.095   4.091   1.099
 9568SOL     OW29602   4.396   1.561   6.801
 9568SOL    HW129603   4.459   1.636   6.781
 9568SOL    HW229604   4.319   1.564   6.737
 9569SOL     OW29605   6.125   0.214   1.983
 9569SOL    HW129606   6.208   0.158   1.992
 9569SOL    HW229607   6.059   0.186   2.053
 9570SOL     OW29608   0.794   3.074   1.642
 9570SOL    HW129609   0.831   3.164   1.664
 9570SOL    HW229610   0.789   3.018   1.725
 9571SOL     OW29611   1.681   1.563   6.818
 9571SOL    HW129612   1.616   1.609   6.879
 9571SOL    HW229613   1.709   1.476   6.858
 9572SOL     OW29614   2.401   4.508   4.369
 9572SOL    HW129615   2.452   4.594   4.376
 9572SOL    HW229616   2.410   4.457   4.455
 9573SOL     OW29617   6.521   0.226   4.416
 9573SOL    HW129618   6.492   0.315   4.382
 9573SOL    HW229619   6.483   0.154   4.357
 9574SOL     OW29620   3.771   3.238   1.060
 9574SOL    HW129621   3.702   3.301   1.025
 9574SOL    HW229622   3.863   3.272   1.039
 9575SOL     OW29623   5.367   6.349   1.779
 9575SOL    HW129624   5.310   6.341   1.860
 9575SOL    HW229625   5.413   6.438   1.779
 9576SOL     OW29626   0.853   0.424   6.547
 9576SOL    HW129627   0.908   0.421   6.464
 9576SOL    HW229628   0.909   0.458   6.623
 9577SOL     OW29629   6.435   5.227   2.628
 9577SOL    HW129630   6.392   5.137   2.636
 9577SOL    HW229631   6.491   5.230   2.545
 9578SOL     OW29632   1.669   3.842   2.664
 9578SOL    HW129633   1.646   3.830   2.760
 9578SOL    HW229634   1.714   3.759   2.630
 9579SOL     OW29635   6.004   6.046   2.283
 9579SOL    HW129636   5.955   6.013   2.364
 9579SOL    HW229637   6.023   5.969   2.222
 9580SOL     OW29638   5.244   3.944   3.433
 9580SOL    HW129639   5.276   3.856   3.398
 9580SOL    HW229640   5.145   3.940   3.447
 9581SOL     OW29641   5.784   1.366   0.152
 9581SOL    HW129642   5.724   1.436   0.114
 9581SOL    HW229643   5.879   1.390   0.134
 9582SOL     OW29644   5.607   6.324   5.003
 9582SOL    HW129645   5.561   6.412   5.008
 9582SOL    HW229646   5.694   6.334   4.955
 9583SOL     OW29647   3.487   4.851   1.678
 9583SOL    HW129648   3.576   4.874   1.638
 9583SOL    HW229649   3.499   4.819   1.772
 9584SOL     OW29650   2.660   5.781   3.962
 9584SOL    HW129651   2.735   5.726   3.998
 9584SOL    HW229652   2.586   5.784   4.029
 9585SOL     OW29653   4.389   5.909   1.201
 9585SOL    HW129654   4.375   5.997   1.156
 9585SOL    HW229655   4.474   5.913   1.254
 9586SOL     OW29656   4.112   5.423   2.951
 9586SOL    HW129657   4.186   5.481   2.985
 9586SOL    HW229658   4.137   5.327   2.963
 9587SOL     OW29659   3.295   5.798   0.901
 9587SOL    HW129660   3.267   5.888   0.870
 9587SOL    HW229661   3.218   5.752   0.945
 9588SOL     OW29662   6.593   5.883   0.355
 9588SOL    HW129663   6.512   5.940   0.348
 9588SOL    HW229664   6.642   5.905   0.440
 9589SOL     OW29665   2.011   3.180   6.457
 9589SOL    HW129666   2.063   3.098   6.481
 9589SOL    HW229667   1.923   3.179   6.505
 9590SOL     OW29668   6.361   0.463   1.108
 9590SOL    HW129669   6.389   0.434   1.016
 9590SOL    HW229670   6.413   0.544   1.134
 9591SOL     OW29671   4.269   0.631   0.304
 9591SOL    HW129672   4.296   0.701   0.370
 9591SOL    HW229673   4.199   0.668   0.243
 9592SOL     OW29674   2.631   6.724   6.101
 9592SOL    HW129675   2.586   6.646   6.057
 9592SOL    HW229676   2.724   6.733   6.067
 9593SOL     OW29677   1.717   2.372   3.552
 9593SOL    HW129678   1.791   2.440   3.550
 9593SOL    HW229679   1.650   2.398   3.621
 9594SOL     OW29680   0.200   6.573   3.839
 9594SOL    HW129681   0.224   6.477   3.823
 9594SOL    HW229682   0.282   6.624   3.864
 9595SOL     OW29683   0.442   3.107   3.250
 9595SOL    HW129684   0.416   3.069   3.338
 9595SOL    HW229685   0.530   3.067   3.221
 9596SOL     OW29686   0.825   6.337   0.739
 9596SOL    HW129687   0.765   6.268   0.698
 9596SOL    HW229688   0.835   6.318   0.837
 9597SOL     OW29689   1.171   3.511   2.169
 9597SOL    HW129690   1.219   3.575   2.229
 9597SOL    HW229691   1.236   3.473   2.102
 9598SOL     OW29692   2.309   4.335   3.943
 9598SOL    HW129693   2.280   4.336   4.039
 9598SOL    HW229694   2.281   4.249   3.901
 9599SOL     OW29695   4.244   6.322   4.205
 9599SOL    HW129696   4.157   6.336   4.253
 9599SOL    HW229697   4.315   6.379   4.247
 9600SOL     OW29698   3.896   1.166   1.390
 9600SOL    HW129699   3.816   1.110   1.409
 9600SOL    HW229700   3.898   1.245   1.452
 9601SOL     OW29701   1.039   3.820   0.845
 9601SOL    HW129702   0.953   3.871   0.851
 9601SOL    HW229703   1.089   3.849   0.763
 9602SOL     OW29704   4.367   5.256   5.072
 9602SOL    HW129705   4.441   5.189   5.068
 9602SOL    HW229706   4.282   5.213   5.041
 9603SOL     OW29707   5.156   6.589   5.371
 9603SOL    HW129708   5.059   6.611   5.368
 9603SOL    HW229709   5.178   6.545   5.458
 9604SOL     OW29710   5.151   6.803   6.998
 9604SOL    HW129711   5.085   6.753   0.031
 9604SOL    HW229712   5.214   6.852   0.035
 9605SOL     OW29713   5.901   5.380   2.188
 9605SOL    HW129714   5.845   5.462   2.201
 9605SOL    HW229715   5.856   5.301   2.228
 9606SOL     OW29716   1.782   1.100   6.925
 9606SOL    HW129717   1.735   1.038   6.863
 9606SOL    HW229718   1.876   1.114   6.895
 9607SOL     OW29719   2.421   2.508   5.970
 9607SOL    HW129720   2.416   2.535   5.873
 9607SOL    HW229721   2.444   2.588   6.025
 9608SOL     OW29722   5.932   3.059   4.538
 9608SOL    HW129723   5.993   3.138   4.528
 9608SOL    HW229724   5.963   2.985   4.478
 9609SOL     OW29725   4.283   2.858   6.349
 9609SOL    HW129726   4.331   2.920   6.410
 9609SOL    HW229727   4.316   2.764   6.363
 9610SOL     OW29728   0.575   5.096   3.214
 9610SOL    HW129729   0.540   5.131   3.301
 9610SOL    HW229730   0.521   5.133   3.139
 9611SOL     OW29731   1.862   0.577   0.398
 9611SOL    HW129732   1.943   0.546   0.349
 9611SOL    HW229733   1.889   0.643   0.469
 9612SOL     OW29734   7.009   2.877   4.025
 9612SOL    HW129735   6.981   2.952   4.085
 9612SOL    HW229736   0.086   2.877   4.017
 9613SOL     OW29737   5.952   5.313   2.865
 9613SOL    HW129738   5.978   5.216   2.864
 9613SOL    HW229739   6.030   5.368   2.835
 9614SOL     OW29740   4.615   2.522   3.880
 9614SOL    HW129741   4.526   2.533   3.834
 9614SOL    HW229742   4.614   2.437   3.933
 9615SOL     OW29743   2.398   4.155   1.085
 9615SOL    HW129744   2.390   4.127   1.181
 9615SOL    HW229745   2.454   4.089   1.035
 9616SOL     OW29746   4.097   3.414   6.818
 9616SOL    HW129747   4.109   3.427   6.719
 9616SOL    HW229748   4.070   3.501   6.860
 9617SOL     OW29749   1.761   2.442   3.048
 9617SOL    HW129750   1.715   2.424   3.135
 9617SOL    HW229751   1.697   2.430   2.973
 9618SOL     OW29752   2.280   1.441   1.156
 9618SOL    HW129753   2.294   1.525   1.104
 9618SOL    HW229754   2.184   1.413   1.149
 9619SOL     OW29755   2.896   0.649   5.597
 9619SOL    HW129756   2.946   0.644   5.511
 9619SOL    HW229757   2.804   0.613   5.585
 9620SOL     OW29758   5.883   1.241   5.140
 9620SOL    HW129759   5.815   1.168   5.136
 9620SOL    HW229760   5.867   1.298   5.220
 9621SOL     OW29761   1.739   3.071   3.313
 9621SOL    HW129762   1.664   3.135   3.331
 9621SOL    HW229763   1.826   3.121   3.317
 9622SOL     OW29764   5.306   6.876   0.937
 9622SOL    HW129765   5.287   6.801   0.875
 9622SOL    HW229766   5.381   6.932   0.901
 9623SOL     OW29767   2.736   3.288   6.275
 9623SOL    HW129768   2.833   3.309   6.275
 9623SOL    HW229769   2.720   3.206   6.219
 9624SOL     OW29770   6.346   3.056   4.173
 9624SOL    HW129771   6.420   3.114   4.139
 9624SOL    HW229772   6.381   2.965   4.193
 9625SOL     OW29773   6.013   5.947   1.110
 9625SOL    HW129774   5.943   5.885   1.143
 9625SOL    HW229775   6.037   5.923   1.016
 9626SOL     OW29776   3.596   6.460   0.005
 9626SOL    HW129777   3.559   6.550   0.028
 9626SOL    HW229778   3.565   6.393   0.074
 9627SOL     OW29779   1.316   6.415   6.912
 9627SOL    HW129780   1.297   6.501   6.864
 9627SOL    HW229781   1.250   6.404   6.987
 9628SOL     OW29782   3.273   6.642   2.304
 9628SOL    HW129783   3.275   6.609   2.399
 9628SOL    HW229784   3.315   6.574   2.245
 9629SOL     OW29785   2.536   6.921   1.067
 9629SOL    HW129786   2.597   6.845   1.043
 9629SOL    HW229787   2.454   6.886   1.111
 9630SOL     OW29788   6.619   1.542   6.378
 9630SOL    HW129789   6.578   1.622   6.421
 9630SOL    HW229790   6.609   1.549   6.279
 9631SOL     OW29791   5.984   5.883   0.136
 9631SOL    HW129792   5.909   5.939   0.100
 9631SOL    HW229793   6.018   5.924   0.220
 9632SOL     OW29794   1.106   5.872   1.595
 9632SOL    HW129795   1.171   5.808   1.637
 9632SOL    HW229796   1.046   5.909   1.666
 9633SOL     OW29797   6.839   5.087   6.132
 9633SOL    HW129798   6.809   5.024   6.204
 9633SOL    HW229799   6.939   5.083   6.124
 9634SOL     OW29800   1.520   6.183   5.657
 9634SOL    HW129801   1.538   6.122   5.735
 9634SOL    HW229802   1.423   6.182   5.636
 9635SOL     OW29803   1.267   5.870   5.452
 9635SOL    HW129804   1.211   5.795   5.487
 9635SOL    HW229805   1.231   5.900   5.363
 9636SOL     OW29806   4.027   1.301   6.810
 9636SOL    HW129807   3.958   1.373   6.810
 9636SOL    HW229808   4.039   1.265   6.903
 9637SOL     OW29809   2.046   1.513   0.263
 9637SOL    HW129810   2.122   1.448   0.247
 9637SOL    HW229811   2.084   1.604   0.278
 9638SOL     OW29812   6.655   2.137   6.587
 9638SOL    HW129813   6.566   2.113   6.624
 9638SOL    HW229814   6.664   2.237   6.582
 9639SOL     OW29815   3.946   0.836   2.495
 9639SOL    HW129816   3.988   0.784   2.422
 9639SOL    HW229817   3.853   0.802   2.512
 9640SOL     OW29818   1.692   2.120   2.544
 9640SOL    HW129819   1.704   2.204   2.492
 9640SOL    HW229820   1.606   2.076   2.518
 9641SOL     OW29821   5.521   5.447   7.020
 9641SOL    HW129822   5.578   5.404   0.066
 9641SOL    HW229823   5.574   5.460   6.936
 9642SOL     OW29824   3.576   0.434   3.623
 9642SOL    HW129825   3.670   0.421   3.592
 9642SOL    HW229826   3.568   0.523   3.668
 9643SOL     OW29827   3.707   4.865   3.028
 9643SOL    HW129828   3.794   4.855   2.980
 9643SOL    HW229829   3.668   4.775   3.045
 9644SOL     OW29830   2.687   2.348   0.037
 9644SOL    HW129831   2.785   2.337   0.023
 9644SOL    HW229832   2.653   2.275   0.096
 9645SOL     OW29833   3.508   4.975   5.588
 9645SOL    HW129834   3.429   5.024   5.551
 9645SOL    HW229835   3.584   5.039   5.601
 9646SOL     OW29836   4.112   5.060   3.927
 9646SOL    HW129837   4.191   5.008   3.961
 9646SOL    HW229838   4.127   5.157   3.942
 9647SOL     OW29839   6.619   3.146   6.407
 9647SOL    HW129840   6.606   3.168   6.310
 9647SOL    HW229841   6.680   3.214   6.448
 9648SOL     OW29842   4.034   3.791   0.774
 9648SOL    HW129843   3.961   3.854   0.801
 9648SOL    HW229844   4.035   3.713   0.837
 9649SOL     OW29845   1.974   5.880   1.711
 9649SOL    HW129846   1.919   5.798   1.693
 9649SOL    HW229847   2.048   5.857   1.774
 9650SOL     OW29848   0.348   6.758   0.842
 9650SOL    HW129849   0.258   6.737   0.880
 9650SOL    HW229850   0.381   6.845   0.879
 9651SOL     OW29851   0.440   1.555   6.366
 9651SOL    HW129852   0.488   1.542   6.280
 9651SOL    HW229853   0.376   1.632   6.357
 9652SOL     OW29854   0.409   5.115   2.499
 9652SOL    HW129855   0.399   5.147   2.405
 9652SOL    HW229856   0.334   5.150   2.555
 9653SOL     OW29857   6.560   6.276   4.451
 9653SOL    HW129858   6.506   6.348   4.407
 9653SOL    HW229859   6.510   6.242   4.531
 9654SOL     OW29860   2.168   3.174   2.640
 9654SOL    HW129861   2.234   3.100   2.628
 9654SOL    HW229862   2.164   3.200   2.736
 9655SOL     OW29863   6.054   1.821   6.712
 9655SOL    HW129864   5.974   1.775   6.749
 9655SOL    HW229865   6.062   1.800   6.614
 9656SOL     OW29866   3.200   1.378   2.920
 9656SOL    HW129867   3.289   1.345   2.890
 9656SOL    HW229868   3.163   1.441   2.851
 9657SOL     OW29869   0.120   0.028   5.294
 9657SOL    HW129870   0.054   0.054   5.224
 9657SOL    HW229871   0.120   0.096   5.368
 9658SOL     OW29872   5.569   2.084   3.251
 9658SOL    HW129873   5.668   2.075   3.244
 9658SOL    HW229874   5.525   2.020   3.188
 9659SOL     OW29875   1.175   4.750   6.999
 9659SOL    HW129876   1.185   4.704   6.911
 9659SOL    HW229877   1.249   4.721   0.037
 9660SOL     OW29878   0.764   5.245   0.729
 9660SOL    HW129879   0.667   5.227   0.742
 9660SOL    HW229880   0.807   5.265   0.818
 9661SOL     OW29881   4.322   0.028   1.031
 9661SOL    HW129882   4.244   6.992   1.013
 9661SOL    HW229883   4.384   0.029   0.952
 9662SOL     OW29884   4.880   0.820   4.490
 9662SOL    HW129885   4.855   0.872   4.408
 9662SOL    HW229886   4.892   0.882   4.567
 9663SOL     OW29887   2.188   6.502   2.964
 9663SOL    HW129888   2.212   6.558   2.885
 9663SOL    HW229889   2.193   6.556   3.048
 9664SOL     OW29890   2.194   5.748   1.854
 9664SOL    HW129891   2.252   5.817   1.896
 9664SOL    HW229892   2.249   5.690   1.794
 9665SOL     OW29893   5.138   4.238   3.761
 9665SOL    HW129894   5.141   4.168   3.832
 9665SOL    HW229895   5.200   4.212   3.687
 9666SOL     OW29896   5.212   4.724   4.841
 9666SOL    HW129897   5.275   4.668   4.788
 9666SOL    HW229898   5.119   4.689   4.829
 9667SOL     OW29899   3.230   3.245   3.711
 9667SOL    HW129900   3.327   3.221   3.702
 9667SOL    HW229901   3.193   3.200   3.792
 9668SOL     OW29902   0.642   1.097   5.036
 9668SOL    HW129903   0.603   1.156   4.965
 9668SOL    HW229904   0.673   1.011   4.995
 9669SOL     OW29905   1.492   6.302   0.315
 9669SOL    HW129906   1.562   6.308   0.243
 9669SOL    HW229907   1.505   6.378   0.380
 9670SOL     OW29908   5.632   4.642   6.293
 9670SOL    HW129909   5.572   4.563   6.310
 9670SOL    HW229910   5.687   4.625   6.211
 9671SOL     OW29911   0.233   0.334   0.157
 9671SOL    HW129912   0.315   0.279   0.141
 9671SOL    HW229913   0.203   0.322   0.252
 9672SOL     OW29914   1.690   6.416   5.326
 9672SOL    HW129915   1.675   6.376   5.235
 9672SOL    HW229916   1.707   6.342   5.392
 9673SOL     OW29917   2.159   2.583   5.783
 9673SOL    HW129918   2.247   2.630   5.781
 9673SOL    HW229919   2.085   2.649   5.781
 9674SOL     OW29920   2.679   6.832   2.312
 9674SOL    HW129921   2.643   6.739   2.306
 9674SOL    HW229922   2.605   6.897   2.298
 9675SOL     OW29923   0.363   2.295   2.201
 9675SOL    HW129924   0.386   2.232   2.275
 9675SOL    HW229925   0.448   2.335   2.165
 9676SOL     OW29926   0.251   2.909   4.781
 9676SOL    HW129927   0.330   2.925   4.722
 9676SOL    HW229928   0.229   2.811   4.782
 9677SOL     OW29929   1.648   3.622   5.313
 9677SOL    HW129930   1.605   3.533   5.294
 9677SOL    HW229931   1.736   3.607   5.358
 9678SOL     OW29932   3.651   3.249   2.949
 9678SOL    HW129933   3.644   3.349   2.938
 9678SOL    HW229934   3.578   3.218   3.009
 9679SOL     OW29935   0.430   3.540   1.412
 9679SOL    HW129936   0.445   3.444   1.389
 9679SOL    HW229937   0.407   3.548   1.509
 9680SOL     OW29938   4.987   4.824   3.268
 9680SOL    HW129939   5.067   4.799   3.323
 9680SOL    HW229940   4.925   4.745   3.262
 9681SOL     OW29941   0.598   0.643   4.368
 9681SOL    HW129942   0.579   0.731   4.413
 9681SOL    HW229943   0.512   0.603   4.335
 9682SOL     OW29944   0.382   5.195   3.014
 9682SOL    HW129945   0.354   5.251   2.936
 9682SOL    HW229946   0.334   5.108   3.011
 9683SOL     OW29947   5.190   6.841   6.250
 9683SOL    HW129948   5.258   6.905   6.286
 9683SOL    HW229949   5.186   6.760   6.310
 9684SOL     OW29950   1.035   4.603   3.546
 9684SOL    HW129951   1.107   4.534   3.550
 9684SOL    HW229952   1.076   4.694   3.538
 9685SOL     OW29953   2.008   2.517   6.847
 9685SOL    HW129954   2.012   2.485   6.752
 9685SOL    HW229955   1.913   2.524   6.876
 9686SOL     OW29956   5.256   1.554   1.405
 9686SOL    HW129957   5.280   1.556   1.502
 9686SOL    HW229958   5.339   1.551   1.350
 9687SOL     OW29959   3.670   1.461   4.344
 9687SOL    HW129960   3.688   1.552   4.380
 9687SOL    HW229961   3.592   1.466   4.281
 9688SOL     OW29962   6.500   2.122   3.869
 9688SOL    HW129963   6.541   2.064   3.798
 9688SOL    HW229964   6.407   2.146   3.842
 9689SOL     OW29965   1.922   5.975   6.035
 9689SOL    HW129966   1.901   5.882   6.005
 9689SOL    HW229967   1.939   6.033   5.956
 9690SOL     OW29968   5.866   3.643   0.640
 9690SOL    HW129969   5.861   3.546   0.666
 9690SOL    HW229970   5.908   3.695   0.714
 9691SOL     OW29971   1.511   4.494   1.071
 9691SOL    HW129972   1.506   4.395   1.081
 9691SOL    HW229973   1.517   4.518   0.974
 9692SOL     OW29974   2.569   5.708   1.039
 9692SOL    HW129975   2.594   5.763   0.959
 9692SOL    HW229976   2.474   5.726   1.063
 9693SOL     OW29977   6.107   5.490   1.542
 9693SOL    HW129978   6.032   5.526   1.597
 9693SOL    HW229979   6.194   5.527   1.577
 9694SOL     OW29980   1.186   2.030   0.590
 9694SOL    HW129981   1.259   2.098   0.595
 9694SOL    HW229982   1.100   2.070   0.620
 9695SOL     OW29983   6.784   4.485   0.622
 9695SOL    HW129984   6.843   4.455   0.547
 9695SOL    HW229985   6.716   4.414   0.641
 9696SOL     OW29986   3.668   4.289   0.731
 9696SOL    HW129987   3.582   4.301   0.681
 9696SOL    HW229988   3.656   4.317   0.826
 9697SOL     OW29989   0.710   5.995   5.840
 9697SOL    HW129990   0.718   5.976   5.742
 9697SOL    HW229991   0.629   5.948   5.875
 9698SOL     OW29992   5.093   1.273   5.590
 9698SOL    HW129993   5.029   1.326   5.534
 9698SOL    HW229994   5.069   1.282   5.687
 9699SOL     OW29995   2.154   2.998   6.894
 9699SOL    HW129996   2.169   3.096   6.888
 9699SOL    HW229997   2.075   2.973   6.838
 9700SOL     OW29998   3.596   4.134   3.621
 9700SOL    HW129999   3.497   4.142   3.638
 9700SOL    HW230000   3.619   4.179   3.535
 9701SOL     OW30001   4.857   4.313   4.891
 9701SOL    HW130002   4.774   4.366   4.906
 9701SOL    HW230003   4.840   4.244   4.820
 9702SOL     OW30004   4.918   0.090   0.490
 9702SOL    HW130005   4.824   0.057   0.485
 9702SOL    HW230006   4.919   0.186   0.518
 9703SOL     OW30007   3.038   5.767   3.865
 9703SOL    HW130008   3.129   5.809   3.872
 9703SOL    HW230009   3.032   5.691   3.929
 9704SOL     OW30010   2.835   1.373   3.690
 9704SOL    HW130011   2.805   1.286   3.650
 9704SOL    HW230012   2.761   1.440   3.684
 9705SOL     OW30013   3.857   3.968   0.895
 9705SOL    HW130014   3.816   3.959   0.805
 9705SOL    HW230015   3.786   3.960   0.965
 9706SOL     OW30016   6.466   2.734   3.624
 9706SOL    HW130017   6.562   2.711   3.606
 9706SOL    HW230018   6.407   2.683   3.562
 9707SOL     OW30019   2.383   5.522   2.860
 9707SOL    HW130020   2.427   5.560   2.941
 9707SOL    HW230021   2.284   5.537   2.867
 9708SOL     OW30022   1.556   2.041   2.267
 9708SOL    HW130023   1.519   1.949   2.278
 9708SOL    HW230024   1.648   2.036   2.228
 9709SOL     OW30025   1.811   5.344   2.844
 9709SOL    HW130026   1.801   5.356   2.943
 9709SOL    HW230027   1.720   5.334   2.803
 9710SOL     OW30028   0.539   0.464   4.012
 9710SOL    HW130029   0.502   0.555   4.033
 9710SOL    HW230030   0.588   0.428   4.092
 9711SOL     OW30031   1.731   3.195   6.239
 9711SOL    HW130032   1.788   3.277   6.241
 9711SOL    HW230033   1.745   3.143   6.323
 9712SOL     OW30034   4.989   3.486   4.677
 9712SOL    HW130035   4.992   3.492   4.577
 9712SOL    HW230036   4.932   3.409   4.705
 9713SOL     OW30037   6.921   5.189   2.423
 9713SOL    HW130038   6.960   5.136   2.498
 9713SOL    HW230039   6.959   5.157   2.336
 9714SOL     OW30040   1.655   2.355   2.323
 9714SOL    HW130041   1.571   2.329   2.275
 9714SOL    HW230042   1.735   2.324   2.271
 9715SOL     OW30043   5.986   5.419   5.772
 9715SOL    HW130044   6.053   5.493   5.768
 9715SOL    HW230045   5.899   5.452   5.737
 9716SOL     OW30046   3.592   1.874   5.817
 9716SOL    HW130047   3.615   1.913   5.728
 9716SOL    HW230048   3.673   1.875   5.876
 9717SOL     OW30049   6.009   5.470   3.503
 9717SOL    HW130050   5.927   5.525   3.487
 9717SOL    HW230051   5.992   5.375   3.475
 9718SOL     OW30052   4.698   3.205   1.685
 9718SOL    HW130053   4.705   3.153   1.771
 9718SOL    HW230054   4.627   3.164   1.628
 9719SOL     OW30055   0.449   1.790   0.391
 9719SOL    HW130056   0.483   1.809   0.299
 9719SOL    HW230057   0.506   1.839   0.458
 9720SOL     OW30058   0.870   0.243   0.707
 9720SOL    HW130059   0.918   0.203   0.628
 9720SOL    HW230060   0.881   0.342   0.705
 9721SOL     OW30061   0.094   2.510   3.327
 9721SOL    HW130062   7.017   2.507   3.331
 9721SOL    HW230063   0.126   2.451   3.253
 9722SOL     OW30064   6.734   0.281   4.156
 9722SOL    HW130065   6.795   0.334   4.215
 9722SOL    HW230066   6.715   0.193   4.199
 9723SOL     OW30067   6.506   1.186   3.427
 9723SOL    HW130068   6.543   1.132   3.352
 9723SOL    HW230069   6.433   1.134   3.473
 9724SOL     OW30070   3.745   2.807   0.907
 9724SOL    HW130071   3.792   2.719   0.915
 9724SOL    HW230072   3.804   2.873   0.861
 9725SOL     OW30073   3.812   3.473   5.614
 9725SOL    HW130074   3.878   3.529   5.564
 9725SOL    HW230075   3.797   3.512   5.706
 9726SOL     OW30076   6.087   5.757   4.544
 9726SOL    HW130077   6.106   5.662   4.519
 9726SOL    HW230078   6.167   5.795   4.590
 9727SOL     OW30079   1.552   1.127   0.063
 9727SOL    HW130080   1.489   1.060   0.023
 9727SOL    HW230081   1.631   1.138   0.003
 9728SOL     OW30082   3.239   5.477   0.040
 9728SOL    HW130083   3.216   5.571   0.065
 9728SOL    HW230084   3.162   5.417   0.061
 9729SOL     OW30085   2.938   5.212   2.152
 9729SOL    HW130086   2.910   5.155   2.075
 9729SOL    HW230087   2.944   5.307   2.123
 9730SOL     OW30088   5.743   3.145   3.221
 9730SOL    HW130089   5.782   3.143   3.129
 9730SOL    HW230090   5.643   3.152   3.215
 9731SOL     OW30091   4.926   5.448   1.298
 9731SOL    HW130092   4.961   5.466   1.207
 9731SOL    HW230093   4.979   5.375   1.341
 9732SOL     OW30094   6.012   6.059   4.109
 9732SOL    HW130095   6.096   6.032   4.061
 9732SOL    HW230096   6.002   6.004   4.192
 9733SOL     OW30097   5.782   4.603   6.053
 9733SOL    HW130098   5.804   4.701   6.053
 9733SOL    HW230099   5.738   4.579   5.966
 9734SOL     OW30100   5.704   2.188   5.717
 9734SOL    HW130101   5.755   2.243   5.784
 9734SOL    HW230102   5.756   2.182   5.632
 9735SOL     OW30103   3.121   4.380   0.493
 9735SOL    HW130104   3.036   4.334   0.470
 9735SOL    HW230105   3.198   4.317   0.481
 9736SOL     OW30106   3.739   1.841   1.623
 9736SOL    HW130107   3.825   1.856   1.575
 9736SOL    HW230108   3.712   1.925   1.671
 9737SOL     OW30109   4.193   2.156   4.988
 9737SOL    HW130110   4.196   2.252   5.015
 9737SOL    HW230111   4.109   2.114   5.020
 9738SOL     OW30112   2.570   0.965   2.078
 9738SOL    HW130113   2.633   0.890   2.057
 9738SOL    HW230114   2.495   0.964   2.012
 9739SOL     OW30115   5.652   4.391   1.615
 9739SOL    HW130116   5.739   4.357   1.652
 9739SOL    HW230117   5.598   4.314   1.581
 9740SOL     OW30118   6.468   3.740   3.098
 9740SOL    HW130119   6.545   3.801   3.121
 9740SOL    HW230120   6.468   3.723   3.000
 9741SOL     OW30121   4.166   1.747   2.083
 9741SOL    HW130122   4.067   1.740   2.097
 9741SOL    HW230123   4.212   1.675   2.134
 9742SOL     OW30124   4.459   1.654   3.588
 9742SOL    HW130125   4.382   1.605   3.628
 9742SOL    HW230126   4.542   1.599   3.596
 9743SOL     OW30127   1.402   1.803   5.347
 9743SOL    HW130128   1.325   1.795   5.410
 9743SOL    HW230129   1.389   1.884   5.289
 9744SOL     OW30130   2.382   0.453   1.661
 9744SOL    HW130131   2.325   0.523   1.705
 9744SOL    HW230132   2.460   0.432   1.720
 9745SOL     OW30133   1.010   0.972   4.919
 9745SOL    HW130134   1.025   0.884   4.964
 9745SOL    HW230135   0.995   0.957   4.821
 9746SOL     OW30136   6.236   0.956   4.122
 9746SOL    HW130137   6.184   0.972   4.038
 9746SOL    HW230138   6.260   1.044   4.163
 9747SOL     OW30139   0.352   0.188   6.788
 9747SOL    HW130140   0.369   0.239   6.704
 9747SOL    HW230141   0.258   0.204   6.818
 9748SOL     OW30142   0.691   4.784   4.175
 9748SOL    HW130143   0.730   4.789   4.082
 9748SOL    HW230144   0.761   4.751   4.238
 9749SOL     OW30145   0.279   4.880   4.383
 9749SOL    HW130146   0.276   4.873   4.284
 9749SOL    HW230147   0.196   4.841   4.422
 9750SOL     OW30148   3.080   5.650   2.925
 9750SOL    HW130149   2.983   5.626   2.936
 9750SOL    HW230150   3.129   5.574   2.881
 9751SOL     OW30151   1.835   2.763   0.931
 9751SOL    HW130152   1.823   2.665   0.918
 9751SOL    HW230153   1.856   2.807   0.843
 9752SOL     OW30154   3.973   1.036   5.864
 9752SOL    HW130155   3.874   1.044   5.853
 9752SOL    HW230156   3.998   1.042   5.960
 9753SOL     OW30157   0.084   6.492   6.340
 9753SOL    HW130158   0.087   6.563   6.410
 9753SOL    HW230159   0.143   6.416   6.367
 9754SOL     OW30160   6.996   3.067   6.341
 9754SOL    HW130161   6.979   3.137   6.411
 9754SOL    HW230162   6.919   3.003   6.339
 9755SOL     OW30163   3.758   5.474   5.617
 9755SOL    HW130164   3.797   5.563   5.640
 9755SOL    HW230165   3.823   5.421   5.562
 9756SOL     OW30166   5.255   2.413   5.716
 9756SOL    HW130167   5.320   2.343   5.744
 9756SOL    HW230168   5.169   2.371   5.690
 9757SOL     OW30169   6.291   1.053   3.527
 9757SOL    HW130170   6.216   1.073   3.591
 9757SOL    HW230171   6.271   0.970   3.477
 9758SOL     OW30172   3.154   0.633   0.063
 9758SOL    HW130173   3.082   0.566   0.049
 9758SOL    HW230174   3.125   0.701   0.130
 9759SOL     OW30175   3.268   5.917   1.248
 9759SOL    HW130176   3.218   5.849   1.195
 9759SOL    HW230177   3.339   5.872   1.302
 9760SOL     OW30178   5.856   4.381   6.204
 9760SOL    HW130179   5.830   4.453   6.140
 9760SOL    HW230180   5.925   4.416   6.268
 9761SOL     OW30181   5.409   5.168   2.879
 9761SOL    HW130182   5.502   5.167   2.917
 9761SOL    HW230183   5.355   5.239   2.924
 9762SOL     OW30184   3.209   1.001   3.372
 9762SOL    HW130185   3.115   1.002   3.407
 9762SOL    HW230186   3.271   1.033   3.443
 9763SOL     OW30187   2.038   1.656   2.173
 9763SOL    HW130188   1.970   1.707   2.121
 9763SOL    HW230189   1.998   1.571   2.207
 9764SOL     OW30190   1.165   2.521   2.272
 9764SOL    HW130191   1.203   2.542   2.182
 9764SOL    HW230192   1.090   2.455   2.262
 9765SOL     OW30193   0.342   1.107   5.298
 9765SOL    HW130194   0.289   1.151   5.370
 9765SOL    HW230195   0.384   1.177   5.239
 9766SOL     OW30196   2.197   0.718   2.878
 9766SOL    HW130197   2.290   0.685   2.897
 9766SOL    HW230198   2.139   0.700   2.958
 9767SOL     OW30199   4.999   0.284   5.311
 9767SOL    HW130200   5.019   0.357   5.377
 9767SOL    HW230201   5.045   0.200   5.340
 9768SOL     OW30202   5.117   2.540   4.078
 9768SOL    HW130203   5.164   2.488   4.007
 9768SOL    HW230204   5.053   2.604   4.035
 9769SOL     OW30205   0.255   1.434   1.441
 9769SOL    HW130206   0.351   1.458   1.449
 9769SOL    HW230207   0.244   1.366   1.368
 9770SOL     OW30208   0.181   3.045   5.619
 9770SOL    HW130209   0.087   3.040   5.652
 9770SOL    HW230210   0.184   3.021   5.522
 9771SOL     OW30211   2.881   5.482   3.649
 9771SOL    HW130212   2.906   5.427   3.729
 9771SOL    HW230213   2.811   5.548   3.674
 9772SOL     OW30214   5.889   6.525   1.068
 9772SOL    HW130215   5.929   6.612   1.099
 9772SOL    HW230216   5.865   6.533   0.972
 9773SOL     OW30217   4.933   5.159   3.649
 9773SOL    HW130218   4.864   5.098   3.688
 9773SOL    HW230219   4.915   5.253   3.678
 9774SOL     OW30220   0.133   5.158   4.378
 9774SOL    HW130221   0.139   5.242   4.431
 9774SOL    HW230222   0.100   5.084   4.437
 9775SOL     OW30223   2.670   2.436   4.699
 9775SOL    HW130224   2.734   2.375   4.652
 9775SOL    HW230225   2.611   2.481   4.632
 9776SOL     OW30226   0.279   4.601   4.045
 9776SOL    HW130227   0.296   4.695   4.074
 9776SOL    HW230228   0.188   4.572   4.075
 9777SOL     OW30229   5.755   5.146   6.258
 9777SOL    HW130230   5.715   5.054   6.257
 9777SOL    HW230231   5.683   5.214   6.267
 9778SOL     OW30232   3.619   0.491   4.542
 9778SOL    HW130233   3.659   0.558   4.479
 9778SOL    HW230234   3.523   0.515   4.560
 9779SOL     OW30235   3.176   2.080   6.747
 9779SOL    HW130236   3.166   2.141   6.825
 9779SOL    HW230237   3.269   2.086   6.711
 9780SOL     OW30238   2.656   4.077   0.333
 9780SOL    HW130239   2.651   4.039   0.425
 9780SOL    HW230240   2.727   4.029   0.281
 9781SOL     OW30241   1.723   6.540   4.369
 9781SOL    HW130242   1.667   6.467   4.331
 9781SOL    HW230243   1.674   6.627   4.361
 9782SOL     OW30244   5.857   0.262   0.345
 9782SOL    HW130245   5.872   0.361   0.331
 9782SOL    HW230246   5.872   0.240   0.442
 9783SOL     OW30247   5.776   0.377   3.250
 9783SOL    HW130248   5.843   0.410   3.183
 9783SOL    HW230249   5.822   0.318   3.317
 9784SOL     OW30250   5.638   0.578   4.318
 9784SOL    HW130251   5.690   0.534   4.391
 9784SOL    HW230252   5.543   0.548   4.321
 9785SOL     OW30253   0.462   2.783   1.073
 9785SOL    HW130254   0.420   2.872   1.052
 9785SOL    HW230255   0.391   2.719   1.104
 9786SOL     OW30256   2.736   6.962   4.628
 9786SOL    HW130257   2.760   6.982   4.533
 9786SOL    HW230258   2.646   7.003   4.648
 9787SOL     OW30259   6.161   4.205   1.289
 9787SOL    HW130260   6.199   4.143   1.220
 9787SOL    HW230261   6.231   4.224   1.358
 9788SOL     OW30262   6.619   1.006   5.458
 9788SOL    HW130263   6.592   0.963   5.544
 9788SOL    HW230264   6.717   0.991   5.442
 9789SOL     OW30265   1.779   5.347   4.639
 9789SOL    HW130266   1.860   5.288   4.640
 9789SOL    HW230267   1.807   5.440   4.616
 9790SOL     OW30268   6.875   1.074   3.361
 9790SOL    HW130269   6.796   1.044   3.308
 9790SOL    HW230270   6.917   1.153   3.317
 9791SOL     OW30271   1.266   2.261   1.082
 9791SOL    HW130272   1.200   2.188   1.065
 9791SOL    HW230273   1.359   2.226   1.070
 9792SOL     OW30274   3.219   6.023   2.295
 9792SOL    HW130275   3.259   5.963   2.225
 9792SOL    HW230276   3.120   6.027   2.281
 9793SOL     OW30277   5.524   6.029   2.504
 9793SOL    HW130278   5.464   6.096   2.548
 9793SOL    HW230279   5.592   6.076   2.448
 9794SOL     OW30280   3.145   3.409   6.834
 9794SOL    HW130281   3.066   3.403   6.895
 9794SOL    HW230282   3.114   3.422   6.740
 9795SOL     OW30283   2.245   5.060   3.336
 9795SOL    HW130284   2.173   5.120   3.372
 9795SOL    HW230285   2.203   4.981   3.291
 9796SOL     OW30286   3.570   4.854   0.594
 9796SOL    HW130287   3.637   4.882   0.525
 9796SOL    HW230288   3.617   4.828   0.677
 9797SOL     OW30289   5.341   2.977   4.752
 9797SOL    HW130290   5.409   2.920   4.705
 9797SOL    HW230291   5.380   3.067   4.771
 9798SOL     OW30292   2.683   1.815   1.601
 9798SOL    HW130293   2.711   1.869   1.680
 9798SOL    HW230294   2.638   1.874   1.534
 9799SOL     OW30295   3.184   3.928   2.363
 9799SOL    HW130296   3.090   3.895   2.371
 9799SOL    HW230297   3.240   3.888   2.436
 9800SOL     OW30298   4.012   5.268   0.502
 9800SOL    HW130299   4.096   5.239   0.456
 9800SOL    HW230300   4.012   5.368   0.512
 9801SOL     OW30301   5.067   5.428   0.787
 9801SOL    HW130302   5.009   5.347   0.784
 9801SOL    HW230303   5.155   5.405   0.829
 9802SOL     OW30304   0.512   5.305   1.586
 9802SOL    HW130305   0.465   5.366   1.650
 9802SOL    HW230306   0.557   5.359   1.515
 9803SOL     OW30307   5.062   0.121   6.177
 9803SOL    HW130308   4.965   0.099   6.172
 9803SOL    HW230309   5.110   0.053   6.232
 9804SOL     OW30310   4.987   5.486   4.195
 9804SOL    HW130311   5.034   5.494   4.107
 9804SOL    HW230312   4.900   5.536   4.190
 9805SOL     OW30313   3.647   3.902   1.070
 9805SOL    HW130314   3.654   3.890   1.169
 9805SOL    HW230315   3.561   3.863   1.037
 9806SOL     OW30316   6.859   1.875   2.657
 9806SOL    HW130317   6.917   1.886   2.576
 9806SOL    HW230318   6.832   1.779   2.665
 9807SOL     OW30319   2.218   3.435   0.806
 9807SOL    HW130320   2.297   3.403   0.859
 9807SOL    HW230321   2.147   3.468   0.869
 9808SOL     OW30322   1.959   2.045   4.332
 9808SOL    HW130323   1.871   2.091   4.318
 9808SOL    HW230324   2.033   2.111   4.315
 9809SOL     OW30325   0.793   0.601   4.183
 9809SOL    HW130326   0.854   0.677   4.161
 9809SOL    HW230327   0.728   0.629   4.253
 9810SOL     OW30328   4.349   1.814   2.424
 9810SOL    HW130329   4.340   1.855   2.333
 9810SOL    HW230330   4.273   1.844   2.482
 9811SOL     OW30331   1.291   0.046   2.654
 9811SOL    HW130332   1.333   0.133   2.677
 9811SOL    HW230333   1.305   7.004   2.730
 9812SOL     OW30334   5.741   3.052   5.756
 9812SOL    HW130335   5.694   3.063   5.843
 9812SOL    HW230336   5.680   3.006   5.691
 9813SOL     OW30337   6.556   3.991   0.462
 9813SOL    HW130338   6.558   4.008   0.363
 9813SOL    HW230339   6.467   4.018   0.499
 9814SOL     OW30340   6.874   0.911   5.692
 9814SOL    HW130341   6.913   0.969   5.763
 9814SOL    HW230342   6.775   0.905   5.704
 9815SOL     OW30343   6.719   4.050   2.811
 9815SOL    HW130344   6.771   4.131   2.784
 9815SOL    HW230345   6.770   3.999   2.881
 9816SOL     OW30346   6.047   1.191   5.449
 9816SOL    HW130347   6.004   1.201   5.539
 9816SOL    HW230348   6.064   1.094   5.432
 9817SOL     OW30349   2.428   1.036   0.655
 9817SOL    HW130350   2.428   1.045   0.555
 9817SOL    HW230351   2.508   0.983   0.683
 9818SOL     OW30352   0.469   6.816   2.224
 9818SOL    HW130353   0.511   6.897   2.184
 9818SOL    HW230354   0.540   6.761   2.268
 9819SOL     OW30355   6.349   2.326   4.444
 9819SOL    HW130356   6.423   2.269   4.407
 9819SOL    HW230357   6.302   2.372   4.369
 9820SOL     OW30358   4.088   1.311   6.303
 9820SOL    HW130359   4.114   1.215   6.300
 9820SOL    HW230360   4.170   1.367   6.317
 9821SOL     OW30361   4.440   3.393   0.191
 9821SOL    HW130362   4.536   3.370   0.180
 9821SOL    HW230363   4.383   3.316   0.163
 9822SOL     OW30364   3.415   4.926   4.134
 9822SOL    HW130365   3.323   4.916   4.095
 9822SOL    HW230366   3.482   4.916   4.061
 9823SOL     OW30367   4.209   6.640   3.331
 9823SOL    HW130368   4.233   6.569   3.397
 9823SOL    HW230369   4.195   6.726   3.378
 9824SOL     OW30370   1.456   5.717   5.149
 9824SOL    HW130371   1.362   5.707   5.118
 9824SOL    HW230372   1.467   5.671   5.237
 9825SOL     OW30373   0.427   6.137   4.802
 9825SOL    HW130374   0.429   6.157   4.900
 9825SOL    HW230375   0.520   6.142   4.765
 9826SOL     OW30376   2.041   5.469   6.496
 9826SOL    HW130377   2.109   5.538   6.474
 9826SOL    HW230378   1.971   5.467   6.425
 9827SOL     OW30379   1.940   4.644   1.592
 9827SOL    HW130380   1.961   4.607   1.683
 9827SOL    HW230381   1.857   4.699   1.598
 9828SOL     OW30382   4.600   2.127   4.846
 9828SOL    HW130383   4.552   2.214   4.862
 9828SOL    HW230384   4.695   2.137   4.875
 9829SOL     OW30385   5.394   4.394   5.925
 9829SOL    HW130386   5.328   4.322   5.947
 9829SOL    HW230387   5.345   4.477   5.897
 9830SOL     OW30388   6.040   1.404   3.418
 9830SOL    HW130389   6.095   1.467   3.472
 9830SOL    HW230390   6.041   1.314   3.460
 9831SOL     OW30391   0.411   4.736   2.102
 9831SOL    HW130392   0.418   4.775   2.193
 9831SOL    HW230393   0.351   4.656   2.105
 9832SOL     OW30394   4.956   5.693   4.885
 9832SOL    HW130395   5.028   5.699   4.954
 9832SOL    HW230396   4.995   5.712   4.795
 9833SOL     OW30397   3.653   3.426   5.055
 9833SOL    HW130398   3.723   3.459   5.119
 9833SOL    HW230399   3.562   3.448   5.091
 9834SOL     OW30400   3.249   5.919   5.814
 9834SOL    HW130401   3.278   6.015   5.810
 9834SOL    HW230402   3.257   5.885   5.907
 9835SOL     OW30403   3.650   3.177   3.939
 9835SOL    HW130404   3.720   3.248   3.926
 9835SOL    HW230405   3.689   3.101   3.990
 9836SOL     OW30406   6.687   3.413   5.439
 9836SOL    HW130407   6.727   3.496   5.478
 9836SOL    HW230408   6.608   3.385   5.494
 9837SOL     OW30409   6.257   0.830   3.318
 9837SOL    HW130410   6.350   0.845   3.283
 9837SOL    HW230411   6.195   0.896   3.276
 9838SOL     OW30412   0.315   5.555   0.724
 9838SOL    HW130413   0.239   5.491   0.727
 9838SOL    HW230414   0.386   5.526   0.789
 9839SOL     OW30415   4.540   6.146   3.361
 9839SOL    HW130416   4.498   6.181   3.278
 9839SOL    HW230417   4.485   6.071   3.398
 9840SOL     OW30418   6.441   1.786   6.783
 9840SOL    HW130419   6.500   1.734   6.720
 9840SOL    HW230420   6.464   1.762   6.877
 9841SOL     OW30421   0.165   6.029   2.324
 9841SOL    HW130422   0.074   6.069   2.335
 9841SOL    HW230423   0.173   5.990   2.232
 9842SOL     OW30424   3.815   0.538   0.359
 9842SOL    HW130425   3.914   0.552   0.365
 9842SOL    HW230426   3.772   0.570   0.443
 9843SOL     OW30427   0.226   0.609   0.622
 9843SOL    HW130428   0.308   0.621   0.678
 9843SOL    HW230429   0.200   0.697   0.582
 9844SOL     OW30430   5.009   0.280   4.837
 9844SOL    HW130431   5.083   0.217   4.813
 9844SOL    HW230432   5.040   0.343   4.907
 9845SOL     OW30433   0.982   4.086   2.394
 9845SOL    HW130434   1.079   4.088   2.370
 9845SOL    HW230435   0.941   4.175   2.375
 9846SOL     OW30436   5.332   2.047   2.726
 9846SOL    HW130437   5.419   2.091   2.746
 9846SOL    HW230438   5.263   2.077   2.792
 9847SOL     OW30439   3.905   4.067   0.022
 9847SOL    HW130440   3.899   4.165   0.002
 9847SOL    HW230441   3.908   4.053   0.121
 9848SOL     OW30442   3.071   4.571   5.615
 9848SOL    HW130443   3.009   4.514   5.562
 9848SOL    HW230444   3.135   4.618   5.554
 9849SOL     OW30445   2.138   2.459   3.324
 9849SOL    HW130446   2.202   2.527   3.359
 9849SOL    HW230447   2.171   2.422   3.238
 9850SOL     OW30448   0.794   0.023   4.106
 9850SOL    HW130449   0.725   0.081   4.148
 9850SOL    HW230450   0.780   0.021   4.007
 9851SOL     OW30451   3.614   5.564   3.753
 9851SOL    HW130452   3.542   5.590   3.689
 9851SOL    HW230453   3.613   5.627   3.831
 9852SOL     OW30454   1.944   6.572   0.215
 9852SOL    HW130455   2.009   6.571   0.291
 9852SOL    HW230456   1.937   6.665   0.179
 9853SOL     OW30457   0.103   4.068   3.979
 9853SOL    HW130458   0.072   4.027   3.893
 9853SOL    HW230459   0.090   4.003   4.054
 9854SOL     OW30460   6.567   3.654   6.746
 9854SOL    HW130461   6.471   3.673   6.730
 9854SOL    HW230462   6.583   3.555   6.741
 9855SOL     OW30463   0.938   5.979   6.779
 9855SOL    HW130464   1.003   6.053   6.793
 9855SOL    HW230465   0.946   5.913   6.854
 9856SOL     OW30466   5.373   3.773   3.199
 9856SOL    HW130467   5.393   3.799   3.104
 9856SOL    HW230468   5.452   3.795   3.257
 9857SOL     OW30469   5.149   0.295   5.992
 9857SOL    HW130470   5.126   0.256   6.081
 9857SOL    HW230471   5.100   0.245   5.920
 9858SOL     OW30472   6.610   5.249   2.416
 9858SOL    HW130473   6.701   5.209   2.402
 9858SOL    HW230474   6.589   5.312   2.342
 9859SOL     OW30475   1.037   5.083   2.386
 9859SOL    HW130476   1.125   5.067   2.340
 9859SOL    HW230477   0.971   5.014   2.356
 9860SOL     OW30478   1.505   3.494   3.967
 9860SOL    HW130479   1.560   3.577   3.965
 9860SOL    HW230480   1.502   3.454   3.875
 9861SOL     OW30481   3.564   1.889   3.702
 9861SOL    HW130482   3.499   1.826   3.659
 9861SOL    HW230483   3.643   1.902   3.642
 9862SOL     OW30484   1.743   3.134   6.525
 9862SOL    HW130485   1.753   3.099   6.618
 9862SOL    HW230486   1.656   3.182   6.516
 9863SOL     OW30487   4.272   6.837   2.255
 9863SOL    HW130488   4.210   6.772   2.210
 9863SOL    HW230489   4.249   6.843   2.352
 9864SOL     OW30490   3.108   6.337   5.421
 9864SOL    HW130491   3.125   6.273   5.345
 9864SOL    HW230492   3.015   6.373   5.414
 9865SOL     OW30493   2.517   6.471   6.026
 9865SOL    HW130494   2.516   6.432   6.118
 9865SOL    HW230495   2.583   6.422   5.970
 9866SOL     OW30496   6.861   5.405   6.576
 9866SOL    HW130497   6.796   5.477   6.601
 9866SOL    HW230498   6.890   5.418   6.482
 9867SOL     OW30499   5.167   1.192   2.139
 9867SOL    HW130500   5.076   1.176   2.101
 9867SOL    HW230501   5.160   1.257   2.215
 9868SOL     OW30502   2.638   4.589   3.608
 9868SOL    HW130503   2.642   4.605   3.510
 9868SOL    HW230504   2.553   4.542   3.631
 9869SOL     OW30505   6.486   2.692   2.943
 9869SOL    HW130506   6.524   2.732   3.027
 9869SOL    HW230507   6.533   2.605   2.924
 9870SOL     OW30508   2.015   2.315   3.063
 9870SOL    HW130509   1.965   2.229   3.077
 9870SOL    HW230510   1.950   2.391   3.064
 9871SOL     OW30511   5.783   5.882   3.143
 9871SOL    HW130512   5.732   5.915   3.222
 9871SOL    HW230513   5.848   5.811   3.172
 9872SOL     OW30514   0.698   6.509   5.699
 9872SOL    HW130515   0.692   6.572   5.622
 9872SOL    HW230516   0.770   6.539   5.762
 9873SOL     OW30517   0.606   0.980   5.274
 9873SOL    HW130518   0.621   1.028   5.188
 9873SOL    HW230519   0.518   1.007   5.313
 9874SOL     OW30520   0.240   2.062   3.538
 9874SOL    HW130521   0.151   2.033   3.506
 9874SOL    HW230522   0.276   2.133   3.477
 9875SOL     OW30523   6.501   6.330   0.912
 9875SOL    HW130524   6.581   6.324   0.853
 9875SOL    HW230525   6.514   6.271   0.992
 9876SOL     OW30526   0.086   6.823   3.689
 9876SOL    HW130527   0.059   6.917   3.706
 9876SOL    HW230528   0.010   6.762   3.712
 9877SOL     OW30529   1.369   6.176   5.151
 9877SOL    HW130530   1.423   6.111   5.202
 9877SOL    HW230531   1.328   6.243   5.213
 9878SOL     OW30532   3.613   2.160   0.068
 9878SOL    HW130533   3.652   2.101   7.021
 9878SOL    HW230534   3.540   2.215   0.029
 9879SOL     OW30535   5.983   5.939   4.353
 9879SOL    HW130536   6.034   5.867   4.399
 9879SOL    HW230537   5.889   5.910   4.339
 9880SOL     OW30538   3.877   1.333   1.068
 9880SOL    HW130539   3.816   1.342   1.147
 9880SOL    HW230540   3.965   1.296   1.098
 9881SOL     OW30541   5.939   0.058   3.326
 9881SOL    HW130542   5.903   0.139   3.373
 9881SOL    HW230543   5.930   0.069   3.227
 9882SOL     OW30544   3.518   2.948   4.837
 9882SOL    HW130545   3.533   3.046   4.848
 9882SOL    HW230546   3.556   2.900   4.916
 9883SOL     OW30547   1.767   6.281   2.496
 9883SOL    HW130548   1.707   6.208   2.464
 9883SOL    HW230549   1.855   6.276   2.449
 9884SOL     OW30550   3.049   2.640   5.336
 9884SOL    HW130551   3.102   2.576   5.281
 9884SOL    HW230552   2.953   2.611   5.338
 9885SOL     OW30553   5.014   2.281   5.710
 9885SOL    HW130554   5.011   2.181   5.718
 9885SOL    HW230555   4.978   2.308   5.621
 9886SOL     OW30556   2.423   6.074   1.534
 9886SOL    HW130557   2.391   5.983   1.506
 9886SOL    HW230558   2.452   6.125   1.453
 9887SOL     OW30559   3.429   1.200   6.999
 9887SOL    HW130560   3.419   1.100   7.000
 9887SOL    HW230561   3.458   1.231   0.067
 9888SOL     OW30562   6.805   6.223   3.781
 9888SOL    HW130563   6.818   6.275   3.696
 9888SOL    HW230564   6.768   6.284   3.851
 9889SOL     OW30565   6.270   6.031   2.675
 9889SOL    HW130566   6.231   6.019   2.767
 9889SOL    HW230567   6.201   6.071   2.615
 9890SOL     OW30568   1.706   3.008   2.637
 9890SOL    HW130569   1.634   3.035   2.574
 9890SOL    HW230570   1.730   2.912   2.621
 9891SOL     OW30571   4.261   6.803   1.480
 9891SOL    HW130572   4.179   6.842   1.522
 9891SOL    HW230573   4.295   6.865   1.410
 9892SOL     OW30574   1.830   6.273   3.176
 9892SOL    HW130575   1.882   6.353   3.206
 9892SOL    HW230576   1.748   6.262   3.233
 9893SOL     OW30577   5.762   4.581   5.576
 9893SOL    HW130578   5.833   4.525   5.619
 9893SOL    HW230579   5.720   4.529   5.501
 9894SOL     OW30580   4.189   3.961   5.625
 9894SOL    HW130581   4.098   3.939   5.591
 9894SOL    HW230582   4.201   4.060   5.626
 9895SOL     OW30583   5.210   2.176   6.387
 9895SOL    HW130584   5.130   2.228   6.357
 9895SOL    HW230585   5.278   2.174   6.313
 9896SOL     OW30586   4.004   3.789   0.099
 9896SOL    HW130587   3.960   3.848   0.167
 9896SOL    HW230588   3.967   3.697   0.107
 9897SOL     OW30589   0.611   1.738   2.803
 9897SOL    HW130590   0.542   1.696   2.745
 9897SOL    HW230591   0.689   1.677   2.812
 9898SOL     OW30592   0.392   4.715   0.230
 9898SOL    HW130593   0.397   4.765   0.143
 9898SOL    HW230594   0.418   4.619   0.214
 9899SOL     OW30595   4.319   5.592   2.520
 9899SOL    HW130596   4.319   5.680   2.472
 9899SOL    HW230597   4.260   5.528   2.471
 9900SOL     OW30598   2.242   4.999   4.122
 9900SOL    HW130599   2.226   5.007   4.024
 9900SOL    HW230600   2.339   4.982   4.139
 9901SOL     OW30601   2.534   1.717   6.044
 9901SOL    HW130602   2.630   1.709   6.070
 9901SOL    HW230603   2.527   1.735   5.946
 9902SOL     OW30604   4.033   3.895   6.852
 9902SOL    HW130605   3.985   3.972   6.895
 9902SOL    HW230606   4.093   3.851   6.918
 9903SOL     OW30607   3.213   1.597   1.278
 9903SOL    HW130608   3.295   1.596   1.220
 9903SOL    HW230609   3.201   1.507   1.320
 9904SOL     OW30610   6.739   6.304   2.370
 9904SOL    HW130611   6.675   6.320   2.295
 9904SOL    HW230612   6.689   6.273   2.451
 9905SOL     OW30613   2.198   0.082   6.315
 9905SOL    HW130614   2.280   0.041   6.276
 9905SOL    HW230615   2.134   0.010   6.341
 9906SOL     OW30616   3.530   4.284   5.933
 9906SOL    HW130617   3.600   4.353   5.953
 9906SOL    HW230618   3.469   4.275   6.012
 9907SOL     OW30619   0.868   6.390   3.039
 9907SOL    HW130620   0.954   6.431   3.069
 9907SOL    HW230621   0.867   6.384   2.939
 9908SOL     OW30622   6.643   2.980   5.364
 9908SOL    HW130623   6.664   2.994   5.461
 9908SOL    HW230624   6.565   2.919   5.355
 9909SOL     OW30625   2.990   0.010   2.659
 9909SOL    HW130626   2.924   6.998   2.593
 9909SOL    HW230627   2.941   0.053   2.735
 9910SOL     OW30628   1.064   5.690   0.653
 9910SOL    HW130629   1.111   5.773   0.683
 9910SOL    HW230630   1.039   5.635   0.732
 9911SOL     OW30631   3.440   4.894   2.390
 9911SOL    HW130632   3.414   4.852   2.303
 9911SOL    HW230633   3.408   4.837   2.466
 9912SOL     OW30634   5.505   6.586   0.353
 9912SOL    HW130635   5.504   6.583   0.254
 9912SOL    HW230636   5.467   6.672   0.385
 9913SOL     OW30637   5.240   2.061   3.324
 9913SOL    HW130638   5.274   1.967   3.316
 9913SOL    HW230639   5.292   2.120   3.262
 9914SOL     OW30640   2.505   5.774   4.171
 9914SOL    HW130641   2.522   5.676   4.185
 9914SOL    HW230642   2.445   5.807   4.244
 9915SOL     OW30643   6.182   4.174   4.743
 9915SOL    HW130644   6.097   4.174   4.797
 9915SOL    HW230645   6.202   4.266   4.711
 9916SOL     OW30646   2.405   3.436   0.576
 9916SOL    HW130647   2.363   3.425   0.666
 9916SOL    HW230648   2.479   3.369   0.565
 9917SOL     OW30649   2.235   3.030   4.611
 9917SOL    HW130650   2.273   3.004   4.522
 9917SOL    HW230651   2.284   2.982   4.683
 9918SOL     OW30652   2.315   0.704   4.780
 9918SOL    HW130653   2.246   0.699   4.853
 9918SOL    HW230654   2.271   0.722   4.693
 9919SOL     OW30655   0.927   5.128   1.782
 9919SOL    HW130656   0.914   5.110   1.879
 9919SOL    HW230657   1.025   5.130   1.760
 9920SOL     OW30658   3.958   0.269   3.035
 9920SOL    HW130659   3.905   0.269   2.950
 9920SOL    HW230660   3.955   0.361   3.075
 9921SOL     OW30661   4.819   0.901   2.373
 9921SOL    HW130662   4.893   0.958   2.407
 9921SOL    HW230663   4.817   0.815   2.425
 9922SOL     OW30664   5.383   2.546   2.528
 9922SOL    HW130665   5.318   2.489   2.578
 9922SOL    HW230666   5.333   2.621   2.484
 9923SOL     OW30667   6.239   0.409   6.710
 9923SOL    HW130668   6.173   0.415   6.634
 9923SOL    HW230669   6.319   0.357   6.680
 9924SOL     OW30670   5.320   1.248   3.947
 9924SOL    HW130671   5.326   1.348   3.955
 9924SOL    HW230672   5.272   1.212   4.027
 9925SOL     OW30673   3.899   2.185   4.713
 9925SOL    HW130674   3.916   2.086   4.719
 9925SOL    HW230675   3.802   2.203   4.729
 9926SOL     OW30676   2.290   0.998   5.676
 9926SOL    HW130677   2.376   0.994   5.626
 9926SOL    HW230678   2.281   1.088   5.720
 9927SOL     OW30679   1.149   3.500   3.387
 9927SOL    HW130680   1.218   3.549   3.440
 9927SOL    HW230681   1.187   3.414   3.353
 9928SOL     OW30682   0.008   2.901   2.290
 9928SOL    HW130683   0.041   2.817   2.333
 9928SOL    HW230684   0.007   2.889   2.191
 9929SOL     OW30685   1.289   5.112   5.721
 9929SOL    HW130686   1.236   5.029   5.699
 9929SOL    HW230687   1.386   5.094   5.708
 9930SOL     OW30688   6.442   5.569   6.529
 9930SOL    HW130689   6.402   5.479   6.543
 9930SOL    HW230690   6.417   5.629   6.605
 9931SOL     OW30691   2.175   4.560   6.907
 9931SOL    HW130692   2.174   4.499   6.827
 9931SOL    HW230693   2.138   4.511   6.986
 9932SOL     OW30694   2.315   2.590   1.185
 9932SOL    HW130695   2.412   2.614   1.194
 9932SOL    HW230696   2.274   2.584   1.276
 9933SOL     OW30697   0.715   1.624   3.229
 9933SOL    HW130698   0.745   1.614   3.324
 9933SOL    HW230699   0.616   1.614   3.223
 9934SOL     OW30700   5.288   0.651   6.110
 9934SOL    HW130701   5.351   0.652   6.033
 9934SOL    HW230702   5.292   0.562   6.156
 9935SOL     OW30703   2.760   3.434   0.846
 9935SOL    HW130704   2.823   3.358   0.865
 9935SOL    HW230705   2.812   3.519   0.841
 9936SOL     OW30706   5.188   6.088   6.993
 9936SOL    HW130707   5.167   6.112   6.898
 9936SOL    HW230708   5.183   6.171   0.027
 9937SOL     OW30709   1.826   6.765   4.005
 9937SOL    HW130710   1.827   6.728   3.912
 9937SOL    HW230711   1.853   6.694   4.070
 9938SOL     OW30712   6.756   1.132   3.010
 9938SOL    HW130713   6.829   1.070   2.981
 9938SOL    HW230714   6.700   1.156   2.931
 9939SOL     OW30715   2.700   3.816   1.278
 9939SOL    HW130716   2.626   3.754   1.252
 9939SOL    HW230717   2.767   3.766   1.332
 9940SOL     OW30718   0.416   0.977   3.163
 9940SOL    HW130719   0.391   0.908   3.232
 9940SOL    HW230720   0.407   1.068   3.203
 9941SOL     OW30721   6.192   3.053   0.618
 9941SOL    HW130722   6.110   2.998   0.603
 9941SOL    HW230723   6.180   3.143   0.574
 9942SOL     OW30724   6.009   5.704   2.435
 9942SOL    HW130725   6.092   5.689   2.381
 9942SOL    HW230726   6.033   5.712   2.532
 9943SOL     OW30727   1.322   4.095   5.493
 9943SOL    HW130728   1.294   4.048   5.577
 9943SOL    HW230729   1.260   4.070   5.419
 9944SOL     OW30730   2.392   5.560   0.020
 9944SOL    HW130731   2.455   5.492   0.057
 9944SOL    HW230732   2.407   5.647   0.066
 9945SOL     OW30733   6.464   3.728   6.490
 9945SOL    HW130734   6.552   3.702   6.529
 9945SOL    HW230735   6.414   3.646   6.464
 9946SOL     OW30736   5.410   2.179   1.978
 9946SOL    HW130737   5.451   2.261   1.940
 9946SOL    HW230738   5.414   2.105   1.911
 9947SOL     OW30739   0.876   0.602   2.940
 9947SOL    HW130740   0.780   0.590   2.965
 9947SOL    HW230741   0.889   0.695   2.907
 9948SOL     OW30742   5.793   0.970   5.125
 9948SOL    HW130743   5.735   0.926   5.056
 9948SOL    HW230744   5.862   0.905   5.156
 9949SOL     OW30745   0.074   3.496   2.705
 9949SOL    HW130746   0.150   3.543   2.751
 9949SOL    HW230747   0.030   3.433   2.769
 9950SOL     OW30748   4.659   5.662   6.145
 9950SOL    HW130749   4.736   5.706   6.192
 9950SOL    HW230750   4.694   5.590   6.085
 9951SOL     OW30751   0.141   2.085   2.633
 9951SOL    HW130752   0.074   2.059   2.563
 9951SOL    HW230753   0.098   2.082   2.723
 9952SOL     OW30754   1.371   4.595   1.442
 9952SOL    HW130755   1.381   4.645   1.528
 9952SOL    HW230756   1.364   4.497   1.461
 9953SOL     OW30757   5.903   4.618   4.751
 9953SOL    HW130758   5.866   4.548   4.689
 9953SOL    HW230759   5.974   4.670   4.704
 9954SOL     OW30760   4.608   1.346   1.550
 9954SOL    HW130761   4.594   1.352   1.452
 9954SOL    HW230762   4.698   1.385   1.573
 9955SOL     OW30763   6.182   4.907   0.719
 9955SOL    HW130764   6.157   5.001   0.740
 9955SOL    HW230765   6.278   4.904   0.691
 9956SOL     OW30766   1.217   3.885   3.445
 9956SOL    HW130767   1.226   3.897   3.346
 9956SOL    HW230768   1.282   3.945   3.491
 9957SOL     OW30769   5.163   0.133   0.055
 9957SOL    HW130770   5.076   0.170   0.088
 9957SOL    HW230771   5.185   0.050   0.106
 9958SOL     OW30772   5.954   6.179   5.949
 9958SOL    HW130773   5.928   6.120   6.026
 9958SOL    HW230774   5.889   6.255   5.942
 9959SOL     OW30775   5.740   4.841   6.885
 9959SOL    HW130776   5.822   4.799   6.923
 9959SOL    HW230777   5.756   4.937   6.866
 9960SOL     OW30778   6.751   0.569   6.609
 9960SOL    HW130779   6.736   0.471   6.600
 9960SOL    HW230780   6.711   0.616   6.530
 9961SOL     OW30781   3.262   6.890   0.400
 9961SOL    HW130782   3.340   6.914   0.458
 9961SOL    HW230783   3.274   6.796   0.365
 9962SOL     OW30784   3.434   0.506   1.391
 9962SOL    HW130785   3.366   0.560   1.441
 9962SOL    HW230786   3.404   0.411   1.385
 9963SOL     OW30787   1.248   0.508   6.611
 9963SOL    HW130788   1.164   0.537   6.658
 9963SOL    HW230789   1.324   0.506   6.676
 9964SOL     OW30790   4.877   5.566   5.300
 9964SOL    HW130791   4.780   5.558   5.325
 9964SOL    HW230792   4.891   5.528   5.208
 9965SOL     OW30793   2.072   4.721   4.175
 9965SOL    HW130794   2.049   4.769   4.260
 9965SOL    HW230795   2.058   4.782   4.097
 9966SOL     OW30796   2.385   5.719   2.454
 9966SOL    HW130797   2.319   5.755   2.388
 9966SOL    HW230798   2.464   5.681   2.405
 9967SOL     OW30799   0.249   0.507   2.702
 9967SOL    HW130800   0.155   0.490   2.731
 9967SOL    HW230801   0.273   0.447   2.626
 9968SOL     OW30802   4.864   6.411   6.785
 9968SOL    HW130803   4.854   6.333   6.724
 9968SOL    HW230804   4.774   6.440   6.818
 9969SOL     OW30805   0.353   5.687   2.932
 9969SOL    HW130806   0.270   5.735   2.904
 9969SOL    HW230807   0.395   5.737   3.008
 9970SOL     OW30808   0.500   3.222   1.926
 9970SOL    HW130809   0.579   3.196   1.981
 9970SOL    HW230810   0.477   3.318   1.943
 9971SOL     OW30811   0.058   5.298   5.139
 9971SOL    HW130812   7.005   5.287   5.074
 9971SOL    HW230813   0.025   5.346   5.221
 9972SOL     OW30814   2.903   4.763   5.776
 9972SOL    HW130815   2.950   4.705   5.709
 9972SOL    HW230816   2.962   4.775   5.855
 9973SOL     OW30817   3.090   2.200   3.236
 9973SOL    HW130818   3.133   2.191   3.146
 9973SOL    HW230819   3.001   2.245   3.226
 9974SOL     OW30820   0.864   2.691   2.919
 9974SOL    HW130821   0.876   2.700   3.018
 9974SOL    HW230822   0.899   2.774   2.874
 9975SOL     OW30823   1.599   3.649   6.238
 9975SOL    HW130824   1.622   3.614   6.147
 9975SOL    HW230825   1.642   3.738   6.251
 9976SOL     OW30826   3.783   6.366   5.600
 9976SOL    HW130827   3.687   6.395   5.593
 9976SOL    HW230828   3.809   6.359   5.696
 9977SOL     OW30829   4.452   0.209   5.714
 9977SOL    HW130830   4.466   0.254   5.626
 9977SOL    HW230831   4.377   0.253   5.763
 9978SOL     OW30832   6.780   2.910   0.279
 9978SOL    HW130833   6.748   2.865   0.195
 9978SOL    HW230834   6.828   2.994   0.255
 9979SOL     OW30835   3.693   3.591   4.190
 9979SOL    HW130836   3.650   3.680   4.206
 9979SOL    HW230837   3.670   3.559   4.098
 9980SOL     OW30838   0.524   0.163   0.163
 9980SOL    HW130839   0.530   0.097   0.238
 9980SOL    HW230840   0.550   0.253   0.197
 9981SOL     OW30841   5.766   0.856   0.326
 9981SOL    HW130842   5.857   0.854   0.367
 9981SOL    HW230843   5.725   0.946   0.340
 9982SOL     OW30844   2.542   2.345   4.421
 9982SOL    HW130845   2.614   2.307   4.363
 9982SOL    HW230846   2.506   2.273   4.481
 9983SOL     OW30847   0.062   2.637   2.389
 9983SOL    HW130848   0.119   2.595   2.318
 9983SOL    HW230849   0.118   2.654   2.470
 9984SOL     OW30850   0.749   4.525   0.881
 9984SOL    HW130851   0.815   4.599   0.864
 9984SOL    HW230852   0.686   4.553   0.954
 9985SOL     OW30853   4.911   4.614   0.474
 9985SOL    HW130854   4.947   4.569   0.392
 9985SOL    HW230855   4.820   4.649   0.456
 9986SOL     OW30856   5.137   4.838   6.970
 9986SOL    HW130857   5.197   4.913   6.997
 9986SOL    HW230858   5.192   4.758   6.947
 9987SOL     OW30859   4.592   2.522   1.223
 9987SOL    HW130860   4.549   2.548   1.309
 9987SOL    HW230861   4.592   2.422   1.214
 9988SOL     OW30862   6.045   6.814   3.787
 9988SOL    HW130863   5.960   6.763   3.770
 9988SOL    HW230864   6.055   6.886   3.718
 9989SOL     OW30865   5.990   5.497   1.851
 9989SOL    HW130866   5.940   5.526   1.769
 9989SOL    HW230867   5.950   5.411   1.885
 9990SOL     OW30868   0.644   5.907   2.952
 9990SOL    HW130869   0.583   5.875   3.025
 9990SOL    HW230870   0.739   5.904   2.984
 9991SOL     OW30871   1.874   4.199   1.893
 9991SOL    HW130872   1.791   4.150   1.921
 9991SOL    HW230873   1.917   4.152   1.816
 9992SOL     OW30874   2.767   5.092   7.021
 9992SOL    HW130875   2.760   4.995   0.023
 9992SOL    HW230876   2.831   5.103   6.945
 9993SOL     OW30877   3.757   0.168   5.217
 9993SOL    HW130878   3.834   0.214   5.262
 9993SOL    HW230879   3.790   0.118   5.137
 9994SOL     OW30880   5.773   5.314   4.785
 9994SOL    HW130881   5.728   5.233   4.747
 9994SOL    HW230882   5.704   5.383   4.807
 9995SOL     OW30883   4.402   1.291   6.381
 9995SOL    HW130884   4.375   1.316   6.474
 9995SOL    HW230885   4.501   1.294   6.372
 9996SOL     OW30886   2.696   4.835   0.454
 9996SOL    HW130887   2.626   4.795   0.513
 9996SOL    HW230888   2.691   4.935   0.460
 9997SOL     OW30889   6.181   1.016   3.123
 9997SOL    HW130890   6.249   1.079   3.158
 9997SOL    HW230891   6.187   1.011   3.024
 9998SOL     OW30892   5.248   3.595   2.294
 9998SOL    HW130893   5.305   3.674   2.317
 9998SOL    HW230894   5.307   3.519   2.267
 9999SOL     OW30895   0.526   6.889   4.800
 9999SOL    HW130896   0.496   6.795   4.779
 9999SOL    HW230897   0.479   6.953   4.739
10000SOL     OW30898   4.481   2.697   1.431
10000SOL    HW130899   4.471   2.718   1.528
10000SOL    HW230900   4.470   2.780   1.377
10001SOL     OW30901   3.600   6.618   1.706
10001SOL    HW130902   3.649   6.598   1.621
10001SOL    HW230903   3.535   6.545   1.725
10002SOL     OW30904   2.227   6.863   2.494
10002SOL    HW130905   2.135   6.896   2.515
10002SOL    HW230906   2.220   6.788   2.428
10003SOL     OW30907   1.075   0.952   2.261
10003SOL    HW130908   1.137   0.980   2.188
10003SOL    HW230909   1.083   1.015   2.338
10004SOL     OW30910   0.004   3.558   3.590
10004SOL    HW130911   0.043   3.479   3.544
10004SOL    HW230912   6.961   3.528   3.659
10005SOL     OW30913   2.827   5.523   2.933
10005SOL    HW130914   2.857   5.507   2.839
10005SOL    HW230915   2.763   5.452   2.960
10006SOL     OW30916   5.440   1.872   5.493
10006SOL    HW130917   5.399   1.833   5.576
10006SOL    HW230918   5.435   1.972   5.497
10007SOL     OW30919   1.702   5.488   3.627
10007SOL    HW130920   1.647   5.559   3.671
10007SOL    HW230921   1.780   5.465   3.685
10008SOL     OW30922   4.349   1.056   5.778
10008SOL    HW130923   4.300   1.136   5.810
10008SOL    HW230924   4.415   1.083   5.708
10009SOL     OW30925   0.809   4.836   2.626
10009SOL    HW130926   0.888   4.879   2.582
10009SOL    HW230927   0.838   4.795   2.713
10010SOL     OW30928   1.917   4.551   0.771
10010SOL    HW130929   1.903   4.568   0.869
10010SOL    HW230930   1.944   4.456   0.757
10011SOL     OW30931   3.290   3.340   0.324
10011SOL    HW130932   3.281   3.310   0.419
10011SOL    HW230933   3.381   3.380   0.310
10012SOL     OW30934   5.482   1.991   4.128
10012SOL    HW130935   5.540   1.943   4.063
10012SOL    HW230936   5.410   1.930   4.160
10013SOL     OW30937   0.972   6.207   4.486
10013SOL    HW130938   0.948   6.221   4.582
10013SOL    HW230939   0.944   6.287   4.433
10014SOL     OW30940   1.202   1.114   3.359
10014SOL    HW130941   1.296   1.103   3.324
10014SOL    HW230942   1.186   1.048   3.432
10015SOL     OW30943   4.417   6.999   6.278
10015SOL    HW130944   4.345   0.008   6.340
10015SOL    HW230945   4.394   0.004   6.184
10016SOL     OW30946   2.735   1.126   4.471
10016SOL    HW130947   2.714   1.124   4.568
10016SOL    HW230948   2.673   1.190   4.425
10017SOL     OW30949   3.264   1.773   2.738
10017SOL    HW130950   3.266   1.797   2.640
10017SOL    HW230951   3.338   1.822   2.785
10018SOL     OW30952   6.974   4.663   5.310
10018SOL    HW130953   0.035   4.615   5.339
10018SOL    HW230954   6.994   4.721   5.231
10019SOL     OW30955   6.761   2.109   2.371
10019SOL    HW130956   6.797   2.139   2.282
10019SOL    HW230957   6.724   2.188   2.420
10020SOL     OW30958   6.263   0.750   2.225
10020SOL    HW130959   6.190   0.731   2.159
10020SOL    HW230960   6.349   0.712   2.191
10021SOL     OW30961   0.806   3.549   1.589
10021SOL    HW130962   0.886   3.602   1.617
10021SOL    HW230963   0.832   3.487   1.515
10022SOL     OW30964   1.571   6.380   5.874
10022SOL    HW130965   1.621   6.302   5.911
10022SOL    HW230966   1.473   6.358   5.872
10023SOL     OW30967   0.501   1.794   5.712
10023SOL    HW130968   0.413   1.842   5.712
10023SOL    HW230969   0.485   1.696   5.719
10024SOL     OW30970   2.357   4.690   2.901
10024SOL    HW130971   2.415   4.610   2.889
10024SOL    HW230972   2.261   4.665   2.887
10025SOL     OW30973   0.899   2.806   1.248
10025SOL    HW130974   0.957   2.883   1.276
10025SOL    HW230975   0.908   2.732   1.315
10026SOL     OW30976   5.598   1.183   4.692
10026SOL    HW130977   5.507   1.184   4.732
10026SOL    HW230978   5.666   1.170   4.764
10027SOL     OW30979   3.639   1.386   5.454
10027SOL    HW130980   3.558   1.328   5.453
10027SOL    HW230981   3.714   1.340   5.407
10028SOL     OW30982   3.853   7.014   2.225
10028SOL    HW130983   3.927   0.042   2.269
10028SOL    HW230984   3.834   0.031   2.135
10029SOL     OW30985   0.190   4.298   3.891
10029SOL    HW130986   0.163   4.206   3.922
10029SOL    HW230987   0.136   4.366   3.939
10030SOL     OW30988   2.164   0.025   4.712
10030SOL    HW130989   2.122   0.069   4.791
10030SOL    HW230990   2.152   6.949   4.719
10031SOL     OW30991   2.024   6.089   3.442
10031SOL    HW130992   2.075   6.170   3.410
10031SOL    HW230993   1.930   6.115   3.461
10032SOL     OW30994   3.284   5.885   3.885
10032SOL    HW130995   3.295   5.983   3.900
10032SOL    HW230996   3.348   5.834   3.943
10033SOL     OW30997   3.220   1.047   5.490
10033SOL    HW130998   3.158   0.973   5.465
10033SOL    HW230999   3.192   1.086   5.578
10034SOL     OW31000   2.459   1.286   2.490
10034SOL    HW131001   2.520   1.358   2.521
10034SOL    HW231002   2.498   1.240   2.410
10035SOL     OW31003   6.741   2.922   2.863
10035SOL    HW131004   6.647   2.914   2.829
10035SOL    HW231005   6.803   2.877   2.800
10036SOL     OW31006   1.117   0.758   6.873
10036SOL    HW131007   1.053   0.832   6.893
10036SOL    HW231008   1.193   0.793   6.819
10037SOL     OW31009   5.762   6.839   6.322
10037SOL    HW131010   5.773   6.749   6.365
10037SOL    HW231011   5.830   6.902   6.359
10038SOL     OW31012   4.871   6.219   6.584
10038SOL    HW131013   4.823   6.138   6.551
10038SOL    HW231014   4.943   6.191   6.648
10039SOL     OW31015   0.220   5.806   1.835
10039SOL    HW131016   0.258   5.714   1.848
10039SOL    HW231017   0.292   5.874   1.852
10040SOL     OW31018   2.260   6.604   0.169
10040SOL    HW131019   2.215   6.646   0.091
10040SOL    HW231020   2.242   6.657   0.252
10041SOL     OW31021   5.716   5.521   5.349
10041SOL    HW131022   5.691   5.484   5.438
10041SOL    HW231023   5.771   5.454   5.299
10042SOL     OW31024   6.772   0.741   5.132
10042SOL    HW131025   6.826   0.806   5.186
10042SOL    HW231026   6.811   0.650   5.143
10043SOL     OW31027   0.572   0.723   3.053
10043SOL    HW131028   0.508   0.769   3.114
10043SOL    HW231029   0.564   0.761   2.961
10044SOL     OW31030   2.928   2.245   0.245
10044SOL    HW131031   2.984   2.259   0.163
10044SOL    HW231032   2.909   2.148   0.256
10045SOL     OW31033   3.689   6.583   4.799
10045SOL    HW131034   3.646   6.668   4.827
10045SOL    HW231035   3.672   6.513   4.869
10046SOL     OW31036   6.638   2.258   1.964
10046SOL    HW131037   6.575   2.214   1.900
10046SOL    HW231038   6.703   2.191   1.999
10047SOL     OW31039   0.644   2.556   3.305
10047SOL    HW131040   0.609   2.507   3.226
10047SOL    HW231041   0.706   2.497   3.357
10048SOL     OW31042   3.682   2.618   1.791
10048SOL    HW131043   3.773   2.651   1.770
10048SOL    HW231044   3.686   2.519   1.810
10049SOL     OW31045   1.924   6.646   4.239
10049SOL    HW131046   1.874   6.600   4.312
10049SOL    HW231047   2.015   6.605   4.230
10050SOL     OW31048   5.608   0.986   4.506
10050SOL    HW131049   5.586   1.024   4.416
10050SOL    HW231050   5.592   1.055   4.577
10051SOL     OW31051   6.184   2.413   0.199
10051SOL    HW131052   6.281   2.438   0.212
10051SOL    HW231053   6.148   2.460   0.119
10052SOL     OW31054   1.528   4.517   1.696
10052SOL    HW131055   1.452   4.494   1.756
10052SOL    HW231056   1.538   4.447   1.626
10053SOL     OW31057   3.151   6.783   3.379
10053SOL    HW131058   3.199   6.773   3.291
10053SOL    HW231059   3.200   6.847   3.437
10054SOL     OW31060   4.249   5.694   4.084
10054SOL    HW131061   4.188   5.660   4.156
10054SOL    HW231062   4.194   5.731   4.009
10055SOL     OW31063   6.410   3.189   6.574
10055SOL    HW131064   6.495   3.168   6.527
10055SOL    HW231065   6.353   3.106   6.578
10056SOL     OW31066   6.234   4.660   2.224
10056SOL    HW131067   6.288   4.710   2.292
10056SOL    HW231068   6.158   4.718   2.194
10057SOL     OW31069   2.381   2.217   3.609
10057SOL    HW131070   2.334   2.225   3.697
10057SOL    HW231071   2.330   2.267   3.539
10058SOL     OW31072   0.985   4.936   3.813
10058SOL    HW131073   1.066   4.994   3.806
10058SOL    HW231074   0.915   4.969   3.750
10059SOL     OW31075   5.644   0.044   1.613
10059SOL    HW131076   5.620   6.974   1.639
10059SOL    HW231077   5.665   0.097   1.695
10060SOL     OW31078   2.306   2.672   2.179
10060SOL    HW131079   2.224   2.728   2.163
10060SOL    HW231080   2.348   2.649   2.091
10061SOL     OW31081   6.104   2.046   4.766
10061SOL    HW131082   6.184   2.048   4.706
10061SOL    HW231083   6.134   2.020   4.859
10062SOL     OW31084   5.526   5.491   2.951
10062SOL    HW131085   5.452   5.431   2.980
10062SOL    HW231086   5.499   5.586   2.964
10063SOL     OW31087   0.637   2.597   2.400
10063SOL    HW131088   0.607   2.657   2.326
10063SOL    HW231089   0.728   2.625   2.432
10064SOL     OW31090   5.703   5.979   5.403
10064SOL    HW131091   5.711   5.979   5.304
10064SOL    HW231092   5.717   6.072   5.438
10065SOL     OW31093   0.483   6.415   3.347
10065SOL    HW131094   0.549   6.468   3.400
10065SOL    HW231095   0.522   6.393   3.258
10066SOL     OW31096   0.593   0.325   3.444
10066SOL    HW131097   0.514   0.276   3.410
10066SOL    HW231098   0.676   0.270   3.432
10067SOL     OW31099   5.002   6.626   3.744
10067SOL    HW131100   5.031   6.657   3.653
10067SOL    HW231101   4.927   6.561   3.735
10068SOL     OW31102   4.887   3.873   5.509
10068SOL    HW131103   4.862   3.960   5.551
10068SOL    HW231104   4.811   3.841   5.452
10069SOL     OW31105   4.967   0.993   3.790
10069SOL    HW131106   4.972   0.939   3.874
10069SOL    HW231107   4.979   1.090   3.812
10070SOL     OW31108   1.215   6.973   4.561
10070SOL    HW131109   1.159   6.959   4.479
10070SOL    HW231110   1.265   6.889   4.583
10071SOL     OW31111   5.089   5.088   5.142
10071SOL    HW131112   5.139   5.073   5.056
10071SOL    HW231113   5.068   5.186   5.151
10072SOL     OW31114   1.046   6.935   3.533
10072SOL    HW131115   0.977   6.863   3.544
10072SOL    HW231116   1.069   6.945   3.436
10073SOL     OW31117   6.918   5.758   6.257
10073SOL    HW131118   6.929   5.767   6.356
10073SOL    HW231119   6.857   5.830   6.224
10074SOL     OW31120   2.636   0.002   5.766
10074SOL    HW131121   2.608   6.989   5.677
10074SOL    HW231122   2.731   6.999   5.784
10075SOL     OW31123   1.308   2.530   3.627
10075SOL    HW131124   1.276   2.516   3.720
10075SOL    HW231125   1.393   2.582   3.628
10076SOL     OW31126   5.558   0.149   4.208
10076SOL    HW131127   5.543   0.225   4.145
10076SOL    HW231128   5.634   0.172   4.269
10077SOL     OW31129   2.662   1.188   6.799
10077SOL    HW131130   2.584   1.130   6.774
10077SOL    HW231131   2.673   1.259   6.730
10078SOL     OW31132   5.803   6.202   5.577
10078SOL    HW131133   5.897   6.210   5.610
10078SOL    HW231134   5.753   6.286   5.598
10079SOL     OW31135   6.644   2.668   6.121
10079SOL    HW131136   6.681   2.756   6.149
10079SOL    HW231137   6.719   2.606   6.097
10080SOL     OW31138   1.132   2.328   5.852
10080SOL    HW131139   1.197   2.380   5.797
10080SOL    HW231140   1.143   2.230   5.831
10081SOL     OW31141   0.359   1.298   0.150
10081SOL    HW131142   0.307   1.231   0.203
10081SOL    HW231143   0.393   1.255   0.067
10082SOL     OW31144   6.936   0.689   0.594
10082SOL    HW131145   6.982   0.640   0.521
10082SOL    HW231146   7.001   0.752   0.638
10083SOL     OW31147   5.008   1.252   4.633
10083SOL    HW131148   5.086   1.253   4.571
10083SOL    HW231149   4.973   1.158   4.641
10084SOL     OW31150   2.177   1.147   6.601
10084SOL    HW131151   2.167   1.054   6.567
10084SOL    HW231152   2.193   1.209   6.524
10085SOL     OW31153   0.729   5.618   2.289
10085SOL    HW131154   0.642   5.599   2.335
10085SOL    HW231155   0.803   5.568   2.335
10086SOL     OW31156   6.745   3.596   2.201
10086SOL    HW131157   6.706   3.525   2.143
10086SOL    HW231158   6.807   3.554   2.268
10087SOL     OW31159   1.286   0.015   3.729
10087SOL    HW131160   1.301   6.983   3.646
10087SOL    HW231161   1.373   0.052   3.761
10088SOL     OW31162   6.791   0.528   4.571
10088SOL    HW131163   6.803   0.451   4.634
10088SOL    HW231164   6.788   0.613   4.624
10089SOL     OW31165   1.499   2.938   2.462
10089SOL    HW131166   1.554   2.906   2.385
10089SOL    HW231167   1.465   2.860   2.513
10090SOL     OW31168   0.138   4.356   1.733
10090SOL    HW131169   0.079   4.275   1.738
10090SOL    HW231170   0.196   4.350   1.652
10091SOL     OW31171   0.488   2.197   3.944
10091SOL    HW131172   0.497   2.193   3.845
10091SOL    HW231173   0.473   2.105   3.980
10092SOL     OW31174   1.934   3.077   5.041
10092SOL    HW131175   1.997   3.153   5.053
10092SOL    HW231176   1.952   3.032   4.953
10093SOL     OW31177   0.251   5.520   6.770
10093SOL    HW131178   0.281   5.593   6.708
10093SOL    HW231179   0.226   5.439   6.716
10094SOL     OW31180   1.435   1.255   1.813
10094SOL    HW131181   1.501   1.320   1.775
10094SOL    HW231182   1.445   1.167   1.768
10095SOL     OW31183   0.361   1.359   6.078
10095SOL    HW131184   0.405   1.333   6.164
10095SOL    HW231185   0.262   1.342   6.084
10096SOL     OW31186   0.014   5.069   2.205
10096SOL    HW131187   6.939   5.090   2.208
10096SOL    HW231188   0.042   5.051   2.111
10097SOL     OW31189   1.289   2.301   6.111
10097SOL    HW131190   1.243   2.212   6.107
10097SOL    HW231191   1.261   2.356   6.033
10098SOL     OW31192   3.371   5.376   6.465
10098SOL    HW131193   3.310   5.454   6.480
10098SOL    HW231194   3.464   5.410   6.450
10099SOL     OW31195   6.657   4.694   4.482
10099SOL    HW131196   6.681   4.632   4.557
10099SOL    HW231197   6.711   4.671   4.401
10100SOL     OW31198   5.457   0.898   5.462
10100SOL    HW131199   5.371   0.946   5.443
10100SOL    HW231200   5.438   0.820   5.523
10101SOL     OW31201   6.886   4.790   2.332
10101SOL    HW131202   6.869   4.698   2.369
10101SOL    HW231203   6.985   4.806   2.326
10102SOL     OW31204   3.824   1.058   3.605
10102SOL    HW131205   3.866   1.140   3.566
10102SOL    HW231206   3.762   1.017   3.539
10103SOL     OW31207   1.664   1.894   0.423
10103SOL    HW131208   1.632   1.924   0.333
10103SOL    HW231209   1.741   1.831   0.412
10104SOL     OW31210   1.933   5.748   5.496
10104SOL    HW131211   1.900   5.658   5.524
10104SOL    HW231212   2.031   5.743   5.479
10105SOL     OW31213   3.120   0.189   6.924
10105SOL    HW131214   3.201   0.150   6.968
10105SOL    HW231215   3.091   0.129   6.849
10106SOL     OW31216   5.306   5.709   1.057
10106SOL    HW131217   5.312   5.809   1.054
10106SOL    HW231218   5.323   5.672   0.966
10107SOL     OW31219   5.622   0.943   5.681
10107SOL    HW131220   5.560   0.952   5.602
10107SOL    HW231221   5.623   1.029   5.732
10108SOL     OW31222   5.869   6.221   6.932
10108SOL    HW131223   5.876   6.246   6.836
10108SOL    HW231224   5.944   6.261   6.983
10109SOL     OW31225   4.621   5.387   3.740
10109SOL    HW131226   4.679   5.317   3.781
10109SOL    HW231227   4.599   5.456   3.809
10110SOL     OW31228   3.523   1.422   6.038
10110SOL    HW131229   3.449   1.474   5.995
10110SOL    HW231230   3.539   1.338   5.987
10111SOL     OW31231   0.278   2.562   2.571
10111SOL    HW131232   0.377   2.562   2.559
10111SOL    HW231233   0.256   2.563   2.669
10112SOL     OW31234   4.118   4.261   6.251
10112SOL    HW131235   4.145   4.175   6.208
10112SOL    HW231236   4.199   4.311   6.282
10113SOL     OW31237   4.045   6.099   0.571
10113SOL    HW131238   4.047   6.086   0.671
10113SOL    HW231239   4.097   6.181   0.547
10114SOL     OW31240   4.028   1.979   1.511
10114SOL    HW131241   4.086   2.060   1.520
10114SOL    HW231242   4.084   1.901   1.486
10115SOL     OW31243   1.249   1.958   3.932
10115SOL    HW131244   1.189   1.960   4.012
10115SOL    HW231245   1.244   2.045   3.884
10116SOL     OW31246   0.973   0.795   0.828
10116SOL    HW131247   1.045   0.818   0.893
10116SOL    HW231248   0.887   0.782   0.877
10117SOL     OW31249   5.023   0.534   5.978
10117SOL    HW131250   5.013   0.583   6.064
10117SOL    HW231251   5.067   0.446   5.994
10118SOL     OW31252   6.395   4.778   2.442
10118SOL    HW131253   6.451   4.756   2.522
10118SOL    HW231254   6.444   4.843   2.383
10119SOL     OW31255   2.527   0.425   5.454
10119SOL    HW131256   2.594   0.448   5.525
10119SOL    HW231257   2.502   0.329   5.462
10120SOL     OW31258   5.490   3.244   3.896
10120SOL    HW131259   5.574   3.247   3.949
10120SOL    HW231260   5.456   3.150   3.892
10121SOL     OW31261   5.683   4.928   4.324
10121SOL    HW131262   5.717   4.871   4.398
10121SOL    HW231263   5.680   5.024   4.353
10122SOL     OW31264   5.574   3.695   0.086
10122SOL    HW131265   5.508   3.665   0.155
10122SOL    HW231266   5.656   3.638   0.091
10123SOL     OW31267   0.039   0.307   0.396
10123SOL    HW131268   0.048   0.216   0.436
10123SOL    HW231269   6.978   0.350   0.430
10124SOL     OW31270   3.050   4.445   0.755
10124SOL    HW131271   3.145   4.434   0.785
10124SOL    HW231272   3.043   4.428   0.657
10125SOL     OW31273   1.738   0.191   0.879
10125SOL    HW131274   1.648   0.183   0.921
10125SOL    HW231275   1.743   0.274   0.824
10126SOL     OW31276   5.484   4.843   6.932
10126SOL    HW131277   5.580   4.848   6.902
10126SOL    HW231278   5.461   4.748   6.953
10127SOL     OW31279   3.789   4.296   5.186
10127SOL    HW131280   3.788   4.254   5.277
10127SOL    HW231281   3.705   4.272   5.137
10128SOL     OW31282   0.242   1.714   1.347
10128SOL    HW131283   0.183   1.740   1.271
10128SOL    HW231284   0.297   1.634   1.320
10129SOL     OW31285   5.203   2.673   3.700
10129SOL    HW131286   5.192   2.595   3.762
10129SOL    HW231287   5.156   2.653   3.613
10130SOL     OW31288   6.344   5.667   1.544
10130SOL    HW131289   6.420   5.698   1.600
10130SOL    HW231290   6.371   5.669   1.447
10131SOL     OW31291   6.428   0.375   0.843
10131SOL    HW131292   6.421   0.285   0.801
10131SOL    HW231293   6.393   0.444   0.779
10132SOL     OW31294   2.614   0.151   2.644
10132SOL    HW131295   2.653   0.221   2.704
10132SOL    HW231296   2.520   0.175   2.622
10133SOL     OW31297   5.288   4.948   3.034
10133SOL    HW131298   5.306   5.029   2.978
10133SOL    HW231299   5.358   4.940   3.105
10134SOL     OW31300   0.259   1.431   2.391
10134SOL    HW131301   0.303   1.344   2.416
10134SOL    HW231302   0.169   1.436   2.433
10135SOL     OW31303   2.923   6.131   2.617
10135SOL    HW131304   2.990   6.192   2.574
10135SOL    HW231305   2.937   6.038   2.584
10136SOL     OW31306   6.762   0.550   2.309
10136SOL    HW131307   6.731   0.458   2.335
10136SOL    HW231308   6.700   0.587   2.240
10137SOL     OW31309   5.422   5.167   4.348
10137SOL    HW131310   5.360   5.234   4.388
10137SOL    HW231311   5.513   5.178   4.387
10138SOL     OW31312   5.418   2.318   6.623
10138SOL    HW131313   5.353   2.367   6.682
10138SOL    HW231314   5.387   2.224   6.610
10139SOL     OW31315   3.891   3.199   3.426
10139SOL    HW131316   3.796   3.210   3.455
10139SOL    HW231317   3.895   3.141   3.345
10140SOL     OW31318   0.677   4.912   4.884
10140SOL    HW131319   0.596   4.929   4.828
10140SOL    HW231320   0.651   4.910   4.981
10141SOL     OW31321   2.228   0.531   3.898
10141SOL    HW131322   2.326   0.520   3.877
10141SOL    HW231323   2.198   0.623   3.870
10142SOL     OW31324   4.798   5.927   4.295
10142SOL    HW131325   4.806   5.908   4.393
10142SOL    HW231326   4.733   6.002   4.281
10143SOL     OW31327   4.935   5.983   1.442
10143SOL    HW131328   4.970   6.011   1.353
10143SOL    HW231329   4.909   5.887   1.440
10144SOL     OW31330   2.671   5.315   3.068
10144SOL    HW131331   2.719   5.229   3.087
10144SOL    HW231332   2.585   5.295   3.021
10145SOL     OW31333   2.834   6.450   5.464
10145SOL    HW131334   2.749   6.398   5.464
10145SOL    HW231335   2.836   6.512   5.543
10146SOL     OW31336   5.529   4.813   4.672
10146SOL    HW131337   5.475   4.728   4.677
10146SOL    HW231338   5.599   4.804   4.600
10147SOL     OW31339   4.679   5.647   4.726
10147SOL    HW131340   4.664   5.738   4.688
10147SOL    HW231341   4.744   5.597   4.669
10148SOL     OW31342   5.948   5.249   0.203
10148SOL    HW131343   5.969   5.163   0.248
10148SOL    HW231344   5.950   5.237   0.104
10149SOL     OW31345   4.205   3.384   0.778
10149SOL    HW131346   4.154   3.343   0.702
10149SOL    HW231347   4.273   3.318   0.811
10150SOL     OW31348   5.308   4.026   1.214
10150SOL    HW131349   5.281   4.112   1.256
10150SOL    HW231350   5.396   4.037   1.168
10151SOL     OW31351   1.334   6.587   5.654
10151SOL    HW131352   1.381   6.587   5.566
10151SOL    HW231353   1.400   6.607   5.727
10152SOL     OW31354   0.317   5.151   3.956
10152SOL    HW131355   0.310   5.093   3.875
10152SOL    HW231356   0.226   5.187   3.979
10153SOL     OW31357   5.815   6.689   3.667
10153SOL    HW131358   5.786   6.690   3.571
10153SOL    HW231359   5.735   6.684   3.726
10154SOL     OW31360   6.644   5.478   5.484
10154SOL    HW131361   6.612   5.509   5.394
10154SOL    HW231362   6.633   5.552   5.550
10155SOL     OW31363   3.593   1.452   6.615
10155SOL    HW131364   3.582   1.353   6.623
10155SOL    HW231365   3.507   1.493   6.583
10156SOL     OW31366   5.893   0.195   2.322
10156SOL    HW131367   5.993   0.197   2.323
10156SOL    HW231368   5.860   0.232   2.235
10157SOL     OW31369   4.868   1.039   4.992
10157SOL    HW131370   4.821   0.968   5.046
10157SOL    HW231371   4.812   1.122   4.990
10158SOL     OW31372   4.362   3.791   6.207
10158SOL    HW131373   4.328   3.849   6.133
10158SOL    HW231374   4.289   3.730   6.237
10159SOL     OW31375   1.298   1.197   6.422
10159SOL    HW131376   1.224   1.163   6.481
10159SOL    HW231377   1.291   1.152   6.332
10160SOL     OW31378   0.895   5.780   3.108
10160SOL    HW131379   0.835   5.723   3.052
10160SOL    HW231380   0.985   5.787   3.064
10161SOL     OW31381   2.226   6.309   6.116
10161SOL    HW131382   2.154   6.378   6.128
10161SOL    HW231383   2.297   6.346   6.056
10162SOL     OW31384   3.229   2.119   0.013
10162SOL    HW131385   3.315   2.073   7.016
10162SOL    HW231386   3.242   2.218   0.007
10163SOL     OW31387   6.732   2.707   5.532
10163SOL    HW131388   6.637   2.684   5.511
10163SOL    HW231389   6.788   2.625   5.528
10164SOL     OW31390   0.592   2.922   5.204
10164SOL    HW131391   0.539   2.839   5.216
10164SOL    HW231392   0.670   2.921   5.267
10165SOL     OW31393   6.757   2.272   3.317
10165SOL    HW131394   6.800   2.228   3.396
10165SOL    HW231395   6.729   2.201   3.252
10166SOL     OW31396   0.750   1.047   2.404
10166SOL    HW131397   0.769   1.120   2.338
10166SOL    HW231398   0.663   1.003   2.382
10167SOL     OW31399   4.436   0.271   0.530
10167SOL    HW131400   4.437   0.359   0.578
10167SOL    HW231401   4.403   0.285   0.436
10168SOL     OW31402   6.483   3.966   4.656
10168SOL    HW131403   6.480   4.024   4.575
10168SOL    HW231404   6.429   4.008   4.729
10169SOL     OW31405   6.384   4.021   4.217
10169SOL    HW131406   6.367   3.924   4.234
10169SOL    HW231407   6.322   4.054   4.146
10170SOL     OW31408   1.398   3.727   4.711
10170SOL    HW131409   1.423   3.653   4.774
10170SOL    HW231410   1.479   3.757   4.661
10171SOL     OW31411   6.652   3.119   5.833
10171SOL    HW131412   6.680   3.065   5.754
10171SOL    HW231413   6.588   3.191   5.803
10172SOL     OW31414   4.594   0.992   3.959
10172SOL    HW131415   4.586   0.894   3.978
10172SOL    HW231416   4.510   1.039   3.986
10173SOL     OW31417   2.085   2.028   2.406
10173SOL    HW131418   2.109   2.125   2.407
10173SOL    HW231419   2.139   1.981   2.336
10174SOL     OW31420   6.015   4.662   0.828
10174SOL    HW131421   5.997   4.596   0.755
10174SOL    HW231422   6.048   4.747   0.788
10175SOL     OW31423   6.085   2.182   6.195
10175SOL    HW131424   6.104   2.274   6.230
10175SOL    HW231425   6.034   2.130   6.264
10176SOL     OW31426   2.393   3.753   6.997
10176SOL    HW131427   2.422   3.789   0.063
10176SOL    HW231428   2.432   3.662   6.984
10177SOL     OW31429   2.090   0.274   5.819
10177SOL    HW131430   2.049   0.339   5.755
10177SOL    HW231431   2.178   0.309   5.851
10178SOL     OW31432   5.793   2.649   5.097
10178SOL    HW131433   5.795   2.582   5.024
10178SOL    HW231434   5.720   2.626   5.162
10179SOL     OW31435   0.919   3.148   6.349
10179SOL    HW131436   1.013   3.131   6.317
10179SOL    HW231437   0.855   3.134   6.273
10180SOL     OW31438   2.772   6.770   5.550
10180SOL    HW131439   2.846   6.816   5.501
10180SOL    HW231440   2.684   6.811   5.524
10181SOL     OW31441   5.836   3.203   1.637
10181SOL    HW131442   5.760   3.267   1.627
10181SOL    HW231443   5.922   3.255   1.641
10182SOL     OW31444   5.450   1.868   0.393
10182SOL    HW131445   5.365   1.875   0.341
10182SOL    HW231446   5.439   1.804   0.469
10183SOL     OW31447   1.729   1.992   6.528
10183SOL    HW131448   1.694   2.081   6.557
10183SOL    HW231449   1.746   1.935   6.608
10184SOL     OW31450   4.861   0.386   6.182
10184SOL    HW131451   4.832   0.294   6.154
10184SOL    HW231452   4.795   0.423   6.248
10185SOL     OW31453   4.947   1.253   6.717
10185SOL    HW131454   4.896   1.338   6.699
10185SOL    HW231455   4.909   1.209   6.798
10186SOL     OW31456   4.197   1.955   3.169
10186SOL    HW131457   4.104   1.983   3.192
10186SOL    HW231458   4.199   1.918   3.075
10187SOL     OW31459   0.920   2.420   2.198
10187SOL    HW131460   0.822   2.404   2.206
10187SOL    HW231461   0.937   2.517   2.180
10188SOL     OW31462   3.425   4.875   0.938
10188SOL    HW131463   3.333   4.913   0.936
10188SOL    HW231464   3.443   4.837   1.029
10189SOL     OW31465   1.472   6.558   5.424
10189SOL    HW131466   1.451   6.613   5.343
10189SOL    HW231467   1.557   6.508   5.409
10190SOL     OW31468   5.131   2.342   0.153
10190SOL    HW131469   5.222   2.373   0.124
10190SOL    HW231470   5.085   2.415   0.204
10191SOL     OW31471   6.646   4.587   6.624
10191SOL    HW131472   6.561   4.550   6.662
10191SOL    HW231473   6.687   4.518   6.564
10192SOL     OW31474   3.079   1.115   6.915
10192SOL    HW131475   3.109   1.206   6.884
10192SOL    HW231476   3.134   1.045   6.870
10193SOL     OW31477   4.073   3.683   0.529
10193SOL    HW131478   4.058   3.738   0.611
10193SOL    HW231479   4.171   3.665   0.519
10194SOL     OW31480   4.817   3.704   5.717
10194SOL    HW131481   4.895   3.706   5.778
10194SOL    HW231482   4.840   3.750   5.631
10195SOL     OW31483   6.395   4.196   1.551
10195SOL    HW131484   6.461   4.268   1.525
10195SOL    HW231485   6.359   4.215   1.642
10196SOL     OW31486   0.465   1.430   4.651
10196SOL    HW131487   0.524   1.443   4.571
10196SOL    HW231488   0.439   1.519   4.689
10197SOL     OW31489   5.798   0.851   6.683
10197SOL    HW131490   5.886   0.880   6.646
10197SOL    HW231491   5.735   0.833   6.608
10198SOL     OW31492   4.472   6.751   3.264
10198SOL    HW131493   4.487   6.817   3.190
10198SOL    HW231494   4.376   6.724   3.265
10199SOL     OW31495   0.846   2.240   5.454
10199SOL    HW131496   0.813   2.300   5.527
10199SOL    HW231497   0.770   2.183   5.421
10200SOL     OW31498   5.355   1.531   1.677
10200SOL    HW131499   5.433   1.468   1.677
10200SOL    HW231500   5.292   1.506   1.750
10201SOL     OW31501   0.994   3.869   0.515
10201SOL    HW131502   0.912   3.913   0.551
10201SOL    HW231503   0.971   3.817   0.432
10202SOL     OW31504   4.333   0.704   3.927
10202SOL    HW131505   4.325   0.762   3.846
10202SOL    HW231506   4.424   0.715   3.967
10203SOL     OW31507   6.635   2.842   4.636
10203SOL    HW131508   6.628   2.872   4.731
10203SOL    HW231509   6.600   2.914   4.576
10204SOL     OW31510   5.863   5.091   6.524
10204SOL    HW131511   5.960   5.103   6.502
10204SOL    HW231512   5.811   5.085   6.439
10205SOL     OW31513   1.103   0.707   6.192
10205SOL    HW131514   1.182   0.710   6.131
10205SOL    HW231515   1.130   0.741   6.282
10206SOL     OW31516   1.670   0.724   4.568
10206SOL    HW131517   1.697   0.711   4.472
10206SOL    HW231518   1.698   0.644   4.621
10207SOL     OW31519   2.308   2.004   4.988
10207SOL    HW131520   2.210   1.994   5.007
10207SOL    HW231521   2.333   2.101   4.995
10208SOL     OW31522   6.968   6.167   5.464
10208SOL    HW131523   6.938   6.145   5.557
10208SOL    HW231524   6.903   6.129   5.399
10209SOL     OW31525   0.142   6.973   5.994
10209SOL    HW131526   0.119   6.880   6.023
10209SOL    HW231527   0.229   6.972   5.945
10210SOL     OW31528   3.044   7.018   1.297
10210SOL    HW131529   3.023   0.080   1.248
10210SOL    HW231530   3.093   0.017   1.382
10211SOL     OW31531   5.370   5.914   5.999
10211SOL    HW131532   5.396   5.908   6.095
10211SOL    HW231533   5.387   5.826   5.954
10212SOL     OW31534   0.633   0.736   6.240
10212SOL    HW131535   0.729   0.761   6.253
10212SOL    HW231536   0.627   0.665   6.169
10213SOL     OW31537   6.477   2.274   0.901
10213SOL    HW131538   6.387   2.273   0.857
10213SOL    HW231539   6.468   2.313   0.992
10214SOL     OW31540   1.256   2.341   6.800
10214SOL    HW131541   1.171   2.366   6.755
10214SOL    HW231542   1.313   2.288   6.737
10215SOL     OW31543   2.872   3.529   2.111
10215SOL    HW131544   2.946   3.593   2.126
10215SOL    HW231545   2.793   3.555   2.167
10216SOL     OW31546   0.772   6.655   2.122
10216SOL    HW131547   0.859   6.619   2.156
10216SOL    HW231548   0.762   6.631   2.026
10217SOL     OW31549   3.274   1.367   4.798
10217SOL    HW131550   3.214   1.418   4.859
10217SOL    HW231551   3.341   1.428   4.758
10218SOL     OW31552   0.962   3.188   2.520
10218SOL    HW131553   1.027   3.133   2.572
10218SOL    HW231554   1.006   3.222   2.437
10219SOL     OW31555   6.893   6.094   3.129
10219SOL    HW131556   6.812   6.139   3.091
10219SOL    HW231557   6.936   6.037   3.058
10220SOL     OW31558   3.531   3.026   0.432
10220SOL    HW131559   3.573   3.041   0.522
10220SOL    HW231560   3.455   2.962   0.442
10221SOL     OW31561   0.768   5.462   4.041
10221SOL    HW131562   0.734   5.523   4.113
10221SOL    HW231563   0.848   5.412   4.074
10222SOL     OW31564   3.419   3.697   4.064
10222SOL    HW131565   3.488   3.767   4.083
10222SOL    HW231566   3.464   3.615   4.027
10223SOL     OW31567   2.110   5.903   0.742
10223SOL    HW131568   2.017   5.908   0.705
10223SOL    HW231569   2.127   5.982   0.801
10224SOL     OW31570   6.213   4.096   3.207
10224SOL    HW131571   6.128   4.149   3.208
10224SOL    HW231572   6.284   4.145   3.258
10225SOL     OW31573   2.204   3.874   5.711
10225SOL    HW131574   2.208   3.926   5.625
10225SOL    HW231575   2.183   3.779   5.691
10226SOL     OW31576   5.084   3.566   0.553
10226SOL    HW131577   5.068   3.538   0.458
10226SOL    HW231578   5.129   3.655   0.554
10227SOL     OW31579   5.645   3.055   1.353
10227SOL    HW131580   5.701   3.012   1.282
10227SOL    HW231581   5.704   3.084   1.429
10228SOL     OW31582   5.317   0.785   0.615
10228SOL    HW131583   5.220   0.810   0.609
10228SOL    HW231584   5.368   0.834   0.544
10229SOL     OW31585   0.113   2.831   5.081
10229SOL    HW131586   0.206   2.863   5.063
10229SOL    HW231587   0.116   2.738   5.119
10230SOL     OW31588   6.794   6.175   1.591
10230SOL    HW131589   6.864   6.193   1.661
10230SOL    HW231590   6.726   6.111   1.627
10231SOL     OW31591   0.644   5.081   2.629
10231SOL    HW131592   0.552   5.085   2.590
10231SOL    HW231593   0.679   4.988   2.623
10232SOL     OW31594   4.785   4.645   3.172
10232SOL    HW131595   4.812   4.559   3.130
10232SOL    HW231596   4.686   4.658   3.161
10233SOL     OW31597   2.648   4.217   5.535
10233SOL    HW131598   2.644   4.237   5.437
10233SOL    HW231599   2.735   4.251   5.572
10234SOL     OW31600   0.523   1.174   2.183
10234SOL    HW131601   0.623   1.174   2.192
10234SOL    HW231602   0.497   1.122   2.101
10235SOL     OW31603   1.350   1.087   2.995
10235SOL    HW131604   1.435   1.124   2.957
10235SOL    HW231605   1.309   1.025   2.928
10236SOL     OW31606   1.637   6.966   2.692
10236SOL    HW131607   1.631   7.006   2.783
10236SOL    HW231608   1.569   7.009   2.632
10237SOL     OW31609   0.380   3.572   4.547
10237SOL    HW131610   0.303   3.520   4.511
10237SOL    HW231611   0.347   3.657   4.587
10238SOL     OW31612   2.674   0.179   1.325
10238SOL    HW131613   2.715   0.181   1.234
10238SOL    HW231614   2.668   0.271   1.362
10239SOL     OW31615   0.696   1.916   4.359
10239SOL    HW131616   0.597   1.898   4.362
10239SOL    HW231617   0.740   1.848   4.300
10240SOL     OW31618   1.905   5.935   0.590
10240SOL    HW131619   1.806   5.925   0.588
10240SOL    HW231620   1.928   6.033   0.593
10241SOL     OW31621   4.443   2.930   1.273
10241SOL    HW131622   4.396   2.975   1.348
10241SOL    HW231623   4.440   2.988   1.192
10242SOL     OW31624   6.964   3.103   6.698
10242SOL    HW131625   6.937   3.100   6.794
10242SOL    HW231626   0.040   3.094   6.691
10243SOL     OW31627   3.040   6.338   1.840
10243SOL    HW131628   3.002   6.313   1.751
10243SOL    HW231629   3.084   6.427   1.835
10244SOL     OW31630   2.729   5.271   1.925
10244SOL    HW131631   2.662   5.266   1.851
10244SOL    HW231632   2.689   5.231   2.008
10245SOL     OW31633   4.971   4.328   0.955
10245SOL    HW131634   4.909   4.403   0.930
10245SOL    HW231635   4.941   4.287   1.042
10246SOL     OW31636   3.267   3.098   4.293
10246SOL    HW131637   3.313   3.162   4.232
10246SOL    HW231638   3.189   3.143   4.336
10247SOL     OW31639   0.776   3.182   4.551
10247SOL    HW131640   0.837   3.112   4.589
10247SOL    HW231641   0.770   3.172   4.452
10248SOL     OW31642   0.976   1.445   4.428
10248SOL    HW131643   0.963   1.361   4.376
10248SOL    HW231644   0.888   1.493   4.436
10249SOL     OW31645   2.556   5.277   5.911
10249SOL    HW131646   2.557   5.362   5.964
10249SOL    HW231647   2.604   5.205   5.961
10250SOL     OW31648   3.577   2.452   0.774
10250SOL    HW131649   3.622   2.503   0.701
10250SOL    HW231650   3.485   2.425   0.745
10251SOL     OW31651   1.485   0.526   4.336
10251SOL    HW131652   1.494   0.427   4.324
10251SOL    HW231653   1.449   0.545   4.427
10252SOL     OW31654   5.249   4.680   5.933
10252SOL    HW131655   5.178   4.744   5.903
10252SOL    HW231656   5.269   4.695   6.030
10253SOL     OW31657   3.844   5.933   6.321
10253SOL    HW131658   3.858   5.985   6.406
10253SOL    HW231659   3.910   5.965   6.252
10254SOL     OW31660   6.709   2.009   5.697
10254SOL    HW131661   6.686   2.085   5.637
10254SOL    HW231662   6.755   2.043   5.779
10255SOL     OW31663   3.893   4.390   1.685
10255SOL    HW131664   3.910   4.301   1.643
10255SOL    HW231665   3.811   4.385   1.743
10256SOL     OW31666   3.617   1.151   4.336
10256SOL    HW131667   3.589   1.235   4.289
10256SOL    HW231668   3.589   1.156   4.432
10257SOL     OW31669   4.279   5.965   3.154
10257SOL    HW131670   4.223   5.890   3.190
10257SOL    HW231671   4.233   6.052   3.171
10258SOL     OW31672   2.598   1.598   2.281
10258SOL    HW131673   2.512   1.626   2.325
10258SOL    HW231674   2.672   1.598   2.349
10259SOL     OW31675   1.984   4.026   3.844
10259SOL    HW131676   1.993   4.042   3.745
10259SOL    HW231677   1.897   4.063   3.876
10260SOL     OW31678   0.440   7.019   3.034
10260SOL    HW131679   0.486   0.084   3.048
10260SOL    HW231680   0.349   7.022   3.075
10261SOL     OW31681   0.316   3.981   0.741
10261SOL    HW131682   0.366   3.894   0.734
10261SOL    HW231683   0.381   4.057   0.741
10262SOL     OW31684   3.492   1.153   0.272
10262SOL    HW131685   3.563   1.221   0.292
10262SOL    HW231686   3.529   1.061   0.283
10263SOL     OW31687   5.541   0.322   2.577
10263SOL    HW131688   5.497   0.365   2.655
10263SOL    HW231689   5.529   0.223   2.582
10264SOL     OW31690   6.643   0.419   6.290
10264SOL    HW131691   6.606   0.509   6.313
10264SOL    HW231692   6.716   0.395   6.355
10265SOL     OW31693   1.784   2.070   1.059
10265SOL    HW131694   1.857   2.123   1.102
10265SOL    HW231695   1.821   1.982   1.029
10266SOL     OW31696   2.563   3.476   1.661
10266SOL    HW131697   2.635   3.539   1.690
10266SOL    HW231698   2.485   3.485   1.723
10267SOL     OW31699   6.133   0.358   0.541
10267SOL    HW131700   6.189   0.374   0.460
10267SOL    HW231701   6.112   0.445   0.586
10268SOL     OW31702   3.962   6.541   2.261
10268SOL    HW131703   3.879   6.546   2.205
10268SOL    HW231704   3.959   6.612   2.331
10269SOL     OW31705   2.436   2.090   1.017
10269SOL    HW131706   2.378   2.043   0.950
10269SOL    HW231707   2.410   2.186   1.022
10270SOL     OW31708   3.328   0.978   3.091
10270SOL    HW131709   3.285   1.017   3.172
10270SOL    HW231710   3.258   0.958   3.022
10271SOL     OW31711   1.676   1.508   6.558
10271SOL    HW131712   1.710   1.417   6.532
10271SOL    HW231713   1.692   1.522   6.656
10272SOL     OW31714   6.228   0.034   4.613
10272SOL    HW131715   6.163   0.108   4.598
10272SOL    HW231716   6.317   0.072   4.636
10273SOL     OW31717   2.361   5.598   3.466
10273SOL    HW131718   2.439   5.660   3.463
10273SOL    HW231719   2.336   5.570   3.373
10274SOL     OW31720   0.824   4.475   4.963
10274SOL    HW131721   0.886   4.460   4.887
10274SOL    HW231722   0.807   4.388   5.009
10275SOL     OW31723   6.712   0.389   2.061
10275SOL    HW131724   6.806   0.377   2.030
10275SOL    HW231725   6.686   0.485   2.053
10276SOL     OW31726   3.215   5.362   5.487
10276SOL    HW131727   3.282   5.364   5.561
10276SOL    HW231728   3.259   5.324   5.405
10277SOL     OW31729   1.081   5.876   4.110
10277SOL    HW131730   1.033   5.931   4.179
10277SOL    HW231731   1.040   5.892   4.020
10278SOL     OW31732   6.668   0.008   4.760
10278SOL    HW131733   6.689   7.021   4.663
10278SOL    HW231734   6.696   6.949   4.809
10279SOL     OW31735   1.333   6.110   3.858
10279SOL    HW131736   1.340   6.057   3.942
10279SOL    HW231737   1.310   6.050   3.782
10280SOL     OW31738   6.872   4.806   0.207
10280SOL    HW131739   6.810   4.728   0.204
10280SOL    HW231740   6.825   4.887   0.172
10281SOL     OW31741   6.032   1.161   3.641
10281SOL    HW131742   5.980   1.221   3.702
10281SOL    HW231743   6.024   1.067   3.672
10282SOL     OW31744   4.886   2.985   3.754
10282SOL    HW131745   4.970   2.963   3.803
10282SOL    HW231746   4.892   3.076   3.715
10283SOL     OW31747   1.098   2.727   0.601
10283SOL    HW131748   1.045   2.716   0.685
10283SOL    HW231749   1.127   2.638   0.568
10284SOL     OW31750   6.904   4.130   4.133
10284SOL    HW131751   6.829   4.068   4.113
10284SOL    HW231752   6.978   4.116   4.067
10285SOL     OW31753   6.442   6.392   5.560
10285SOL    HW131754   6.537   6.398   5.590
10285SOL    HW231755   6.382   6.392   5.641
10286SOL     OW31756   2.672   1.844   3.013
10286SOL    HW131757   2.651   1.798   3.099
10286SOL    HW231758   2.757   1.807   2.975
10287SOL     OW31759   1.312   5.862   2.565
10287SOL    HW131760   1.323   5.776   2.517
10287SOL    HW231761   1.398   5.888   2.609
10288SOL     OW31762   3.723   6.313   5.326
10288SOL    HW131763   3.778   6.356   5.255
10288SOL    HW231764   3.762   6.334   5.416
10289SOL     OW31765   3.572   6.011   0.049
10289SOL    HW131766   3.649   6.053   0.098
10289SOL    HW231767   3.576   5.912   0.059
10290SOL     OW31768   3.641   3.075   2.104
10290SOL    HW131769   3.622   3.098   2.008
10290SOL    HW231770   3.598   3.142   2.163
10291SOL     OW31771   2.223   1.871   2.184
10291SOL    HW131772   2.257   1.919   2.102
10291SOL    HW231773   2.159   1.800   2.156
10292SOL     OW31774   6.976   6.919   6.213
10292SOL    HW131775   6.986   6.931   6.312
10292SOL    HW231776   6.981   7.008   6.167
10293SOL     OW31777   1.323   4.243   4.899
10293SOL    HW131778   1.413   4.270   4.864
10293SOL    HW231779   1.283   4.319   4.951
10294SOL     OW31780   3.518   0.578   2.457
10294SOL    HW131781   3.535   0.521   2.376
10294SOL    HW231782   3.496   0.671   2.428
10295SOL     OW31783   1.255   1.451   6.337
10295SOL    HW131784   1.276   1.371   6.392
10295SOL    HW231785   1.333   1.513   6.335
10296SOL     OW31786   5.866   1.480   5.818
10296SOL    HW131787   5.877   1.382   5.801
10296SOL    HW231788   5.899   1.531   5.739
10297SOL     OW31789   3.474   1.544   0.348
10297SOL    HW131790   3.486   1.623   0.408
10297SOL    HW231791   3.378   1.538   0.319
10298SOL     OW31792   0.208   2.509   2.115
10298SOL    HW131793   0.249   2.592   2.077
10298SOL    HW231794   0.280   2.448   2.148
10299SOL     OW31795   4.623   6.878   2.776
10299SOL    HW131796   4.636   6.852   2.680
10299SOL    HW231797   4.535   6.926   2.785
10300SOL     OW31798   1.360   4.108   1.683
10300SOL    HW131799   1.409   4.021   1.673
10300SOL    HW231800   1.419   4.183   1.655
10301SOL     OW31801   3.587   0.901   0.324
10301SOL    HW131802   3.668   0.847   0.346
10301SOL    HW231803   3.505   0.851   0.354
10302SOL     OW31804   2.570   6.404   5.229
10302SOL    HW131805   2.609   6.345   5.300
10302SOL    HW231806   2.644   6.456   5.185
10303SOL     OW31807   0.454   4.978   4.769
10303SOL    HW131808   0.361   4.995   4.801
10303SOL    HW231809   0.453   4.959   4.671
10304SOL     OW31810   6.060   6.301   0.790
10304SOL    HW131811   6.146   6.255   0.767
10304SOL    HW231812   6.049   6.381   0.732
10305SOL     OW31813   3.056   3.962   6.171
10305SOL    HW131814   3.053   4.060   6.190
10305SOL    HW231815   2.992   3.940   6.097
10306SOL     OW31816   3.956   0.988   1.166
10306SOL    HW131817   4.002   1.049   1.102
10306SOL    HW231818   3.922   1.040   1.244
10307SOL     OW31819   1.674   0.265   5.783
10307SOL    HW131820   1.714   0.356   5.782
10307SOL    HW231821   1.632   0.248   5.872
10308SOL     OW31822   3.005   4.758   1.887
10308SOL    HW131823   3.013   4.757   1.787
10308SOL    HW231824   2.941   4.687   1.916
10309SOL     OW31825   0.239   1.043   5.619
10309SOL    HW131826   0.318   1.017   5.563
10309SOL    HW231827   0.262   1.033   5.715
10310SOL     OW31828   2.470   3.988   5.530
10310SOL    HW131829   2.554   4.030   5.496
10310SOL    HW231830   2.489   3.896   5.563
10311SOL     OW31831   5.090   5.236   6.881
10311SOL    HW131832   5.153   5.161   6.859
10311SOL    HW231833   5.128   5.289   6.957
10312SOL     OW31834   3.710   6.783   2.227
10312SOL    HW131835   3.727   6.728   2.145
10312SOL    HW231836   3.755   6.871   2.219
10313SOL     OW31837   5.290   6.440   2.706
10313SOL    HW131838   5.382   6.439   2.744
10313SOL    HW231839   5.238   6.516   2.745
10314SOL     OW31840   0.244   0.395   0.952
10314SOL    HW131841   0.215   0.367   0.861
10314SOL    HW231842   0.339   0.364   0.967
10315SOL     OW31843   5.727   5.343   3.618
10315SOL    HW131844   5.758   5.409   3.687
10315SOL    HW231845   5.645   5.296   3.651
10316SOL     OW31846   0.637   1.549   7.021
10316SOL    HW131847   0.699   1.628   7.017
10316SOL    HW231848   0.640   1.500   6.934
10317SOL     OW31849   2.919   6.121   4.869
10317SOL    HW131850   2.976   6.202   4.860
10317SOL    HW231851   2.870   6.105   4.783
10318SOL     OW31852   6.349   0.217   6.978
10318SOL    HW131853   6.322   0.282   6.907
10318SOL    HW231854   6.295   0.233   0.037
10319SOL     OW31855   0.693   4.429   4.121
10319SOL    HW131856   0.719   4.343   4.075
10319SOL    HW231857   0.647   4.489   4.056
10320SOL     OW31858   0.501   6.775   3.176
10320SOL    HW131859   0.581   6.717   3.159
10320SOL    HW231860   0.490   6.838   3.099
10321SOL     OW31861   5.595   2.841   2.160
10321SOL    HW131862   5.692   2.822   2.177
10321SOL    HW231863   5.567   2.920   2.214
10322SOL     OW31864   4.589   4.438   4.880
10322SOL    HW131865   4.594   4.408   4.784
10322SOL    HW231866   4.495   4.462   4.902
10323SOL     OW31867   0.932   4.194   5.959
10323SOL    HW131868   0.993   4.135   6.013
10323SOL    HW231869   0.926   4.159   5.865
10324SOL     OW31870   3.293   3.155   2.019
10324SOL    HW131871   3.369   3.108   2.062
10324SOL    HW231872   3.217   3.162   2.084
10325SOL     OW31873   6.262   5.706   3.919
10325SOL    HW131874   6.188   5.669   3.863
10325SOL    HW231875   6.253   5.805   3.926
10326SOL     OW31876   5.469   3.709   6.600
10326SOL    HW131877   5.468   3.645   6.524
10326SOL    HW231878   5.554   3.762   6.599
10327SOL     OW31879   2.356   4.980   0.298
10327SOL    HW131880   2.415   4.900   0.312
10327SOL    HW231881   2.394   5.038   0.226
10328SOL     OW31882   5.829   2.571   2.438
10328SOL    HW131883   5.818   2.656   2.490
10328SOL    HW231884   5.744   2.518   2.441
10329SOL     OW31885   3.580   2.140   2.938
10329SOL    HW131886   3.570   2.239   2.947
10329SOL    HW231887   3.663   2.119   2.887
10330SOL     OW31888   5.355   0.431   1.950
10330SOL    HW131889   5.265   0.450   1.989
10330SOL    HW231890   5.343   0.389   1.860
10331SOL     OW31891   6.119   5.932   5.693
10331SOL    HW131892   6.207   5.956   5.653
10331SOL    HW231893   6.093   6.001   5.760
10332SOL     OW31894   1.561   1.277   6.292
10332SOL    HW131895   1.486   1.241   6.347
10332SOL    HW231896   1.542   1.373   6.270
10333SOL     OW31897   1.477   3.855   4.292
10333SOL    HW131898   1.385   3.822   4.310
10333SOL    HW231899   1.530   3.783   4.246
10334SOL     OW31900   3.403   1.496   4.178
10334SOL    HW131901   3.334   1.544   4.234
10334SOL    HW231902   3.421   1.549   4.095
10335SOL     OW31903   0.950   2.369   5.045
10335SOL    HW131904   0.864   2.341   5.003
10335SOL    HW231905   1.022   2.368   4.975
10336SOL     OW31906   5.400   6.529   3.488
10336SOL    HW131907   5.462   6.451   3.491
10336SOL    HW231908   5.373   6.547   3.393
10337SOL     OW31909   6.785   5.628   6.852
10337SOL    HW131910   6.805   5.723   6.876
10337SOL    HW231911   6.866   5.572   6.870
10338SOL     OW31912   1.376   6.666   2.066
10338SOL    HW131913   1.422   6.742   2.110
10338SOL    HW231914   1.444   6.607   2.021
10339SOL     OW31915   6.105   2.711   5.953
10339SOL    HW131916   6.157   2.628   5.973
10339SOL    HW231917   6.044   2.732   6.029
10340SOL     OW31918   2.436   3.585   6.183
10340SOL    HW131919   2.388   3.629   6.260
10340SOL    HW231920   2.533   3.576   6.205
10341SOL     OW31921   2.178   4.022   3.220
10341SOL    HW131922   2.137   3.932   3.235
10341SOL    HW231923   2.107   4.091   3.213
10342SOL     OW31924   0.517   0.974   3.547
10342SOL    HW131925   0.544   0.939   3.637
10342SOL    HW231926   0.465   0.904   3.498
10343SOL     OW31927   3.588   5.722   1.820
10343SOL    HW131928   3.605   5.654   1.749
10343SOL    HW231929   3.497   5.706   1.860
10344SOL     OW31930   4.675   6.478   6.459
10344SOL    HW131931   4.661   6.452   6.555
10344SOL    HW231932   4.746   6.420   6.419
10345SOL     OW31933   1.803   3.449   4.169
10345SOL    HW131934   1.751   3.368   4.141
10345SOL    HW231935   1.861   3.427   4.247
10346SOL     OW31936   0.043   5.971   0.073
10346SOL    HW131937   0.066   6.068   0.061
10346SOL    HW231938   0.036   5.952   0.171
10347SOL     OW31939   5.130   2.137   5.032
10347SOL    HW131940   5.144   2.211   5.098
10347SOL    HW231941   5.041   2.148   4.988
10348SOL     OW31942   6.858   4.679   1.138
10348SOL    HW131943   6.927   4.683   1.210
10348SOL    HW231944   6.803   4.597   1.149
10349SOL     OW31945   0.511   0.235   5.960
10349SOL    HW131946   0.600   0.203   5.929
10349SOL    HW231947   0.456   0.157   5.990
10350SOL     OW31948   2.805   0.532   6.398
10350SOL    HW131949   2.846   0.602   6.456
10350SOL    HW231950   2.846   0.443   6.420
10351SOL     OW31951   3.849   5.228   6.405
10351SOL    HW131952   3.797   5.266   6.481
10351SOL    HW231953   3.916   5.294   6.373
10352SOL     OW31954   3.435   4.246   6.179
10352SOL    HW131955   3.393   4.156   6.164
10352SOL    HW231956   3.446   4.262   6.277
10353SOL     OW31957   1.067   3.112   4.971
10353SOL    HW131958   1.146   3.114   4.910
10353SOL    HW231959   1.001   3.181   4.942
10354SOL     OW31960   5.012   1.732   1.480
10354SOL    HW131961   5.043   1.821   1.515
10354SOL    HW231962   5.092   1.675   1.460
10355SOL     OW31963   1.194   5.052   2.900
10355SOL    HW131964   1.099   5.034   2.923
10355SOL    HW231965   1.244   5.078   2.983
10356SOL     OW31966   0.443   2.625   4.686
10356SOL    HW131967   0.351   2.637   4.648
10356SOL    HW231968   0.502   2.582   4.618
10357SOL     OW31969   3.307   2.408   7.006
10357SOL    HW131970   3.297   2.497   6.961
10357SOL    HW231971   3.368   2.418   0.062
10358SOL     OW31972   6.868   1.302   2.311
10358SOL    HW131973   6.919   1.382   2.281
10358SOL    HW231974   6.792   1.285   2.247
10359SOL     OW31975   0.471   1.283   0.991
10359SOL    HW131976   0.504   1.323   0.905
10359SOL    HW231977   0.402   1.343   1.031
10360SOL     OW31978   6.826   5.252   3.209
10360SOL    HW131979   6.921   5.254   3.240
10360SOL    HW231980   6.808   5.331   3.151
10361SOL     OW31981   1.789   5.249   1.599
10361SOL    HW131982   1.821   5.298   1.680
10361SOL    HW231983   1.714   5.188   1.624
10362SOL     OW31984   1.774   4.750   4.533
10362SOL    HW131985   1.787   4.658   4.496
10362SOL    HW231986   1.691   4.754   4.587
10363SOL     OW31987   5.667   0.119   3.803
10363SOL    HW131988   5.611   0.201   3.794
10363SOL    HW231989   5.646   0.056   3.728
10364SOL     OW31990   1.763   4.367   1.139
10364SOL    HW131991   1.823   4.435   1.096
10364SOL    HW231992   1.796   4.348   1.232
10365SOL     OW31993   4.786   5.856   0.232
10365SOL    HW131994   4.699   5.854   0.183
10365SOL    HW231995   4.841   5.777   0.205
10366SOL     OW31996   3.959   6.538   4.014
10366SOL    HW131997   3.923   6.476   4.083
10366SOL    HW231998   3.995   6.485   3.937
10367SOL     OW31999   6.461   1.554   3.292
10367SOL    HW132000   6.462   1.476   3.355
10367SOL    HW232001   6.452   1.521   3.198
10368SOL     OW32002   2.423   0.282   0.869
10368SOL    HW132003   2.462   0.318   0.954
10368SOL    HW232004   2.421   0.182   0.873
10369SOL     OW32005   4.554   2.650   6.889
10369SOL    HW132006   4.491   2.668   6.814
10369SOL    HW232007   4.530   2.705   6.968
10370SOL     OW32008   4.239   0.364   5.263
10370SOL    HW132009   4.147   0.328   5.272
10370SOL    HW232010   4.288   0.313   5.191
10371SOL     OW32011   5.247   6.484   5.610
10371SOL    HW132012   5.305   6.408   5.639
10371SOL    HW232013   5.206   6.527   5.691
10372SOL     OW32014   1.422   0.811   3.194
10372SOL    HW132015   1.398   0.821   3.098
10372SOL    HW232016   1.503   0.866   3.214
10373SOL     OW32017   1.526   5.112   4.997
10373SOL    HW132018   1.588   5.075   4.929
10373SOL    HW232019   1.441   5.140   4.953
10374SOL     OW32020   2.973   1.981   4.610
10374SOL    HW132021   2.981   1.903   4.548
10374SOL    HW232022   2.898   2.040   4.578
10375SOL     OW32023   0.248   1.906   0.591
10375SOL    HW132024   0.327   1.845   0.591
10375SOL    HW232025   0.218   1.921   0.497
10376SOL     OW32026   6.262   0.658   3.526
10376SOL    HW132027   6.213   0.578   3.490
10376SOL    HW232028   6.265   0.729   3.456
10377SOL     OW32029   0.458   6.380   4.349
10377SOL    HW132030   0.370   6.428   4.348
10377SOL    HW232031   0.446   6.290   4.307
10378SOL     OW32032   6.115   7.002   5.716
10378SOL    HW132033   6.175   6.954   5.652
10378SOL    HW232034   6.034   6.946   5.734
10379SOL     OW32035   4.616   1.889   4.438
10379SOL    HW132036   4.689   1.912   4.373
10379SOL    HW232037   4.551   1.828   4.393
10380SOL     OW32038   4.335   1.077   3.948
10380SOL    HW132039   4.378   1.155   3.903
10380SOL    HW232040   4.240   1.098   3.970
10381SOL     OW32041   4.234   5.802   4.793
10381SOL    HW132042   4.319   5.848   4.766
10381SOL    HW232043   4.230   5.795   4.893
10382SOL     OW32044   1.439   6.004   0.424
10382SOL    HW132045   1.414   6.097   0.399
10382SOL    HW232046   1.447   5.948   0.341
10383SOL     OW32047   5.391   2.380   0.042
10383SOL    HW132048   5.385   2.446   6.990
10383SOL    HW232049   5.456   2.308   0.018
10384SOL     OW32050   6.227   1.132   6.611
10384SOL    HW132051   6.283   1.078   6.548
10384SOL    HW232052   6.271   1.137   6.700
10385SOL     OW32053   6.275   2.438   6.784
10385SOL    HW132054   6.344   2.382   6.829
10385SOL    HW232055   6.204   2.463   6.850
10386SOL     OW32056   6.472   1.847   6.381
10386SOL    HW132057   6.373   1.854   6.395
10386SOL    HW232058   6.492   1.856   6.283
10387SOL     OW32059   1.574   3.899   2.343
10387SOL    HW132060   1.632   3.884   2.422
10387SOL    HW232061   1.531   3.813   2.315
10388SOL     OW32062   1.555   5.129   2.245
10388SOL    HW132063   1.648   5.093   2.257
10388SOL    HW232064   1.543   5.157   2.149
10389SOL     OW32065   0.823   5.635   3.648
10389SOL    HW132066   0.789   5.571   3.717
10389SOL    HW232067   0.797   5.728   3.673
10390SOL     OW32068   1.770   3.852   3.485
10390SOL    HW132069   1.819   3.767   3.506
10390SOL    HW232070   1.834   3.928   3.483
10391SOL     OW32071   3.354   6.312   4.448
10391SOL    HW132072   3.363   6.392   4.389
10391SOL    HW232073   3.439   6.260   4.447
10392SOL     OW32074   6.554   5.379   6.874
10392SOL    HW132075   6.490   5.340   6.808
10392SOL    HW232076   6.636   5.322   6.877
10393SOL     OW32077   0.393   1.036   3.860
10393SOL    HW132078   0.336   0.954   3.866
10393SOL    HW232079   0.356   1.106   3.922
10394SOL     OW32080   2.883   6.428   0.922
10394SOL    HW132081   2.849   6.481   0.999
10394SOL    HW232082   2.884   6.484   0.840
10395SOL     OW32083   1.546   1.560   4.950
10395SOL    HW132084   1.454   1.598   4.959
10395SOL    HW232085   1.602   1.587   5.028
10396SOL     OW32086   0.516   6.855   5.063
10396SOL    HW132087   0.509   6.878   4.966
10396SOL    HW232088   0.488   6.934   5.119
10397SOL     OW32089   4.370   1.684   2.753
10397SOL    HW132090   4.300   1.756   2.742
10397SOL    HW232091   4.449   1.706   2.697
10398SOL     OW32092   6.707   3.387   2.018
10398SOL    HW132093   6.610   3.379   2.040
10398SOL    HW232094   6.736   3.307   1.965
10399SOL     OW32095   6.019   2.474   5.699
10399SOL    HW132096   6.088   2.542   5.673
10399SOL    HW232097   5.945   2.475   5.632
10400SOL     OW32098   1.467   4.944   2.030
10400SOL    HW132099   1.406   4.975   2.102
10400SOL    HW232100   1.425   4.868   1.980
10401SOL     OW32101   1.059   5.407   0.965
10401SOL    HW132102   1.075   5.373   1.058
10401SOL    HW232103   1.049   5.506   0.967
10402SOL     OW32104   1.076   2.119   4.758
10402SOL    HW132105   1.173   2.142   4.747
10402SOL    HW232106   1.058   2.094   4.853
10403SOL     OW32107   5.463   0.953   2.159
10403SOL    HW132108   5.557   0.972   2.185
10403SOL    HW232109   5.456   0.858   2.126
10404SOL     OW32110   0.038   0.237   4.120
10404SOL    HW132111   0.125   0.189   4.109
10404SOL    HW232112   6.993   0.174   4.159
10405SOL     OW32113   2.586   6.505   6.763
10405SOL    HW132114   2.663   6.484   6.702
10405SOL    HW232115   2.516   6.435   6.753
10406SOL     OW32116   1.902   6.036   5.510
10406SOL    HW132117   1.901   5.938   5.530
10406SOL    HW232118   1.986   6.060   5.462
10407SOL     OW32119   1.813   1.289   6.212
10407SOL    HW132120   1.877   1.344   6.265
10407SOL    HW232121   1.723   1.293   6.255
10408SOL     OW32122   4.595   6.548   2.652
10408SOL    HW132123   4.594   6.623   2.587
10408SOL    HW232124   4.601   6.584   2.745
10409SOL     OW32125   6.819   4.824   2.604
10409SOL    HW132126   6.791   4.830   2.508
10409SOL    HW232127   6.914   4.854   2.612
10410SOL     OW32128   5.286   6.198   0.824
10410SOL    HW132129   5.302   6.217   0.727
10410SOL    HW232130   5.367   6.154   0.863
10411SOL     OW32131   1.406   4.647   2.199
10411SOL    HW132132   1.430   4.553   2.226
10411SOL    HW232133   1.456   4.672   2.116
10412SOL     OW32134   0.196   2.354   6.421
10412SOL    HW132135   0.287   2.352   6.380
10412SOL    HW232136   0.185   2.438   6.474
10413SOL     OW32137   0.278   1.724   5.193
10413SOL    HW132138   0.366   1.685   5.218
10413SOL    HW232139   0.291   1.820   5.166
10414SOL     OW32140   5.971   6.271   5.242
10414SOL    HW132141   5.917   6.339   5.292
10414SOL    HW232142   6.009   6.204   5.306
10415SOL     OW32143   6.833   5.741   3.055
10415SOL    HW132144   6.862   5.825   3.008
10415SOL    HW232145   6.907   5.708   3.113
10416SOL     OW32146   5.122   0.396   0.244
10416SOL    HW132147   5.061   0.467   0.280
10416SOL    HW232148   5.076   0.308   0.249
10417SOL     OW32149   4.431   4.591   4.052
10417SOL    HW132150   4.454   4.499   4.084
10417SOL    HW232151   4.508   4.652   4.067
10418SOL     OW32152   6.188   3.932   6.986
10418SOL    HW132153   6.243   3.932   6.902
10418SOL    HW232154   6.096   3.966   6.966
10419SOL     OW32155   1.838   0.452   4.206
10419SOL    HW132156   1.786   0.407   4.133
10419SOL    HW232157   1.791   0.536   4.234
10420SOL     OW32158   6.145   3.783   4.741
10420SOL    HW132159   6.125   3.716   4.812
10420SOL    HW232160   6.204   3.855   4.779
10421SOL     OW32161   1.276   4.135   4.260
10421SOL    HW132162   1.328   4.106   4.341
10421SOL    HW232163   1.197   4.074   4.248
10422SOL     OW32164   6.091   3.330   5.849
10422SOL    HW132165   6.074   3.411   5.793
10422SOL    HW232166   6.149   3.355   5.927
10423SOL     OW32167   2.909   5.129   2.921
10423SOL    HW132168   3.007   5.149   2.921
10423SOL    HW232169   2.880   5.103   3.013
10424SOL     OW32170   4.336   1.085   1.915
10424SOL    HW132171   4.321   0.992   1.881
10424SOL    HW232172   4.284   1.098   2.000
10425SOL     OW32173   1.262   3.957   0.288
10425SOL    HW132174   1.217   4.008   0.361
10425SOL    HW232175   1.274   3.862   0.316
10426SOL     OW32176   6.466   2.270   6.909
10426SOL    HW132177   6.496   2.211   6.984
10426SOL    HW232178   6.453   2.216   6.826
10427SOL     OW32179   5.799   0.823   4.016
10427SOL    HW132180   5.759   0.835   3.925
10427SOL    HW232181   5.735   0.857   4.085
10428SOL     OW32182   1.486   6.624   4.645
10428SOL    HW132183   1.410   6.574   4.603
10428SOL    HW232184   1.548   6.558   4.689
10429SOL     OW32185   2.339   4.253   1.607
10429SOL    HW132186   2.419   4.260   1.667
10429SOL    HW232187   2.258   4.229   1.661
10430SOL     OW32188   3.768   0.045   4.747
10430SOL    HW132189   3.722   0.108   4.683
10430SOL    HW232190   3.708   6.991   4.767
10431SOL     OW32191   3.929   1.840   4.228
10431SOL    HW132192   3.914   1.938   4.241
10431SOL    HW232193   3.977   1.803   4.308
10432SOL     OW32194   1.131   4.846   0.465
10432SOL    HW132195   1.136   4.879   0.559
10432SOL    HW232196   1.068   4.768   0.460
10433SOL     OW32197   3.617   6.666   4.533
10433SOL    HW132198   3.608   6.762   4.508
10433SOL    HW232199   3.683   6.656   4.607
10434SOL     OW32200   3.957   0.833   6.718
10434SOL    HW132201   4.018   0.877   6.652
10434SOL    HW232202   3.884   0.898   6.743
10435SOL     OW32203   2.497   1.591   1.307
10435SOL    HW132204   2.475   1.595   1.405
10435SOL    HW232205   2.422   1.545   1.259
10436SOL     OW32206   1.127   3.743   4.668
10436SOL    HW132207   1.224   3.724   4.653
10436SOL    HW232208   1.100   3.708   4.758
10437SOL     OW32209   6.946   6.123   4.645
10437SOL    HW132210   6.931   6.056   4.572
10437SOL    HW232211   0.016   6.114   4.680
10438SOL     OW32212   6.922   5.815   6.522
10438SOL    HW132213   6.922   5.910   6.553
10438SOL    HW232214   6.841   5.768   6.556
10439SOL     OW32215   6.184   5.486   4.546
10439SOL    HW132216   6.118   5.442   4.606
10439SOL    HW232217   6.273   5.489   4.590
10440SOL     OW32218   5.837   2.697   1.088
10440SOL    HW132219   5.906   2.676   1.019
10440SOL    HW232220   5.826   2.619   1.150
10441SOL     OW32221   4.428   1.978   6.858
10441SOL    HW132222   4.487   1.916   6.807
10441SOL    HW232223   4.419   1.946   6.952
10442SOL     OW32224   2.812   1.176   5.060
10442SOL    HW132225   2.855   1.093   5.025
10442SOL    HW232226   2.727   1.153   5.106
10443SOL     OW32227   0.886   0.544   0.143
10443SOL    HW132228   0.831   0.622   0.173
10443SOL    HW232229   0.896   0.479   0.218
10444SOL     OW32230   4.426   5.099   3.786
10444SOL    HW132231   4.403   5.050   3.871
10444SOL    HW232232   4.381   5.054   3.709
10445SOL     OW32233   0.961   3.584   3.624
10445SOL    HW132234   1.047   3.562   3.579
10445SOL    HW232235   0.928   3.673   3.591
10446SOL     OW32236   2.359   4.917   4.582
10446SOL    HW132237   2.326   4.844   4.641
10446SOL    HW232238   2.429   4.970   4.630
10447SOL     OW32239   1.073   1.954   2.816
10447SOL    HW132240   0.978   1.985   2.814
10447SOL    HW232241   1.119   1.982   2.732
10448SOL     OW32242   1.159   6.078   2.451
10448SOL    HW132243   1.223   6.015   2.495
10448SOL    HW232244   1.100   6.027   2.388
10449SOL     OW32245   3.789   4.998   4.706
10449SOL    HW132246   3.855   4.934   4.667
10449SOL    HW232247   3.697   4.973   4.677
10450SOL     OW32248   0.840   2.212   3.768
10450SOL    HW132249   0.918   2.192   3.708
10450SOL    HW232250   0.756   2.183   3.722
10451SOL     OW32251   3.051   2.178   4.149
10451SOL    HW132252   3.071   2.207   4.243
10451SOL    HW232253   3.137   2.161   4.101
10452SOL     OW32254   6.930   2.914   4.742
10452SOL    HW132255   6.927   2.938   4.645
10452SOL    HW232256   6.996   2.972   4.789
10453SOL     OW32257   3.756   5.017   4.296
10453SOL    HW132258   3.833   5.063   4.339
10453SOL    HW232259   3.710   5.081   4.234
10454SOL     OW32260   6.441   0.913   6.515
10454SOL    HW132261   6.432   0.878   6.608
10454SOL    HW232262   6.434   0.836   6.450
10455SOL     OW32263   0.479   5.992   2.605
10455SOL    HW132264   0.557   6.009   2.665
10455SOL    HW232265   0.502   6.019   2.512
10456SOL     OW32266   1.485   5.382   6.321
10456SOL    HW132267   1.577   5.403   6.355
10456SOL    HW232268   1.434   5.468   6.310
10457SOL     OW32269   4.098   1.334   0.386
10457SOL    HW132270   4.150   1.419   0.379
10457SOL    HW232271   4.154   1.259   0.351
10458SOL     OW32272   1.292   6.143   0.162
10458SOL    HW132273   1.215   6.202   0.141
10458SOL    HW232274   1.363   6.195   0.209
10459SOL     OW32275   6.168   6.173   1.151
10459SOL    HW132276   6.127   6.081   1.145
10459SOL    HW232277   6.101   6.237   1.188
10460SOL     OW32278   6.134   0.625   6.833
10460SOL    HW132279   6.147   0.536   6.790
10460SOL    HW232280   6.037   0.637   6.855
10461SOL     OW32281   0.224   4.430   5.961
10461SOL    HW132282   0.166   4.355   5.929
10461SOL    HW232283   0.176   4.517   5.949
10462SOL     OW32284   3.591   3.818   6.609
10462SOL    HW132285   3.679   3.825   6.655
10462SOL    HW232286   3.605   3.819   6.510
10463SOL     OW32287   4.756   2.699   6.296
10463SOL    HW132288   4.703   2.784   6.296
10463SOL    HW232289   4.845   2.716   6.338
10464SOL     OW32290   6.507   4.137   1.950
10464SOL    HW132291   6.512   4.114   2.047
10464SOL    HW232292   6.560   4.220   1.932
10465SOL     OW32293   5.870   4.294   1.855
10465SOL    HW132294   5.954   4.348   1.849
10465SOL    HW232295   5.807   4.338   1.920
10466SOL     OW32296   5.690   3.654   5.433
10466SOL    HW132297   5.662   3.648   5.337
10466SOL    HW232298   5.652   3.738   5.473
10467SOL     OW32299   0.170   2.783   6.866
10467SOL    HW132300   0.221   2.727   6.801
10467SOL    HW232301   0.072   2.766   6.855
10468SOL     OW32302   1.750   4.178   3.967
10468SOL    HW132303   1.711   4.267   3.942
10468SOL    HW232304   1.678   4.121   4.009
10469SOL     OW32305   1.189   1.806   3.550
10469SOL    HW132306   1.264   1.745   3.525
10469SOL    HW232307   1.118   1.755   3.598
10470SOL     OW32308   2.221   3.905   2.024
10470SOL    HW132309   2.284   3.980   2.046
10470SOL    HW232310   2.253   3.859   1.941
10471SOL     OW32311   2.794   4.865   6.797
10471SOL    HW132312   2.695   4.851   6.788
10471SOL    HW232313   2.823   4.835   6.888
10472SOL     OW32314   4.088   5.395   6.335
10472SOL    HW132315   4.103   5.486   6.373
10472SOL    HW232316   4.170   5.339   6.349
10473SOL     OW32317   6.332   5.037   6.761
10473SOL    HW132318   6.424   5.040   6.802
10473SOL    HW232319   6.304   5.131   6.739
10474SOL     OW32320   6.462   6.814   5.288
10474SOL    HW132321   6.371   6.819   5.331
10474SOL    HW232322   6.504   6.904   5.288
10475SOL     OW32323   0.542   5.078   1.436
10475SOL    HW132324   0.497   5.146   1.493
10475SOL    HW232325   0.638   5.069   1.464
10476SOL     OW32326   5.331   6.769   1.235
10476SOL    HW132327   5.337   6.770   1.135
10476SOL    HW232328   5.251   6.716   1.264
10477SOL     OW32329   6.946   5.541   3.681
10477SOL    HW132330   6.922   5.505   3.771
10477SOL    HW232331   6.867   5.536   3.621
10478SOL     OW32332   0.051   0.851   6.458
10478SOL    HW132333   0.071   0.777   6.523
10478SOL    HW232334   7.000   0.823   6.397
10479SOL     OW32335   0.592   3.560   1.785
10479SOL    HW132336   0.629   3.512   1.864
10479SOL    HW232337   0.665   3.580   1.719
10480SOL     OW32338   2.415   1.044   3.149
10480SOL    HW132339   2.365   1.012   3.069
10480SOL    HW232340   2.468   1.126   3.126
10481SOL     OW32341   6.446   1.498   1.209
10481SOL    HW132342   6.461   1.504   1.308
10481SOL    HW232343   6.500   1.568   1.163
10482SOL     OW32344   5.142   3.754   4.453
10482SOL    HW132345   5.050   3.776   4.485
10482SOL    HW232346   5.193   3.710   4.527
10483SOL     OW32347   6.206   0.088   6.669
10483SOL    HW132348   6.195   7.012   6.676
10483SOL    HW232349   6.116   0.132   6.678
10484SOL     OW32350   6.518   0.613   1.816
10484SOL    HW132351   6.546   0.521   1.788
10484SOL    HW232352   6.422   0.611   1.845
10485SOL     OW32353   5.580   3.115   5.059
10485SOL    HW132354   5.563   3.191   5.121
10485SOL    HW232355   5.525   3.126   4.977
10486SOL     OW32356   5.316   2.669   2.812
10486SOL    HW132357   5.364   2.706   2.891
10486SOL    HW232358   5.380   2.655   2.737
10487SOL     OW32359   4.588   6.949   2.196
10487SOL    HW132360   4.671   6.975   2.149
10487SOL    HW232361   4.532   6.891   2.136
10488SOL     OW32362   3.717   4.162   6.752
10488SOL    HW132363   3.634   4.124   6.710
10488SOL    HW232364   3.691   4.227   6.824
10489SOL     OW32365   1.547   5.404   4.752
10489SOL    HW132366   1.629   5.386   4.698
10489SOL    HW232367   1.566   5.477   4.818
10490SOL     OW32368   6.150   0.238   3.959
10490SOL    HW132369   6.117   0.185   4.037
10490SOL    HW232370   6.087   0.226   3.882
10491SOL     OW32371   0.245   4.931   5.088
10491SOL    HW132372   0.163   4.878   5.108
10491SOL    HW232373   0.248   5.012   5.147
10492SOL     OW32374   4.301   4.268   5.600
10492SOL    HW132375   4.378   4.328   5.578
10492SOL    HW232376   4.275   4.281   5.696
10493SOL     OW32377   3.746   1.501   0.859
10493SOL    HW132378   3.804   1.478   0.937
10493SOL    HW232379   3.651   1.479   0.880
10494SOL     OW32380   5.436   1.538   6.069
10494SOL    HW132381   5.428   1.609   6.138
10494SOL    HW232382   5.477   1.575   5.986
10495SOL     OW32383   1.713   6.843   6.405
10495SOL    HW132384   1.743   6.819   6.497
10495SOL    HW232385   1.640   6.911   6.411
10496SOL     OW32386   6.274   0.306   5.576
10496SOL    HW132387   6.195   0.267   5.623
10496SOL    HW232388   6.317   0.375   5.634
10497SOL     OW32389   1.404   1.636   6.554
10497SOL    HW132390   1.415   1.715   6.614
10497SOL    HW232391   1.494   1.602   6.527
10498SOL     OW32392   3.097   4.820   5.977
10498SOL    HW132393   3.063   4.897   6.032
10498SOL    HW232394   3.157   4.854   5.905
10499SOL     OW32395   3.079   6.047   3.006
10499SOL    HW132396   2.990   6.002   2.999
10499SOL    HW232397   3.100   6.065   3.102
10500SOL     OW32398   2.325   2.190   6.971
10500SOL    HW132399   2.304   2.172   6.874
10500SOL    HW232400   2.296   2.283   6.994
10501SOL     OW32401   1.257   3.742   2.951
10501SOL    HW132402   1.215   3.833   2.950
10501SOL    HW232403   1.270   3.712   3.046
10502SOL     OW32404   2.879   5.460   5.086
10502SOL    HW132405   2.915   5.386   5.028
10502SOL    HW232406   2.917   5.451   5.178
10503SOL     OW32407   2.708   3.078   5.679
10503SOL    HW132408   2.710   3.005   5.612
10503SOL    HW232409   2.655   3.155   5.644
10504SOL     OW32410   2.116   3.439   1.247
10504SOL    HW132411   2.067   3.454   1.161
10504SOL    HW232412   2.091   3.510   1.313
10505SOL     OW32413   0.330   6.625   0.597
10505SOL    HW132414   0.344   6.678   0.681
10505SOL    HW232415   0.261   6.555   0.614
10506SOL     OW32416   0.325   3.947   5.235
10506SOL    HW132417   0.359   3.952   5.141
10506SOL    HW232418   0.244   4.005   5.244
10507SOL     OW32419   1.828   0.373   3.471
10507SOL    HW132420   1.779   0.453   3.505
10507SOL    HW232421   1.926   0.395   3.466
10508SOL     OW32422   5.743   3.599   2.554
10508SOL    HW132423   5.731   3.688   2.510
10508SOL    HW232424   5.670   3.585   2.620
10509SOL     OW32425   2.291   0.739   6.078
10509SOL    HW132426   2.343   0.677   6.136
10509SOL    HW232427   2.333   0.830   6.081
10510SOL     OW32428   5.859   6.815   6.775
10510SOL    HW132429   5.847   6.719   6.750
10510SOL    HW232430   5.770   6.857   6.792
10511SOL     OW32431   0.538   2.168   0.830
10511SOL    HW132432   0.439   2.166   0.816
10511SOL    HW232433   0.579   2.232   0.764
10512SOL     OW32434   2.534   0.431   6.351
10512SOL    HW132435   2.479   0.481   6.418
10512SOL    HW232436   2.631   0.449   6.367
10513SOL     OW32437   0.175   1.978   0.345
10513SOL    HW132438   0.197   1.989   0.248
10513SOL    HW232439   0.082   2.008   0.362
10514SOL     OW32440   0.595   2.754   1.546
10514SOL    HW132441   0.579   2.757   1.447
10514SOL    HW232442   0.694   2.758   1.563
10515SOL     OW32443   6.170   3.024   4.383
10515SOL    HW132444   6.128   2.934   4.390
10515SOL    HW232445   6.227   3.028   4.300
10516SOL     OW32446   2.537   6.511   0.773
10516SOL    HW132447   2.629   6.545   0.789
10516SOL    HW232448   2.501   6.552   0.689
10517SOL     OW32449   0.434   2.414   2.774
10517SOL    HW132450   0.395   2.440   2.862
10517SOL    HW232451   0.518   2.466   2.758
10518SOL     OW32452   0.567   6.391   2.458
10518SOL    HW132453   0.588   6.483   2.425
10518SOL    HW232454   0.563   6.393   2.558
10519SOL     OW32455   3.465   3.855   5.534
10519SOL    HW132456   3.524   3.933   5.553
10519SOL    HW232457   3.381   3.886   5.489
10520SOL     OW32458   3.530   4.907   6.810
10520SOL    HW132459   3.574   4.993   6.838
10520SOL    HW232460   3.601   4.838   6.793
10521SOL     OW32461   6.249   5.206   1.776
10521SOL    HW132462   6.158   5.206   1.818
10521SOL    HW232463   6.246   5.157   1.689
10522SOL     OW32464   6.646   0.089   2.227
10522SOL    HW132465   6.715   0.061   2.160
10522SOL    HW232466   6.562   0.038   2.211
10523SOL     OW32467   6.937   6.003   5.709
10523SOL    HW132468   6.919   5.976   5.803
10523SOL    HW232469   7.014   5.950   5.673
10524SOL     OW32470   4.676   0.484   4.331
10524SOL    HW132471   4.745   0.415   4.308
10524SOL    HW232472   4.586   0.453   4.300
10525SOL     OW32473   2.792   6.207   4.488
10525SOL    HW132474   2.725   6.252   4.430
10525SOL    HW232475   2.751   6.129   4.534
10526SOL     OW32476   5.329   6.846   2.470
10526SOL    HW132477   5.275   6.794   2.404
10526SOL    HW232478   5.273   6.866   2.550
10527SOL     OW32479   1.508   3.010   4.586
10527SOL    HW132480   1.556   3.028   4.672
10527SOL    HW232481   1.517   3.089   4.526
10528SOL     OW32482   6.179   5.170   5.446
10528SOL    HW132483   6.275   5.194   5.432
10528SOL    HW232484   6.158   5.174   5.544
10529SOL     OW32485   6.999   5.868   4.504
10529SOL    HW132486   0.038   5.791   4.517
10529SOL    HW232487   7.004   5.899   4.409
10530SOL     OW32488   1.745   1.476   5.510
10530SOL    HW132489   1.845   1.476   5.521
10530SOL    HW232490   1.717   1.560   5.462
10531SOL     OW32491   1.604   1.944   5.076
10531SOL    HW132492   1.536   2.004   5.032
10531SOL    HW232493   1.669   1.911   5.008
10532SOL     OW32494   3.099   3.153   4.945
10532SOL    HW132495   3.152   3.068   4.947
10532SOL    HW232496   3.062   3.167   4.853
10533SOL     OW32497   3.046   1.037   6.501
10533SOL    HW132498   2.985   1.085   6.437
10533SOL    HW232499   3.093   1.103   6.558
10534SOL     OW32500   5.503   5.244   1.093
10534SOL    HW132501   5.430   5.273   1.154
10534SOL    HW232502   5.481   5.155   1.054
10535SOL     OW32503   7.011   1.108   1.377
10535SOL    HW132504   6.983   1.033   1.317
10535SOL    HW232505   6.938   1.177   1.381
10536SOL     OW32506   5.768   5.634   3.483
10536SOL    HW132507   5.784   5.733   3.479
10536SOL    HW232508   5.738   5.601   3.394
10537SOL     OW32509   6.577   5.308   0.866
10537SOL    HW132510   6.524   5.338   0.945
10537SOL    HW232511   6.537   5.347   0.783
10538SOL     OW32512   4.378   3.913   6.851
10538SOL    HW132513   4.355   3.876   6.941
10538SOL    HW232514   4.294   3.941   6.804
10539SOL     OW32515   1.224   3.076   5.202
10539SOL    HW132516   1.176   3.066   5.115
10539SOL    HW232517   1.323   3.075   5.186
10540SOL     OW32518   3.279   0.813   0.458
10540SOL    HW132519   3.340   0.733   0.456
10540SOL    HW232520   3.219   0.807   0.538
10541SOL     OW32521   4.166   2.875   0.634
10541SOL    HW132522   4.131   2.850   0.725
10541SOL    HW232523   4.198   2.970   0.636
10542SOL     OW32524   1.311   2.265   0.083
10542SOL    HW132525   1.277   2.306   0.167
10542SOL    HW232526   1.278   2.317   0.004
10543SOL     OW32527   3.044   0.576   5.055
10543SOL    HW132528   3.100   0.608   4.979
10543SOL    HW232529   3.065   0.480   5.074
10544SOL     OW32530   6.707   2.275   1.660
10544SOL    HW132531   6.627   2.220   1.682
10544SOL    HW232532   6.790   2.224   1.686
10545SOL     OW32533   4.815   1.342   2.526
10545SOL    HW132534   4.838   1.328   2.430
10545SOL    HW232535   4.797   1.439   2.542
10546SOL     OW32536   4.190   1.399   5.445
10546SOL    HW132537   4.109   1.408   5.387
10546SOL    HW232538   4.163   1.406   5.541
10547SOL     OW32539   4.646   6.897   1.306
10547SOL    HW132540   4.669   6.989   1.337
10547SOL    HW232541   4.677   6.830   1.374
10548SOL     OW32542   4.442   4.717   5.408
10548SOL    HW132543   4.352   4.740   5.370
10548SOL    HW232544   4.446   4.746   5.503
10549SOL     OW32545   1.020   1.524   1.797
10549SOL    HW132546   0.938   1.553   1.847
10549SOL    HW232547   1.074   1.462   1.855
10550SOL     OW32548   5.348   6.306   4.741
10550SOL    HW132549   5.324   6.275   4.649
10550SOL    HW232550   5.310   6.398   4.756
10551SOL     OW32551   0.935   2.544   5.772
10551SOL    HW132552   0.854   2.566   5.826
10551SOL    HW232553   0.994   2.483   5.824
10552SOL     OW32554   2.984   2.197   4.837
10552SOL    HW132555   3.026   2.238   4.919
10552SOL    HW232556   2.926   2.121   4.864
10553SOL     OW32557   2.909   5.134   5.866
10553SOL    HW132558   2.903   5.227   5.831
10553SOL    HW232559   2.893   5.069   5.791
10554SOL     OW32560   6.782   4.195   5.979
10554SOL    HW132561   6.765   4.096   5.973
10554SOL    HW232562   6.866   4.211   6.029
10555SOL     OW32563   3.600   2.930   1.422
10555SOL    HW132564   3.540   2.881   1.485
10555SOL    HW232565   3.565   2.922   1.329
10556SOL     OW32566   1.554   3.720   3.626
10556SOL    HW132567   1.570   3.707   3.724
10556SOL    HW232568   1.636   3.757   3.583
10557SOL     OW32569   5.415   1.273   3.335
10557SOL    HW132570   5.487   1.204   3.337
10557SOL    HW232571   5.449   1.356   3.291
10558SOL     OW32572   5.263   5.987   4.890
10558SOL    HW132573   5.168   6.018   4.898
10558SOL    HW232574   5.289   5.988   4.793
10559SOL     OW32575   4.373   2.611   0.701
10559SOL    HW132576   4.299   2.668   0.666
10559SOL    HW232577   4.371   2.611   0.801
10560SOL     OW32578   0.087   2.536   4.255
10560SOL    HW132579   7.022   2.518   4.211
10560SOL    HW232580   0.159   2.535   4.186
10561SOL     OW32581   2.499   3.962   6.298
10561SOL    HW132582   2.437   4.024   6.346
10561SOL    HW232583   2.446   3.897   6.243
10562SOL     OW32584   3.400   1.952   0.399
10562SOL    HW132585   3.324   1.988   0.345
10562SOL    HW232586   3.462   1.900   0.340
10563SOL     OW32587   1.603   2.437   2.844
10563SOL    HW132588   1.625   2.494   2.765
10563SOL    HW232589   1.643   2.346   2.832
10564SOL     OW32590   6.878   2.135   2.129
10564SOL    HW132591   6.935   2.212   2.157
10564SOL    HW232592   6.933   2.069   2.078
10565SOL     OW32593   5.093   1.697   4.837
10565SOL    HW132594   5.143   1.673   4.920
10565SOL    HW232595   5.141   1.769   4.788
10566SOL     OW32596   4.464   5.242   6.900
10566SOL    HW132597   4.520   5.320   6.872
10566SOL    HW232598   4.384   5.274   6.949
10567SOL     OW32599   2.264   5.332   3.889
10567SOL    HW132600   2.211   5.397   3.943
10567SOL    HW232601   2.237   5.339   3.793
10568SOL     OW32602   3.728   1.826   2.741
10568SOL    HW132603   3.638   1.854   2.776
10568SOL    HW232604   3.791   1.903   2.748
10569SOL     OW32605   6.211   3.018   3.457
10569SOL    HW132606   6.209   2.948   3.528
10569SOL    HW232607   6.118   3.039   3.427
10570SOL     OW32608   1.152   4.162   1.074
10570SOL    HW132609   1.118   4.243   1.122
10570SOL    HW232610   1.250   4.173   1.057
10571SOL     OW32611   6.424   6.832   4.854
10571SOL    HW132612   6.400   6.922   4.891
10571SOL    HW232613   6.445   6.770   4.929
10572SOL     OW32614   6.822   3.364   1.613
10572SOL    HW132615   6.723   3.355   1.602
10572SOL    HW232616   6.851   3.454   1.580
10573SOL     OW32617   6.012   4.265   5.893
10573SOL    HW132618   5.981   4.173   5.917
10573SOL    HW232619   6.097   4.285   5.941
10574SOL     OW32620   0.441   2.251   3.309
10574SOL    HW132621   0.492   2.167   3.295
10574SOL    HW232622   0.487   2.307   3.378
10575SOL     OW32623   1.209   7.013   5.922
10575SOL    HW132624   1.176   0.060   5.986
10575SOL    HW232625   1.257   0.033   5.847
10576SOL     OW32626   1.182   5.793   3.042
10576SOL    HW132627   1.200   5.698   3.068
10576SOL    HW232628   1.160   5.798   2.945
10577SOL     OW32629   0.428   2.488   5.840
10577SOL    HW132630   0.385   2.574   5.812
10577SOL    HW232631   0.396   2.414   5.782
10578SOL     OW32632   5.646   1.109   5.303
10578SOL    HW132633   5.707   1.042   5.259
10578SOL    HW232634   5.575   1.061   5.353
10579SOL     OW32635   5.555   6.870   0.502
10579SOL    HW132636   5.457   6.880   0.524
10579SOL    HW232637   5.586   6.952   0.454
10580SOL     OW32638   0.116   5.862   0.357
10580SOL    HW132639   0.205   5.904   0.335
10580SOL    HW232640   0.099   5.872   0.455
10581SOL     OW32641   4.839   2.290   4.000
10581SOL    HW132642   4.826   2.204   3.951
10581SOL    HW232643   4.885   2.356   3.940
10582SOL     OW32644   3.171   4.753   0.207
10582SOL    HW132645   3.184   4.840   0.159
10582SOL    HW232646   3.257   4.701   0.206
10583SOL     OW32647   4.667   0.917   1.589
10583SOL    HW132648   4.701   0.979   1.519
10583SOL    HW232649   4.670   0.962   1.678
10584SOL     OW32650   5.920   6.819   1.149
10584SOL    HW132651   5.831   6.854   1.179
10584SOL    HW232652   5.987   6.893   1.149
10585SOL     OW32653   2.356   4.511   6.533
10585SOL    HW132654   2.271   4.542   6.490
10585SOL    HW232655   2.433   4.534   6.474
10586SOL     OW32656   5.057   1.759   0.852
10586SOL    HW132657   4.987   1.691   0.830
10586SOL    HW232658   5.058   1.776   0.950
10587SOL     OW32659   5.874   2.924   0.048
10587SOL    HW132660   5.909   3.013   0.017
10587SOL    HW232661   5.939   2.853   0.024
10588SOL     OW32662   1.384   5.147   3.084
10588SOL    HW132663   1.390   5.244   3.062
10588SOL    HW232664   1.476   5.109   3.095
10589SOL     OW32665   5.497   1.576   4.231
10589SOL    HW132666   5.558   1.633   4.286
10589SOL    HW232667   5.502   1.481   4.263
10590SOL     OW32668   1.315   0.076   5.000
10590SOL    HW132669   1.239   0.137   4.976
10590SOL    HW232670   1.356   0.105   5.086
10591SOL     OW32671   1.963   2.623   1.568
10591SOL    HW132672   1.938   2.677   1.648
10591SOL    HW232673   1.914   2.536   1.570
10592SOL     OW32674   6.236   1.184   6.869
10592SOL    HW132675   6.155   1.185   6.927
10592SOL    HW232676   6.318   1.193   6.926
10593SOL     OW32677   1.128   4.799   1.623
10593SOL    HW132678   1.108   4.705   1.596
10593SOL    HW232679   1.070   4.824   1.700
10594SOL     OW32680   1.339   1.675   4.336
10594SOL    HW132681   1.388   1.706   4.418
10594SOL    HW232682   1.399   1.685   4.257
10595SOL     OW32683   2.438   6.049   4.823
10595SOL    HW132684   2.496   5.968   4.827
10595SOL    HW232685   2.344   6.021   4.803
10596SOL     OW32686   3.216   1.003   1.981
10596SOL    HW132687   3.284   1.010   1.907
10596SOL    HW232688   3.193   1.095   2.013
10597SOL     OW32689   1.451   1.143   4.091
10597SOL    HW132690   1.495   1.167   4.004
10597SOL    HW232691   1.413   1.051   4.085
10598SOL     OW32692   1.840   1.281   0.205
10598SOL    HW132693   1.913   1.339   0.243
10598SOL    HW232694   1.809   1.320   0.118
10599SOL     OW32695   5.238   0.567   6.580
10599SOL    HW132696   5.140   0.585   6.576
10599SOL    HW232697   5.283   0.608   6.500
10600SOL     OW32698   1.503   2.592   5.452
10600SOL    HW132699   1.502   2.516   5.516
10600SOL    HW232700   1.465   2.562   5.364
10601SOL     OW32701   3.038   6.164   5.173
10601SOL    HW132702   3.095   6.089   5.141
10601SOL    HW232703   3.037   6.237   5.105
10602SOL     OW32704   4.597   1.329   1.272
10602SOL    HW132705   4.649   1.382   1.205
10602SOL    HW232706   4.506   1.310   1.237
10603SOL     OW32707   0.894   5.458   5.067
10603SOL    HW132708   0.811   5.435   5.118
10603SOL    HW232709   0.974   5.439   5.124
10604SOL     OW32710   0.298   4.005   5.731
10604SOL    HW132711   0.362   3.938   5.769
10604SOL    HW232712   0.348   4.085   5.700
10605SOL     OW32713   2.118   5.163   6.555
10605SOL    HW132714   2.097   5.251   6.598
10605SOL    HW232715   2.039   5.132   6.501
10606SOL     OW32716   0.095   1.167   2.270
10606SOL    HW132717   0.130   1.249   2.224
10606SOL    HW232718   0.000   1.183   2.299
10607SOL     OW32719   5.596   4.709   6.564
10607SOL    HW132720   5.666   4.767   6.604
10607SOL    HW232721   5.625   4.680   6.472
10608SOL     OW32722   5.486   0.222   3.064
10608SOL    HW132723   5.424   0.159   3.017
10608SOL    HW232724   5.570   0.232   3.011
10609SOL     OW32725   3.586   6.960   2.813
10609SOL    HW132726   3.525   6.881   2.811
10609SOL    HW232727   3.681   6.929   2.801
10610SOL     OW32728   2.098   4.557   4.457
10610SOL    HW132729   2.193   4.566   4.425
10610SOL    HW232730   2.055   4.647   4.459
10611SOL     OW32731   4.723   2.425   6.274
10611SOL    HW132732   4.729   2.524   6.284
10611SOL    HW232733   4.697   2.384   6.361
10612SOL     OW32734   1.597   0.414   1.149
10612SOL    HW132735   1.679   0.472   1.144
10612SOL    HW232736   1.565   0.396   1.056
10613SOL     OW32737   0.570   6.551   6.862
10613SOL    HW132738   0.594   6.632   6.915
10613SOL    HW232739   0.538   6.579   6.771
10614SOL     OW32740   6.720   0.535   2.998
10614SOL    HW132741   6.704   0.447   2.953
10614SOL    HW232742   6.674   0.536   3.086
10615SOL     OW32743   6.960   6.380   5.147
10615SOL    HW132744   6.959   6.352   5.243
10615SOL    HW232745   7.019   6.460   5.136
10616SOL     OW32746   2.616   5.827   1.301
10616SOL    HW132747   2.596   5.790   1.210
10616SOL    HW232748   2.711   5.808   1.324
10617SOL     OW32749   0.363   1.616   7.009
10617SOL    HW132750   0.453   1.589   0.020
10617SOL    HW232751   0.296   1.608   0.059
10618SOL     OW32752   6.327   3.868   0.916
10618SOL    HW132753   6.374   3.832   0.835
10618SOL    HW232754   6.319   3.795   0.985
10619SOL     OW32755   0.917   4.060   3.167
10619SOL    HW132756   1.001   4.115   3.165
10619SOL    HW232757   0.885   4.044   3.074
10620SOL     OW32758   1.503   5.415   4.054
10620SOL    HW132759   1.490   5.344   4.123
10620SOL    HW232760   1.498   5.374   3.963
10621SOL     OW32761   3.392   6.155   0.513
10621SOL    HW132762   3.387   6.108   0.425
10621SOL    HW232763   3.405   6.089   0.587
10622SOL     OW32764   4.569   2.189   0.729
10622SOL    HW132765   4.493   2.253   0.729
10622SOL    HW232766   4.599   2.172   0.635
10623SOL     OW32767   6.886   0.757   4.201
10623SOL    HW132768   6.974   0.804   4.210
10623SOL    HW232769   6.815   0.812   4.245
10624SOL     OW32770   2.848   0.968   3.807
10624SOL    HW132771   2.836   1.026   3.887
10624SOL    HW232772   2.927   0.998   3.754
10625SOL     OW32773   0.749   2.884   0.016
10625SOL    HW132774   0.847   2.901   0.019
10625SOL    HW232775   0.708   2.910   0.103
10626SOL     OW32776   5.771   2.138   2.212
10626SOL    HW132777   5.772   2.215   2.276
10626SOL    HW232778   5.809   2.166   2.124
10627SOL     OW32779   5.925   6.135   4.661
10627SOL    HW132780   5.827   6.123   4.679
10627SOL    HW232781   5.971   6.047   4.666
10628SOL     OW32782   0.162   5.789   5.579
10628SOL    HW132783   0.106   5.707   5.590
10628SOL    HW232784   0.177   5.831   5.668
10629SOL     OW32785   2.137   4.231   6.773
10629SOL    HW132786   2.064   4.181   6.725
10629SOL    HW232787   2.214   4.244   6.711
10630SOL     OW32788   6.234   0.613   1.877
10630SOL    HW132789   6.169   0.681   1.843
10630SOL    HW232790   6.202   0.578   1.965
10631SOL     OW32791   1.375   6.372   4.851
10631SOL    HW132792   1.473   6.367   4.833
10631SOL    HW232793   1.341   6.280   4.872
10632SOL     OW32794   6.963   3.329   6.117
10632SOL    HW132795   6.891   3.262   6.132
10632SOL    HW232796   0.018   3.308   6.176
10633SOL     OW32797   1.055   5.054   0.329
10633SOL    HW132798   0.968   5.093   0.361
10633SOL    HW232799   1.065   4.962   0.366
10634SOL     OW32800   3.552   6.359   2.312
10634SOL    HW132801   3.492   6.291   2.353
10634SOL    HW232802   3.513   6.390   2.225
10635SOL     OW32803   1.533   1.589   1.370
10635SOL    HW132804   1.585   1.629   1.294
10635SOL    HW232805   1.475   1.515   1.334
10636SOL     OW32806   5.260   1.607   1.020
10636SOL    HW132807   5.179   1.616   1.078
10636SOL    HW232808   5.288   1.698   0.987
10637SOL     OW32809   2.960   4.415   6.057
10637SOL    HW132810   2.873   4.451   6.024
10637SOL    HW232811   3.022   4.491   6.076
10638SOL     OW32812   6.808   6.801   5.965
10638SOL    HW132813   6.845   6.891   5.941
10638SOL    HW232814   6.726   6.812   6.020
10639SOL     OW32815   3.492   2.123   4.925
10639SOL    HW132816   3.463   2.218   4.908
10639SOL    HW232817   3.411   2.065   4.936
10640SOL     OW32818   4.685   6.085   1.174
10640SOL    HW132819   4.613   6.106   1.108
10640SOL    HW232820   4.707   6.167   1.227
10641SOL     OW32821   3.554   0.403   6.499
10641SOL    HW132822   3.510   0.407   6.589
10641SOL    HW232823   3.632   0.340   6.503
10642SOL     OW32824   6.963   4.866   0.453
10642SOL    HW132825   6.941   4.962   0.471
10642SOL    HW232826   6.926   4.840   0.364
10643SOL     OW32827   4.380   3.088   5.325
10643SOL    HW132828   4.419   3.163   5.379
10643SOL    HW232829   4.425   3.002   5.350
10644SOL     OW32830   3.815   1.248   5.310
10644SOL    HW132831   3.828   1.234   5.212
10644SOL    HW232832   3.893   1.209   5.359
10645SOL     OW32833   2.063   0.086   4.962
10645SOL    HW132834   1.977   0.136   4.957
10645SOL    HW232835   2.058   0.018   5.036
10646SOL     OW32836   0.571   4.601   6.976
10646SOL    HW132837   0.642   4.534   6.953
10646SOL    HW232838   0.502   4.559   0.011
10647SOL     OW32839   0.447   6.033   1.033
10647SOL    HW132840   0.509   6.092   0.981
10647SOL    HW232841   0.458   5.939   1.001
10648SOL     OW32842   4.759   5.343   6.351
10648SOL    HW132843   4.691   5.348   6.424
10648SOL    HW232844   4.724   5.287   6.277
10649SOL     OW32845   0.296   4.120   6.117
10649SOL    HW132846   0.284   4.159   6.026
10649SOL    HW232847   0.385   4.149   6.154
10650SOL     OW32848   3.221   0.646   5.335
10650SOL    HW132849   3.150   0.687   5.391
10650SOL    HW232850   3.231   0.697   5.250
10651SOL     OW32851   2.614   0.749   5.153
10651SOL    HW132852   2.632   0.847   5.145
10651SOL    HW232853   2.696   0.697   5.128
10652SOL     OW32854   3.796   1.515   0.596
10652SOL    HW132855   3.773   1.512   0.694
10652SOL    HW232856   3.821   1.424   0.565
10653SOL     OW32857   6.318   3.755   4.195
10653SOL    HW132858   6.272   3.696   4.260
10653SOL    HW232859   6.255   3.782   4.123
10654SOL     OW32860   4.452   0.626   1.788
10654SOL    HW132861   4.481   0.616   1.884
10654SOL    HW232862   4.390   0.552   1.764
10655SOL     OW32863   2.458   5.420   1.533
10655SOL    HW132864   2.555   5.405   1.520
10655SOL    HW232865   2.406   5.354   1.479
10656SOL     OW32866   6.437   2.552   6.530
10656SOL    HW132867   6.425   2.585   6.624
10656SOL    HW232868   6.510   2.484   6.528
10657SOL     OW32869   6.722   0.399   1.359
10657SOL    HW132870   6.691   0.342   1.435
10657SOL    HW232871   6.761   0.342   1.287
10658SOL     OW32872   0.078   6.182   4.241
10658SOL    HW132873   0.046   6.091   4.213
10658SOL    HW232874   0.133   6.221   4.168
10659SOL     OW32875   4.998   1.193   1.190
10659SOL    HW132876   4.923   1.167   1.250
10659SOL    HW232877   4.980   1.161   1.097
10660SOL     OW32878   5.643   5.654   6.044
10660SOL    HW132879   5.565   5.671   5.984
10660SOL    HW232880   5.727   5.683   5.998
10661SOL     OW32881   0.329   0.630   2.113
10661SOL    HW132882   0.297   0.711   2.162
10661SOL    HW232883   0.418   0.602   2.148
10662SOL     OW32884   6.747   1.866   0.019
10662SOL    HW132885   6.719   1.791   0.079
10662SOL    HW232886   6.707   1.853   6.951
10663SOL     OW32887   0.831   2.277   0.220
10663SOL    HW132888   0.860   2.327   0.138
10663SOL    HW232889   0.731   2.276   0.225
10664SOL     OW32890   2.347   5.009   6.217
10664SOL    HW132891   2.308   5.092   6.178
10664SOL    HW232892   2.284   4.932   6.206
10665SOL     OW32893   5.874   1.673   6.846
10665SOL    HW132894   5.824   1.707   6.926
10665SOL    HW232895   5.878   1.573   6.850
10666SOL     OW32896   0.596   0.005   0.403
10666SOL    HW132897   0.560   6.946   0.358
10666SOL    HW232898   0.642   7.002   0.487
10667SOL     OW32899   2.714   2.603   5.753
10667SOL    HW132900   2.636   2.580   5.695
10667SOL    HW232901   2.767   2.519   5.771
10668SOL     OW32902   2.300   1.360   6.390
10668SOL    HW132903   2.317   1.437   6.328
10668SOL    HW232904   2.222   1.381   6.448
10669SOL     OW32905   1.424   6.397   6.177
10669SOL    HW132906   1.339   6.366   6.134
10669SOL    HW232907   1.403   6.443   6.263
10670SOL     OW32908   6.292   3.971   4.886
10670SOL    HW132909   6.258   4.057   4.846
10670SOL    HW232910   6.245   3.954   4.972
10671SOL     OW32911   2.067   2.654   2.822
10671SOL    HW132912   2.074   2.731   2.886
10671SOL    HW232913   2.130   2.582   2.850
10672SOL     OW32914   0.024   2.426   0.749
10672SOL    HW132915   6.992   2.343   0.749
10672SOL    HW232916   0.091   2.422   0.674
10673SOL     OW32917   3.274   3.655   4.293
10673SOL    HW132918   3.302   3.723   4.361
10673SOL    HW232919   3.321   3.673   4.206
10674SOL     OW32920   4.177   1.453   2.469
10674SOL    HW132921   4.238   1.403   2.531
10674SOL    HW232922   4.090   1.405   2.463
10675SOL     OW32923   1.142   1.195   5.692
10675SOL    HW132924   1.176   1.179   5.599
10675SOL    HW232925   1.212   1.241   5.746
10676SOL     OW32926   0.004   0.672   6.643
10676SOL    HW132927   0.026   0.746   6.707
10676SOL    HW232928   6.933   0.641   6.659
10677SOL     OW32929   6.067   1.370   1.085
10677SOL    HW132930   6.010   1.308   1.030
10677SOL    HW232931   6.036   1.464   1.072
10678SOL     OW32932   1.997   5.135   3.077
10678SOL    HW132933   2.002   5.232   3.099
10678SOL    HW232934   2.083   5.105   3.035
10679SOL     OW32935   5.143   4.696   3.617
10679SOL    HW132936   5.167   4.628   3.686
10679SOL    HW232937   5.146   4.787   3.658
10680SOL     OW32938   0.398   2.687   3.483
10680SOL    HW132939   0.309   2.699   3.440
10680SOL    HW232940   0.464   2.653   3.415
10681SOL     OW32941   0.584   2.586   6.730
10681SOL    HW132942   0.636   2.605   6.814
10681SOL    HW232943   0.536   2.499   6.740
10682SOL     OW32944   6.614   1.781   3.009
10682SOL    HW132945   6.612   1.782   3.109
10682SOL    HW232946   6.609   1.875   2.975
10683SOL     OW32947   1.139   0.289   4.303
10683SOL    HW132948   1.039   0.296   4.294
10683SOL    HW232949   1.162   0.274   4.399
10684SOL     OW32950   4.960   5.915   0.742
10684SOL    HW132951   4.906   5.886   0.664
10684SOL    HW232952   4.968   5.839   0.807
10685SOL     OW32953   6.214   2.830   2.575
10685SOL    HW132954   6.164   2.761   2.628
10685SOL    HW232955   6.280   2.784   2.515
10686SOL     OW32956   4.375   4.572   1.330
10686SOL    HW132957   4.349   4.654   1.279
10686SOL    HW232958   4.471   4.578   1.356
10687SOL     OW32959   6.338   5.179   1.206
10687SOL    HW132960   6.309   5.089   1.172
10687SOL    HW232961   6.415   5.168   1.268
10688SOL     OW32962   0.404   4.859   1.326
10688SOL    HW132963   0.449   4.824   1.409
10688SOL    HW232964   0.430   4.954   1.311
10689SOL     OW32965   1.145   0.365   0.767
10689SOL    HW132966   1.073   0.339   0.831
10689SOL    HW232967   1.205   0.287   0.751
10690SOL     OW32968   4.514   6.532   3.082
10690SOL    HW132969   4.517   6.585   3.166
10690SOL    HW232970   4.433   6.556   3.029
10691SOL     OW32971   5.828   0.866   1.703
10691SOL    HW132972   5.903   0.931   1.698
10691SOL    HW232973   5.799   0.840   1.611
10692SOL     OW32974   6.512   6.591   4.005
10692SOL    HW132975   6.412   6.586   3.999
10692SOL    HW232976   6.543   6.682   3.976
10693SOL     OW32977   4.850   3.267   4.754
10693SOL    HW132978   4.897   3.216   4.826
10693SOL    HW232979   4.804   3.203   4.692
10694SOL     OW32980   2.290   5.794   0.386
10694SOL    HW132981   2.253   5.883   0.409
10694SOL    HW232982   2.354   5.803   0.310
10695SOL     OW32983   5.650   3.393   5.767
10695SOL    HW132984   5.743   3.423   5.741
10695SOL    HW232985   5.584   3.431   5.702
10696SOL     OW32986   6.322   6.878   1.189
10696SOL    HW132987   6.311   6.787   1.227
10696SOL    HW232988   6.233   6.923   1.182
10697SOL     OW32989   1.798   6.082   2.894
10697SOL    HW132990   1.769   6.155   2.956
10697SOL    HW232991   1.878   6.112   2.842
10698SOL     OW32992   2.868   0.537   4.646
10698SOL    HW132993   2.825   0.532   4.556
10698SOL    HW232994   2.956   0.489   4.643
10699SOL     OW32995   1.518   2.738   3.625
10699SOL    HW132996   1.490   2.808   3.691
10699SOL    HW232997   1.615   2.750   3.602
10700SOL     OW32998   0.979   2.864   2.479
10700SOL    HW132999   0.958   2.767   2.486
10700SOL    HW233000   0.933   2.914   2.552
10701SOL     OW33001   2.603   0.365   1.075
10701SOL    HW133002   2.660   0.282   1.071
10701SOL    HW233003   2.610   0.406   1.165
10702SOL     OW33004   5.121   2.370   0.769
10702SOL    HW133005   5.123   2.469   0.765
10702SOL    HW233006   5.090   2.340   0.859
10703SOL     OW33007   3.678   2.886   4.560
10703SOL    HW133008   3.633   2.828   4.492
10703SOL    HW233009   3.631   2.878   4.647
10704SOL     OW33010   5.733   5.603   2.529
10704SOL    HW133011   5.729   5.529   2.597
10704SOL    HW233012   5.829   5.626   2.512
10705SOL     OW33013   1.494   3.299   6.569
10705SOL    HW133014   1.510   3.388   6.526
10705SOL    HW233015   1.402   3.267   6.546
10706SOL     OW33016   3.503   3.500   1.031
10706SOL    HW133017   3.456   3.412   1.036
10706SOL    HW233018   3.592   3.488   0.986
10707SOL     OW33019   6.019   6.942   6.402
10707SOL    HW133020   6.086   6.946   6.328
10707SOL    HW233021   6.059   6.893   6.479
10708SOL     OW33022   4.769   1.610   1.811
10708SOL    HW133023   4.797   1.695   1.857
10708SOL    HW233024   4.671   1.597   1.824
10709SOL     OW33025   0.745   0.188   5.845
10709SOL    HW133026   0.816   0.256   5.866
10709SOL    HW233027   0.760   0.107   5.902
10710SOL     OW33028   0.329   6.226   3.464
10710SOL    HW133029   0.232   6.251   3.461
10710SOL    HW233030   0.384   6.301   3.430
10711SOL     OW33031   2.107   4.713   5.792
10711SOL    HW133032   2.079   4.802   5.828
10711SOL    HW233033   2.030   4.650   5.797
10712SOL     OW33034   3.355   1.528   6.479
10712SOL    HW133035   3.260   1.498   6.482
10712SOL    HW233036   3.359   1.628   6.473
10713SOL     OW33037   1.968   6.857   0.183
10713SOL    HW133038   1.998   6.907   0.264
10713SOL    HW233039   2.017   6.892   0.103
10714SOL     OW33040   5.493   5.547   4.464
10714SOL    HW133041   5.492   5.625   4.401
10714SOL    HW233042   5.583   5.504   4.463
10715SOL     OW33043   5.965   0.462   2.735
10715SOL    HW133044   6.030   0.527   2.695
10715SOL    HW233045   5.926   0.405   2.663
10716SOL     OW33046   7.021   0.551   1.554
10716SOL    HW133047   7.008   0.453   1.543
10716SOL    HW233048   6.964   0.584   1.629
10717SOL     OW33049   0.501   6.477   1.837
10717SOL    HW133050   0.506   6.451   1.740
10717SOL    HW233051   0.503   6.394   1.894
10718SOL     OW33052   0.891   4.372   5.386
10718SOL    HW133053   0.819   4.326   5.334
10718SOL    HW233054   0.956   4.414   5.324
10719SOL     OW33055   3.700   6.434   2.635
10719SOL    HW133056   3.666   6.340   2.634
10719SOL    HW233057   3.636   6.494   2.588
10720SOL     OW33058   0.490   3.046   6.080
10720SOL    HW133059   0.425   2.982   6.038
10720SOL    HW233060   0.541   3.092   6.008
10721SOL     OW33061   5.309   1.783   4.189
10721SOL    HW133062   5.222   1.751   4.225
10721SOL    HW233063   5.376   1.709   4.190
10722SOL     OW33064   0.541   5.266   0.522
10722SOL    HW133065   0.606   5.218   0.462
10722SOL    HW233066   0.557   5.365   0.515
10723SOL     OW33067   6.750   3.911   6.464
10723SOL    HW133068   6.844   3.933   6.440
10723SOL    HW233069   6.713   3.846   6.398
10724SOL     OW33070   3.527   0.040   5.985
10724SOL    HW133071   3.611   0.077   6.024
10724SOL    HW233072   3.463   0.115   5.964
10725SOL     OW33073   0.249   6.883   5.436
10725SOL    HW133074   0.203   6.952   5.380
10725SOL    HW233075   0.185   6.845   5.503
10726SOL     OW33076   6.928   0.290   3.060
10726SOL    HW133077   6.898   0.350   3.135
10726SOL    HW233078   6.955   0.201   3.097
10727SOL     OW33079   4.674   6.658   6.264
10727SOL    HW133080   4.686   6.632   6.360
10727SOL    HW233081   4.689   6.578   6.206
10728SOL     OW33082   6.050   5.583   3.754
10728SOL    HW133083   6.047   5.525   3.672
10728SOL    HW233084   6.033   5.678   3.728
10729SOL     OW33085   6.953   2.778   4.308
10729SOL    HW133086   6.902   2.770   4.394
10729SOL    HW233087   7.004   2.693   4.291
10730SOL     OW33088   1.447   6.525   4.247
10730SOL    HW133089   1.449   6.624   4.232
10730SOL    HW233090   1.398   6.505   4.332
10731SOL     OW33091   4.971   4.878   6.123
10731SOL    HW133092   4.984   4.817   6.045
10731SOL    HW233093   4.972   4.824   6.208
10732SOL     OW33094   6.419   6.144   2.369
10732SOL    HW133095   6.495   6.156   2.434
10732SOL    HW233096   6.332   6.152   2.417
10733SOL     OW33097   0.232   1.697   6.112
10733SOL    HW133098   0.235   1.751   6.197
10733SOL    HW233099   0.191   1.608   6.131
10734SOL     OW33100   0.525   0.814   4.647
10734SOL    HW133101   0.491   0.892   4.593
10734SOL    HW233102   0.457   0.740   4.645
10735SOL     OW33103   6.796   0.438   1.777
10735SOL    HW133104   6.859   0.403   1.846
10735SOL    HW233105   6.757   0.362   1.726
10736SOL     OW33106   5.971   5.826   3.914
10736SOL    HW133107   5.980   5.912   3.965
10736SOL    HW233108   5.920   5.760   3.969
10737SOL     OW33109   0.016   0.751   1.043
10737SOL    HW133110   6.990   0.670   1.012
10737SOL    HW233111   0.058   0.733   1.132
10738SOL     OW33112   1.958   6.858   1.637
10738SOL    HW133113   1.915   6.798   1.705
10738SOL    HW233114   1.989   6.942   1.682
10739SOL     OW33115   5.104   2.649   4.615
10739SOL    HW133116   5.030   2.629   4.551
10739SOL    HW233117   5.155   2.729   4.583
10740SOL     OW33118   2.870   0.738   5.871
10740SOL    HW133119   2.880   0.643   5.900
10740SOL    HW233120   2.870   0.742   5.771
10741SOL     OW33121   1.283   2.672   4.175
10741SOL    HW133122   1.213   2.606   4.151
10741SOL    HW233123   1.242   2.763   4.186
10742SOL     OW33124   0.267   0.226   2.230
10742SOL    HW133125   0.224   0.145   2.270
10742SOL    HW233126   0.361   0.232   2.261
10743SOL     OW33127   3.315   1.978   5.867
10743SOL    HW133128   3.278   1.933   5.785
10743SOL    HW233129   3.415   1.968   5.867
10744SOL     OW33130   2.268   1.999   1.219
10744SOL    HW133131   2.267   2.087   1.266
10744SOL    HW233132   2.329   2.004   1.140
10745SOL     OW33133   3.162   5.536   1.609
10745SOL    HW133134   3.229   5.491   1.668
10745SOL    HW233135   3.075   5.487   1.613
10746SOL     OW33136   2.237   5.258   6.158
10746SOL    HW133137   2.198   5.324   6.093
10746SOL    HW233138   2.312   5.301   6.208
10747SOL     OW33139   6.948   0.183   4.454
10747SOL    HW133140   6.930   0.262   4.396
10747SOL    HW233141   0.010   0.140   4.425
10748SOL     OW33142   3.013   6.668   2.499
10748SOL    HW133143   2.927   6.702   2.537
10748SOL    HW233144   3.064   6.745   2.461
10749SOL     OW33145   5.254   3.871   1.701
10749SOL    HW133146   5.230   3.960   1.740
10749SOL    HW233147   5.196   3.800   1.741
10750SOL     OW33148   4.019   1.835   3.910
10750SOL    HW133149   3.983   1.782   3.987
10750SOL    HW233150   4.099   1.886   3.939
10751SOL     OW33151   6.564   6.110   3.806
10751SOL    HW133152   6.660   6.125   3.783
10751SOL    HW233153   6.535   6.176   3.875
10752SOL     OW33154   0.391   6.031   6.493
10752SOL    HW133155   0.328   6.050   6.568
10752SOL    HW233156   0.479   6.075   6.513
10753SOL     OW33157   5.442   6.596   4.946
10753SOL    HW133158   5.391   6.626   5.027
10753SOL    HW233159   5.380   6.554   4.881
10754SOL     OW33160   0.447   5.784   2.220
10754SOL    HW133161   0.351   5.791   2.194
10754SOL    HW233162   0.457   5.717   2.293
10755SOL     OW33163   0.144   1.879   1.749
10755SOL    HW133164   0.224   1.928   1.783
10755SOL    HW233165   0.173   1.794   1.705
10756SOL     OW33166   1.420   0.125   6.187
10756SOL    HW133167   1.350   0.161   6.125
10756SOL    HW233168   1.384   0.126   6.281
10757SOL     OW33169   7.021   2.973   1.753
10757SOL    HW133170   6.956   2.897   1.745
10757SOL    HW233171   6.971   3.059   1.768
10758SOL     OW33172   1.213   1.748   0.768
10758SOL    HW133173   1.157   1.776   0.690
10758SOL    HW233174   1.264   1.665   0.745
10759SOL     OW33175   3.829   4.103   4.949
10759SOL    HW133176   3.911   4.152   4.978
10759SOL    HW233177   3.842   4.005   4.962
10760SOL     OW33178   0.978   4.932   6.650
10760SOL    HW133179   0.923   4.883   6.718
10760SOL    HW233180   0.918   4.989   6.594
10761SOL     OW33181   1.535   1.167   6.658
10761SOL    HW133182   1.488   1.147   6.572
10761SOL    HW233183   1.629   1.133   6.653
10762SOL     OW33184   1.805   6.518   0.473
10762SOL    HW133185   1.867   6.568   0.414
10762SOL    HW233186   1.808   6.557   0.566
10763SOL     OW33187   5.039   1.054   2.433
10763SOL    HW133188   5.125   1.010   2.406
10763SOL    HW233189   5.046   1.153   2.418
10764SOL     OW33190   5.369   6.169   5.095
10764SOL    HW133191   5.462   6.193   5.068
10764SOL    HW233192   5.327   6.113   5.023
10765SOL     OW33193   0.418   2.522   0.880
10765SOL    HW133194   0.417   2.457   0.956
10765SOL    HW233195   0.442   2.613   0.913
10766SOL     OW33196   2.597   4.822   6.472
10766SOL    HW133197   2.548   4.876   6.540
10766SOL    HW233198   2.545   4.819   6.387
10767SOL     OW33199   1.886   5.101   6.823
10767SOL    HW133200   1.950   5.028   6.846
10767SOL    HW233201   1.937   5.182   6.793
10768SOL     OW33202   5.216   6.028   6.542
10768SOL    HW133203   5.227   5.975   6.626
10768SOL    HW233204   5.290   6.094   6.533
10769SOL     OW33205   3.068   3.830   4.484
10769SOL    HW133206   3.083   3.884   4.401
10769SOL    HW233207   3.153   3.788   4.513
10770SOL     OW33208   4.724   6.857   3.676
10770SOL    HW133209   4.720   6.781   3.740
10770SOL    HW233210   4.782   6.929   3.713
10771SOL     OW33211   4.250   5.834   5.889
10771SOL    HW133212   4.321   5.888   5.845
10771SOL    HW233213   4.243   5.861   5.985
10772SOL     OW33214   4.708   4.147   3.253
10772SOL    HW133215   4.713   4.144   3.353
10772SOL    HW233216   4.613   4.152   3.224
10773SOL     OW33217   0.648   4.032   0.462
10773SOL    HW133218   0.726   4.085   0.429
10773SOL    HW233219   0.598   4.087   0.530
10774SOL     OW33220   0.506   3.310   0.916
10774SOL    HW133221   0.442   3.319   0.992
10774SOL    HW233222   0.465   3.350   0.834
10775SOL     OW33223   2.218   4.612   0.281
10775SOL    HW133224   2.161   4.609   0.363
10775SOL    HW233225   2.167   4.575   0.203
10776SOL     OW33226   0.729   3.452   3.126
10776SOL    HW133227   0.758   3.425   3.218
10776SOL    HW233228   0.689   3.544   3.129
10777SOL     OW33229   1.756   0.148   1.531
10777SOL    HW133230   1.854   0.168   1.524
10777SOL    HW233231   1.705   0.217   1.480
10778SOL     OW33232   4.554   0.272   3.387
10778SOL    HW133233   4.537   0.311   3.477
10778SOL    HW233234   4.650   0.287   3.361
10779SOL     OW33235   5.953   2.821   6.149
10779SOL    HW133236   5.978   2.914   6.123
10779SOL    HW233237   5.856   2.807   6.131
10780SOL     OW33238   1.171   4.900   5.043
10780SOL    HW133239   1.220   4.955   4.975
10780SOL    HW233240   1.237   4.855   5.103
10781SOL     OW33241   6.239   2.461   5.975
10781SOL    HW133242   6.268   2.385   5.916
10781SOL    HW233243   6.197   2.424   6.058
10782SOL     OW33244   1.110   3.360   5.292
10782SOL    HW133245   1.179   3.294   5.261
10782SOL    HW233246   1.045   3.314   5.352
10783SOL     OW33247   1.673   4.019   3.755
10783SOL    HW133248   1.664   4.040   3.658
10783SOL    HW233249   1.710   4.098   3.803
10784SOL     OW33250   4.780   5.388   3.984
10784SOL    HW133251   4.865   5.440   3.973
10784SOL    HW233252   4.800   5.290   3.977
10785SOL     OW33253   1.560   5.159   1.725
10785SOL    HW133254   1.482   5.204   1.769
10785SOL    HW233255   1.602   5.096   1.789
10786SOL     OW33256   5.174   1.380   2.587
10786SOL    HW133257   5.184   1.343   2.680
10786SOL    HW233258   5.239   1.336   2.526
10787SOL     OW33259   3.660   1.511   3.533
10787SOL    HW133260   3.703   1.584   3.479
10787SOL    HW233261   3.675   1.529   3.630
10788SOL     OW33262   1.567   3.004   6.897
10788SOL    HW133263   1.520   3.092   6.906
10788SOL    HW233264   1.502   2.935   6.866
10789SOL     OW33265   6.240   1.798   2.439
10789SOL    HW133266   6.235   1.823   2.343
10789SOL    HW233267   6.196   1.868   2.494
10790SOL     OW33268   6.848   2.152   5.408
10790SOL    HW133269   6.946   2.166   5.423
10790SOL    HW233270   6.834   2.066   5.358
10791SOL     OW33271   1.846   3.327   3.684
10791SOL    HW133272   1.929   3.363   3.726
10791SOL    HW233273   1.824   3.238   3.725
10792SOL     OW33274   3.770   1.398   2.237
10792SOL    HW133275   3.688   1.451   2.259
10792SOL    HW233276   3.746   1.301   2.226
10793SOL     OW33277   3.390   1.889   4.684
10793SOL    HW133278   3.328   1.964   4.662
10793SOL    HW233279   3.346   1.826   4.747
10794SOL     OW33280   4.698   3.035   6.493
10794SOL    HW133281   4.688   3.103   6.420
10794SOL    HW233282   4.793   3.031   6.522
10795SOL     OW33283   5.898   3.277   3.723
10795SOL    HW133284   5.894   3.297   3.625
10795SOL    HW233285   5.936   3.356   3.772
10796SOL     OW33286   0.303   1.413   6.537
10796SOL    HW133287   0.348   1.472   6.470
10796SOL    HW233288   0.204   1.422   6.529
10797SOL     OW33289   5.386   4.928   6.511
10797SOL    HW133290   5.449   4.853   6.532
10797SOL    HW233291   5.394   4.953   6.415
10798SOL     OW33292   1.986   5.889   0.289
10798SOL    HW133293   2.030   5.978   0.279
10798SOL    HW233294   1.984   5.864   0.386
10799SOL     OW33295   2.152   0.663   2.616
10799SOL    HW133296   2.213   0.727   2.569
10799SOL    HW233297   2.165   0.670   2.715
10800SOL     OW33298   2.046   0.514   4.600
10800SOL    HW133299   1.982   0.441   4.575
10800SOL    HW233300   2.137   0.474   4.613
10801SOL     OW33301   2.879   6.167   6.803
10801SOL    HW133302   2.790   6.132   6.771
10801SOL    HW233303   2.952   6.115   6.759
10802SOL     OW33304   1.001   4.960   4.083
10802SOL    HW133305   1.030   4.945   3.989
10802SOL    HW233306   0.988   4.871   4.128
10803SOL     OW33307   6.705   4.246   4.452
10803SOL    HW133308   6.752   4.277   4.534
10803SOL    HW233309   6.772   4.210   4.387
10804SOL     OW33310   3.983   4.600   0.466
10804SOL    HW133311   3.934   4.598   0.554
10804SOL    HW233312   3.978   4.509   0.424
10805SOL     OW33313   4.476   6.236   0.594
10805SOL    HW133314   4.463   6.192   0.683
10805SOL    HW233315   4.550   6.190   0.545
10806SOL     OW33316   5.358   2.954   6.115
10806SOL    HW133317   5.361   2.955   6.215
10806SOL    HW233318   5.263   2.955   6.085
10807SOL     OW33319   4.569   2.151   5.517
10807SOL    HW133320   4.502   2.215   5.554
10807SOL    HW233321   4.580   2.167   5.419
10808SOL     OW33322   0.269   2.086   0.082
10808SOL    HW133323   0.239   2.158   0.020
10808SOL    HW233324   0.340   2.031   0.038
10809SOL     OW33325   1.141   0.706   2.348
10809SOL    HW133326   1.114   0.800   2.329
10809SOL    HW233327   1.240   0.698   2.343
10810SOL     OW33328   1.832   0.856   6.141
10810SOL    HW133329   1.737   0.888   6.136
10810SOL    HW233330   1.893   0.929   6.112
10811SOL     OW33331   4.160   6.195   6.471
10811SOL    HW133332   4.155   6.200   6.372
10811SOL    HW233333   4.165   6.099   6.499
10812SOL     OW33334   6.519   2.822   3.188
10812SOL    HW133335   6.617   2.831   3.170
10812SOL    HW233336   6.487   2.901   3.239
10813SOL     OW33337   2.958   5.986   2.255
10813SOL    HW133338   2.868   6.024   2.234
10813SOL    HW233339   2.956   5.944   2.346
10814SOL     OW33340   1.952   6.422   4.759
10814SOL    HW133341   2.027   6.440   4.695
10814SOL    HW233342   1.977   6.346   4.819
10815SOL     OW33343   5.137   1.561   5.803
10815SOL    HW133344   5.071   1.490   5.824
10815SOL    HW233345   5.174   1.546   5.711
10816SOL     OW33346   2.530   1.609   1.595
10816SOL    HW133347   2.484   1.655   1.671
10816SOL    HW233348   2.609   1.663   1.566
10817SOL     OW33349   3.540   1.750   2.117
10817SOL    HW133350   3.586   1.700   2.044
10817SOL    HW233351   3.571   1.844   2.118
10818SOL     OW33352   4.664   3.762   6.028
10818SOL    HW133353   4.627   3.766   6.121
10818SOL    HW233354   4.686   3.667   6.005
10819SOL     OW33355   2.046   3.933   5.057
10819SOL    HW133356   2.120   3.974   5.003
10819SOL    HW233357   2.085   3.866   5.120
10820SOL     OW33358   0.844   5.919   5.259
10820SOL    HW133359   0.921   5.948   5.316
10820SOL    HW233360   0.822   5.824   5.279
10821SOL     OW33361   0.386   0.635   0.064
10821SOL    HW133362   0.436   0.709   0.110
10821SOL    HW233363   0.359   0.566   0.132
10822SOL     OW33364   0.773   4.649   6.207
10822SOL    HW133365   0.708   4.667   6.133
10822SOL    HW233366   0.828   4.568   6.185
10823SOL     OW33367   1.698   2.454   0.645
10823SOL    HW133368   1.682   2.420   0.552
10823SOL    HW233369   1.662   2.547   0.653
10824SOL     OW33370   5.204   1.293   4.473
10824SOL    HW133371   5.268   1.291   4.550
10824SOL    HW233372   5.218   1.377   4.420
10825SOL     OW33373   3.022   1.258   2.476
10825SOL    HW133374   2.999   1.243   2.572
10825SOL    HW233375   3.122   1.263   2.466
10826SOL     OW33376   6.515   3.613   1.483
10826SOL    HW133377   6.544   3.625   1.388
10826SOL    HW233378   6.527   3.517   1.510
10827SOL     OW33379   0.741   2.636   4.445
10827SOL    HW133380   0.648   2.617   4.412
10827SOL    HW233381   0.774   2.556   4.496
10828SOL     OW33382   2.597   4.579   0.069
10828SOL    HW133383   2.628   4.496   0.116
10828SOL    HW233384   2.584   4.559   6.995
10829SOL     OW33385   2.343   4.157   2.002
10829SOL    HW133386   2.331   4.233   2.066
10829SOL    HW233387   2.425   4.171   1.948
10830SOL     OW33388   6.070   0.820   3.656
10830SOL    HW133389   5.984   0.815   3.605
10830SOL    HW233390   6.116   0.731   3.652
10831SOL     OW33391   5.151   2.215   2.107
10831SOL    HW133392   5.236   2.197   2.057
10831SOL    HW233393   5.171   2.231   2.203
10832SOL     OW33394   0.705   2.981   2.416
10832SOL    HW133395   0.667   2.908   2.358
10832SOL    HW233396   0.801   2.962   2.434
10833SOL     OW33397   3.102   0.106   4.345
10833SOL    HW133398   3.040   0.080   4.271
10833SOL    HW233399   3.070   0.067   4.431
10834SOL     OW33400   0.082   1.465   6.131
10834SOL    HW133401   0.034   1.535   6.184
10834SOL    HW233402   0.076   1.377   6.177
10835SOL     OW33403   0.972   2.149   0.722
10835SOL    HW133404   0.874   2.145   0.699
10835SOL    HW233405   0.983   2.192   0.812
10836SOL     OW33406   1.033   2.633   1.068
10836SOL    HW133407   0.971   2.617   0.991
10836SOL    HW233408   0.994   2.702   1.128
10837SOL     OW33409   0.815   5.534   0.725
10837SOL    HW133410   0.808   5.441   0.761
10837SOL    HW233411   0.754   5.543   0.646
10838SOL     OW33412   6.290   6.208   0.720
10838SOL    HW133413   6.358   6.254   0.776
10838SOL    HW233414   6.332   6.130   0.674
10839SOL     OW33415   2.211   1.940   6.643
10839SOL    HW133416   2.159   2.021   6.671
10839SOL    HW233417   2.266   1.908   6.721
10840SOL     OW33418   2.008   0.406   2.949
10840SOL    HW133419   1.908   0.416   2.954
10840SOL    HW233420   2.049   0.435   3.036
10841SOL     OW33421   4.679   3.944   0.863
10841SOL    HW133422   4.772   3.975   0.841
10841SOL    HW233423   4.644   3.997   0.940
10842SOL     OW33424   6.266   1.903   1.663
10842SOL    HW133425   6.324   1.881   1.742
10842SOL    HW233426   6.236   1.998   1.669
10843SOL     OW33427   1.065   2.391   1.196
10843SOL    HW133428   1.056   2.484   1.160
10843SOL    HW233429   1.127   2.338   1.138
10844SOL     OW33430   5.131   6.852   4.290
10844SOL    HW133431   5.170   6.778   4.344
10844SOL    HW233432   5.174   6.854   4.200
10845SOL     OW33433   2.243   3.199   1.203
10845SOL    HW133434   2.332   3.223   1.241
10845SOL    HW233435   2.176   3.269   1.228
10846SOL     OW33436   3.675   2.815   2.158
10846SOL    HW133437   3.737   2.769   2.095
10846SOL    HW233438   3.655   2.907   2.125
10847SOL     OW33439   4.597   1.928   5.659
10847SOL    HW133440   4.575   2.012   5.610
10847SOL    HW233441   4.687   1.895   5.631
10848SOL     OW33442   1.653   0.652   6.839
10848SOL    HW133443   1.680   0.747   6.823
10848SOL    HW233444   1.630   0.640   6.936
10849SOL     OW33445   1.438   4.608   4.477
10849SOL    HW133446   1.384   4.525   4.483
10849SOL    HW233447   1.492   4.607   4.392
10850SOL     OW33448   5.820   0.712   2.645
10850SOL    HW133449   5.766   0.628   2.648
10850SOL    HW233450   5.874   0.714   2.561
10851SOL     OW33451   4.795   2.516   6.909
10851SOL    HW133452   4.879   2.570   6.903
10851SOL    HW233453   4.716   2.575   6.892
10852SOL     OW33454   5.890   0.848   6.064
10852SOL    HW133455   5.797   0.834   6.099
10852SOL    HW233456   5.929   0.930   6.106
10853SOL     OW33457   3.310   0.486   4.847
10853SOL    HW133458   3.383   0.506   4.913
10853SOL    HW233459   3.337   0.519   4.757
10854SOL     OW33460   6.141   0.072   0.476
10854SOL    HW133461   6.124   0.164   0.512
10854SOL    HW233462   6.110   0.004   0.542
10855SOL     OW33463   0.493   5.780   1.465
10855SOL    HW133464   0.553   5.821   1.397
10855SOL    HW233465   0.548   5.739   1.538
10856SOL     OW33466   5.366   6.270   6.585
10856SOL    HW133467   5.389   6.301   6.678
10856SOL    HW233468   5.353   6.349   6.526
10857SOL     OW33469   6.554   6.727   4.634
10857SOL    HW133470   6.501   6.767   4.709
10857SOL    HW233471   6.524   6.768   4.548
10858SOL     OW33472   1.630   2.375   0.397
10858SOL    HW133473   1.648   2.462   0.350
10858SOL    HW233474   1.542   2.339   0.367
10859SOL     OW33475   2.390   5.244   2.351
10859SOL    HW133476   2.429   5.309   2.417
10859SOL    HW233477   2.291   5.236   2.368
10860SOL     OW33478   5.986   1.550   1.378
10860SOL    HW133479   5.922   1.508   1.314
10860SOL    HW233480   5.975   1.508   1.468
10861SOL     OW33481   1.949   4.132   1.360
10861SOL    HW133482   1.956   4.186   1.443
10861SOL    HW233483   2.009   4.052   1.367
10862SOL     OW33484   3.511   4.138   5.347
10862SOL    HW133485   3.501   4.139   5.248
10862SOL    HW233486   3.427   4.104   5.389
10863SOL     OW33487   1.294   0.245   3.297
10863SOL    HW133488   1.315   0.271   3.392
10863SOL    HW233489   1.325   0.318   3.236
10864SOL     OW33490   3.117   4.001   1.867
10864SOL    HW133491   3.116   4.029   1.963
10864SOL    HW233492   3.104   4.082   1.809
10865SOL     OW33493   2.644   2.116   2.906
10865SOL    HW133494   2.590   2.098   2.824
10865SOL    HW233495   2.664   2.029   2.952
10866SOL     OW33496   1.149   3.318   4.326
10866SOL    HW133497   1.231   3.356   4.285
10866SOL    HW233498   1.133   3.360   4.415
10867SOL     OW33499   4.913   2.805   0.225
10867SOL    HW133500   4.906   2.839   0.319
10867SOL    HW233501   4.831   2.754   0.201
10868SOL     OW33502   1.157   0.015   5.308
10868SOL    HW133503   1.084   0.083   5.317
10868SOL    HW233504   1.196   0.021   5.215
10869NA      NA33505   0.156   1.062   6.625
10870NA      NA33506   4.678   4.827   5.064
10871NA      NA33507   0.686   4.880   3.218
10872NA      NA33508   6.179   3.696   3.451
10873NA      NA33509   4.054   2.303   5.289
10874NA      NA33510   2.290   3.910   6.850
10875NA      NA33511   1.540   5.412   0.606
10876NA      NA33512   4.134   4.888   2.355
10877NA      NA33513   5.258   3.243   1.367
10878NA      NA33514   3.826   1.720   0.511
10879NA      NA33515   5.496   6.588   1.323
10880NA      NA33516   2.812   6.739   4.654
10881NA      NA33517   3.962   5.444   2.770
10882NA      NA33518   4.081   5.032   6.682
   7.02291   7.02291   7.02291
