Generated by trjconv : CNT in water t= 356.00000
33518
    1C        C    1   2.841   2.766   4.747
    1C        C    2   2.896   2.716   4.867
    1C        C    3   2.845   2.773   4.984
    1C        C    4   2.849   2.773   4.260
    1C        C    5   2.899   2.724   4.383
    1C        C    6   2.845   2.770   4.505
    1C        C    7   3.011   2.637   4.627
    1C        C    8   2.893   2.715   4.626
    1C        C    9   3.076   2.602   4.747
    1C        C   10   3.005   2.626   4.867
    1C        C   11   3.180   2.495   4.977
    1C        C   12   3.057   2.561   4.980
    1C        C   13   2.853   2.773   3.774
    1C        C   14   2.907   2.725   3.895
    1C        C   15   2.855   2.778   4.015
    1C        C   16   3.018   2.643   4.137
    1C        C   17   2.907   2.732   4.138
    1C        C   18   3.077   2.609   4.260
    1C        C   19   3.012   2.639   4.382
    1C        C   20   3.205   2.552   4.503
    1C        C   21   3.074   2.603   4.505
    1C        C   22   3.276   2.539   4.624
    1C        C   23   3.209   2.552   4.748
    1C        C   24   3.413   2.486   4.863
    1C        C   25   3.271   2.506   4.867
    1C        C   26   3.490   2.483   4.980
    1C        C   27   2.851   2.769   3.284
    1C        C   28   2.906   2.723   3.405
    1C        C   29   2.853   2.772   3.526
    1C        C   30   3.018   2.643   3.650
    1C        C   31   2.905   2.728   3.650
    1C        C   32   3.078   2.603   3.771
    1C        C   33   3.018   2.637   3.894
    1C        C   34   3.211   2.550   4.016
    1C        C   35   3.079   2.603   4.016
    1C        C   36   3.277   2.532   4.139
    1C        C   37   3.207   2.555   4.260
    1C        C   38   3.415   2.507   4.381
    1C        C   39   3.275   2.531   4.382
    1C        C   40   3.486   2.500   4.503
    1C        C   41   3.414   2.511   4.624
    1C        C   42   3.629   2.482   4.742
    1C        C   43   3.487   2.486   4.742
    1C        C   44   3.705   2.489   4.862
    1C        C   45   3.629   2.481   4.979
    1C        C   46   2.836   2.751   2.794
    1C        C   47   2.894   2.709   2.915
    1C        C   48   2.843   2.761   3.037
    1C        C   49   3.015   2.639   3.161
    1C        C   50   2.899   2.720   3.160
    1C        C   51   3.077   2.602   3.282
    1C        C   52   3.019   2.638   3.406
    1C        C   53   3.207   2.543   3.528
    1C        C   54   3.080   2.605   3.529
    1C        C   55   3.277   2.526   3.650
    1C        C   56   3.209   2.551   3.771
    1C        C   57   3.415   2.505   3.894
    1C        C   58   3.275   2.525   3.893
    1C        C   59   3.488   2.502   4.015
    1C        C   60   3.416   2.508   4.137
    1C        C   61   3.627   2.501   4.258
    1C        C   62   3.486   2.499   4.260
    1C        C   63   3.700   2.505   4.379
    1C        C   64   3.627   2.494   4.500
    1C        C   65   3.835   2.543   4.621
    1C        C   66   3.700   2.500   4.621
    1C        C   67   3.904   2.562   4.743
    1C        C   68   3.839   2.531   4.864
    1C        C   69   4.057   2.579   4.973
    1C        C   70   3.924   2.535   4.976
    1C        C   71   2.822   2.732   2.308
    1C        C   72   2.882   2.691   2.429
    1C        C   73   2.832   2.745   2.550
    1C        C   74   3.006   2.625   2.672
    1C        C   75   2.887   2.701   2.672
    1C        C   76   3.072   2.595   2.794
    1C        C   77   3.016   2.636   2.917
    1C        C   78   3.204   2.543   3.039
    1C        C   79   3.075   2.600   3.040
    1C        C   80   3.273   2.526   3.161
    1C        C   81   3.207   2.545   3.284
    1C        C   82   3.414   2.500   3.401
    1C        C   83   3.274   2.520   3.406
    1C        C   84   3.485   2.498   3.524
    1C        C   85   3.416   2.501   3.647
    1C        C   86   3.626   2.502   3.768
    1C        C   87   3.485   2.497   3.771
    1C        C   88   3.694   2.512   3.891
    1C        C   89   3.629   2.504   4.016
    1C        C   90   3.836   2.549   4.135
    1C        C   91   3.700   2.512   4.138
    1C        C   92   3.902   2.571   4.258
    1C        C   93   3.836   2.542   4.380
    1C        C   94   4.030   2.629   4.499
    1C        C   95   3.906   2.563   4.501
    1C        C   96   4.091   2.669   4.620
    1C        C   97   4.031   2.626   4.740
    1C        C   98   4.192   2.766   4.863
    1C        C   99   4.100   2.657   4.861
    1C        C  100   4.219   2.841   4.978
    1C        C  101   2.823   2.732   2.066
    1C        C  102   2.992   2.598   2.189
    1C        C  103   2.876   2.681   2.186
    1C        C  104   3.062   2.574   2.311
    1C        C  105   3.002   2.616   2.431
    1C        C  106   3.201   2.534   2.550
    1C        C  107   3.070   2.588   2.552
    1C        C  108   3.269   2.519   2.673
    1C        C  109   3.202   2.541   2.795
    1C        C  110   3.410   2.499   2.914
    1C        C  111   3.270   2.517   2.917
    1C        C  112   3.482   2.500   3.035
    1C        C  113   3.413   2.508   3.158
    1C        C  114   3.627   2.505   3.278
    1C        C  115   3.486   2.503   3.279
    1C        C  116   3.695   2.514   3.402
    1C        C  117   3.626   2.507   3.525
    1C        C  118   3.834   2.547   3.643
    1C        C  119   3.697   2.514   3.646
    1C        C  120   3.898   2.570   3.767
    1C        C  121   3.831   2.549   3.889
    1C        C  122   4.025   2.636   4.013
    1C        C  123   3.899   2.573   4.010
    1C        C  124   4.089   2.670   4.134
    1C        C  125   4.029   2.632   4.256
    1C        C  126   4.197   2.762   4.374
    1C        C  127   4.088   2.672   4.378
    1C        C  128   4.244   2.816   4.495
    1C        C  129   4.192   2.768   4.618
    1C        C  130   4.324   2.934   4.740
    1C        C  131   4.241   2.818   4.740
    1C        C  132   4.350   3.008   4.857
    1C        C  133   4.289   2.961   4.974
    1C        C  134   3.171   2.470   2.085
    1C        C  135   3.037   2.510   2.085
    1C        C  136   3.261   2.478   2.193
    1C        C  137   3.190   2.513   2.310
    1C        C  138   3.405   2.483   2.429
    1C        C  139   3.265   2.500   2.429
    1C        C  140   3.481   2.491   2.548
    1C        C  141   3.409   2.498   2.669
    1C        C  142   3.621   2.501   2.795
    1C        C  143   3.480   2.493   2.791
    1C        C  144   3.695   2.508   2.915
    1C        C  145   3.623   2.496   3.036
    1C        C  146   3.835   2.541   3.155
    1C        C  147   3.698   2.510   3.156
    1C        C  148   3.902   2.560   3.278
    1C        C  149   3.833   2.543   3.401
    1C        C  150   4.030   2.630   3.521
    1C        C  151   3.901   2.572   3.521
    1C        C  152   4.090   2.664   3.645
    1C        C  153   4.025   2.633   3.767
    1C        C  154   4.192   2.763   3.886
    1C        C  155   4.083   2.672   3.889
    1C        C  156   4.244   2.812   4.008
    1C        C  157   4.197   2.761   4.131
    1C        C  158   4.336   2.924   4.254
    1C        C  159   4.247   2.814   4.253
    1C        C  160   4.378   2.980   4.376
    1C        C  161   4.330   2.929   4.499
    1C        C  162   4.431   3.118   4.617
    1C        C  163   4.366   2.993   4.619
    1C        C  164   4.463   3.185   4.737
    1C        C  165   4.431   3.124   4.860
    1C        C  166   4.527   3.319   4.973
    1C        C  167   4.483   3.187   4.974
    1C        C  168   3.475   2.428   2.074
    1C        C  169   3.401   2.459   2.189
    1C        C  170   3.619   2.473   2.307
    1C        C  171   3.477   2.466   2.308
    1C        C  172   3.692   2.493   2.426
    1C        C  173   3.622   2.493   2.549
    1C        C  174   3.828   2.540   2.666
    1C        C  175   3.690   2.508   2.672
    1C        C  176   3.898   2.559   2.787
    1C        C  177   3.833   2.539   2.911
    1C        C  178   4.028   2.626   3.030
    1C        C  179   3.899   2.568   3.032
    1C        C  180   4.089   2.661   3.152
    1C        C  181   4.029   2.622   3.274
    1C        C  182   4.199   2.748   3.397
    1C        C  183   4.088   2.660   3.396
    1C        C  184   4.249   2.800   3.518
    1C        C  185   4.201   2.751   3.642
    1C        C  186   4.340   2.912   3.762
    1C        C  187   4.251   2.803   3.764
    1C        C  188   4.377   2.970   3.885
    1C        C  189   4.337   2.918   4.010
    1C        C  190   4.437   3.108   4.128
    1C        C  191   4.376   2.981   4.131
    1C        C  192   4.465   3.173   4.251
    1C        C  193   4.443   3.106   4.373
    1C        C  194   4.502   3.313   4.490
    1C        C  195   4.463   3.178   4.493
    1C        C  196   4.520   3.385   4.610
    1C        C  197   4.511   3.319   4.735
    1C        C  198   4.552   3.534   4.852
    1C        C  199   4.542   3.391   4.854
    1C        C  200   4.579   3.621   4.963
    1C        C  201   3.615   2.418   2.074
    1C        C  202   3.827   2.513   2.183
    1C        C  203   3.692   2.462   2.186
    1C        C  204   3.900   2.542   2.301
    1C        C  205   3.830   2.523   2.422
    1C        C  206   4.020   2.623   2.542
    1C        C  207   3.895   2.556   2.543
    1C        C  208   4.083   2.660   2.663
    1C        C  209   4.023   2.623   2.786
    1C        C  210   4.200   2.743   2.909
    1C        C  211   4.090   2.656   2.906
    1C        C  212   4.258   2.789   3.030
    1C        C  213   4.203   2.745   3.152
    1C        C  214   4.339   2.907   3.274
    1C        C  215   4.249   2.798   3.274
    1C        C  216   4.378   2.966   3.396
    1C        C  217   4.337   2.910   3.519
    1C        C  218   4.435   3.101   3.639
    1C        C  219   4.378   2.972   3.640
    1C        C  220   4.459   3.166   3.762
    1C        C  221   4.433   3.100   3.884
    1C        C  222   4.501   3.305   4.002
    1C        C  223   4.459   3.170   4.003
    1C        C  224   4.511   3.378   4.123
    1C        C  225   4.502   3.309   4.246
    1C        C  226   4.522   3.522   4.366
    1C        C  227   4.518   3.380   4.367
    1C        C  228   4.522   3.595   4.487
    1C        C  229   4.532   3.526   4.610
    1C        C  230   4.503   3.740   4.726
    1C        C  231   4.535   3.602   4.729
    1C        C  232   4.494   3.820   4.842
    1C        C  233   4.546   3.757   4.956
    1C        C  234   4.017   2.613   2.062
    1C        C  235   3.894   2.547   2.065
    1C        C  236   4.086   2.648   2.178
    1C        C  237   4.025   2.610   2.300
    1C        C  238   4.203   2.731   2.423
    1C        C  239   4.085   2.653   2.421
    1C        C  240   4.255   2.784   2.543
    1C        C  241   4.200   2.741   2.666
    1C        C  242   4.345   2.897   2.785
    1C        C  243   4.252   2.791   2.787
    1C        C  244   4.384   2.958   2.907
    1C        C  245   4.344   2.901   3.030
    1C        C  246   4.442   3.092   3.151
    1C        C  247   4.381   2.964   3.151
    1C        C  248   4.462   3.159   3.273
    1C        C  249   4.437   3.094   3.396
    1C        C  250   4.494   3.302   3.515
    1C        C  251   4.461   3.165   3.516
    1C        C  252   4.503   3.372   3.637
    1C        C  253   4.490   3.304   3.761
    1C        C  254   4.514   3.517   3.876
    1C        C  255   4.512   3.376   3.880
    1C        C  256   4.513   3.588   3.999
    1C        C  257   4.520   3.519   4.121
    1C        C  258   4.490   3.729   4.242
    1C        C  259   4.518   3.590   4.243
    1C        C  260   4.473   3.801   4.363
    1C        C  261   4.489   3.732   4.485
    1C        C  262   4.426   3.940   4.603
    1C        C  263   4.477   3.808   4.604
    1C        C  264   4.395   4.009   4.721
    1C        C  265   4.428   3.945   4.842
    1C        C  266   4.321   4.134   4.960
    1C        C  267   4.387   4.011   4.959
    1C        C  268   4.268   2.770   2.064
    1C        C  269   4.200   2.731   2.180
    1C        C  270   4.346   2.888   2.298
    1C        C  271   4.258   2.777   2.301
    1C        C  272   4.383   2.950   2.420
    1C        C  273   4.344   2.894   2.543
    1C        C  274   4.448   3.083   2.663
    1C        C  275   4.384   2.957   2.663
    1C        C  276   4.476   3.150   2.784
    1C        C  277   4.449   3.083   2.905
    1C        C  278   4.500   3.291   3.026
    1C        C  279   4.469   3.153   3.026
    1C        C  280   4.505   3.364   3.147
    1C        C  281   4.493   3.297   3.270
    1C        C  282   4.513   3.511   3.390
    1C        C  283   4.504   3.370   3.391
    1C        C  284   4.512   3.582   3.512
    1C        C  285   4.515   3.513   3.635
    1C        C  286   4.494   3.729   3.752
    1C        C  287   4.511   3.588   3.754
    1C        C  288   4.477   3.796   3.875
    1C        C  289   4.491   3.728   3.999
    1C        C  290   4.429   3.932   4.116
    1C        C  291   4.476   3.798   4.120
    1C        C  292   4.401   4.001   4.236
    1C        C  293   4.428   3.935   4.358
    1C        C  294   4.329   4.125   4.477
    1C        C  295   4.397   4.001   4.479
    1C        C  296   4.288   4.188   4.596
    1C        C  297   4.325   4.134   4.721
    1C        C  298   4.205   4.317   4.838
    1C        C  299   4.288   4.200   4.841
    1C        C  300   4.165   4.403   4.946
    1C        C  301   4.357   2.877   2.063
    1C        C  302   4.471   3.068   2.178
    1C        C  303   4.400   2.943   2.179
    1C        C  304   4.481   3.141   2.299
    1C        C  305   4.445   3.077   2.420
    1C        C  306   4.510   3.283   2.537
    1C        C  307   4.472   3.147   2.539
    1C        C  308   4.514   3.355   2.658
    1C        C  309   4.505   3.288   2.782
    1C        C  310   4.522   3.501   2.901
    1C        C  311   4.514   3.360   2.904
    1C        C  312   4.513   3.573   3.022
    1C        C  313   4.511   3.506   3.146
    1C        C  314   4.485   3.719   3.263
    1C        C  315   4.506   3.579   3.267
    1C        C  316   4.465   3.786   3.385
    1C        C  317   4.479   3.720   3.509
    1C        C  318   4.426   3.928   3.628
    1C        C  319   4.472   3.794   3.629
    1C        C  320   4.396   3.991   3.750
    1C        C  321   4.425   3.927   3.873
    1C        C  322   4.316   4.110   3.992
    1C        C  323   4.396   3.994   3.994
    1C        C  324   4.276   4.168   4.114
    1C        C  325   4.325   4.119   4.237
    1C        C  326   4.189   4.289   4.355
    1C        C  327   4.283   4.183   4.356
    1C        C  328   4.134   4.337   4.476
    1C        C  329   4.190   4.289   4.597
    1C        C  330   4.024   4.429   4.712
    1C        C  331   4.143   4.351   4.715
    1C        C  332   3.965   4.488   4.825
    1C        C  333   4.047   4.477   4.939
    1C        C  334   4.550   3.266   2.061
    1C        C  335   4.537   3.127   2.065
    1C        C  336   4.535   3.350   2.173
    1C        C  337   4.509   3.280   2.293
    1C        C  338   4.518   3.493   2.413
    1C        C  339   4.522   3.352   2.414
    1C        C  340   4.516   3.567   2.533
    1C        C  341   4.516   3.497   2.655
    1C        C  342   4.489   3.708   2.774
    1C        C  343   4.514   3.569   2.777
    1C        C  344   4.476   3.779   2.895
    1C        C  345   4.488   3.712   3.019
    1C        C  346   4.426   3.919   3.138
    1C        C  347   4.472   3.785   3.139
    1C        C  348   4.394   3.986   3.258
    1C        C  349   4.425   3.922   3.380
    1C        C  350   4.323   4.107   3.504
    1C        C  351   4.398   3.987   3.503
    1C        C  352   4.276   4.166   3.624
    1C        C  353   4.318   4.109   3.746
    1C        C  354   4.177   4.267   3.868
    1C        C  355   4.274   4.165   3.868
    1C        C  356   4.122   4.314   3.989
    1C        C  357   4.175   4.268   4.111
    1C        C  358   4.012   4.403   4.229
    1C        C  359   4.131   4.326   4.232
    1C        C  360   3.954   4.448   4.349
    1C        C  361   4.016   4.414   4.472
    1C        C  362   3.825   4.513   4.590
    1C        C  363   3.954   4.455   4.592
    1C        C  364   3.758   4.544   4.710
    1C        C  365   3.833   4.538   4.829
    1C        C  366   3.626   4.587   4.950
    1C        C  367   3.765   4.576   4.945
    1C        C  368   4.498   3.563   2.056
    1C        C  369   4.523   3.491   2.174
    1C        C  370   4.502   3.708   2.286
    1C        C  371   4.513   3.567   2.292
    1C        C  372   4.487   3.777   2.408
    1C        C  373   4.496   3.707   2.531
    1C        C  374   4.424   3.909   2.651
    1C        C  375   4.476   3.777   2.652
    1C        C  376   4.398   3.976   2.772
    1C        C  377   4.427   3.912   2.895
    1C        C  378   4.329   4.103   3.015
    1C        C  379   4.401   3.982   3.015
    1C        C  380   4.279   4.160   3.134
    1C        C  381   4.314   4.102   3.258
    1C        C  382   4.176   4.259   3.378
    1C        C  383   4.275   4.159   3.382
    1C        C  384   4.121   4.308   3.499
    1C        C  385   4.176   4.265   3.623
    1C        C  386   4.010   4.395   3.743
    1C        C  387   4.127   4.316   3.745
    1C        C  388   3.943   4.426   3.863
    1C        C  389   4.007   4.396   3.985
    1C        C  390   3.816   4.488   4.106
    1C        C  391   3.946   4.433   4.108
    1C        C  392   3.748   4.509   4.228
    1C        C  393   3.822   4.497   4.348
    1C        C  394   3.616   4.554   4.473
    1C        C  395   3.754   4.525   4.469
    1C        C  396   3.544   4.570   4.594
    1C        C  397   3.618   4.567   4.714
    1C        C  398   3.407   4.552   4.841
    1C        C  399   3.547   4.573   4.835
    1C        C  400   3.340   4.523   4.960
    1C        C  401   4.497   3.702   2.054
    1C        C  402   4.459   3.920   2.167
    1C        C  403   4.491   3.783   2.168
    1C        C  404   4.409   3.976   2.287
    1C        C  405   4.437   3.909   2.408
    1C        C  406   4.330   4.096   2.527
    1C        C  407   4.402   3.975   2.528
    1C        C  408   4.280   4.154   2.646
    1C        C  409   4.320   4.094   2.768
    1C        C  410   4.180   4.250   2.889
    1C        C  411   4.284   4.154   2.891
    1C        C  412   4.122   4.300   3.008
    1C        C  413   4.177   4.258   3.131
    1C        C  414   4.004   4.378   3.254
    1C        C  415   4.123   4.300   3.254
    1C        C  416   3.941   4.413   3.376
    1C        C  417   3.999   4.378   3.500
    1C        C  418   3.812   4.478   3.620
    1C        C  419   3.941   4.419   3.622
    1C        C  420   3.746   4.507   3.741
    1C        C  421   3.812   4.480   3.863
    1C        C  422   3.606   4.528   3.984
    1C        C  423   3.746   4.507   3.985
    1C        C  424   3.540   4.540   4.108
    1C        C  425   3.610   4.538   4.231
    1C        C  426   3.400   4.548   4.356
    1C        C  427   3.541   4.551   4.354
    1C        C  428   3.330   4.551   4.479
    1C        C  429   3.403   4.562   4.599
    1C        C  430   3.194   4.517   4.724
    1C        C  431   3.332   4.549   4.721
    1C        C  432   3.124   4.497   4.846
    1C        C  433   3.204   4.493   4.961
    1C        C  434   4.378   4.122   2.051
    1C        C  435   4.438   3.996   2.051
    1C        C  436   4.305   4.168   2.166
    1C        C  437   4.337   4.098   2.285
    1C        C  438   4.180   4.247   2.401
    1C        C  439   4.284   4.152   2.405
    1C        C  440   4.128   4.298   2.523
    1C        C  441   4.184   4.257   2.646
    1C        C  442   4.007   4.374   2.767
    1C        C  443   4.127   4.300   2.768
    1C        C  444   3.945   4.416   2.888
    1C        C  445   4.006   4.381   3.010
    1C        C  446   3.810   4.462   3.133
    1C        C  447   3.940   4.408   3.132
    1C        C  448   3.743   4.484   3.255
    1C        C  449   3.812   4.469   3.378
    1C        C  450   3.604   4.523   3.494
    1C        C  451   3.743   4.498   3.498
    1C        C  452   3.536   4.537   3.617
    1C        C  453   3.608   4.536   3.739
    1C        C  454   3.396   4.544   3.864
    1C        C  455   3.537   4.537   3.861
    1C        C  456   3.329   4.532   3.988
    1C        C  457   3.399   4.538   4.110
    1C        C  458   3.192   4.508   4.237
    1C        C  459   3.330   4.538   4.234
    1C        C  460   3.126   4.486   4.360
    1C        C  461   3.195   4.511   4.482
    1C        C  462   2.997   4.433   4.603
    1C        C  463   3.126   4.490   4.603
    1C        C  464   2.931   4.403   4.724
    1C        C  465   2.989   4.448   4.846
    1C        C  466   2.798   4.340   4.961
    1C        C  467   2.904   4.432   4.961
    1C        C  468   4.124   4.286   2.041
    1C        C  469   4.193   4.256   2.159
    1C        C  470   4.008   4.371   2.281
    1C        C  471   4.132   4.301   2.280
    1C        C  472   3.939   4.395   2.402
    1C        C  473   4.005   4.366   2.524
    1C        C  474   3.812   4.456   2.642
    1C        C  475   3.944   4.405   2.645
    1C        C  476   3.747   4.484   2.764
    1C        C  477   3.814   4.467   2.887
    1C        C  478   3.606   4.515   3.009
    1C        C  479   3.743   4.480   3.009
    1C        C  480   3.533   4.523   3.129
    1C        C  481   3.605   4.515   3.250
    1C        C  482   3.394   4.535   3.376
    1C        C  483   3.535   4.529   3.372
    1C        C  484   3.324   4.532   3.499
    1C        C  485   3.395   4.541   3.621
    1C        C  486   3.185   4.507   3.745
    1C        C  487   3.323   4.534   3.743
    1C        C  488   3.121   4.489   3.870
    1C        C  489   3.190   4.502   3.992
    1C        C  490   2.998   4.419   4.114
    1C        C  491   3.124   4.483   4.116
    1C        C  492   2.940   4.386   4.238
    1C        C  493   2.998   4.428   4.360
    1C        C  494   2.829   4.300   4.482
    1C        C  495   2.937   4.392   4.482
    1C        C  496   2.776   4.255   4.605
    1C        C  497   2.818   4.317   4.724
    1C        C  498   2.663   4.170   4.841
    1C        C  499   2.752   4.280   4.843
    1C        C  500   2.593   4.124   4.953
    1C        C  501   4.002   4.354   2.042
    1C        C  502   3.816   4.463   2.157
    1C        C  503   3.943   4.401   2.160
    1C        C  504   3.744   4.476   2.278
    1C        C  505   3.808   4.447   2.400
    1C        C  506   3.602   4.505   2.523
    1C        C  507   3.740   4.471   2.521
    1C        C  508   3.532   4.514   2.645
    1C        C  509   3.607   4.503   2.764
    1C        C  510   3.396   4.524   2.886
    1C        C  511   3.537   4.519   2.886
    1C        C  512   3.321   4.518   3.006
    1C        C  513   3.391   4.526   3.129
    1C        C  514   3.188   4.492   3.256
    1C        C  515   3.325   4.526   3.253
    1C        C  516   3.119   4.472   3.378
    1C        C  517   3.187   4.497   3.499
    1C        C  518   2.994   4.416   3.625
    1C        C  519   3.121   4.479   3.622
    1C        C  520   2.937   4.379   3.749
    1C        C  521   3.001   4.415   3.870
    1C        C  522   2.834   4.285   3.995
    1C        C  523   2.942   4.376   3.992
    1C        C  524   2.788   4.237   4.120
    1C        C  525   2.833   4.293   4.241
    1C        C  526   2.689   4.135   4.364
    1C        C  527   2.779   4.244   4.362
    1C        C  528   2.652   4.077   4.487
    1C        C  529   2.686   4.146   4.606
    1C        C  530   2.579   3.961   4.730
    1C        C  531   2.639   4.090   4.727
    1C        C  532   2.536   3.904   4.853
    1C        C  533   2.528   4.000   4.958
    1C        C  534   3.616   4.555   2.042
    1C        C  535   3.751   4.518   2.045
    1C        C  536   3.534   4.526   2.156
    1C        C  537   3.606   4.507   2.278
    1C        C  538   3.393   4.511   2.401
    1C        C  539   3.534   4.514   2.399
    1C        C  540   3.320   4.510   2.522
    1C        C  541   3.391   4.519   2.645
    1C        C  542   3.183   4.481   2.765
    1C        C  543   3.321   4.511   2.767
    1C        C  544   3.116   4.460   2.888
    1C        C  545   3.185   4.481   3.010
    1C        C  546   2.993   4.403   3.135
    1C        C  547   3.120   4.465   3.134
    1C        C  548   2.931   4.372   3.258
    1C        C  549   2.993   4.408   3.380
    1C        C  550   2.826   4.285   3.505
    1C        C  551   2.935   4.375   3.504
    1C        C  552   2.781   4.235   3.629
    1C        C  553   2.830   4.286   3.751
    1C        C  554   2.695   4.124   3.874
    1C        C  555   2.783   4.234   3.874
    1C        C  556   2.659   4.065   3.997
    1C        C  557   2.697   4.129   4.117
    1C        C  558   2.597   3.945   4.244
    1C        C  559   2.657   4.073   4.241
    1C        C  560   2.563   3.882   4.366
    1C        C  561   2.586   3.952   4.487
    1C        C  562   2.534   3.750   4.613
    1C        C  563   2.560   3.889   4.610
    1C        C  564   2.515   3.683   4.736
    1C        C  565   2.518   3.762   4.854
    1C        C  566   2.533   3.548   4.976
    1C        C  567   2.519   3.686   4.972
    1C        C  568   3.321   4.487   2.039
    1C        C  569   3.392   4.513   2.156
    1C        C  570   3.184   4.470   2.279
    1C        C  571   3.322   4.503   2.280
    1C        C  572   3.115   4.456   2.401
    1C        C  573   3.183   4.478   2.523
    1C        C  574   2.981   4.411   2.649
    1C        C  575   3.112   4.463   2.645
    1C        C  576   2.919   4.375   2.771
    1C        C  577   2.986   4.404   2.892
    1C        C  578   2.821   4.274   3.018
    1C        C  579   2.930   4.364   3.015
    1C        C  580   2.771   4.226   3.140
    1C        C  581   2.824   4.280   3.259
    1C        C  582   2.692   4.118   3.386
    1C        C  583   2.780   4.229   3.383
    1C        C  584   2.659   4.058   3.510
    1C        C  585   2.696   4.122   3.631
    1C        C  586   2.595   3.936   3.755
    1C        C  587   2.656   4.063   3.753
    1C        C  588   2.568   3.872   3.879
    1C        C  589   2.595   3.939   4.000
    1C        C  590   2.537   3.738   4.126
    1C        C  591   2.570   3.876   4.124
    1C        C  592   2.526   3.671   4.250
    1C        C  593   2.536   3.744   4.371
    1C        C  594   2.515   3.534   4.495
    1C        C  595   2.524   3.675   4.494
    1C        C  596   2.520   3.467   4.619
    1C        C  597   2.515   3.541   4.739
    1C        C  598   2.534   3.328   4.861
    1C        C  599   2.521   3.469   4.861
    1C        C  600   2.530   3.250   4.977
    1C        C  601   3.194   4.433   2.045
    1C        C  602   2.976   4.395   2.159
    1C        C  603   3.114   4.435   2.160
    1C        C  604   2.921   4.360   2.285
    1C        C  605   2.985   4.401   2.404
    1C        C  606   2.818   4.275   2.531
    1C        C  607   2.923   4.369   2.527
    1C        C  608   2.770   4.222   2.653
    1C        C  609   2.816   4.278   2.774
    1C        C  610   2.680   4.115   2.898
    1C        C  611   2.772   4.222   2.896
    1C        C  612   2.645   4.054   3.020
    1C        C  613   2.686   4.112   3.142
    1C        C  614   2.588   3.929   3.267
    1C        C  615   2.647   4.058   3.267
    1C        C  616   2.568   3.865   3.391
    1C        C  617   2.601   3.929   3.512
    1C        C  618   2.533   3.729   3.638
    1C        C  619   2.576   3.864   3.635
    1C        C  620   2.519   3.664   3.762
    1C        C  621   2.532   3.735   3.883
    1C        C  622   2.511   3.524   4.011
    1C        C  623   2.526   3.665   4.006
    1C        C  624   2.513   3.454   4.133
    1C        C  625   2.518   3.530   4.253
    1C        C  626   2.536   3.320   4.377
    1C        C  627   2.516   3.460   4.375
    1C        C  628   2.555   3.252   4.500
    1C        C  629   2.539   3.327   4.619
    1C        C  630   2.598   3.121   4.743
    1C        C  631   2.556   3.257   4.741
    1C        C  632   2.621   3.050   4.863
    1C        C  633   2.563   3.114   4.977
    1C        C  634   2.773   4.309   2.054
    1C        C  635   2.886   4.391   2.047
    1C        C  636   2.745   4.234   2.169
    1C        C  637   2.809   4.274   2.288
    1C        C  638   2.678   4.110   2.407
    1C        C  639   2.766   4.220   2.411
    1C        C  640   2.640   4.052   2.530
    1C        C  641   2.683   4.111   2.651
    1C        C  642   2.584   3.927   2.779
    1C        C  643   2.645   4.054   2.775
    1C        C  644   2.563   3.857   2.900
    1C        C  645   2.589   3.924   3.022
    1C        C  646   2.527   3.725   3.151
    1C        C  647   2.563   3.862   3.145
    1C        C  648   2.511   3.657   3.273
    1C        C  649   2.526   3.729   3.394
    1C        C  650   2.516   3.518   3.520
    1C        C  651   2.521   3.659   3.516
    1C        C  652   2.517   3.453   3.646
    1C        C  653   2.506   3.523   3.768
    1C        C  654   2.532   3.312   3.891
    1C        C  655   2.510   3.451   3.889
    1C        C  656   2.536   3.242   4.014
    1C        C  657   2.528   3.314   4.136
    1C        C  658   2.585   3.111   4.260
    1C        C  659   2.538   3.244   4.258
    1C        C  660   2.630   3.051   4.380
    1C        C  661   2.604   3.120   4.501
    1C        C  662   2.714   2.939   4.623
    1C        C  663   2.632   3.054   4.623
    1C        C  664   2.750   2.875   4.744
    1C        C  665   2.704   2.933   4.865
    1C        C  666   2.742   2.867   4.983
    1C        C  667   2.676   4.027   2.055
    1C        C  668   2.678   4.110   2.169
    1C        C  669   2.586   3.913   2.292
    1C        C  670   2.641   4.044   2.288
    1C        C  671   2.556   3.853   2.417
    1C        C  672   2.582   3.924   2.537
    1C        C  673   2.522   3.721   2.659
    1C        C  674   2.555   3.858   2.659
    1C        C  675   2.517   3.652   2.782
    1C        C  676   2.530   3.719   2.905
    1C        C  677   2.514   3.512   3.031
    1C        C  678   2.519   3.653   3.029
    1C        C  679   2.512   3.442   3.154
    1C        C  680   2.508   3.516   3.275
    1C        C  681   2.538   3.307   3.400
    1C        C  682   2.513   3.446   3.398
    1C        C  683   2.553   3.243   3.526
    1C        C  684   2.532   3.312   3.647
    1C        C  685   2.612   3.115   3.771
    1C        C  686   2.552   3.243   3.769
    1C        C  687   2.641   3.055   3.896
    1C        C  688   2.597   3.115   4.016
    1C        C  689   2.710   2.938   4.139
    1C        C  690   2.621   3.048   4.138
    1C        C  691   2.759   2.882   4.259
    1C        C  692   2.711   2.935   4.381
    1C        C  693   2.753   2.877   4.503
    1C        C  694   2.627   3.896   2.056
    1C        C  695   2.529   3.705   2.177
    1C        C  696   2.576   3.838   2.173
    1C        C  697   2.510   3.639   2.301
    1C        C  698   2.523   3.716   2.418
    1C        C  699   2.491   3.506   2.544
    1C        C  700   2.505   3.646   2.540
    1C        C  701   2.509   3.438   2.666
    1C        C  702   2.516   3.511   2.787
    1C        C  703   2.529   3.300   2.910
    1C        C  704   2.511   3.440   2.910
    1C        C  705   2.543   3.231   3.033
    1C        C  706   2.527   3.302   3.155
    1C        C  707   2.600   3.105   3.280
    1C        C  708   2.549   3.237   3.278
    1C        C  709   2.634   3.047   3.404
    1C        C  710   2.601   3.110   3.526
    1C        C  711   2.709   2.928   3.651
    1C        C  712   2.637   3.050   3.648
    1C        C  713   2.756   2.876   3.773
    1C        C  714   2.718   2.937   3.895
    1C        C  715   2.756   2.879   4.019
    1C        C  716   2.454   3.497   2.064
    1C        C  717   2.490   3.632   2.064
    1C        C  718   2.462   3.422   2.186
    1C        C  719   2.477   3.500   2.304
    1C        C  720   2.520   3.292   2.425
    1C        C  721   2.486   3.429   2.425
    1C        C  722   2.545   3.226   2.547
    1C        C  723   2.536   3.299   2.667
    1C        C  724   2.591   3.095   2.791
    1C        C  725   2.546   3.229   2.789
    1C        C  726   2.622   3.034   2.915
    1C        C  727   2.592   3.099   3.037
    1C        C  728   2.707   2.920   3.160
    1C        C  729   2.629   3.038   3.159
    1C        C  730   2.752   2.870   3.284
    1C        C  731   2.713   2.929   3.406
    1C        C  732   2.752   2.871   3.529
    1C        C  733   2.487   3.199   2.074
    1C        C  734   2.486   3.281   2.188
    1C        C  735   2.586   3.085   2.304
    1C        C  736   2.529   3.216   2.307
    1C        C  737   2.612   3.020   2.426
    1C        C  738   2.590   3.092   2.546
    1C        C  739   2.704   2.915   2.669
    1C        C  740   2.622   3.030   2.669
    1C        C  741   2.743   2.858   2.792
    1C        C  742   2.699   2.915   2.914
    1C        C  743   2.747   2.864   3.036
    1C        C  744   2.548   3.075   2.075
    1C        C  745   2.682   2.892   2.184
    1C        C  746   2.613   3.016   2.184
    1C        C  747   2.727   2.837   2.306
    1C        C  748   2.692   2.904   2.426
    1C        C  749   2.742   2.854   2.548
    1C        C  750   2.738   2.842   2.066
    1C        C  751   3.668   2.322   1.974
    1C        O  752   3.712   2.209   2.009
    1C        O  753   3.633   2.325   1.838
    1C        C  754   4.629   3.049   1.979
    1C        O  755   4.582   2.999   1.874
    1C        O  756   4.765   3.084   1.982
    1C        C  757   4.431   4.226   1.959
    1C        O  758   4.530   4.298   1.986
    1C        O  759   4.441   4.196   1.823
    1C        C  760   3.600   4.684   1.971
    1C        O  761   3.534   4.785   2.006
    1C        O  762   3.593   4.677   1.832
    1C        C  763   2.874   4.504   1.953
    1C        O  764   2.900   4.509   1.830
    1C        O  765   2.838   4.625   2.015
    1C        C  766   2.361   3.462   1.954
    1C        O  767   2.393   3.458   1.832
    1C        O  768   2.222   3.447   1.967
    1C        C  769   4.679   3.591   5.067
    1C        O  770   4.647   3.594   5.189
    1C        O  771   4.813   3.575   5.030
    1C        C  772   4.265   4.439   5.049
    1C        O  773   4.244   4.430   5.173
    1C        O  774   4.370   4.528   5.023
    1C        C  775   4.150   2.514   5.068
    1C        O  776   4.197   2.400   5.043
    1C        O  777   4.143   2.527   5.208
    1C        C  778   2.880   4.549   5.048
    1C        O  779   2.838   4.660   5.006
    1C        O  780   2.856   4.522   5.183
    1C        C  781   2.477   3.049   5.079
    1C        O  782   2.372   2.992   5.040
    1C        O  783   2.518   3.036   5.211
    1C        C  784   2.413   4.002   5.052
    1C        O  785   2.299   4.034   5.009
    1C        O  786   2.431   3.989   5.190
    1C        C  787   2.940   2.420   2.018
    1C        O  788   2.899   2.439   1.901
    1C        O  789   2.933   2.283   2.042
    1C        C  790   3.177   2.379   5.069
    1C        O  791   3.165   2.264   5.020
    1C        O  792   3.186   2.381   5.209
    1C        H  793   4.326   2.987   5.071
    1C        H  794   4.168   2.808   5.066
    1C        H  795   4.543   3.121   5.033
    1C        H  796   4.510   3.373   5.064
    1C        H  797   4.588   3.822   5.030
    1C        H  798   4.413   3.969   5.054
    1C        H  799   4.248   4.139   5.038
    1C        H  800   4.004   4.511   5.031
    1C        H  801   3.815   4.603   5.035
    1C        H  802   3.582   4.620   5.041
    1C        H  803   3.385   4.535   5.056
    1C        H  804   3.163   4.483   5.059
    1C        H  805   3.879   2.546   5.073
    1C        H  806   3.675   2.452   5.072
    1C        H  807   3.021   2.586   5.077
    1C        H  808   3.445   2.474   5.077
    1C        H  809   2.897   2.754   5.076
    1C        H  810   2.693   2.893   5.074
    1C        H  811   2.541   3.306   5.068
    1C        H  812   2.581   3.502   5.060
    1C        H  813   2.494   3.735   5.064
    1C        H  814   2.559   4.194   5.027
    1C        H  815   2.814   4.269   5.039
    1C        H  816   2.746   2.910   1.984
    1C        H  817   2.847   2.686   1.973
    1C        H  818   3.209   2.414   2.003
    1C        H  819   3.420   2.414   1.984
    1C        H  820   3.844   2.538   1.972
    1C        H  821   4.060   2.630   1.965
    1C        H  822   4.297   2.687   2.004
    1C        H  823   4.397   2.902   1.967
    1C        H  824   4.572   3.316   1.969
    1C        H  825   4.419   3.522   1.997
    1C        H  826   4.493   3.744   1.955
    1C        H  827   3.811   4.537   1.959
    1C        H  828   3.938   4.315   1.965
    1C        H  829   4.176   4.277   1.949
    1C        H  830   4.463   3.958   1.954
    1C        H  831   2.627   3.839   1.966
    1C        H  832   2.682   4.073   1.959
    1C        H  833   2.692   4.329   1.987
    1C        H  834   3.378   4.467   1.951
    1C        H  835   3.139   4.412   1.956
    1C        H  836   2.515   3.004   2.002
    1C        H  837   2.404   3.208   2.007
    1C        H  838   2.444   3.689   1.985
    2V3OU   H29  839   2.816   3.552   3.708
    2V3OU   C27  840   2.795   3.504   3.807
    2V3OU   H27  841   2.733   3.571   3.872
    2V3OU   H28  842   2.743   3.407   3.790
    2V3OU   O11  843   2.912   3.478   3.886
    2V3OU   C15  844   2.930   3.398   3.997
    2V3OU   C13  845   3.054   3.376   4.061
    2V3OU   C14  846   3.081   3.272   4.150
    2V3OU   C16  847   2.980   3.184   4.187
    2V3OU    H6  848   2.995   3.102   4.258
    2V3OU   C12  849   3.217   3.234   4.194
    2V3OU    O2  850   3.235   3.129   4.260
    2V3OU   C10  851   3.331   3.307   4.137
    2V3OU    C8  852   3.461   3.267   4.162
    2V3OU   O10  853   3.488   3.149   4.224
    2V3OU   H26  854   3.406   3.114   4.263
    2V3OU    C6  855   3.568   3.350   4.116
    2V3OU    C5  856   3.537   3.467   4.048
    2V3OU    C4  857   3.706   3.293   4.123
    2V3OU    H4  858   3.726   3.228   4.214
    2V3OU    H5  859   3.714   3.228   4.031
    2V3OU    C2  860   3.814   3.401   4.112
    2V3OU    O6  861   3.805   3.472   4.235
    2V3OU   H21  862   3.766   3.559   4.214
    2V3OU    C3  863   3.777   3.495   3.997
    2V3OU    H2  864   3.853   3.577   3.994
    2V3OU    H3  865   3.780   3.437   3.901
    2V3OU   C25  866   3.948   3.327   4.100
    2V3OU    O7  867   3.994   3.300   3.989
    2V3OU   C26  868   4.030   3.295   4.223
    2V3OU   H22  869   4.066   3.386   4.278
    2V3OU   H23  870   4.114   3.226   4.195
    2V3OU    O8  871   3.957   3.208   4.306
    2V3OU   H24  872   3.929   3.260   4.384
    2V3OU    C1  873   3.644   3.566   4.014
    2V3OU    H1  874   3.622   3.615   3.915
    2V3OU    O3  875   3.664   3.659   4.121
    2V3OU   C19  876   3.623   3.795   4.105
    2V3OU    H9  877   3.523   3.810   4.055
    2V3OU    O4  878   3.714   3.852   4.013
    2V3OU   C20  879   3.846   3.872   4.066
    2V3OU   H10  880   3.893   3.769   4.070
    2V3OU   C24  881   3.612   3.858   4.244
    2V3OU   H16  882   3.545   3.795   4.309
    2V3OU   H17  883   3.564   3.959   4.241
    2V3OU   C23  884   3.754   3.877   4.298
    2V3OU   H15  885   3.797   3.775   4.323
    2V3OU    N1  886   3.737   3.950   4.422
    2V3OU   H19  887   3.814   3.922   4.480
    2V3OU   H20  888   3.651   3.936   4.471
    2V3OU   C21  889   3.851   3.948   4.198
    2V3OU   H11  890   3.957   3.933   4.234
    2V3OU    O5  891   3.829   4.087   4.179
    2V3OU   H18  892   3.795   4.104   4.268
    2V3OU   C22  893   3.914   3.950   3.954
    2V3OU   H12  894   3.858   4.045   3.937
    2V3OU   H13  895   3.905   3.897   3.856
    2V3OU   H14  896   4.024   3.958   3.972
    2V3OU   C11  897   3.161   3.475   4.044
    2V3OU    O1  898   3.136   3.584   3.988
    2V3OU    C9  899   3.299   3.424   4.062
    2V3OU    C7  900   3.402   3.505   4.018
    2V3OU    O9  901   3.389   3.620   3.942
    2V3OU   H25  902   3.293   3.632   3.947
    2V3OU   C17  903   2.829   3.317   4.052
    2V3OU    H7  904   2.731   3.359   4.031
    2V3OU   C18  905   2.851   3.213   4.143
    2V3OU    H8  906   2.787   3.175   4.223
    3SOL     OW  907   3.211   4.350   5.658
    3SOL    HW1  908   3.204   4.421   5.728
    3SOL    HW2  909   3.215   4.394   5.567
    4SOL     OW  910   0.121   6.864   6.981
    4SOL    HW1  911   0.086   6.920   0.033
    4SOL    HW2  912   0.063   6.784   6.970
    5SOL     OW  913   5.183   1.176   2.742
    5SOL    HW1  914   5.266   1.216   2.781
    5SOL    HW2  915   5.208   1.113   2.668
    6SOL     OW  916   5.375   2.161   2.901
    6SOL    HW1  917   5.443   2.152   2.974
    6SOL    HW2  918   5.377   2.079   2.844
    7SOL     OW  919   0.973   4.103   4.947
    7SOL    HW1  920   1.067   4.070   4.950
    7SOL    HW2  921   0.948   4.141   5.036
    8SOL     OW  922   2.525   2.207   4.977
    8SOL    HW1  923   2.468   2.287   4.996
    8SOL    HW2  924   2.494   2.163   4.892
    9SOL     OW  925   6.604   1.827   5.970
    9SOL    HW1  926   6.630   1.855   6.062
    9SOL    HW2  927   6.507   1.804   5.968
   10SOL     OW  928   3.629   4.934   4.044
   10SOL    HW1  929   3.546   4.928   3.989
   10SOL    HW2  930   3.607   4.968   4.136
   11SOL     OW  931   1.488   1.018   0.324
   11SOL    HW1  932   1.490   0.926   0.286
   11SOL    HW2  933   1.482   1.085   0.250
   12SOL     OW  934   2.679   4.687   3.927
   12SOL    HW1  935   2.595   4.637   3.947
   12SOL    HW2  936   2.685   4.768   3.985
   13SOL     OW  937   3.046   6.077   2.906
   13SOL    HW1  938   3.067   6.159   2.852
   13SOL    HW2  939   2.947   6.061   2.905
   14SOL     OW  940   4.253   4.699   6.181
   14SOL    HW1  941   4.280   4.686   6.277
   14SOL    HW2  942   4.164   4.656   6.166
   15SOL     OW  943   0.448   6.433   6.191
   15SOL    HW1  944   0.429   6.519   6.239
   15SOL    HW2  945   0.475   6.364   6.258
   16SOL     OW  946   5.118   2.560   6.197
   16SOL    HW1  947   5.150   2.654   6.193
   16SOL    HW2  948   5.196   2.498   6.205
   17SOL     OW  949   5.723   0.742   6.268
   17SOL    HW1  950   5.639   0.752   6.214
   17SOL    HW2  951   5.798   0.791   6.223
   18SOL     OW  952   3.683   1.254   5.431
   18SOL    HW1  953   3.704   1.286   5.339
   18SOL    HW2  954   3.768   1.244   5.483
   19SOL     OW  955   0.388   1.857   2.722
   19SOL    HW1  956   0.307   1.849   2.780
   19SOL    HW2  957   0.410   1.954   2.707
   20SOL     OW  958   5.901   1.824   5.618
   20SOL    HW1  959   5.935   1.873   5.537
   20SOL    HW2  960   5.842   1.749   5.589
   21SOL     OW  961   3.315   0.028   2.952
   21SOL    HW1  962   3.267   6.993   2.886
   21SOL    HW2  963   3.370   0.095   2.903
   22SOL     OW  964   0.731   5.968   6.083
   22SOL    HW1  965   0.655   5.944   6.145
   22SOL    HW2  966   0.795   5.892   6.079
   23SOL     OW  967   4.646   5.254   2.172
   23SOL    HW1  968   4.709   5.328   2.196
   23SOL    HW2  969   4.552   5.286   2.178
   24SOL     OW  970   3.853   0.011   2.259
   24SOL    HW1  971   3.849   0.061   2.173
   24SOL    HW2  972   3.882   0.073   2.332
   25SOL     OW  973   2.936   0.009   4.304
   25SOL    HW1  974   2.899   0.075   4.239
   25SOL    HW2  975   2.944   6.943   4.260
   26SOL     OW  976   1.094   2.026   6.898
   26SOL    HW1  977   1.111   2.114   6.855
   26SOL    HW2  978   1.168   2.006   6.962
   27SOL     OW  979   1.201   1.191   2.409
   27SOL    HW1  980   1.161   1.200   2.318
   27SOL    HW2  981   1.300   1.174   2.401
   28SOL     OW  982   1.199   0.830   4.307
   28SOL    HW1  983   1.159   0.854   4.395
   28SOL    HW2  984   1.299   0.836   4.313
   29SOL     OW  985   6.087   0.754   1.126
   29SOL    HW1  986   6.184   0.734   1.141
   29SOL    HW2  987   6.040   0.758   1.214
   30SOL     OW  988   3.670   0.365   4.743
   30SOL    HW1  989   3.613   0.443   4.720
   30SOL    HW2  990   3.758   0.398   4.780
   31SOL     OW  991   0.164   2.200   5.202
   31SOL    HW1  992   0.259   2.190   5.175
   31SOL    HW2  993   0.111   2.238   5.126
   32SOL     OW  994   1.464   1.529   2.327
   32SOL    HW1  995   1.507   1.513   2.416
   32SOL    HW2  996   1.404   1.609   2.333
   33SOL     OW  997   0.172   3.953   5.214
   33SOL    HW1  998   0.224   3.969   5.298
   33SOL    HW2  999   0.127   4.037   5.185
   34SOL     OW 1000   2.788   5.325   5.122
   34SOL    HW1 1001   2.727   5.251   5.096
   34SOL    HW2 1002   2.840   5.355   5.042
   35SOL     OW 1003   4.396   1.477   5.406
   35SOL    HW1 1004   4.325   1.408   5.421
   35SOL    HW2 1005   4.361   1.567   5.433
   36SOL     OW 1006   4.993   0.966   3.989
   36SOL    HW1 1007   4.986   0.888   3.927
   36SOL    HW2 1008   5.087   0.975   4.021
   37SOL     OW 1009   2.019   1.339   4.112
   37SOL    HW1 1010   1.943   1.386   4.158
   37SOL    HW2 1011   1.991   1.246   4.088
   38SOL     OW 1012   2.229   4.483   1.554
   38SOL    HW1 1013   2.276   4.395   1.547
   38SOL    HW2 1014   2.164   4.481   1.630
   39SOL     OW 1015   6.683   4.201   6.442
   39SOL    HW1 1016   6.597   4.175   6.487
   39SOL    HW2 1017   6.757   4.201   6.509
   40SOL     OW 1018   3.238   0.630   6.235
   40SOL    HW1 1019   3.300   0.588   6.302
   40SOL    HW2 1020   3.168   0.682   6.282
   41SOL     OW 1021   6.492   4.300   2.597
   41SOL    HW1 1022   6.488   4.356   2.679
   41SOL    HW2 1023   6.470   4.205   2.621
   42SOL     OW 1024   2.992   6.462   4.088
   42SOL    HW1 1025   2.986   6.374   4.042
   42SOL    HW2 1026   2.999   6.535   4.020
   43SOL     OW 1027   3.706   6.731   5.177
   43SOL    HW1 1028   3.666   6.729   5.085
   43SOL    HW2 1029   3.806   6.733   5.169
   44SOL     OW 1030   6.057   3.048   4.900
   44SOL    HW1 1031   6.071   3.019   4.805
   44SOL    HW2 1032   6.083   2.975   4.962
   45SOL     OW 1033   4.261   5.929   2.231
   45SOL    HW1 1034   4.164   5.951   2.219
   45SOL    HW2 1035   4.309   6.009   2.266
   46SOL     OW 1036   0.412   3.038   4.176
   46SOL    HW1 1037   0.478   3.046   4.101
   46SOL    HW2 1038   0.378   3.129   4.199
   47SOL     OW 1039   5.026   3.932   1.689
   47SOL    HW1 1040   5.123   3.910   1.680
   47SOL    HW2 1041   5.004   3.944   1.785
   48SOL     OW 1042   0.404   2.001   6.555
   48SOL    HW1 1043   0.393   2.080   6.495
   48SOL    HW2 1044   0.335   2.005   6.627
   49SOL     OW 1045   5.499   2.758   1.260
   49SOL    HW1 1046   5.531   2.740   1.353
   49SOL    HW2 1047   5.428   2.692   1.236
   50SOL     OW 1048   6.099   1.896   6.157
   50SOL    HW1 1049   6.069   1.877   6.064
   50SOL    HW2 1050   6.027   1.945   6.206
   51SOL     OW 1051   1.753   5.608   2.554
   51SOL    HW1 1052   1.797   5.523   2.583
   51SOL    HW2 1053   1.674   5.626   2.612
   52SOL     OW 1054   5.679   2.458   1.788
   52SOL    HW1 1055   5.707   2.459   1.692
   52SOL    HW2 1056   5.638   2.370   1.810
   53SOL     OW 1057   5.076   0.200   3.379
   53SOL    HW1 1058   4.991   0.148   3.363
   53SOL    HW2 1059   5.089   0.265   3.305
   54SOL     OW 1060   5.540   6.549   0.424
   54SOL    HW1 1061   5.533   6.463   0.373
   54SOL    HW2 1062   5.611   6.607   0.383
   55SOL     OW 1063   1.953   2.327   5.933
   55SOL    HW1 1064   1.941   2.246   5.876
   55SOL    HW2 1065   1.865   2.374   5.943
   56SOL     OW 1066   1.154   1.614   1.307
   56SOL    HW1 1067   1.171   1.534   1.364
   56SOL    HW2 1068   1.057   1.639   1.311
   57SOL     OW 1069   3.809   1.225   6.833
   57SOL    HW1 1070   3.801   1.309   6.887
   57SOL    HW2 1071   3.905   1.201   6.821
   58SOL     OW 1072   0.496   0.824   6.652
   58SOL    HW1 1073   0.475   0.912   6.609
   58SOL    HW2 1074   0.470   0.827   6.749
   59SOL     OW 1075   6.736   3.475   6.005
   59SOL    HW1 1076   6.775   3.536   6.073
   59SOL    HW2 1077   6.806   3.411   5.974
   60SOL     OW 1078   5.502   1.267   3.666
   60SOL    HW1 1079   5.431   1.252   3.735
   60SOL    HW2 1080   5.459   1.286   3.578
   61SOL     OW 1081   0.297   0.799   4.477
   61SOL    HW1 1082   0.249   0.734   4.418
   61SOL    HW2 1083   0.247   0.885   4.481
   62SOL     OW 1084   1.034   1.227   1.630
   62SOL    HW1 1085   0.959   1.164   1.645
   62SOL    HW2 1086   1.113   1.199   1.684
   63SOL     OW 1087   3.959   0.071   4.248
   63SOL    HW1 1088   3.866   0.038   4.234
   63SOL    HW2 1089   4.021   0.024   4.185
   64SOL     OW 1090   1.152   3.462   6.216
   64SOL    HW1 1091   1.065   3.506   6.196
   64SOL    HW2 1092   1.226   3.508   6.167
   65SOL     OW 1093   0.329   6.893   5.624
   65SOL    HW1 1094   0.321   6.861   5.719
   65SOL    HW2 1095   0.241   6.882   5.578
   66SOL     OW 1096   3.796   0.274   2.778
   66SOL    HW1 1097   3.860   0.202   2.748
   66SOL    HW2 1098   3.808   0.355   2.721
   67SOL     OW 1099   0.114   2.278   6.530
   67SOL    HW1 1100   0.079   2.366   6.497
   67SOL    HW2 1101   0.200   2.294   6.580
   68SOL     OW 1102   6.913   1.472   5.959
   68SOL    HW1 1103   6.932   1.570   5.947
   68SOL    HW2 1104   6.883   1.434   5.871
   69SOL     OW 1105   1.782   4.247   6.121
   69SOL    HW1 1106   1.849   4.196   6.174
   69SOL    HW2 1107   1.817   4.264   6.029
   70SOL     OW 1108   5.260   4.440   4.998
   70SOL    HW1 1109   5.252   4.406   5.091
   70SOL    HW2 1110   5.254   4.540   4.998
   71SOL     OW 1111   4.737   1.870   3.928
   71SOL    HW1 1112   4.675   1.929   3.980
   71SOL    HW2 1113   4.778   1.803   3.989
   72SOL     OW 1114   0.174   1.179   3.294
   72SOL    HW1 1115   0.106   1.166   3.367
   72SOL    HW2 1116   0.249   1.235   3.328
   73SOL     OW 1117   3.569   0.159   0.396
   73SOL    HW1 1118   3.591   0.252   0.366
   73SOL    HW2 1119   3.535   0.106   0.318
   74SOL     OW 1120   2.313   1.888   6.376
   74SOL    HW1 1121   2.316   1.790   6.398
   74SOL    HW2 1122   2.246   1.904   6.304
   75SOL     OW 1123   4.095   1.302   1.450
   75SOL    HW1 1124   4.071   1.330   1.358
   75SOL    HW2 1125   4.012   1.282   1.502
   76SOL     OW 1126   2.382   4.376   5.732
   76SOL    HW1 1127   2.413   4.281   5.721
   76SOL    HW2 1128   2.459   4.433   5.758
   77SOL     OW 1129   2.030   5.527   3.978
   77SOL    HW1 1130   2.033   5.582   4.061
   77SOL    HW2 1131   2.077   5.575   3.904
   78SOL     OW 1132   4.364   1.393   1.431
   78SOL    HW1 1133   4.275   1.362   1.465
   78SOL    HW2 1134   4.355   1.422   1.336
   79SOL     OW 1135   2.796   5.697   2.190
   79SOL    HW1 1136   2.809   5.796   2.202
   79SOL    HW2 1137   2.842   5.668   2.106
   80SOL     OW 1138   4.843   1.864   5.173
   80SOL    HW1 1139   4.804   1.772   5.179
   80SOL    HW2 1140   4.770   1.932   5.184
   81SOL     OW 1141   1.813   0.107   0.196
   81SOL    HW1 1142   1.875   0.097   0.274
   81SOL    HW2 1143   1.739   0.169   0.220
   82SOL     OW 1144   0.765   6.137   2.176
   82SOL    HW1 1145   0.746   6.228   2.141
   82SOL    HW2 1146   0.702   6.116   2.251
   83SOL     OW 1147   6.908   1.720   5.620
   83SOL    HW1 1148   6.821   1.695   5.577
   83SOL    HW2 1149   6.984   1.685   5.566
   84SOL     OW 1150   6.384   3.766   3.262
   84SOL    HW1 1151   6.311   3.832   3.245
   84SOL    HW2 1152   6.433   3.792   3.346
   85SOL     OW 1153   2.075   0.324   3.775
   85SOL    HW1 1154   2.089   0.347   3.679
   85SOL    HW2 1155   2.102   0.229   3.791
   86SOL     OW 1156   6.393   1.289   6.937
   86SOL    HW1 1157   6.477   1.265   6.888
   86SOL    HW2 1158   6.340   1.354   6.883
   87SOL     OW 1159   4.833   4.250   0.437
   87SOL    HW1 1160   4.883   4.212   0.359
   87SOL    HW2 1161   4.735   4.254   0.415
   88SOL     OW 1162   2.684   2.224   5.695
   88SOL    HW1 1163   2.661   2.157   5.766
   88SOL    HW2 1164   2.662   2.316   5.727
   89SOL     OW 1165   2.826   3.514   1.758
   89SOL    HW1 1166   2.907   3.456   1.750
   89SOL    HW2 1167   2.821   3.576   1.680
   90SOL     OW 1168   5.001   4.078   1.937
   90SOL    HW1 1169   4.920   4.136   1.941
   90SOL    HW2 1170   5.083   4.135   1.928
   91SOL     OW 1171   5.887   6.271   6.174
   91SOL    HW1 1172   5.819   6.344   6.183
   91SOL    HW2 1173   5.848   6.186   6.208
   92SOL     OW 1174   5.077   3.622   0.740
   92SOL    HW1 1175   5.106   3.647   0.832
   92SOL    HW2 1176   4.987   3.579   0.743
   93SOL     OW 1177   2.938   3.174   0.491
   93SOL    HW1 1178   3.036   3.189   0.480
   93SOL    HW2 1179   2.901   3.135   0.406
   94SOL     OW 1180   2.347   6.647   0.363
   94SOL    HW1 1181   2.370   6.603   0.450
   94SOL    HW2 1182   2.332   6.576   0.294
   95SOL     OW 1183   0.964   0.581   4.031
   95SOL    HW1 1184   0.915   0.500   3.998
   95SOL    HW2 1185   1.040   0.552   4.089
   96SOL     OW 1186   4.939   5.118   6.945
   96SOL    HW1 1187   5.001   5.121   0.000
   96SOL    HW2 1188   4.845   5.125   6.977
   97SOL     OW 1189   1.975   4.860   5.563
   97SOL    HW1 1190   1.997   4.908   5.647
   97SOL    HW2 1191   2.003   4.916   5.484
   98SOL     OW 1192   0.589   2.354   1.075
   98SOL    HW1 1193   0.614   2.271   1.024
   98SOL    HW2 1194   0.553   2.328   1.165
   99SOL     OW 1195   3.832   3.876   3.247
   99SOL    HW1 1196   3.751   3.914   3.292
   99SOL    HW2 1197   3.905   3.865   3.314
  100SOL     OW 1198   6.904   0.489   4.071
  100SOL    HW1 1199   6.936   0.551   3.999
  100SOL    HW2 1200   6.813   0.516   4.100
  101SOL     OW 1201   0.723   4.974   2.504
  101SOL    HW1 1202   0.770   4.919   2.572
  101SOL    HW2 1203   0.717   5.069   2.535
  102SOL     OW 1204   2.774   6.339   2.371
  102SOL    HW1 1205   2.823   6.372   2.290
  102SOL    HW2 1206   2.700   6.278   2.343
  103SOL     OW 1207   1.579   0.964   2.163
  103SOL    HW1 1208   1.628   0.898   2.219
  103SOL    HW2 1209   1.619   0.967   2.071
  104SOL     OW 1210   1.589   4.856   2.536
  104SOL    HW1 1211   1.536   4.854   2.450
  104SOL    HW2 1212   1.560   4.934   2.591
  105SOL     OW 1213   4.795   1.232   6.576
  105SOL    HW1 1214   4.894   1.242   6.585
  105SOL    HW2 1215   4.762   1.161   6.639
  106SOL     OW 1216   4.972   4.989   1.557
  106SOL    HW1 1217   4.987   4.893   1.534
  106SOL    HW2 1218   4.928   4.996   1.646
  107SOL     OW 1219   6.809   0.853   6.988
  107SOL    HW1 1220   6.886   0.789   6.984
  107SOL    HW2 1221   6.745   0.823   0.035
  108SOL     OW 1222   2.975   6.571   4.773
  108SOL    HW1 1223   2.900   6.638   4.779
  108SOL    HW2 1224   2.945   6.493   4.718
  109SOL     OW 1225   3.514   0.862   2.898
  109SOL    HW1 1226   3.596   0.836   2.949
  109SOL    HW2 1227   3.468   0.781   2.864
  110SOL     OW 1228   2.075   4.983   4.957
  110SOL    HW1 1229   1.979   4.988   4.927
  110SOL    HW2 1230   2.080   4.937   5.045
  111SOL     OW 1231   6.622   1.564   2.497
  111SOL    HW1 1232   6.561   1.494   2.534
  111SOL    HW2 1233   6.697   1.519   2.449
  112SOL     OW 1234   4.653   6.632   6.770
  112SOL    HW1 1235   4.744   6.674   6.772
  112SOL    HW2 1236   4.625   6.616   6.676
  113SOL     OW 1237   6.628   5.369   3.045
  113SOL    HW1 1238   6.660   5.375   3.140
  113SOL    HW2 1239   6.680   5.432   2.988
  114SOL     OW 1240   0.964   5.198   2.821
  114SOL    HW1 1241   0.892   5.261   2.850
  114SOL    HW2 1242   0.992   5.142   2.899
  115SOL     OW 1243   6.125   1.243   3.546
  115SOL    HW1 1244   6.083   1.176   3.607
  115SOL    HW2 1245   6.054   1.304   3.511
  116SOL     OW 1246   0.310   5.850   1.161
  116SOL    HW1 1247   0.354   5.939   1.148
  116SOL    HW2 1248   0.254   5.851   1.244
  117SOL     OW 1249   2.696   1.428   0.256
  117SOL    HW1 1250   2.684   1.527   0.245
  117SOL    HW2 1251   2.766   1.411   0.325
  118SOL     OW 1252   1.670   1.450   3.554
  118SOL    HW1 1253   1.688   1.515   3.628
  118SOL    HW2 1254   1.621   1.496   3.480
  119SOL     OW 1255   0.772   6.669   6.927
  119SOL    HW1 1256   0.832   6.639   7.001
  119SOL    HW2 1257   0.742   6.589   6.875
  120SOL     OW 1258   4.952   0.046   4.928
  120SOL    HW1 1259   4.925   0.133   4.887
  120SOL    HW2 1260   5.037   0.059   4.980
  121SOL     OW 1261   1.373   3.895   6.812
  121SOL    HW1 1262   1.377   3.951   6.895
  121SOL    HW2 1263   1.279   3.893   6.777
  122SOL     OW 1264   1.351   3.634   0.366
  122SOL    HW1 1265   1.346   3.656   0.464
  122SOL    HW2 1266   1.377   3.716   0.315
  123SOL     OW 1267   1.403   0.648   1.412
  123SOL    HW1 1268   1.412   0.632   1.511
  123SOL    HW2 1269   1.387   0.745   1.396
  124SOL     OW 1270   2.981   2.572   0.584
  124SOL    HW1 1271   2.975   2.633   0.663
  124SOL    HW2 1272   3.071   2.581   0.541
  125SOL     OW 1273   3.482   2.593   6.984
  125SOL    HW1 1274   3.446   2.585   0.054
  125SOL    HW2 1275   3.477   2.688   6.955
  126SOL     OW 1276   2.942   3.259   3.443
  126SOL    HW1 1277   2.987   3.220   3.362
  126SOL    HW2 1278   2.876   3.328   3.414
  127SOL     OW 1279   6.560   6.187   5.649
  127SOL    HW1 1280   6.660   6.179   5.644
  127SOL    HW2 1281   6.520   6.156   5.563
  128SOL     OW 1282   5.069   3.744   2.301
  128SOL    HW1 1283   5.164   3.769   2.322
  128SOL    HW2 1284   5.013   3.759   2.383
  129SOL     OW 1285   2.557   4.868   0.912
  129SOL    HW1 1286   2.501   4.930   0.967
  129SOL    HW2 1287   2.556   4.777   0.954
  130SOL     OW 1288   5.842   1.144   4.392
  130SOL    HW1 1289   5.876   1.237   4.405
  130SOL    HW2 1290   5.820   1.129   4.295
  131SOL     OW 1291   5.698   0.520   4.189
  131SOL    HW1 1292   5.630   0.507   4.117
  131SOL    HW2 1293   5.782   0.558   4.149
  132SOL     OW 1294   3.301   3.790   1.499
  132SOL    HW1 1295   3.336   3.865   1.442
  132SOL    HW2 1296   3.375   3.756   1.558
  133SOL     OW 1297   5.208   1.267   3.754
  133SOL    HW1 1298   5.188   1.283   3.851
  133SOL    HW2 1299   5.199   1.353   3.704
  134SOL     OW 1300   0.106   0.615   2.566
  134SOL    HW1 1301   0.170   0.608   2.642
  134SOL    HW2 1302   0.054   0.700   2.573
  135SOL     OW 1303   5.013   3.446   4.186
  135SOL    HW1 1304   5.006   3.400   4.097
  135SOL    HW2 1305   4.947   3.406   4.249
  136SOL     OW 1306   2.513   5.648   4.606
  136SOL    HW1 1307   2.452   5.578   4.570
  136SOL    HW2 1308   2.497   5.659   4.704
  137SOL     OW 1309   4.228   1.336   4.230
  137SOL    HW1 1310   4.269   1.369   4.315
  137SOL    HW2 1311   4.143   1.288   4.251
  138SOL     OW 1312   0.838   5.322   3.714
  138SOL    HW1 1313   0.866   5.251   3.648
  138SOL    HW2 1314   0.775   5.282   3.780
  139SOL     OW 1315   2.090   5.631   6.783
  139SOL    HW1 1316   2.117   5.606   6.690
  139SOL    HW2 1317   1.994   5.658   6.784
  140SOL     OW 1318   1.846   6.644   2.984
  140SOL    HW1 1319   1.774   6.650   3.053
  140SOL    HW2 1320   1.812   6.597   2.903
  141SOL     OW 1321   6.816   3.398   6.960
  141SOL    HW1 1322   6.813   3.469   0.008
  141SOL    HW2 1323   6.878   3.325   6.989
  142SOL     OW 1324   1.973   3.584   1.345
  142SOL    HW1 1325   2.052   3.570   1.405
  142SOL    HW2 1326   1.894   3.536   1.383
  143SOL     OW 1327   5.837   6.092   1.084
  143SOL    HW1 1328   5.777   6.089   1.004
  143SOL    HW2 1329   5.833   6.183   1.125
  144SOL     OW 1330   3.221   4.913   3.832
  144SOL    HW1 1331   3.183   4.918   3.740
  144SOL    HW2 1332   3.321   4.912   3.827
  145SOL     OW 1333   0.832   4.789   2.671
  145SOL    HW1 1334   0.889   4.719   2.629
  145SOL    HW2 1335   0.778   4.748   2.744
  146SOL     OW 1336   5.673   1.146   5.493
  146SOL    HW1 1337   5.597   1.210   5.507
  146SOL    HW2 1338   5.679   1.122   5.396
  147SOL     OW 1339   4.880   1.357   5.137
  147SOL    HW1 1340   4.905   1.446   5.098
  147SOL    HW2 1341   4.936   1.285   5.095
  148SOL     OW 1342   1.432   5.078   1.441
  148SOL    HW1 1343   1.422   4.980   1.457
  148SOL    HW2 1344   1.443   5.095   1.343
  149SOL     OW 1345   2.768   2.336   5.066
  149SOL    HW1 1346   2.825   2.361   4.988
  149SOL    HW2 1347   2.677   2.308   5.034
  150SOL     OW 1348   4.315   1.037   5.711
  150SOL    HW1 1349   4.392   1.067   5.767
  150SOL    HW2 1350   4.232   1.032   5.767
  151SOL     OW 1351   4.194   1.239   1.796
  151SOL    HW1 1352   4.275   1.215   1.742
  151SOL    HW2 1353   4.210   1.326   1.843
  152SOL     OW 1354   6.908   1.329   6.832
  152SOL    HW1 1355   6.886   1.351   6.737
  152SOL    HW2 1356   6.860   1.246   6.859
  153SOL     OW 1357   3.277   0.635   3.418
  153SOL    HW1 1358   3.291   0.685   3.332
  153SOL    HW2 1359   3.363   0.592   3.446
  154SOL     OW 1360   6.888   2.630   0.537
  154SOL    HW1 1361   6.912   2.649   0.632
  154SOL    HW2 1362   6.965   2.655   0.478
  155SOL     OW 1363   0.489   0.004   1.274
  155SOL    HW1 1364   0.428   0.010   1.353
  155SOL    HW2 1365   0.555   6.954   1.289
  156SOL     OW 1366   6.284   1.173   0.353
  156SOL    HW1 1367   6.299   1.077   0.328
  156SOL    HW2 1368   6.362   1.228   0.324
  157SOL     OW 1369   6.068   2.905   0.002
  157SOL    HW1 1370   6.088   2.968   0.077
  157SOL    HW2 1371   6.135   2.831   0.002
  158SOL     OW 1372   1.542   2.517   1.886
  158SOL    HW1 1373   1.556   2.603   1.838
  158SOL    HW2 1374   1.475   2.462   1.836
  159SOL     OW 1375   4.682   4.506   1.113
  159SOL    HW1 1376   4.694   4.418   1.160
  159SOL    HW2 1377   4.588   4.513   1.081
  160SOL     OW 1378   6.411   0.271   0.663
  160SOL    HW1 1379   6.438   0.312   0.750
  160SOL    HW2 1380   6.366   0.340   0.606
  161SOL     OW 1381   1.262   6.533   0.936
  161SOL    HW1 1382   1.269   6.434   0.923
  161SOL    HW2 1383   1.169   6.557   0.964
  162SOL     OW 1384   2.552   6.212   0.378
  162SOL    HW1 1385   2.624   6.172   0.435
  162SOL    HW2 1386   2.549   6.311   0.394
  163SOL     OW 1387   0.009   5.317   3.216
  163SOL    HW1 1388   7.004   5.256   3.141
  163SOL    HW2 1389   0.031   5.407   3.179
  164SOL     OW 1390   1.340   1.797   2.655
  164SOL    HW1 1391   1.337   1.890   2.619
  164SOL    HW2 1392   1.363   1.799   2.752
  165SOL     OW 1393   6.361   5.547   2.416
  165SOL    HW1 1394   6.294   5.563   2.343
  165SOL    HW2 1395   6.328   5.474   2.476
  166SOL     OW 1396   6.232   3.900   1.285
  166SOL    HW1 1397   6.241   3.812   1.331
  166SOL    HW2 1398   6.297   3.905   1.210
  167SOL     OW 1399   5.392   1.609   6.569
  167SOL    HW1 1400   5.296   1.586   6.579
  167SOL    HW2 1401   5.427   1.648   6.654
  168SOL     OW 1402   4.023   2.533   1.622
  168SOL    HW1 1403   3.996   2.445   1.582
  168SOL    HW2 1404   3.942   2.578   1.659
  169SOL     OW 1405   6.229   2.589   0.318
  169SOL    HW1 1406   6.262   2.532   0.393
  169SOL    HW2 1407   6.186   2.672   0.355
  170SOL     OW 1408   0.583   5.967   3.734
  170SOL    HW1 1409   0.617   5.921   3.816
  170SOL    HW2 1410   0.484   5.958   3.728
  171SOL     OW 1411   1.833   3.633   6.670
  171SOL    HW1 1412   1.821   3.534   6.664
  171SOL    HW2 1413   1.760   3.672   6.726
  172SOL     OW 1414   5.613   2.870   2.701
  172SOL    HW1 1415   5.664   2.901   2.781
  172SOL    HW2 1416   5.556   2.791   2.726
  173SOL     OW 1417   5.451   0.842   4.548
  173SOL    HW1 1418   5.406   0.790   4.621
  173SOL    HW2 1419   5.507   0.781   4.493
  174SOL     OW 1420   5.053   5.376   5.141
  174SOL    HW1 1421   5.097   5.434   5.074
  174SOL    HW2 1422   5.054   5.421   5.231
  175SOL     OW 1423   2.709   0.731   0.817
  175SOL    HW1 1424   2.648   0.787   0.873
  175SOL    HW2 1425   2.804   0.759   0.832
  176SOL     OW 1426   4.868   5.242   2.936
  176SOL    HW1 1427   4.933   5.221   3.008
  176SOL    HW2 1428   4.790   5.180   2.941
  177SOL     OW 1429   5.176   2.239   5.436
  177SOL    HW1 1430   5.231   2.155   5.434
  177SOL    HW2 1431   5.228   2.314   5.396
  178SOL     OW 1432   2.603   5.203   4.458
  178SOL    HW1 1433   2.537   5.129   4.472
  178SOL    HW2 1434   2.555   5.290   4.453
  179SOL     OW 1435   4.064   6.099   0.642
  179SOL    HW1 1436   4.002   6.053   0.706
  179SOL    HW2 1437   4.047   6.066   0.549
  180SOL     OW 1438   2.508   6.338   0.018
  180SOL    HW1 1439   2.432   6.362   0.078
  180SOL    HW2 1440   2.573   6.282   0.068
  181SOL     OW 1441   2.948   2.248   5.279
  181SOL    HW1 1442   2.878   2.272   5.212
  181SOL    HW2 1443   3.027   2.309   5.269
  182SOL     OW 1444   4.981   3.611   0.293
  182SOL    HW1 1445   4.989   3.686   0.227
  182SOL    HW2 1446   5.033   3.635   0.376
  183SOL     OW 1447   4.009   2.180   4.184
  183SOL    HW1 1448   3.914   2.166   4.211
  183SOL    HW2 1449   4.012   2.227   4.096
  184SOL     OW 1450   0.911   6.726   3.023
  184SOL    HW1 1451   0.967   6.807   3.041
  184SOL    HW2 1452   0.866   6.697   3.107
  185SOL     OW 1453   0.891   2.033   4.156
  185SOL    HW1 1454   0.922   2.026   4.062
  185SOL    HW2 1455   0.791   2.025   4.159
  186SOL     OW 1456   5.874   5.813   4.013
  186SOL    HW1 1457   5.789   5.761   4.018
  186SOL    HW2 1458   5.938   5.767   3.952
  187SOL     OW 1459   4.434   5.459   2.760
  187SOL    HW1 1460   4.429   5.512   2.675
  187SOL    HW2 1461   4.528   5.459   2.794
  188SOL     OW 1462   1.327   2.118   3.118
  188SOL    HW1 1463   1.305   2.149   3.211
  188SOL    HW2 1464   1.326   2.196   3.056
  189SOL     OW 1465   6.842   4.941   6.431
  189SOL    HW1 1466   6.799   4.957   6.520
  189SOL    HW2 1467   6.833   4.844   6.407
  190SOL     OW 1468   6.584   4.831   6.611
  190SOL    HW1 1469   6.628   4.782   6.535
  190SOL    HW2 1470   6.597   4.929   6.600
  191SOL     OW 1471   6.553   1.789   5.708
  191SOL    HW1 1472   6.587   1.789   5.802
  191SOL    HW2 1473   6.587   1.708   5.660
  192SOL     OW 1474   0.272   4.371   1.638
  192SOL    HW1 1475   0.371   4.384   1.637
  192SOL    HW2 1476   0.252   4.275   1.618
  193SOL     OW 1477   3.821   4.708   5.914
  193SOL    HW1 1478   3.864   4.761   5.841
  193SOL    HW2 1479   3.724   4.696   5.893
  194SOL     OW 1480   4.015   6.852   1.875
  194SOL    HW1 1481   4.007   6.946   1.842
  194SOL    HW2 1482   3.941   6.833   1.940
  195SOL     OW 1483   3.187   0.555   3.170
  195SOL    HW1 1484   3.193   0.558   3.269
  195SOL    HW2 1485   3.098   0.589   3.141
  196SOL     OW 1486   3.049   0.594   6.534
  196SOL    HW1 1487   3.032   0.513   6.479
  196SOL    HW2 1488   2.981   0.601   6.607
  197SOL     OW 1489   2.588   6.059   6.645
  197SOL    HW1 1490   2.489   6.071   6.650
  197SOL    HW2 1491   2.617   6.059   6.549
  198SOL     OW 1492   4.347   5.860   1.067
  198SOL    HW1 1493   4.313   5.876   0.974
  198SOL    HW2 1494   4.278   5.810   1.119
  199SOL     OW 1495   6.427   1.349   1.953
  199SOL    HW1 1496   6.400   1.261   1.914
  199SOL    HW2 1497   6.525   1.362   1.938
  200SOL     OW 1498   1.061   3.488   2.307
  200SOL    HW1 1499   1.042   3.504   2.211
  200SOL    HW2 1500   1.133   3.550   2.339
  201SOL     OW 1501   2.670   6.688   6.588
  201SOL    HW1 1502   2.658   6.766   6.527
  201SOL    HW2 1503   2.581   6.645   6.606
  202SOL     OW 1504   5.129   0.214   5.130
  202SOL    HW1 1505   5.098   0.308   5.112
  202SOL    HW2 1506   5.222   0.216   5.165
  203SOL     OW 1507   4.812   2.816   5.669
  203SOL    HW1 1508   4.900   2.780   5.701
  203SOL    HW2 1509   4.800   2.909   5.704
  204SOL     OW 1510   1.559   0.123   6.996
  204SOL    HW1 1511   1.556   0.217   6.960
  204SOL    HW2 1512   1.652   0.102   0.002
  205SOL     OW 1513   0.701   1.779   1.483
  205SOL    HW1 1514   0.660   1.700   1.438
  205SOL    HW2 1515   0.739   1.752   1.571
  206SOL     OW 1516   0.269   4.732   1.786
  206SOL    HW1 1517   0.236   4.695   1.700
  206SOL    HW2 1518   0.286   4.830   1.776
  207SOL     OW 1519   4.268   0.465   5.258
  207SOL    HW1 1520   4.241   0.530   5.329
  207SOL    HW2 1521   4.217   0.484   5.174
  208SOL     OW 1522   5.157   4.222   5.647
  208SOL    HW1 1523   5.191   4.261   5.561
  208SOL    HW2 1524   5.223   4.155   5.682
  209SOL     OW 1525   0.564   5.876   5.456
  209SOL    HW1 1526   0.569   5.859   5.555
  209SOL    HW2 1527   0.625   5.952   5.432
  210SOL     OW 1528   4.267   2.332   2.190
  210SOL    HW1 1529   4.182   2.376   2.163
  210SOL    HW2 1530   4.323   2.314   2.109
  211SOL     OW 1531   1.145   0.342   3.160
  211SOL    HW1 1532   1.128   0.437   3.131
  211SOL    HW2 1533   1.234   0.313   3.127
  212SOL     OW 1534   1.824   4.973   2.431
  212SOL    HW1 1535   1.912   4.956   2.475
  212SOL    HW2 1536   1.751   4.931   2.485
  213SOL     OW 1537   4.574   0.986   6.374
  213SOL    HW1 1538   4.474   0.982   6.363
  213SOL    HW2 1539   4.605   1.080   6.365
  214SOL     OW 1540   2.092   5.987   2.929
  214SOL    HW1 1541   2.063   5.945   2.844
  214SOL    HW2 1542   2.149   5.923   2.981
  215SOL     OW 1543   3.573   3.945   1.764
  215SOL    HW1 1544   3.494   3.914   1.816
  215SOL    HW2 1545   3.589   3.882   1.688
  216SOL     OW 1546   1.920   0.275   5.053
  216SOL    HW1 1547   1.886   0.324   5.134
  216SOL    HW2 1548   2.015   0.302   5.036
  217SOL     OW 1549   1.460   3.023   4.134
  217SOL    HW1 1550   1.412   2.936   4.121
  217SOL    HW2 1551   1.418   3.093   4.077
  218SOL     OW 1552   1.298   2.980   4.832
  218SOL    HW1 1553   1.213   3.031   4.846
  218SOL    HW2 1554   1.376   3.038   4.854
  219SOL     OW 1555   3.350   4.682   6.532
  219SOL    HW1 1556   3.260   4.700   6.571
  219SOL    HW2 1557   3.420   4.707   6.599
  220SOL     OW 1558   2.997   5.414   0.222
  220SOL    HW1 1559   3.086   5.370   0.214
  220SOL    HW2 1560   2.930   5.364   0.167
  221SOL     OW 1561   5.533   3.974   3.348
  221SOL    HW1 1562   5.565   3.974   3.253
  221SOL    HW2 1563   5.612   3.972   3.410
  222SOL     OW 1564   1.558   5.063   5.562
  222SOL    HW1 1565   1.590   5.137   5.622
  222SOL    HW2 1566   1.632   5.037   5.499
  223SOL     OW 1567   0.368   3.294   0.979
  223SOL    HW1 1568   0.400   3.347   1.058
  223SOL    HW2 1569   0.372   3.197   1.001
  224SOL     OW 1570   2.605   2.474   3.676
  224SOL    HW1 1571   2.679   2.416   3.710
  224SOL    HW2 1572   2.571   2.531   3.750
  225SOL     OW 1573   5.515   0.747   6.450
  225SOL    HW1 1574   5.604   0.719   6.413
  225SOL    HW2 1575   5.518   0.743   6.550
  226SOL     OW 1576   1.069   6.870   0.273
  226SOL    HW1 1577   1.092   6.925   0.353
  226SOL    HW2 1578   1.123   6.899   0.195
  227SOL     OW 1579   1.087   4.398   3.636
  227SOL    HW1 1580   1.095   4.497   3.631
  227SOL    HW2 1581   1.011   4.373   3.695
  228SOL     OW 1582   3.521   0.521   4.409
  228SOL    HW1 1583   3.594   0.453   4.403
  228SOL    HW2 1584   3.475   0.513   4.498
  229SOL     OW 1585   6.415   5.724   1.095
  229SOL    HW1 1586   6.397   5.820   1.115
  229SOL    HW2 1587   6.346   5.667   1.138
  230SOL     OW 1588   2.342   4.839   3.574
  230SOL    HW1 1589   2.409   4.774   3.539
  230SOL    HW2 1590   2.253   4.794   3.583
  231SOL     OW 1591   6.067   2.822   6.082
  231SOL    HW1 1592   6.119   2.875   6.015
  231SOL    HW2 1593   5.971   2.818   6.053
  232SOL     OW 1594   0.820   4.297   5.761
  232SOL    HW1 1595   0.920   4.290   5.770
  232SOL    HW2 1596   0.776   4.246   5.835
  233SOL     OW 1597   2.240   0.712   4.687
  233SOL    HW1 1598   2.279   0.625   4.718
  233SOL    HW2 1599   2.228   0.772   4.766
  234SOL     OW 1600   2.689   5.260   5.725
  234SOL    HW1 1601   2.595   5.230   5.709
  234SOL    HW2 1602   2.741   5.184   5.765
  235SOL     OW 1603   3.682   3.007   2.687
  235SOL    HW1 1604   3.627   2.951   2.748
  235SOL    HW2 1605   3.676   2.970   2.594
  236SOL     OW 1606   6.606   2.941   6.737
  236SOL    HW1 1607   6.681   2.889   6.779
  236SOL    HW2 1608   6.529   2.945   6.801
  237SOL     OW 1609   1.003   6.579   0.713
  237SOL    HW1 1610   1.051   6.658   0.673
  237SOL    HW2 1611   1.058   6.497   0.700
  238SOL     OW 1612   6.339   3.027   1.121
  238SOL    HW1 1613   6.280   3.048   1.043
  238SOL    HW2 1614   6.328   3.098   1.191
  239SOL     OW 1615   6.668   4.747   6.884
  239SOL    HW1 1616   6.629   4.776   6.796
  239SOL    HW2 1617   6.601   4.693   6.935
  240SOL     OW 1618   0.531   3.362   5.977
  240SOL    HW1 1619   0.592   3.283   5.972
  240SOL    HW2 1620   0.536   3.414   5.892
  241SOL     OW 1621   0.970   0.762   3.664
  241SOL    HW1 1622   0.950   0.729   3.572
  241SOL    HW2 1623   0.885   0.781   3.712
  242SOL     OW 1624   1.127   2.527   5.412
  242SOL    HW1 1625   1.098   2.610   5.365
  242SOL    HW2 1626   1.120   2.540   5.511
  243SOL     OW 1627   4.615   0.415   6.164
  243SOL    HW1 1628   4.521   0.419   6.199
  243SOL    HW2 1629   4.614   0.433   6.065
  244SOL     OW 1630   4.630   2.555   4.241
  244SOL    HW1 1631   4.587   2.631   4.192
  244SOL    HW2 1632   4.728   2.554   4.222
  245SOL     OW 1633   6.680   2.595   4.320
  245SOL    HW1 1634   6.701   2.693   4.323
  245SOL    HW2 1635   6.587   2.580   4.352
  246SOL     OW 1636   4.987   4.077   3.751
  246SOL    HW1 1637   4.975   4.055   3.848
  246SOL    HW2 1638   5.072   4.129   3.739
  247SOL     OW 1639   2.508   1.856   3.183
  247SOL    HW1 1640   2.462   1.908   3.254
  247SOL    HW2 1641   2.604   1.884   3.177
  248SOL     OW 1642   4.803   2.064   4.497
  248SOL    HW1 1643   4.845   2.039   4.410
  248SOL    HW2 1644   4.775   1.982   4.546
  249SOL     OW 1645   3.102   6.443   4.942
  249SOL    HW1 1646   3.038   6.405   5.008
  249SOL    HW2 1647   3.054   6.505   4.881
  250SOL     OW 1648   5.182   1.518   5.885
  250SOL    HW1 1649   5.094   1.565   5.889
  250SOL    HW2 1650   5.226   1.522   5.975
  251SOL     OW 1651   4.357   3.331   6.086
  251SOL    HW1 1652   4.393   3.308   6.176
  251SOL    HW2 1653   4.398   3.271   6.017
  252SOL     OW 1654   0.085   1.003   5.418
  252SOL    HW1 1655   0.038   0.981   5.503
  252SOL    HW2 1656   0.078   1.102   5.401
  253SOL     OW 1657   2.060   3.850   0.641
  253SOL    HW1 1658   2.061   3.942   0.682
  253SOL    HW2 1659   2.116   3.789   0.696
  254SOL     OW 1660   6.396   2.548   4.366
  254SOL    HW1 1661   6.312   2.527   4.316
  254SOL    HW2 1662   6.375   2.609   4.443
  255SOL     OW 1663   3.018   1.418   4.311
  255SOL    HW1 1664   3.062   1.424   4.401
  255SOL    HW2 1665   3.043   1.331   4.267
  256SOL     OW 1666   6.962   5.282   0.045
  256SOL    HW1 1667   6.936   5.367   7.023
  256SOL    HW2 1668   6.970   5.208   7.001
  257SOL     OW 1669   3.263   5.677   5.423
  257SOL    HW1 1670   3.246   5.664   5.325
  257SOL    HW2 1671   3.222   5.763   5.452
  258SOL     OW 1672   5.302   4.123   4.945
  258SOL    HW1 1673   5.256   4.048   4.992
  258SOL    HW2 1674   5.281   4.209   4.992
  259SOL     OW 1675   1.299   3.061   2.822
  259SOL    HW1 1676   1.318   3.084   2.918
  259SOL    HW2 1677   1.294   2.962   2.812
  260SOL     OW 1678   5.188   0.235   6.983
  260SOL    HW1 1679   5.118   0.224   0.031
  260SOL    HW2 1680   5.158   0.305   6.918
  261SOL     OW 1681   0.490   3.349   1.290
  261SOL    HW1 1682   0.558   3.347   1.364
  261SOL    HW2 1683   0.398   3.350   1.329
  262SOL     OW 1684   0.596   3.559   2.350
  262SOL    HW1 1685   0.527   3.597   2.412
  262SOL    HW2 1686   0.580   3.594   2.258
  263SOL     OW 1687   6.858   2.004   4.393
  263SOL    HW1 1688   6.830   2.068   4.465
  263SOL    HW2 1689   6.814   1.916   4.408
  264SOL     OW 1690   0.011   3.561   5.555
  264SOL    HW1 1691   0.102   3.602   5.553
  264SOL    HW2 1692   0.017   3.467   5.588
  265SOL     OW 1693   4.888   4.386   3.679
  265SOL    HW1 1694   4.911   4.461   3.617
  265SOL    HW2 1695   4.942   4.396   3.763
  266SOL     OW 1696   3.630   2.058   0.025
  266SOL    HW1 1697   3.625   2.155   0.050
  266SOL    HW2 1698   3.548   2.011   0.059
  267SOL     OW 1699   1.889   2.668   0.350
  267SOL    HW1 1700   1.833   2.638   0.273
  267SOL    HW2 1701   1.937   2.590   0.389
  268SOL     OW 1702   4.662   4.985   4.675
  268SOL    HW1 1703   4.586   4.919   4.678
  268SOL    HW2 1704   4.701   4.994   4.766
  269SOL     OW 1705   1.703   1.535   6.644
  269SOL    HW1 1706   1.671   1.617   6.597
  269SOL    HW2 1707   1.639   1.460   6.628
  270SOL     OW 1708   5.270   1.193   2.261
  270SOL    HW1 1709   5.241   1.107   2.302
  270SOL    HW2 1710   5.368   1.207   2.278
  271SOL     OW 1711   2.216   1.316   1.046
  271SOL    HW1 1712   2.310   1.309   1.079
  271SOL    HW2 1713   2.216   1.307   0.946
  272SOL     OW 1714   4.003   5.620   4.514
  272SOL    HW1 1715   4.053   5.697   4.474
  272SOL    HW2 1716   4.030   5.607   4.609
  273SOL     OW 1717   0.884   5.538   5.284
  273SOL    HW1 1718   0.907   5.479   5.206
  273SOL    HW2 1719   0.816   5.606   5.255
  274SOL     OW 1720   4.981   3.116   3.311
  274SOL    HW1 1721   4.950   3.160   3.227
  274SOL    HW2 1722   5.075   3.084   3.299
  275SOL     OW 1723   0.482   5.495   6.230
  275SOL    HW1 1724   0.559   5.544   6.270
  275SOL    HW2 1725   0.403   5.556   6.226
  276SOL     OW 1726   6.871   5.513   4.242
  276SOL    HW1 1727   6.927   5.556   4.170
  276SOL    HW2 1728   6.870   5.414   4.228
  277SOL     OW 1729   2.905   0.740   6.111
  277SOL    HW1 1730   2.873   0.803   6.182
  277SOL    HW2 1731   2.956   0.790   6.041
  278SOL     OW 1732   5.177   4.450   2.742
  278SOL    HW1 1733   5.120   4.424   2.819
  278SOL    HW2 1734   5.131   4.429   2.656
  279SOL     OW 1735   6.505   3.189   3.963
  279SOL    HW1 1736   6.441   3.121   3.928
  279SOL    HW2 1737   6.595   3.174   3.923
  280SOL     OW 1738   4.667   6.416   3.999
  280SOL    HW1 1739   4.735   6.343   4.005
  280SOL    HW2 1740   4.668   6.455   3.908
  281SOL     OW 1741   3.761   5.268   3.952
  281SOL    HW1 1742   3.860   5.265   3.947
  281SOL    HW2 1743   3.727   5.188   4.002
  282SOL     OW 1744   3.923   1.579   5.922
  282SOL    HW1 1745   3.858   1.570   5.997
  282SOL    HW2 1746   3.879   1.625   5.844
  283SOL     OW 1747   5.962   0.112   5.052
  283SOL    HW1 1748   6.025   0.037   5.034
  283SOL    HW2 1749   5.929   0.149   4.965
  284SOL     OW 1750   0.884   4.638   4.189
  284SOL    HW1 1751   0.968   4.691   4.183
  284SOL    HW2 1752   0.874   4.600   4.281
  285SOL     OW 1753   5.826   6.988   0.189
  285SOL    HW1 1754   5.884   0.043   0.166
  285SOL    HW2 1755   5.827   6.974   0.288
  286SOL     OW 1756   3.468   5.103   5.089
  286SOL    HW1 1757   3.439   5.045   5.165
  286SOL    HW2 1758   3.504   5.046   5.015
  287SOL     OW 1759   1.530   5.787   6.312
  287SOL    HW1 1760   1.506   5.782   6.409
  287SOL    HW2 1761   1.447   5.781   6.257
  288SOL     OW 1762   4.017   0.563   1.138
  288SOL    HW1 1763   3.920   0.573   1.161
  288SOL    HW2 1764   4.072   0.586   1.218
  289SOL     OW 1765   1.199   5.220   6.179
  289SOL    HW1 1766   1.133   5.203   6.105
  289SOL    HW2 1767   1.263   5.292   6.151
  290SOL     OW 1768   4.535   0.231   2.929
  290SOL    HW1 1769   4.578   0.315   2.896
  290SOL    HW2 1770   4.525   0.235   3.029
  291SOL     OW 1771   3.829   0.922   4.226
  291SOL    HW1 1772   3.856   0.952   4.318
  291SOL    HW2 1773   3.746   0.866   4.233
  292SOL     OW 1774   3.932   0.634   3.656
  292SOL    HW1 1775   3.946   0.539   3.629
  292SOL    HW2 1776   3.887   0.636   3.746
  293SOL     OW 1777   4.444   6.451   2.460
  293SOL    HW1 1778   4.505   6.372   2.463
  293SOL    HW2 1779   4.446   6.498   2.548
  294SOL     OW 1780   5.637   6.421   5.775
  294SOL    HW1 1781   5.717   6.377   5.815
  294SOL    HW2 1782   5.579   6.458   5.848
  295SOL     OW 1783   1.081   2.761   5.259
  295SOL    HW1 1784   1.031   2.841   5.293
  295SOL    HW2 1785   1.163   2.791   5.211
  296SOL     OW 1786   6.149   1.699   1.144
  296SOL    HW1 1787   6.229   1.666   1.193
  296SOL    HW2 1788   6.071   1.639   1.164
  297SOL     OW 1789   4.917   5.165   3.573
  297SOL    HW1 1790   4.895   5.254   3.534
  297SOL    HW2 1791   4.940   5.175   3.670
  298SOL     OW 1792   4.285   0.867   0.853
  298SOL    HW1 1793   4.193   0.906   0.852
  298SOL    HW2 1794   4.346   0.926   0.800
  299SOL     OW 1795   3.479   1.821   0.543
  299SOL    HW1 1796   3.382   1.806   0.523
  299SOL    HW2 1797   3.509   1.758   0.615
  300SOL     OW 1798   3.010   1.183   2.533
  300SOL    HW1 1799   2.936   1.228   2.583
  300SOL    HW2 1800   2.973   1.113   2.472
  301SOL     OW 1801   5.183   6.902   1.846
  301SOL    HW1 1802   5.106   6.948   1.802
  301SOL    HW2 1803   5.218   6.830   1.787
  302SOL     OW 1804   0.488   6.864   1.563
  302SOL    HW1 1805   0.456   6.927   1.634
  302SOL    HW2 1806   0.410   6.835   1.507
  303SOL     OW 1807   5.653   6.176   2.139
  303SOL    HW1 1808   5.693   6.208   2.053
  303SOL    HW2 1809   5.692   6.227   2.216
  304SOL     OW 1810   1.553   6.403   5.794
  304SOL    HW1 1811   1.564   6.314   5.749
  304SOL    HW2 1812   1.586   6.475   5.732
  305SOL     OW 1813   1.597   3.261   1.290
  305SOL    HW1 1814   1.679   3.246   1.233
  305SOL    HW2 1815   1.557   3.349   1.267
  306SOL     OW 1816   0.469   0.967   2.368
  306SOL    HW1 1817   0.555   0.990   2.414
  306SOL    HW2 1818   0.473   0.998   2.273
  307SOL     OW 1819   3.305   3.858   0.826
  307SOL    HW1 1820   3.221   3.812   0.853
  307SOL    HW2 1821   3.366   3.866   0.905
  308SOL     OW 1822   5.581   2.910   4.879
  308SOL    HW1 1823   5.667   2.959   4.889
  308SOL    HW2 1824   5.512   2.971   4.839
  309SOL     OW 1825   1.203   6.449   7.019
  309SOL    HW1 1826   1.236   6.516   6.953
  309SOL    HW2 1827   1.274   6.430   0.063
  310SOL     OW 1828   6.014   6.392   4.298
  310SOL    HW1 1829   6.100   6.436   4.324
  310SOL    HW2 1830   6.033   6.298   4.267
  311SOL     OW 1831   2.477   4.828   2.298
  311SOL    HW1 1832   2.397   4.799   2.351
  311SOL    HW2 1833   2.467   4.923   2.271
  312SOL     OW 1834   4.248   2.284   3.628
  312SOL    HW1 1835   4.293   2.294   3.540
  312SOL    HW2 1836   4.234   2.374   3.669
  313SOL     OW 1837   3.178   3.778   2.558
  313SOL    HW1 1838   3.273   3.780   2.589
  313SOL    HW2 1839   3.133   3.696   2.595
  314SOL     OW 1840   1.854   5.805   5.524
  314SOL    HW1 1841   1.794   5.868   5.476
  314SOL    HW2 1842   1.801   5.726   5.556
  315SOL     OW 1843   0.365   1.755   3.537
  315SOL    HW1 1844   0.288   1.740   3.476
  315SOL    HW2 1845   0.332   1.790   3.625
  316SOL     OW 1846   4.463   1.678   4.255
  316SOL    HW1 1847   4.394   1.656   4.187
  316SOL    HW2 1848   4.452   1.773   4.285
  317SOL     OW 1849   1.657   1.396   2.148
  317SOL    HW1 1850   1.602   1.350   2.079
  317SOL    HW2 1851   1.597   1.434   2.219
  318SOL     OW 1852   6.338   0.363   6.315
  318SOL    HW1 1853   6.250   0.377   6.361
  318SOL    HW2 1854   6.370   0.271   6.332
  319SOL     OW 1855   6.741   2.140   3.255
  319SOL    HW1 1856   6.656   2.090   3.239
  319SOL    HW2 1857   6.795   2.094   3.325
  320SOL     OW 1858   6.253   2.476   6.859
  320SOL    HW1 1859   6.257   2.377   6.848
  320SOL    HW2 1860   6.335   2.517   6.821
  321SOL     OW 1861   3.778   2.576   0.319
  321SOL    HW1 1862   3.849   2.637   0.356
  321SOL    HW2 1863   3.760   2.599   0.224
  322SOL     OW 1864   3.773   3.040   4.744
  322SOL    HW1 1865   3.771   2.986   4.659
  322SOL    HW2 1866   3.681   3.068   4.768
  323SOL     OW 1867   1.257   2.289   4.501
  323SOL    HW1 1868   1.179   2.268   4.442
  323SOL    HW2 1869   1.262   2.388   4.515
  324SOL     OW 1870   1.834   6.684   3.386
  324SOL    HW1 1871   1.771   6.668   3.309
  324SOL    HW2 1872   1.816   6.617   3.458
  325SOL     OW 1873   1.268   3.672   2.352
  325SOL    HW1 1874   1.330   3.672   2.274
  325SOL    HW2 1875   1.316   3.704   2.434
  326SOL     OW 1876   1.576   4.045   5.885
  326SOL    HW1 1877   1.627   4.047   5.971
  326SOL    HW2 1878   1.561   4.138   5.853
  327SOL     OW 1879   2.680   4.751   2.500
  327SOL    HW1 1880   2.641   4.838   2.471
  327SOL    HW2 1881   2.607   4.685   2.514
  328SOL     OW 1882   2.100   4.781   1.457
  328SOL    HW1 1883   2.159   4.731   1.393
  328SOL    HW2 1884   2.008   4.788   1.417
  329SOL     OW 1885   2.806   4.136   6.456
  329SOL    HW1 1886   2.816   4.235   6.457
  329SOL    HW2 1887   2.843   4.098   6.541
  330SOL     OW 1888   3.929   5.926   0.469
  330SOL    HW1 1889   3.830   5.921   0.465
  330SOL    HW2 1890   3.967   5.919   0.377
  331SOL     OW 1891   5.560   4.833   1.228
  331SOL    HW1 1892   5.574   4.778   1.147
  331SOL    HW2 1893   5.622   4.912   1.226
  332SOL     OW 1894   5.706   1.859   3.763
  332SOL    HW1 1895   5.734   1.914   3.842
  332SOL    HW2 1896   5.751   1.895   3.681
  333SOL     OW 1897   4.535   0.519   5.004
  333SOL    HW1 1898   4.463   0.500   4.937
  333SOL    HW2 1899   4.570   0.434   5.041
  334SOL     OW 1900   4.026   2.847   1.282
  334SOL    HW1 1901   3.942   2.861   1.230
  334SOL    HW2 1902   4.020   2.762   1.334
  335SOL     OW 1903   4.598   0.406   6.489
  335SOL    HW1 1904   4.638   0.477   6.431
  335SOL    HW2 1905   4.592   0.439   6.583
  336SOL     OW 1906   2.769   1.955   3.150
  336SOL    HW1 1907   2.775   2.000   3.239
  336SOL    HW2 1908   2.848   1.980   3.094
  337SOL     OW 1909   0.908   2.909   5.806
  337SOL    HW1 1910   0.856   2.992   5.784
  337SOL    HW2 1911   1.006   2.928   5.797
  338SOL     OW 1912   3.529   3.417   0.571
  338SOL    HW1 1913   3.490   3.482   0.635
  338SOL    HW2 1914   3.466   3.341   0.557
  339SOL     OW 1915   4.082   4.810   4.442
  339SOL    HW1 1916   4.060   4.780   4.535
  339SOL    HW2 1917   3.997   4.827   4.392
  340SOL     OW 1918   5.067   3.437   5.032
  340SOL    HW1 1919   5.055   3.341   5.007
  340SOL    HW2 1920   4.977   3.482   5.032
  341SOL     OW 1921   5.999   6.126   4.207
  341SOL    HW1 1922   5.986   6.029   4.229
  341SOL    HW2 1923   5.963   6.145   4.116
  342SOL     OW 1924   4.821   2.885   0.872
  342SOL    HW1 1925   4.854   2.810   0.928
  342SOL    HW2 1926   4.895   2.918   0.814
  343SOL     OW 1927   0.216   6.639   2.141
  343SOL    HW1 1928   0.162   6.662   2.061
  343SOL    HW2 1929   0.156   6.609   2.215
  344SOL     OW 1930   1.257   2.269   1.935
  344SOL    HW1 1931   1.262   2.292   1.838
  344SOL    HW2 1932   1.189   2.327   1.980
  345SOL     OW 1933   6.310   2.181   4.204
  345SOL    HW1 1934   6.396   2.193   4.154
  345SOL    HW2 1935   6.264   2.098   4.172
  346SOL     OW 1936   1.516   0.461   2.471
  346SOL    HW1 1937   1.598   0.456   2.528
  346SOL    HW2 1938   1.514   0.384   2.408
  347SOL     OW 1939   2.908   5.975   6.873
  347SOL    HW1 1940   2.956   6.047   6.823
  347SOL    HW2 1941   2.935   5.977   6.969
  348SOL     OW 1942   4.615   5.149   3.221
  348SOL    HW1 1943   4.570   5.158   3.132
  348SOL    HW2 1944   4.550   5.173   3.294
  349SOL     OW 1945   0.018   4.627   2.503
  349SOL    HW1 1946   6.955   4.619   2.452
  349SOL    HW2 1947   7.022   4.628   2.601
  350SOL     OW 1948   2.747   2.936   0.564
  350SOL    HW1 1949   2.773   2.986   0.481
  350SOL    HW2 1950   2.669   2.981   0.608
  351SOL     OW 1951   2.869   3.191   0.756
  351SOL    HW1 1952   2.893   3.164   0.662
  351SOL    HW2 1953   2.879   3.112   0.817
  352SOL     OW 1954   3.507   6.205   3.540
  352SOL    HW1 1955   3.525   6.107   3.535
  352SOL    HW2 1956   3.594   6.255   3.536
  353SOL     OW 1957   3.089   0.822   6.379
  353SOL    HW1 1958   3.075   0.769   6.463
  353SOL    HW2 1959   3.003   0.866   6.353
  354SOL     OW 1960   4.600   2.357   1.080
  354SOL    HW1 1961   4.588   2.350   0.981
  354SOL    HW2 1962   4.613   2.453   1.106
  355SOL     OW 1963   1.849   3.841   2.193
  355SOL    HW1 1964   1.775   3.898   2.229
  355SOL    HW2 1965   1.811   3.775   2.128
  356SOL     OW 1966   2.180   1.056   4.709
  356SOL    HW1 1967   2.179   1.014   4.618
  356SOL    HW2 1968   2.127   1.000   4.773
  357SOL     OW 1969   7.000   6.190   4.260
  357SOL    HW1 1970   6.973   6.265   4.320
  357SOL    HW2 1971   6.950   6.107   4.286
  358SOL     OW 1972   4.606   6.567   0.654
  358SOL    HW1 1973   4.664   6.625   0.711
  358SOL    HW2 1974   4.594   6.609   0.564
  359SOL     OW 1975   2.972   0.918   2.132
  359SOL    HW1 1976   3.028   0.944   2.210
  359SOL    HW2 1977   3.027   0.923   2.048
  360SOL     OW 1978   1.246   4.131   4.177
  360SOL    HW1 1979   1.270   4.129   4.274
  360SOL    HW2 1980   1.330   4.130   4.122
  361SOL     OW 1981   6.755   5.906   3.009
  361SOL    HW1 1982   6.837   5.959   2.987
  361SOL    HW2 1983   6.691   5.910   2.933
  362SOL     OW 1984   3.278   3.121   0.961
  362SOL    HW1 1985   3.243   3.077   1.044
  362SOL    HW2 1986   3.261   3.219   0.966
  363SOL     OW 1987   5.698   5.169   3.009
  363SOL    HW1 1988   5.669   5.158   2.914
  363SOL    HW2 1989   5.649   5.103   3.067
  364SOL     OW 1990   7.009   5.052   6.865
  364SOL    HW1 1991   7.010   5.124   6.795
  364SOL    HW2 1992   6.983   4.965   6.823
  365SOL     OW 1993   4.261   0.696   1.101
  365SOL    HW1 1994   4.301   0.735   1.018
  365SOL    HW2 1995   4.191   0.630   1.076
  366SOL     OW 1996   5.602   2.498   0.098
  366SOL    HW1 1997   5.539   2.566   0.138
  366SOL    HW2 1998   5.549   2.427   0.053
  367SOL     OW 1999   6.111   2.532   6.506
  367SOL    HW1 2000   6.112   2.433   6.514
  367SOL    HW2 2001   6.189   2.562   6.452
  368SOL     OW 2002   0.037   2.716   5.575
  368SOL    HW1 2003   0.106   2.723   5.647
  368SOL    HW2 2004   0.045   2.793   5.513
  369SOL     OW 2005   5.713   4.319   2.990
  369SOL    HW1 2006   5.749   4.348   2.901
  369SOL    HW2 2007   5.768   4.361   3.062
  370SOL     OW 2008   0.707   2.371   4.124
  370SOL    HW1 2009   0.655   2.432   4.185
  370SOL    HW2 2010   0.692   2.276   4.151
  371SOL     OW 2011   1.984   4.486   6.877
  371SOL    HW1 2012   1.932   4.561   6.837
  371SOL    HW2 2013   1.925   4.406   6.890
  372SOL     OW 2014   1.792   6.851   5.349
  372SOL    HW1 2015   1.783   6.908   5.268
  372SOL    HW2 2016   1.888   6.830   5.365
  373SOL     OW 2017   5.378   5.961   5.358
  373SOL    HW1 2018   5.420   6.046   5.391
  373SOL    HW2 2019   5.282   5.958   5.386
  374SOL     OW 2020   2.148   2.619   3.464
  374SOL    HW1 2021   2.159   2.603   3.366
  374SOL    HW2 2022   2.234   2.651   3.503
  375SOL     OW 2023   1.217   4.680   4.158
  375SOL    HW1 2024   1.289   4.746   4.180
  375SOL    HW2 2025   1.173   4.706   4.072
  376SOL     OW 2026   1.363   1.930   5.153
  376SOL    HW1 2027   1.458   1.938   5.125
  376SOL    HW2 2028   1.307   1.992   5.098
  377SOL     OW 2029   1.915   2.465   6.961
  377SOL    HW1 2030   1.889   2.370   6.942
  377SOL    HW2 2031   1.883   2.524   6.887
  378SOL     OW 2032   4.048   1.569   0.410
  378SOL    HW1 2033   3.953   1.593   0.390
  378SOL    HW2 2034   4.069   1.480   0.371
  379SOL     OW 2035   5.268   2.474   6.818
  379SOL    HW1 2036   5.281   2.430   6.906
  379SOL    HW2 2037   5.171   2.468   6.792
  380SOL     OW 2038   3.364   1.007   1.207
  380SOL    HW1 2039   3.394   1.048   1.121
  380SOL    HW2 2040   3.442   0.966   1.254
  381SOL     OW 2041   1.241   3.761   3.473
  381SOL    HW1 2042   1.312   3.767   3.403
  381SOL    HW2 2043   1.159   3.720   3.433
  382SOL     OW 2044   5.758   0.675   6.961
  382SOL    HW1 2045   5.729   0.667   0.033
  382SOL    HW2 2046   5.854   0.702   6.958
  383SOL     OW 2047   3.982   3.743   0.423
  383SOL    HW1 2048   3.988   3.685   0.342
  383SOL    HW2 2049   3.904   3.715   0.479
  384SOL     OW 2050   0.038   5.393   4.797
  384SOL    HW1 2051   0.061   5.395   4.700
  384SOL    HW2 2052   6.968   5.429   4.809
  385SOL     OW 2053   3.444   6.157   5.833
  385SOL    HW1 2054   3.351   6.185   5.812
  385SOL    HW2 2055   3.497   6.236   5.862
  386SOL     OW 2056   3.332   0.046   4.589
  386SOL    HW1 2057   3.330   0.142   4.616
  386SOL    HW2 2058   3.373   7.014   4.662
  387SOL     OW 2059   0.710   5.725   2.371
  387SOL    HW1 2060   0.661   5.806   2.340
  387SOL    HW2 2061   0.776   5.750   2.442
  388SOL     OW 2062   1.830   2.334   6.693
  388SOL    HW1 2063   1.802   2.429   6.702
  388SOL    HW2 2064   1.892   2.324   6.616
  389SOL     OW 2065   3.466   3.823   2.631
  389SOL    HW1 2066   3.452   3.921   2.649
  389SOL    HW2 2067   3.516   3.811   2.546
  390SOL     OW 2068   3.010   0.922   3.804
  390SOL    HW1 2069   2.978   0.877   3.887
  390SOL    HW2 2070   3.045   0.853   3.740
  391SOL     OW 2071   2.281   2.648   6.122
  391SOL    HW1 2072   2.242   2.687   6.206
  391SOL    HW2 2073   2.216   2.583   6.083
  392SOL     OW 2074   1.362   4.239   0.178
  392SOL    HW1 2075   1.417   4.318   0.151
  392SOL    HW2 2076   1.388   4.209   0.269
  393SOL     OW 2077   0.327   4.850   6.460
  393SOL    HW1 2078   0.234   4.888   6.459
  393SOL    HW2 2079   0.351   4.819   6.368
  394SOL     OW 2080   0.089   0.669   6.693
  394SOL    HW1 2081   0.091   0.766   6.718
  394SOL    HW2 2082   0.183   0.635   6.687
  395SOL     OW 2083   4.917   3.930   3.510
  395SOL    HW1 2084   4.991   3.931   3.576
  395SOL    HW2 2085   4.865   4.015   3.515
  396SOL     OW 2086   3.880   3.922   1.767
  396SOL    HW1 2087   3.814   3.908   1.693
  396SOL    HW2 2088   3.867   4.013   1.806
  397SOL     OW 2089   4.156   2.361   5.611
  397SOL    HW1 2090   4.185   2.336   5.704
  397SOL    HW2 2091   4.231   2.408   5.564
  398SOL     OW 2092   0.573   6.284   2.361
  398SOL    HW1 2093   0.543   6.323   2.448
  398SOL    HW2 2094   0.641   6.344   2.319
  399SOL     OW 2095   5.282   6.398   2.917
  399SOL    HW1 2096   5.216   6.383   2.843
  399SOL    HW2 2097   5.288   6.496   2.937
  400SOL     OW 2098   6.001   6.546   5.580
  400SOL    HW1 2099   5.940   6.472   5.551
  400SOL    HW2 2100   5.948   6.628   5.599
  401SOL     OW 2101   5.085   0.879   4.962
  401SOL    HW1 2102   5.054   0.825   5.040
  401SOL    HW2 2103   5.098   0.820   4.882
  402SOL     OW 2104   6.206   0.439   2.823
  402SOL    HW1 2105   6.113   0.476   2.822
  402SOL    HW2 2106   6.212   0.366   2.891
  403SOL     OW 2107   4.120   2.015   4.993
  403SOL    HW1 2108   4.156   2.088   4.937
  403SOL    HW2 2109   4.160   1.928   4.965
  404SOL     OW 2110   1.491   6.117   4.041
  404SOL    HW1 2111   1.521   6.057   4.116
  404SOL    HW2 2112   1.409   6.078   3.998
  405SOL     OW 2113   1.734   3.927   1.782
  405SOL    HW1 2114   1.800   3.988   1.737
  405SOL    HW2 2115   1.776   3.837   1.793
  406SOL     OW 2116   0.659   4.183   3.977
  406SOL    HW1 2117   0.682   4.251   4.047
  406SOL    HW2 2118   0.571   4.142   3.998
  407SOL     OW 2119   2.029   0.415   3.472
  407SOL    HW1 2120   2.047   0.340   3.409
  407SOL    HW2 2121   2.093   0.490   3.455
  408SOL     OW 2122   0.501   2.165   3.061
  408SOL    HW1 2123   0.488   2.235   2.991
  408SOL    HW2 2124   0.527   2.208   3.147
  409SOL     OW 2125   6.086   2.767   1.047
  409SOL    HW1 2126   6.054   2.809   0.962
  409SOL    HW2 2127   6.053   2.672   1.052
  410SOL     OW 2128   1.716   0.822   0.354
  410SOL    HW1 2129   1.664   0.740   0.377
  410SOL    HW2 2130   1.751   0.864   0.439
  411SOL     OW 2131   5.773   6.907   6.903
  411SOL    HW1 2132   5.692   6.954   6.868
  411SOL    HW2 2133   5.855   6.960   6.880
  412SOL     OW 2134   5.442   6.428   3.560
  412SOL    HW1 2135   5.417   6.431   3.657
  412SOL    HW2 2136   5.528   6.378   3.549
  413SOL     OW 2137   5.508   5.438   2.185
  413SOL    HW1 2138   5.589   5.453   2.129
  413SOL    HW2 2139   5.469   5.526   2.213
  414SOL     OW 2140   3.970   4.787   3.569
  414SOL    HW1 2141   4.038   4.746   3.629
  414SOL    HW2 2142   4.004   4.788   3.475
  415SOL     OW 2143   0.835   5.792   6.621
  415SOL    HW1 2144   0.898   5.804   6.698
  415SOL    HW2 2145   0.875   5.830   6.538
  416SOL     OW 2146   5.316   5.561   4.269
  416SOL    HW1 2147   5.216   5.561   4.277
  416SOL    HW2 2148   5.342   5.517   4.183
  417SOL     OW 2149   2.368   5.133   0.775
  417SOL    HW1 2150   2.314   5.203   0.730
  417SOL    HW2 2151   2.462   5.135   0.740
  418SOL     OW 2152   4.127   6.051   1.673
  418SOL    HW1 2153   4.077   6.082   1.754
  418SOL    HW2 2154   4.072   5.984   1.623
  419SOL     OW 2155   2.146   0.189   0.884
  419SOL    HW1 2156   2.099   0.224   0.965
  419SOL    HW2 2157   2.131   0.252   0.808
  420SOL     OW 2158   5.983   2.004   0.321
  420SOL    HW1 2159   5.933   1.921   0.347
  420SOL    HW2 2160   5.944   2.083   0.369
  421SOL     OW 2161   0.335   4.812   6.181
  421SOL    HW1 2162   0.368   4.756   6.105
  421SOL    HW2 2163   0.238   4.795   6.197
  422SOL     OW 2164   5.325   4.663   0.672
  422SOL    HW1 2165   5.294   4.578   0.629
  422SOL    HW2 2166   5.307   4.740   0.611
  423SOL     OW 2167   0.755   2.260   0.386
  423SOL    HW1 2168   0.769   2.357   0.364
  423SOL    HW2 2169   0.805   2.238   0.471
  424SOL     OW 2170   2.675   3.564   1.310
  424SOL    HW1 2171   2.714   3.626   1.242
  424SOL    HW2 2172   2.741   3.491   1.330
  425SOL     OW 2173   5.792   1.271   2.029
  425SOL    HW1 2174   5.875   1.286   1.974
  425SOL    HW2 2175   5.716   1.248   1.968
  426SOL     OW 2176   4.381   2.217   3.908
  426SOL    HW1 2177   4.314   2.150   3.876
  426SOL    HW2 2178   4.441   2.243   3.832
  427SOL     OW 2179   5.058   5.231   2.724
  427SOL    HW1 2180   5.100   5.145   2.754
  427SOL    HW2 2181   4.974   5.247   2.776
  428SOL     OW 2182   4.347   0.268   4.487
  428SOL    HW1 2183   4.383   0.359   4.468
  428SOL    HW2 2184   4.393   0.201   4.429
  429SOL     OW 2185   2.453   3.689   1.021
  429SOL    HW1 2186   2.388   3.649   1.085
  429SOL    HW2 2187   2.471   3.784   1.048
  430SOL     OW 2188   6.532   0.284   4.327
  430SOL    HW1 2189   6.444   0.291   4.376
  430SOL    HW2 2190   6.575   0.197   4.350
  431SOL     OW 2191   3.641   6.764   0.456
  431SOL    HW1 2192   3.560   6.729   0.504
  431SOL    HW2 2193   3.717   6.773   0.520
  432SOL     OW 2194   6.678   1.768   1.528
  432SOL    HW1 2195   6.596   1.711   1.523
  432SOL    HW2 2196   6.739   1.745   1.452
  433SOL     OW 2197   3.351   6.135   4.690
  433SOL    HW1 2198   3.364   6.065   4.760
  433SOL    HW2 2199   3.421   6.124   4.619
  434SOL     OW 2200   3.498   6.046   1.854
  434SOL    HW1 2201   3.541   6.112   1.792
  434SOL    HW2 2202   3.564   5.976   1.879
  435SOL     OW 2203   5.366   2.444   5.386
  435SOL    HW1 2204   5.309   2.482   5.314
  435SOL    HW2 2205   5.406   2.518   5.440
  436SOL     OW 2206   3.431   6.216   1.050
  436SOL    HW1 2207   3.351   6.259   1.092
  436SOL    HW2 2208   3.408   6.122   1.023
  437SOL     OW 2209   1.097   0.054   6.439
  437SOL    HW1 2210   1.129   0.111   6.364
  437SOL    HW2 2211   1.028   0.104   6.492
  438SOL     OW 2212   2.084   3.560   2.311
  438SOL    HW1 2213   2.125   3.474   2.280
  438SOL    HW2 2214   2.036   3.546   2.398
  439SOL     OW 2215   5.601   4.326   3.605
  439SOL    HW1 2216   5.631   4.310   3.511
  439SOL    HW2 2217   5.591   4.238   3.651
  440SOL     OW 2218   1.951   1.143   5.119
  440SOL    HW1 2219   1.927   1.210   5.049
  440SOL    HW2 2220   2.048   1.120   5.110
  441SOL     OW 2221   1.113   2.681   3.621
  441SOL    HW1 2222   1.166   2.609   3.664
  441SOL    HW2 2223   1.145   2.770   3.654
  442SOL     OW 2224   2.951   5.153   6.060
  442SOL    HW1 2225   2.992   5.241   6.036
  442SOL    HW2 2226   2.977   5.085   5.992
  443SOL     OW 2227   6.112   4.349   4.652
  443SOL    HW1 2228   6.193   4.375   4.704
  443SOL    HW2 2229   6.037   4.412   4.674
  444SOL     OW 2230   4.978   1.701   5.852
  444SOL    HW1 2231   4.927   1.773   5.806
  444SOL    HW2 2232   4.941   1.689   5.945
  445SOL     OW 2233   0.729   5.447   2.779
  445SOL    HW1 2234   0.671   5.466   2.858
  445SOL    HW2 2235   0.805   5.512   2.777
  446SOL     OW 2236   4.297   4.629   3.370
  446SOL    HW1 2237   4.369   4.580   3.322
  446SOL    HW2 2238   4.329   4.654   3.462
  447SOL     OW 2239   0.878   2.670   6.355
  447SOL    HW1 2240   0.883   2.637   6.260
  447SOL    HW2 2241   0.968   2.704   6.382
  448SOL     OW 2242   3.022   0.671   4.317
  448SOL    HW1 2243   2.940   0.629   4.279
  448SOL    HW2 2244   3.009   0.688   4.414
  449SOL     OW 2245   4.328   1.013   4.289
  449SOL    HW1 2246   4.424   1.022   4.261
  449SOL    HW2 2247   4.287   1.104   4.299
  450SOL     OW 2248   1.460   5.819   3.557
  450SOL    HW1 2249   1.511   5.791   3.639
  450SOL    HW2 2250   1.511   5.792   3.476
  451SOL     OW 2251   1.808   1.735   3.463
  451SOL    HW1 2252   1.826   1.802   3.391
  451SOL    HW2 2253   1.740   1.669   3.431
  452SOL     OW 2254   6.388   6.194   1.300
  452SOL    HW1 2255   6.439   6.277   1.322
  452SOL    HW2 2256   6.297   6.199   1.342
  453SOL     OW 2257   4.063   1.117   5.040
  453SOL    HW1 2258   4.054   1.082   4.946
  453SOL    HW2 2259   4.027   1.049   5.104
  454SOL     OW 2260   0.078   5.020   6.374
  454SOL    HW1 2261   7.004   5.003   6.392
  454SOL    HW2 2262   0.112   4.951   6.310
  455SOL     OW 2263   6.011   2.736   3.157
  455SOL    HW1 2264   6.097   2.740   3.105
  455SOL    HW2 2265   5.977   2.829   3.171
  456SOL     OW 2266   5.691   6.329   3.922
  456SOL    HW1 2267   5.660   6.393   3.991
  456SOL    HW2 2268   5.761   6.269   3.961
  457SOL     OW 2269   1.873   3.203   3.890
  457SOL    HW1 2270   1.909   3.255   3.813
  457SOL    HW2 2271   1.819   3.263   3.949
  458SOL     OW 2272   4.562   5.477   3.479
  458SOL    HW1 2273   4.530   5.476   3.384
  458SOL    HW2 2274   4.650   5.523   3.484
  459SOL     OW 2275   1.946   0.042   5.459
  459SOL    HW1 2276   1.974   0.049   5.364
  459SOL    HW2 2277   1.847   0.026   5.464
  460SOL     OW 2278   1.458   0.316   3.490
  460SOL    HW1 2279   1.378   0.375   3.488
  460SOL    HW2 2280   1.530   0.356   3.434
  461SOL     OW 2281   5.751   0.424   5.933
  461SOL    HW1 2282   5.805   0.382   6.006
  461SOL    HW2 2283   5.660   0.447   5.967
  462SOL     OW 2284   3.334   3.106   6.205
  462SOL    HW1 2285   3.259   3.170   6.191
  462SOL    HW2 2286   3.337   3.040   6.129
  463SOL     OW 2287   6.217   5.877   3.167
  463SOL    HW1 2288   6.120   5.902   3.170
  463SOL    HW2 2289   6.230   5.786   3.207
  464SOL     OW 2290   2.423   1.976   5.031
  464SOL    HW1 2291   2.482   2.057   5.027
  464SOL    HW2 2292   2.388   1.964   5.124
  465SOL     OW 2293   0.679   2.411   5.410
  465SOL    HW1 2294   0.775   2.395   5.385
  465SOL    HW2 2295   0.623   2.414   5.327
  466SOL     OW 2296   0.771   5.798   2.962
  466SOL    HW1 2297   0.795   5.811   2.865
  466SOL    HW2 2298   0.799   5.706   2.990
  467SOL     OW 2299   1.422   1.592   0.819
  467SOL    HW1 2300   1.390   1.619   0.910
  467SOL    HW2 2301   1.375   1.646   0.749
  468SOL     OW 2302   3.631   6.861   6.772
  468SOL    HW1 2303   3.725   6.860   6.738
  468SOL    HW2 2304   3.595   6.954   6.768
  469SOL     OW 2305   2.448   3.779   6.928
  469SOL    HW1 2306   2.350   3.758   6.923
  469SOL    HW2 2307   2.492   3.754   6.841
  470SOL     OW 2308   4.415   0.049   2.175
  470SOL    HW1 2309   4.379   0.142   2.180
  470SOL    HW2 2310   4.339   7.007   2.178
  471SOL     OW 2311   2.391   2.297   4.033
  471SOL    HW1 2312   2.442   2.379   4.057
  471SOL    HW2 2313   2.419   2.265   3.942
  472SOL     OW 2314   5.262   3.632   6.783
  472SOL    HW1 2315   5.285   3.535   6.770
  472SOL    HW2 2316   5.267   3.654   6.880
  473SOL     OW 2317   1.031   2.944   2.922
  473SOL    HW1 2318   1.085   2.993   2.991
  473SOL    HW2 2319   1.093   2.893   2.863
  474SOL     OW 2320   5.659   5.678   4.303
  474SOL    HW1 2321   5.662   5.635   4.213
  474SOL    HW2 2322   5.749   5.718   4.324
  475SOL     OW 2323   5.719   1.017   6.582
  475SOL    HW1 2324   5.756   0.939   6.632
  475SOL    HW2 2325   5.723   0.999   6.484
  476SOL     OW 2326   6.627   4.067   3.506
  476SOL    HW1 2327   6.642   4.165   3.504
  476SOL    HW2 2328   6.695   4.021   3.449
  477SOL     OW 2329   2.460   5.034   3.700
  477SOL    HW1 2330   2.394   4.961   3.683
  477SOL    HW2 2331   2.494   5.069   3.613
  478SOL     OW 2332   3.378   6.757   1.715
  478SOL    HW1 2333   3.387   6.755   1.616
  478SOL    HW2 2334   3.335   6.673   1.747
  479SOL     OW 2335   4.047   2.221   6.192
  479SOL    HW1 2336   4.131   2.168   6.183
  479SOL    HW2 2337   4.006   2.204   6.282
  480SOL     OW 2338   2.336   1.249   6.955
  480SOL    HW1 2339   2.419   1.289   6.994
  480SOL    HW2 2340   2.261   1.316   6.961
  481SOL     OW 2341   1.857   6.859   0.119
  481SOL    HW1 2342   1.793   6.785   0.096
  481SOL    HW2 2343   1.812   6.924   0.180
  482SOL     OW 2344   4.510   4.903   2.851
  482SOL    HW1 2345   4.468   4.894   2.942
  482SOL    HW2 2346   4.552   4.994   2.844
  483SOL     OW 2347   6.462   1.065   1.832
  483SOL    HW1 2348   6.368   1.051   1.800
  483SOL    HW2 2349   6.504   0.976   1.853
  484SOL     OW 2350   1.809   3.537   5.145
  484SOL    HW1 2351   1.753   3.460   5.115
  484SOL    HW2 2352   1.778   3.568   5.235
  485SOL     OW 2353   3.792   5.223   2.385
  485SOL    HW1 2354   3.840   5.301   2.346
  485SOL    HW2 2355   3.757   5.247   2.475
  486SOL     OW 2356   6.770   1.677   0.539
  486SOL    HW1 2357   6.726   1.767   0.537
  486SOL    HW2 2358   6.774   1.644   0.633
  487SOL     OW 2359   1.278   0.542   1.160
  487SOL    HW1 2360   1.287   0.562   1.257
  487SOL    HW2 2361   1.363   0.567   1.113
  488SOL     OW 2362   1.072   1.482   2.426
  488SOL    HW1 2363   0.973   1.484   2.445
  488SOL    HW2 2364   1.097   1.393   2.388
  489SOL     OW 2365   3.172   6.278   6.207
  489SOL    HW1 2366   3.201   6.305   6.115
  489SOL    HW2 2367   3.253   6.263   6.264
  490SOL     OW 2368   6.254   5.641   3.328
  490SOL    HW1 2369   6.248   5.571   3.257
  490SOL    HW2 2370   6.171   5.641   3.383
  491SOL     OW 2371   0.239   3.201   2.802
  491SOL    HW1 2372   0.253   3.157   2.890
  491SOL    HW2 2373   0.314   3.178   2.740
  492SOL     OW 2374   2.192   0.704   5.585
  492SOL    HW1 2375   2.215   0.800   5.566
  492SOL    HW2 2376   2.093   0.693   5.584
  493SOL     OW 2377   5.238   5.631   5.075
  493SOL    HW1 2378   5.299   5.619   5.154
  493SOL    HW2 2379   5.283   5.594   4.994
  494SOL     OW 2380   0.514   0.051   6.754
  494SOL    HW1 2381   0.419   0.020   6.746
  494SOL    HW2 2382   0.540   0.102   6.672
  495SOL     OW 2383   5.005   6.064   3.343
  495SOL    HW1 2384   5.050   6.152   3.325
  495SOL    HW2 2385   4.929   6.052   3.280
  496SOL     OW 2386   5.342   3.859   1.953
  496SOL    HW1 2387   5.267   3.804   1.917
  496SOL    HW2 2388   5.411   3.872   1.882
  497SOL     OW 2389   3.511   1.353   4.377
  497SOL    HW1 2390   3.549   1.421   4.314
  497SOL    HW2 2391   3.501   1.266   4.330
  498SOL     OW 2392   2.242   3.609   1.187
  498SOL    HW1 2393   2.178   3.685   1.200
  498SOL    HW2 2394   2.281   3.583   1.276
  499SOL     OW 2395   2.668   6.884   4.461
  499SOL    HW1 2396   2.768   6.889   4.462
  499SOL    HW2 2397   2.640   6.788   4.457
  500SOL     OW 2398   0.598   3.375   4.274
  500SOL    HW1 2399   0.613   3.326   4.360
  500SOL    HW2 2400   0.669   3.350   4.208
  501SOL     OW 2401   2.831   5.377   0.811
  501SOL    HW1 2402   2.901   5.444   0.784
  501SOL    HW2 2403   2.773   5.357   0.732
  502SOL     OW 2404   0.235   4.004   0.309
  502SOL    HW1 2405   0.313   3.942   0.309
  502SOL    HW2 2406   0.210   4.025   0.214
  503SOL     OW 2407   6.329   5.441   6.325
  503SOL    HW1 2408   6.429   5.446   6.329
  503SOL    HW2 2409   6.298   5.353   6.360
  504SOL     OW 2410   1.074   5.546   2.819
  504SOL    HW1 2411   1.078   5.477   2.891
  504SOL    HW2 2412   1.057   5.502   2.731
  505SOL     OW 2413   2.810   6.074   5.299
  505SOL    HW1 2414   2.717   6.111   5.292
  505SOL    HW2 2415   2.875   6.149   5.306
  506SOL     OW 2416   2.382   5.064   4.610
  506SOL    HW1 2417   2.397   5.113   4.695
  506SOL    HW2 2418   2.350   4.972   4.629
  507SOL     OW 2419   3.226   6.659   2.935
  507SOL    HW1 2420   3.268   6.652   3.025
  507SOL    HW2 2421   3.295   6.645   2.864
  508SOL     OW 2422   0.220   3.664   2.264
  508SOL    HW1 2423   0.280   3.726   2.315
  508SOL    HW2 2424   0.240   3.673   2.166
  509SOL     OW 2425   3.184   1.259   1.461
  509SOL    HW1 2426   3.121   1.211   1.521
  509SOL    HW2 2427   3.133   1.305   1.389
  510SOL     OW 2428   6.064   4.935   0.463
  510SOL    HW1 2429   6.150   4.884   0.456
  510SOL    HW2 2430   6.084   5.032   0.474
  511SOL     OW 2431   0.882   1.258   5.740
  511SOL    HW1 2432   0.842   1.281   5.652
  511SOL    HW2 2433   0.821   1.196   5.789
  512SOL     OW 2434   6.796   2.774   6.815
  512SOL    HW1 2435   6.862   2.745   6.745
  512SOL    HW2 2436   6.787   2.704   6.885
  513SOL     OW 2437   6.093   6.952   3.512
  513SOL    HW1 2438   6.052   6.863   3.531
  513SOL    HW2 2439   6.192   6.941   3.498
  514SOL     OW 2440   6.226   2.429   4.154
  514SOL    HW1 2441   6.245   2.334   4.180
  514SOL    HW2 2442   6.145   2.461   4.204
  515SOL     OW 2443   1.180   0.821   6.453
  515SOL    HW1 2444   1.163   0.723   6.446
  515SOL    HW2 2445   1.236   0.839   6.534
  516SOL     OW 2446   2.383   4.805   1.860
  516SOL    HW1 2447   2.313   4.758   1.913
  516SOL    HW2 2448   2.472   4.792   1.903
  517SOL     OW 2449   4.848   5.427   2.221
  517SOL    HW1 2450   4.780   5.497   2.241
  517SOL    HW2 2451   4.918   5.464   2.160
  518SOL     OW 2452   2.464   2.434   3.451
  518SOL    HW1 2453   2.432   2.343   3.427
  518SOL    HW2 2454   2.525   2.428   3.531
  519SOL     OW 2455   0.736   0.436   4.823
  519SOL    HW1 2456   0.823   0.395   4.793
  519SOL    HW2 2457   0.690   0.477   4.745
  520SOL     OW 2458   6.285   4.252   0.779
  520SOL    HW1 2459   6.367   4.306   0.760
  520SOL    HW2 2460   6.304   4.155   0.762
  521SOL     OW 2461   6.354   4.374   4.763
  521SOL    HW1 2462   6.380   4.377   4.859
  521SOL    HW2 2463   6.375   4.283   4.726
  522SOL     OW 2464   3.473   3.335   4.621
  522SOL    HW1 2465   3.563   3.378   4.625
  522SOL    HW2 2466   3.478   3.244   4.662
  523SOL     OW 2467   0.373   5.187   2.030
  523SOL    HW1 2468   0.453   5.237   2.062
  523SOL    HW2 2469   0.292   5.245   2.039
  524SOL     OW 2470   6.938   1.212   1.025
  524SOL    HW1 2471   6.992   1.269   1.087
  524SOL    HW2 2472   6.968   1.226   0.931
  525SOL     OW 2473   2.052   3.359   5.869
  525SOL    HW1 2474   2.050   3.389   5.964
  525SOL    HW2 2475   2.147   3.343   5.841
  526SOL     OW 2476   4.245   6.354   4.479
  526SOL    HW1 2477   4.226   6.434   4.421
  526SOL    HW2 2478   4.333   6.315   4.454
  527SOL     OW 2479   6.791   2.624   0.015
  527SOL    HW1 2480   6.698   2.589   0.011
  527SOL    HW2 2481   6.853   2.561   6.991
  528SOL     OW 2482   0.667   2.085   3.532
  528SOL    HW1 2483   0.732   2.092   3.456
  528SOL    HW2 2484   0.662   1.990   3.563
  529SOL     OW 2485   1.874   0.005   3.586
  529SOL    HW1 2486   1.908   0.065   3.514
  529SOL    HW2 2487   1.812   0.057   3.646
  530SOL     OW 2488   3.229   2.965   4.486
  530SOL    HW1 2489   3.326   2.949   4.472
  530SOL    HW2 2490   3.194   3.025   4.415
  531SOL     OW 2491   0.731   1.144   3.175
  531SOL    HW1 2492   0.655   1.081   3.184
  531SOL    HW2 2493   0.701   1.237   3.196
  532SOL     OW 2494   1.078   2.732   0.078
  532SOL    HW1 2495   1.036   2.795   0.143
  532SOL    HW2 2496   1.006   2.682   0.029
  533SOL     OW 2497   4.751   6.777   3.960
  533SOL    HW1 2498   4.714   6.803   4.049
  533SOL    HW2 2499   4.826   6.713   3.973
  534SOL     OW 2500   4.938   6.593   2.398
  534SOL    HW1 2501   4.989   6.657   2.340
  534SOL    HW2 2502   4.860   6.556   2.347
  535SOL     OW 2503   0.898   3.816   4.402
  535SOL    HW1 2504   0.977   3.852   4.353
  535SOL    HW2 2505   0.826   3.885   4.405
  536SOL     OW 2506   6.566   5.240   1.764
  536SOL    HW1 2507   6.641   5.305   1.777
  536SOL    HW2 2508   6.498   5.253   1.836
  537SOL     OW 2509   2.645   6.434   4.384
  537SOL    HW1 2510   2.687   6.375   4.453
  537SOL    HW2 2511   2.640   6.385   4.297
  538SOL     OW 2512   1.447   4.196   2.834
  538SOL    HW1 2513   1.437   4.203   2.933
  538SOL    HW2 2514   1.357   4.208   2.791
  539SOL     OW 2515   1.494   6.591   1.065
  539SOL    HW1 2516   1.461   6.677   1.103
  539SOL    HW2 2517   1.431   6.559   0.994
  540SOL     OW 2518   0.930   0.196   3.065
  540SOL    HW1 2519   0.860   0.253   3.021
  540SOL    HW2 2520   0.993   0.254   3.116
  541SOL     OW 2521   4.006   6.107   4.297
  541SOL    HW1 2522   4.102   6.090   4.276
  541SOL    HW2 2523   3.984   6.070   4.388
  542SOL     OW 2524   6.654   0.511   6.948
  542SOL    HW1 2525   6.665   0.565   0.008
  542SOL    HW2 2526   6.585   0.554   6.889
  543SOL     OW 2527   1.487   4.011   5.599
  543SOL    HW1 2528   1.558   3.953   5.559
  543SOL    HW2 2529   1.501   4.017   5.697
  544SOL     OW 2530   2.528   3.660   0.325
  544SOL    HW1 2531   2.528   3.609   0.239
  544SOL    HW2 2532   2.602   3.628   0.384
  545SOL     OW 2533   2.910   0.645   2.895
  545SOL    HW1 2534   2.847   0.718   2.869
  545SOL    HW2 2535   2.963   0.617   2.815
  546SOL     OW 2536   1.712   3.214   0.770
  546SOL    HW1 2537   1.661   3.299   0.778
  546SOL    HW2 2538   1.715   3.168   0.859
  547SOL     OW 2539   3.335   1.356   0.177
  547SOL    HW1 2540   3.247   1.309   0.180
  547SOL    HW2 2541   3.334   1.434   0.239
  548SOL     OW 2542   3.508   2.906   2.887
  548SOL    HW1 2543   3.486   2.818   2.929
  548SOL    HW2 2544   3.583   2.949   2.937
  549SOL     OW 2545   4.702   3.393   0.937
  549SOL    HW1 2546   4.627   3.409   1.001
  549SOL    HW2 2547   4.695   3.300   0.900
  550SOL     OW 2548   6.238   4.525   3.518
  550SOL    HW1 2549   6.155   4.553   3.469
  550SOL    HW2 2550   6.294   4.606   3.536
  551SOL     OW 2551   1.004   0.464   1.712
  551SOL    HW1 2552   1.083   0.488   1.657
  551SOL    HW2 2553   0.995   0.529   1.788
  552SOL     OW 2554   5.165   4.642   0.078
  552SOL    HW1 2555   5.155   4.662   7.004
  552SOL    HW2 2556   5.235   4.701   0.117
  553SOL     OW 2557   1.785   6.488   2.111
  553SOL    HW1 2558   1.687   6.502   2.129
  553SOL    HW2 2559   1.813   6.399   2.145
  554SOL     OW 2560   5.411   6.770   6.170
  554SOL    HW1 2561   5.461   6.716   6.104
  554SOL    HW2 2562   5.313   6.757   6.157
  555SOL     OW 2563   1.870   5.448   2.911
  555SOL    HW1 2564   1.810   5.377   2.876
  555SOL    HW2 2565   1.924   5.487   2.836
  556SOL     OW 2566   5.032   1.935   3.726
  556SOL    HW1 2567   4.948   1.973   3.764
  556SOL    HW2 2568   5.090   1.902   3.800
  557SOL     OW 2569   0.613   4.554   0.195
  557SOL    HW1 2570   0.590   4.597   0.108
  557SOL    HW2 2571   0.686   4.487   0.181
  558SOL     OW 2572   3.049   3.600   4.387
  558SOL    HW1 2573   3.132   3.646   4.354
  558SOL    HW2 2574   3.072   3.547   4.469
  559SOL     OW 2575   6.757   5.350   6.691
  559SOL    HW1 2576   6.813   5.367   6.772
  559SOL    HW2 2577   6.673   5.404   6.696
  560SOL     OW 2578   4.249   4.797   0.238
  560SOL    HW1 2579   4.168   4.742   0.259
  560SOL    HW2 2580   4.267   4.859   0.315
  561SOL     OW 2581   6.069   1.222   0.186
  561SOL    HW1 2582   6.095   1.151   0.120
  561SOL    HW2 2583   6.116   1.206   0.272
  562SOL     OW 2584   5.501   0.686   5.756
  562SOL    HW1 2585   5.470   0.758   5.818
  562SOL    HW2 2586   5.599   0.694   5.741
  563SOL     OW 2587   2.220   0.338   2.987
  563SOL    HW1 2588   2.314   0.367   2.971
  563SOL    HW2 2589   2.207   0.318   3.084
  564SOL     OW 2590   2.636   1.844   6.881
  564SOL    HW1 2591   2.599   1.808   6.966
  564SOL    HW2 2592   2.626   1.944   6.881
  565SOL     OW 2593   3.646   2.834   5.821
  565SOL    HW1 2594   3.626   2.774   5.899
  565SOL    HW2 2595   3.661   2.779   5.739
  566SOL     OW 2596   6.061   4.703   4.589
  566SOL    HW1 2597   5.983   4.654   4.628
  566SOL    HW2 2598   6.062   4.690   4.490
  567SOL     OW 2599   3.950   3.975   2.655
  567SOL    HW1 2600   3.913   4.031   2.580
  567SOL    HW2 2601   3.876   3.947   2.716
  568SOL     OW 2602   3.886   2.274   0.098
  568SOL    HW1 2603   3.882   2.310   0.005
  568SOL    HW2 2604   3.896   2.174   0.095
  569SOL     OW 2605   1.110   4.032   6.773
  569SOL    HW1 2606   1.087   3.940   6.740
  569SOL    HW2 2607   1.125   4.093   6.696
  570SOL     OW 2608   2.740   6.255   6.890
  570SOL    HW1 2609   2.747   6.201   6.974
  570SOL    HW2 2610   2.644   6.275   6.871
  571SOL     OW 2611   3.007   0.518   2.688
  571SOL    HW1 2612   3.028   0.426   2.656
  571SOL    HW2 2613   3.041   0.585   2.622
  572SOL     OW 2614   2.589   4.528   5.804
  572SOL    HW1 2615   2.576   4.619   5.842
  572SOL    HW2 2616   2.687   4.510   5.794
  573SOL     OW 2617   5.310   0.937   5.579
  573SOL    HW1 2618   5.233   0.993   5.550
  573SOL    HW2 2619   5.381   0.995   5.619
  574SOL     OW 2620   3.110   2.213   4.407
  574SOL    HW1 2621   3.020   2.256   4.412
  574SOL    HW2 2622   3.102   2.125   4.360
  575SOL     OW 2623   6.163   3.100   0.183
  575SOL    HW1 2624   6.115   3.109   0.270
  575SOL    HW2 2625   6.260   3.123   0.196
  576SOL     OW 2626   0.798   2.158   2.884
  576SOL    HW1 2627   0.861   2.103   2.830
  576SOL    HW2 2628   0.733   2.098   2.931
  577SOL     OW 2629   2.419   1.253   3.191
  577SOL    HW1 2630   2.358   1.216   3.121
  577SOL    HW2 2631   2.394   1.348   3.210
  578SOL     OW 2632   6.444   5.008   3.512
  578SOL    HW1 2633   6.448   5.069   3.433
  578SOL    HW2 2634   6.537   4.987   3.542
  579SOL     OW 2635   1.733   3.430   1.726
  579SOL    HW1 2636   1.646   3.415   1.774
  579SOL    HW2 2637   1.807   3.383   1.774
  580SOL     OW 2638   6.838   4.536   6.583
  580SOL    HW1 2639   6.782   4.477   6.643
  580SOL    HW2 2640   6.934   4.506   6.588
  581SOL     OW 2641   3.168   3.864   2.281
  581SOL    HW1 2642   3.173   3.823   2.372
  581SOL    HW2 2643   3.215   3.952   2.282
  582SOL     OW 2644   5.735   5.122   2.534
  582SOL    HW1 2645   5.684   5.077   2.607
  582SOL    HW2 2646   5.721   5.072   2.448
  583SOL     OW 2647   2.596   5.335   6.270
  583SOL    HW1 2648   2.636   5.425   6.289
  583SOL    HW2 2649   2.555   5.335   6.179
  584SOL     OW 2650   1.796   4.243   6.854
  584SOL    HW1 2651   1.813   4.271   6.759
  584SOL    HW2 2652   1.712   4.287   6.886
  585SOL     OW 2653   5.677   3.073   6.441
  585SOL    HW1 2654   5.732   3.112   6.368
  585SOL    HW2 2655   5.726   3.083   6.528
  586SOL     OW 2656   3.554   1.422   6.333
  586SOL    HW1 2657   3.463   1.379   6.340
  586SOL    HW2 2658   3.544   1.521   6.338
  587SOL     OW 2659   2.485   2.130   4.721
  587SOL    HW1 2660   2.424   2.111   4.644
  587SOL    HW2 2661   2.564   2.182   4.688
  588SOL     OW 2662   2.348   4.415   0.876
  588SOL    HW1 2663   2.441   4.433   0.845
  588SOL    HW2 2664   2.294   4.375   0.801
  589SOL     OW 2665   3.354   5.296   1.401
  589SOL    HW1 2666   3.436   5.353   1.411
  589SOL    HW2 2667   3.370   5.207   1.443
  590SOL     OW 2668   5.762   2.887   1.998
  590SOL    HW1 2669   5.680   2.896   1.942
  590SOL    HW2 2670   5.771   2.792   2.028
  591SOL     OW 2671   3.793   5.992   3.756
  591SOL    HW1 2672   3.717   6.036   3.804
  591SOL    HW2 2673   3.835   6.058   3.693
  592SOL     OW 2674   3.084   0.355   1.249
  592SOL    HW1 2675   3.153   0.309   1.305
  592SOL    HW2 2676   3.121   0.369   1.157
  593SOL     OW 2677   4.926   2.272   3.806
  593SOL    HW1 2678   5.023   2.252   3.820
  593SOL    HW2 2679   4.876   2.186   3.798
  594SOL     OW 2680   4.883   2.459   6.147
  594SOL    HW1 2681   4.836   2.432   6.231
  594SOL    HW2 2682   4.966   2.509   6.170
  595SOL     OW 2683   5.567   0.448   3.721
  595SOL    HW1 2684   5.488   0.428   3.663
  595SOL    HW2 2685   5.651   0.435   3.668
  596SOL     OW 2686   1.470   4.190   2.455
  596SOL    HW1 2687   1.397   4.254   2.430
  596SOL    HW2 2688   1.432   4.119   2.515
  597SOL     OW 2689   4.162   6.905   6.148
  597SOL    HW1 2690   4.139   6.853   6.065
  597SOL    HW2 2691   4.129   6.998   6.139
  598SOL     OW 2692   3.138   4.489   6.742
  598SOL    HW1 2693   3.183   4.416   6.690
  598SOL    HW2 2694   3.154   4.577   6.698
  599SOL     OW 2695   1.980   6.449   2.747
  599SOL    HW1 2696   1.961   6.441   2.649
  599SOL    HW2 2697   1.979   6.358   2.788
  600SOL     OW 2698   1.078   0.532   0.976
  600SOL    HW1 2699   0.993   0.573   1.010
  600SOL    HW2 2700   1.148   0.539   1.047
  601SOL     OW 2701   3.424   6.611   4.088
  601SOL    HW1 2702   3.353   6.649   4.148
  601SOL    HW2 2703   3.381   6.569   4.009
  602SOL     OW 2704   1.490   2.866   6.773
  602SOL    HW1 2705   1.404   2.893   6.815
  602SOL    HW2 2706   1.526   2.785   6.820
  603SOL     OW 2707   4.155   1.488   3.407
  603SOL    HW1 2708   4.060   1.466   3.427
  603SOL    HW2 2709   4.190   1.550   3.478
  604SOL     OW 2710   0.527   3.813   1.134
  604SOL    HW1 2711   0.515   3.716   1.113
  604SOL    HW2 2712   0.571   3.823   1.223
  605SOL     OW 2713   6.001   5.912   2.915
  605SOL    HW1 2714   6.015   5.830   2.970
  605SOL    HW2 2715   6.018   5.993   2.971
  606SOL     OW 2716   5.241   0.629   6.623
  606SOL    HW1 2717   5.200   0.719   6.606
  606SOL    HW2 2718   5.203   0.562   6.560
  607SOL     OW 2719   5.312   0.687   5.485
  607SOL    HW1 2720   5.404   0.652   5.466
  607SOL    HW2 2721   5.319   0.778   5.526
  608SOL     OW 2722   4.111   6.257   6.926
  608SOL    HW1 2723   4.033   6.203   6.896
  608SOL    HW2 2724   4.088   6.355   6.922
  609SOL     OW 2725   3.846   3.014   3.929
  609SOL    HW1 2726   3.748   3.011   3.950
  609SOL    HW2 2727   3.897   3.035   4.012
  610SOL     OW 2728   5.287   2.268   2.468
  610SOL    HW1 2729   5.358   2.215   2.423
  610SOL    HW2 2730   5.247   2.333   2.404
  611SOL     OW 2731   1.793   0.315   6.481
  611SOL    HW1 2732   1.837   0.391   6.530
  611SOL    HW2 2733   1.841   0.299   6.395
  612SOL     OW 2734   4.401   6.518   6.188
  612SOL    HW1 2735   4.382   6.426   6.222
  612SOL    HW2 2736   4.384   6.584   6.261
  613SOL     OW 2737   4.095   6.774   5.909
  613SOL    HW1 2738   4.005   6.808   5.935
  613SOL    HW2 2739   4.092   6.675   5.897
  614SOL     OW 2740   5.859   3.492   0.889
  614SOL    HW1 2741   5.810   3.471   0.974
  614SOL    HW2 2742   5.795   3.526   0.821
  615SOL     OW 2743   0.379   1.940   1.132
  615SOL    HW1 2744   0.307   2.007   1.146
  615SOL    HW2 2745   0.368   1.898   1.042
  616SOL     OW 2746   6.362   1.634   3.057
  616SOL    HW1 2747   6.413   1.663   2.976
  616SOL    HW2 2748   6.303   1.709   3.087
  617SOL     OW 2749   0.009   3.526   6.802
  617SOL    HW1 2750   6.957   3.543   6.866
  617SOL    HW2 2751   0.043   3.433   6.813
  618SOL     OW 2752   0.416   3.512   0.054
  618SOL    HW1 2753   0.379   3.595   0.095
  618SOL    HW2 2754   0.343   3.445   0.041
  619SOL     OW 2755   4.437   6.816   6.822
  619SOL    HW1 2756   4.518   6.758   6.829
  619SOL    HW2 2757   4.402   6.835   6.914
  620SOL     OW 2758   5.315   2.353   1.762
  620SOL    HW1 2759   5.340   2.437   1.714
  620SOL    HW2 2760   5.396   2.296   1.774
  621SOL     OW 2761   1.783   6.830   5.759
  621SOL    HW1 2762   1.704   6.878   5.797
  621SOL    HW2 2763   1.752   6.755   5.701
  622SOL     OW 2764   0.571   1.659   5.243
  622SOL    HW1 2765   0.600   1.627   5.152
  622SOL    HW2 2766   0.513   1.739   5.232
  623SOL     OW 2767   0.311   6.501   5.635
  623SOL    HW1 2768   0.383   6.551   5.587
  623SOL    HW2 2769   0.344   6.410   5.659
  624SOL     OW 2770   6.557   0.992   0.449
  624SOL    HW1 2771   6.655   0.998   0.427
  624SOL    HW2 2772   6.512   1.078   0.427
  625SOL     OW 2773   1.754   1.970   1.067
  625SOL    HW1 2774   1.674   2.029   1.068
  625SOL    HW2 2775   1.726   1.876   1.049
  626SOL     OW 2776   0.358   6.117   3.093
  626SOL    HW1 2777   0.303   6.194   3.062
  626SOL    HW2 2778   0.453   6.130   3.065
  627SOL     OW 2779   6.463   6.150   0.837
  627SOL    HW1 2780   6.465   6.093   0.919
  627SOL    HW2 2781   6.554   6.153   0.796
  628SOL     OW 2782   5.647   4.500   5.348
  628SOL    HW1 2783   5.674   4.425   5.288
  628SOL    HW2 2784   5.727   4.535   5.396
  629SOL     OW 2785   0.759   1.046   6.881
  629SOL    HW1 2786   0.824   1.068   6.808
  629SOL    HW2 2787   0.803   1.059   6.969
  630SOL     OW 2788   0.329   2.270   0.790
  630SOL    HW1 2789   0.334   2.176   0.756
  630SOL    HW2 2790   0.357   2.333   0.717
  631SOL     OW 2791   4.063   1.120   4.724
  631SOL    HW1 2792   4.156   1.156   4.713
  631SOL    HW2 2793   4.057   1.030   4.682
  632SOL     OW 2794   5.276   2.309   1.036
  632SOL    HW1 2795   5.306   2.228   0.986
  632SOL    HW2 2796   5.196   2.286   1.092
  633SOL     OW 2797   3.432   4.351   0.064
  633SOL    HW1 2798   3.367   4.415   0.024
  633SOL    HW2 2799   3.431   4.361   0.164
  634SOL     OW 2800   3.472   3.722   2.885
  634SOL    HW1 2801   3.478   3.767   2.796
  634SOL    HW2 2802   3.433   3.631   2.874
  635SOL     OW 2803   4.857   6.229   0.666
  635SOL    HW1 2804   4.837   6.289   0.743
  635SOL    HW2 2805   4.783   6.233   0.600
  636SOL     OW 2806   2.773   6.988   6.133
  636SOL    HW1 2807   2.806   6.982   6.039
  636SOL    HW2 2808   2.680   0.002   6.133
  637SOL     OW 2809   6.967   2.959   2.693
  637SOL    HW1 2810   6.930   2.996   2.779
  637SOL    HW2 2811   7.017   3.030   2.645
  638SOL     OW 2812   6.238   3.217   3.539
  638SOL    HW1 2813   6.185   3.187   3.459
  638SOL    HW2 2814   6.176   3.259   3.605
  639SOL     OW 2815   4.947   3.870   2.784
  639SOL    HW1 2816   4.918   3.788   2.833
  639SOL    HW2 2817   5.046   3.882   2.794
  640SOL     OW 2818   6.792   5.145   3.479
  640SOL    HW1 2819   6.718   5.197   3.435
  640SOL    HW2 2820   6.766   5.123   3.573
  641SOL     OW 2821   0.772   4.692   4.866
  641SOL    HW1 2822   0.808   4.779   4.832
  641SOL    HW2 2823   0.672   4.694   4.862
  642SOL     OW 2824   0.838   3.271   4.137
  642SOL    HW1 2825   0.851   3.187   4.085
  642SOL    HW2 2826   0.875   3.348   4.085
  643SOL     OW 2827   6.554   0.687   6.594
  643SOL    HW1 2828   6.638   0.737   6.616
  643SOL    HW2 2829   6.576   0.609   6.535
  644SOL     OW 2830   1.206   0.271   4.678
  644SOL    HW1 2831   1.229   0.313   4.590
  644SOL    HW2 2832   1.285   0.274   4.739
  645SOL     OW 2833   3.535   6.487   4.856
  645SOL    HW1 2834   3.559   6.414   4.919
  645SOL    HW2 2835   3.453   6.462   4.805
  646SOL     OW 2836   3.545   0.619   4.747
  646SOL    HW1 2837   3.577   0.659   4.833
  646SOL    HW2 2838   3.452   0.585   4.759
  647SOL     OW 2839   5.328   2.021   5.032
  647SOL    HW1 2840   5.343   1.924   5.013
  647SOL    HW2 2841   5.237   2.034   5.072
  648SOL     OW 2842   0.136   4.671   4.099
  648SOL    HW1 2843   0.073   4.712   4.165
  648SOL    HW2 2844   0.101   4.582   4.070
  649SOL     OW 2845   2.048   3.598   0.452
  649SOL    HW1 2846   2.025   3.651   0.534
  649SOL    HW2 2847   1.979   3.613   0.382
  650SOL     OW 2848   6.656   4.581   0.907
  650SOL    HW1 2849   6.624   4.494   0.944
  650SOL    HW2 2850   6.754   4.591   0.926
  651SOL     OW 2851   1.669   0.533   5.817
  651SOL    HW1 2852   1.684   0.535   5.719
  651SOL    HW2 2853   1.571   0.523   5.836
  652SOL     OW 2854   4.840   7.007   3.024
  652SOL    HW1 2855   4.740   7.007   3.017
  652SOL    HW2 2856   4.867   6.990   3.119
  653SOL     OW 2857   0.532   6.307   0.260
  653SOL    HW1 2858   0.490   6.374   0.320
  653SOL    HW2 2859   0.501   6.215   0.286
  654SOL     OW 2860   0.809   6.269   6.402
  654SOL    HW1 2861   0.833   6.224   6.316
  654SOL    HW2 2862   0.867   6.233   6.475
  655SOL     OW 2863   6.795   5.384   1.621
  655SOL    HW1 2864   6.879   5.355   1.575
  655SOL    HW2 2865   6.720   5.385   1.555
  656SOL     OW 2866   2.273   6.215   0.330
  656SOL    HW1 2867   2.206   6.189   0.400
  656SOL    HW2 2868   2.363   6.224   0.371
  657SOL     OW 2869   3.058   3.751   0.868
  657SOL    HW1 2870   2.996   3.810   0.815
  657SOL    HW2 2871   3.017   3.733   0.958
  658SOL     OW 2872   1.338   3.787   5.370
  658SOL    HW1 2873   1.255   3.744   5.404
  658SOL    HW2 2874   1.375   3.848   5.440
  659SOL     OW 2875   2.717   5.995   4.288
  659SOL    HW1 2876   2.749   5.909   4.329
  659SOL    HW2 2877   2.700   5.980   4.190
  660SOL     OW 2878   4.824   4.120   2.758
  660SOL    HW1 2879   4.796   4.153   2.668
  660SOL    HW2 2880   4.825   4.020   2.758
  661SOL     OW 2881   4.906   3.817   4.388
  661SOL    HW1 2882   4.969   3.808   4.310
  661SOL    HW2 2883   4.910   3.735   4.444
  662SOL     OW 2884   4.185   0.647   5.442
  662SOL    HW1 2885   4.091   0.612   5.448
  662SOL    HW2 2886   4.184   0.747   5.439
  663SOL     OW 2887   1.239   3.940   0.406
  663SOL    HW1 2888   1.305   4.015   0.412
  663SOL    HW2 2889   1.265   3.878   0.332
  664SOL     OW 2890   1.396   5.739   6.546
  664SOL    HW1 2891   1.315   5.708   6.496
  664SOL    HW2 2892   1.423   5.669   6.612
  665SOL     OW 2893   4.556   5.481   1.195
  665SOL    HW1 2894   4.599   5.566   1.226
  665SOL    HW2 2895   4.627   5.418   1.161
  666SOL     OW 2896   4.478   2.084   1.463
  666SOL    HW1 2897   4.443   2.125   1.379
  666SOL    HW2 2898   4.408   2.088   1.534
  667SOL     OW 2899   6.517   4.196   4.182
  667SOL    HW1 2900   6.556   4.287   4.196
  667SOL    HW2 2901   6.527   4.170   4.086
  668SOL     OW 2902   5.087   5.479   0.033
  668SOL    HW1 2903   5.081   5.418   6.977
  668SOL    HW2 2904   5.051   5.432   0.114
  669SOL     OW 2905   3.231   5.865   2.876
  669SOL    HW1 2906   3.157   5.932   2.887
  669SOL    HW2 2907   3.199   5.776   2.907
  670SOL     OW 2908   3.298   3.002   2.068
  670SOL    HW1 2909   3.254   3.019   2.156
  670SOL    HW2 2910   3.230   2.969   2.003
  671SOL     OW 2911   2.299   6.169   6.857
  671SOL    HW1 2912   2.373   6.235   6.873
  671SOL    HW2 2913   2.222   6.215   6.813
  672SOL     OW 2914   0.677   4.302   2.099
  672SOL    HW1 2915   0.732   4.219   2.102
  672SOL    HW2 2916   0.646   4.319   2.005
  673SOL     OW 2917   5.569   0.460   1.362
  673SOL    HW1 2918   5.540   0.377   1.314
  673SOL    HW2 2919   5.669   0.468   1.357
  674SOL     OW 2920   6.318   3.651   4.691
  674SOL    HW1 2921   6.289   3.678   4.599
  674SOL    HW2 2922   6.417   3.638   4.693
  675SOL     OW 2923   6.916   1.117   5.044
  675SOL    HW1 2924   6.877   1.130   4.953
  675SOL    HW2 2925   6.972   1.034   5.044
  676SOL     OW 2926   3.462   4.860   3.028
  676SOL    HW1 2927   3.374   4.842   2.985
  676SOL    HW2 2928   3.535   4.853   2.961
  677SOL     OW 2929   5.896   1.191   5.969
  677SOL    HW1 2930   5.841   1.215   6.049
  677SOL    HW2 2931   5.836   1.174   5.891
  678SOL     OW 2932   1.472   1.432   5.298
  678SOL    HW1 2933   1.500   1.342   5.264
  678SOL    HW2 2934   1.423   1.481   5.226
  679SOL     OW 2935   4.589   0.709   4.011
  679SOL    HW1 2936   4.586   0.663   3.922
  679SOL    HW2 2937   4.584   0.808   3.998
  680SOL     OW 2938   5.379   5.164   5.850
  680SOL    HW1 2939   5.400   5.253   5.892
  680SOL    HW2 2940   5.461   5.107   5.850
  681SOL     OW 2941   6.151   0.122   0.760
  681SOL    HW1 2942   6.241   0.161   0.742
  681SOL    HW2 2943   6.085   0.160   0.695
  682SOL     OW 2944   1.656   6.605   6.496
  682SOL    HW1 2945   1.719   6.589   6.419
  682SOL    HW2 2946   1.692   6.560   6.578
  683SOL     OW 2947   3.652   1.108   6.616
  683SOL    HW1 2948   3.700   1.144   6.697
  683SOL    HW2 2949   3.714   1.047   6.566
  684SOL     OW 2950   5.813   1.509   6.473
  684SOL    HW1 2951   5.729   1.489   6.421
  684SOL    HW2 2952   5.893   1.489   6.416
  685SOL     OW 2953   4.901   0.049   5.522
  685SOL    HW1 2954   4.978   0.100   5.485
  685SOL    HW2 2955   4.878   6.997   5.459
  686SOL     OW 2956   6.024   3.042   3.485
  686SOL    HW1 2957   5.993   3.070   3.394
  686SOL    HW2 2958   5.960   3.077   3.554
  687SOL     OW 2959   6.752   2.413   5.258
  687SOL    HW1 2960   6.756   2.513   5.249
  687SOL    HW2 2961   6.658   2.382   5.243
  688SOL     OW 2962   1.497   3.423   0.553
  688SOL    HW1 2963   1.571   3.392   0.494
  688SOL    HW2 2964   1.449   3.499   0.509
  689SOL     OW 2965   0.578   4.347   5.347
  689SOL    HW1 2966   0.530   4.272   5.393
  689SOL    HW2 2967   0.669   4.358   5.386
  690SOL     OW 2968   0.611   3.726   3.573
  690SOL    HW1 2969   0.706   3.692   3.577
  690SOL    HW2 2970   0.604   3.811   3.625
  691SOL     OW 2971   2.582   1.595   6.264
  691SOL    HW1 2972   2.669   1.643   6.248
  691SOL    HW2 2973   2.537   1.635   6.344
  692SOL     OW 2974   3.472   6.098   3.237
  692SOL    HW1 2975   3.410   6.074   3.163
  692SOL    HW2 2976   3.467   6.028   3.308
  693SOL     OW 2977   6.464   1.802   2.872
  693SOL    HW1 2978   6.403   1.881   2.865
  693SOL    HW2 2979   6.444   1.737   2.799
  694SOL     OW 2980   3.410   6.290   2.308
  694SOL    HW1 2981   3.416   6.240   2.394
  694SOL    HW2 2982   3.396   6.226   2.232
  695SOL     OW 2983   4.244   5.123   6.018
  695SOL    HW1 2984   4.179   5.061   6.063
  695SOL    HW2 2985   4.319   5.143   6.081
  696SOL     OW 2986   2.756   5.356   2.165
  696SOL    HW1 2987   2.742   5.408   2.250
  696SOL    HW2 2988   2.840   5.302   2.172
  697SOL     OW 2989   1.030   2.815   4.156
  697SOL    HW1 2990   1.092   2.880   4.200
  697SOL    HW2 2991   0.936   2.845   4.167
  698SOL     OW 2992   5.728   6.835   6.521
  698SOL    HW1 2993   5.790   6.782   6.578
  698SOL    HW2 2994   5.767   6.926   6.505
  699SOL     OW 2995   0.564   3.916   6.990
  699SOL    HW1 2996   0.498   3.952   0.033
  699SOL    HW2 2997   0.604   3.832   0.002
  700SOL     OW 2998   2.791   1.435   4.609
  700SOL    HW1 2999   2.769   1.342   4.639
  700SOL    HW2 3000   2.826   1.488   4.686
  701SOL     OW 3001   7.022   4.175   5.389
  701SOL    HW1 3002   6.945   4.195   5.449
  701SOL    HW2 3003   6.989   4.158   5.296
  702SOL     OW 3004   5.559   5.811   6.143
  702SOL    HW1 3005   5.506   5.853   6.217
  702SOL    HW2 3006   5.518   5.835   6.055
  703SOL     OW 3007   4.126   4.195   6.570
  703SOL    HW1 3008   4.123   4.263   6.643
  703SOL    HW2 3009   4.113   4.241   6.482
  704SOL     OW 3010   1.881   1.627   6.041
  704SOL    HW1 3011   1.944   1.637   6.119
  704SOL    HW2 3012   1.788   1.613   6.075
  705SOL     OW 3013   5.151   6.708   3.786
  705SOL    HW1 3014   5.095   6.656   3.721
  705SOL    HW2 3015   5.241   6.665   3.794
  706SOL     OW 3016   4.468   2.010   3.312
  706SOL    HW1 3017   4.441   2.103   3.289
  706SOL    HW2 3018   4.391   1.962   3.353
  707SOL     OW 3019   4.334   0.299   2.195
  707SOL    HW1 3020   4.340   0.332   2.289
  707SOL    HW2 3021   4.376   0.366   2.134
  708SOL     OW 3022   4.070   0.282   1.643
  708SOL    HW1 3023   3.993   0.340   1.670
  708SOL    HW2 3024   4.064   0.195   1.690
  709SOL     OW 3025   0.948   5.182   6.972
  709SOL    HW1 3026   0.916   5.251   6.907
  709SOL    HW2 3027   1.037   5.148   6.944
  710SOL     OW 3028   3.604   3.533   2.215
  710SOL    HW1 3029   3.677   3.564   2.275
  710SOL    HW2 3030   3.528   3.498   2.270
  711SOL     OW 3031   0.591   1.986   5.824
  711SOL    HW1 3032   0.533   1.989   5.906
  711SOL    HW2 3033   0.636   2.075   5.812
  712SOL     OW 3034   2.652   3.636   0.617
  712SOL    HW1 3035   2.642   3.611   0.713
  712SOL    HW2 3036   2.651   3.736   0.609
  713SOL     OW 3037   3.065   3.230   0.141
  713SOL    HW1 3038   3.141   3.271   0.091
  713SOL    HW2 3039   3.098   3.149   0.190
  714SOL     OW 3040   6.747   5.430   4.861
  714SOL    HW1 3041   6.690   5.372   4.920
  714SOL    HW2 3042   6.715   5.524   4.865
  715SOL     OW 3043   5.487   6.399   0.691
  715SOL    HW1 3044   5.535   6.448   0.618
  715SOL    HW2 3045   5.534   6.415   0.778
  716SOL     OW 3046   1.525   6.710   0.484
  716SOL    HW1 3047   1.619   6.743   0.493
  716SOL    HW2 3048   1.495   6.671   0.571
  717SOL     OW 3049   5.866   4.951   6.526
  717SOL    HW1 3050   5.784   5.006   6.542
  717SOL    HW2 3051   5.856   4.861   6.568
  718SOL     OW 3052   4.483   2.211   5.674
  718SOL    HW1 3053   4.508   2.276   5.745
  718SOL    HW2 3054   4.414   2.148   5.709
  719SOL     OW 3055   6.635   2.766   0.890
  719SOL    HW1 3056   6.579   2.692   0.928
  719SOL    HW2 3057   6.730   2.755   0.918
  720SOL     OW 3058   3.559   0.987   5.947
  720SOL    HW1 3059   3.646   0.970   5.901
  720SOL    HW2 3060   3.497   1.034   5.884
  721SOL     OW 3061   1.993   0.258   4.306
  721SOL    HW1 3062   2.081   0.221   4.274
  721SOL    HW2 3063   1.926   0.253   4.232
  722SOL     OW 3064   2.626   6.869   4.957
  722SOL    HW1 3065   2.678   6.838   4.877
  722SOL    HW2 3066   2.606   6.967   4.948
  723SOL     OW 3067   2.173   3.707   3.011
  723SOL    HW1 3068   2.174   3.649   3.092
  723SOL    HW2 3069   2.172   3.650   2.929
  724SOL     OW 3070   1.341   2.035   4.475
  724SOL    HW1 3071   1.312   2.127   4.500
  724SOL    HW2 3072   1.308   1.970   4.544
  725SOL     OW 3073   2.877   5.754   1.425
  725SOL    HW1 3074   2.810   5.689   1.462
  725SOL    HW2 3075   2.835   5.806   1.350
  726SOL     OW 3076   3.893   4.830   0.963
  726SOL    HW1 3077   3.967   4.897   0.956
  726SOL    HW2 3078   3.807   4.876   0.983
  727SOL     OW 3079   5.034   5.244   5.702
  727SOL    HW1 3080   5.015   5.190   5.784
  727SOL    HW2 3081   4.965   5.316   5.693
  728SOL     OW 3082   6.998   3.718   4.941
  728SOL    HW1 3083   6.942   3.792   4.903
  728SOL    HW2 3084   7.022   3.740   5.036
  729SOL     OW 3085   2.267   1.551   0.128
  729SOL    HW1 3086   2.200   1.544   0.202
  729SOL    HW2 3087   2.227   1.515   0.044
  730SOL     OW 3088   5.766   0.991   3.660
  730SOL    HW1 3089   5.834   0.950   3.600
  730SOL    HW2 3090   5.760   0.937   3.744
  731SOL     OW 3091   5.842   3.977   5.902
  731SOL    HW1 3092   5.893   4.010   5.981
  731SOL    HW2 3093   5.838   3.878   5.903
  732SOL     OW 3094   0.831   3.067   1.272
  732SOL    HW1 3095   0.926   3.038   1.265
  732SOL    HW2 3096   0.796   3.090   1.181
  733SOL     OW 3097   5.894   4.820   5.244
  733SOL    HW1 3098   5.890   4.754   5.320
  733SOL    HW2 3099   5.867   4.910   5.277
  734SOL     OW 3100   6.980   4.594   2.772
  734SOL    HW1 3101   6.992   4.496   2.790
  734SOL    HW2 3102   6.884   4.619   2.788
  735SOL     OW 3103   4.140   2.899   0.455
  735SOL    HW1 3104   4.214   2.871   0.392
  735SOL    HW2 3105   4.169   2.979   0.506
  736SOL     OW 3106   7.006   6.919   2.519
  736SOL    HW1 3107   7.005   6.999   2.579
  736SOL    HW2 3108   0.027   6.943   2.432
  737SOL     OW 3109   4.169   2.450   6.479
  737SOL    HW1 3110   4.158   2.545   6.450
  737SOL    HW2 3111   4.083   2.401   6.467
  738SOL     OW 3112   2.228   3.910   2.088
  738SOL    HW1 3113   2.309   3.950   2.129
  738SOL    HW2 3114   2.226   3.929   1.990
  739SOL     OW 3115   3.940   6.748   4.350
  739SOL    HW1 3116   3.856   6.802   4.345
  739SOL    HW2 3117   3.977   6.734   4.258
  740SOL     OW 3118   4.590   6.655   0.401
  740SOL    HW1 3119   4.497   6.655   0.363
  740SOL    HW2 3120   4.648   6.594   0.347
  741SOL     OW 3121   2.353   5.890   2.996
  741SOL    HW1 3122   2.380   5.956   2.927
  741SOL    HW2 3123   2.351   5.935   3.086
  742SOL     OW 3124   2.002   6.670   1.648
  742SOL    HW1 3125   2.046   6.744   1.699
  742SOL    HW2 3126   1.915   6.647   1.692
  743SOL     OW 3127   1.611   4.336   5.231
  743SOL    HW1 3128   1.617   4.324   5.132
  743SOL    HW2 3129   1.558   4.261   5.271
  744SOL     OW 3130   5.249   0.079   6.302
  744SOL    HW1 3131   5.297   0.010   6.356
  744SOL    HW2 3132   5.237   0.046   6.208
  745SOL     OW 3133   1.238   5.228   4.090
  745SOL    HW1 3134   1.187   5.232   4.004
  745SOL    HW2 3135   1.235   5.317   4.135
  746SOL     OW 3136   0.803   5.046   5.893
  746SOL    HW1 3137   0.772   5.018   5.802
  746SOL    HW2 3138   0.793   4.970   5.957
  747SOL     OW 3139   4.598   6.156   4.740
  747SOL    HW1 3140   4.606   6.253   4.764
  747SOL    HW2 3141   4.555   6.107   4.815
  748SOL     OW 3142   3.365   5.121   2.669
  748SOL    HW1 3143   3.279   5.110   2.620
  748SOL    HW2 3144   3.405   5.210   2.649
  749SOL     OW 3145   6.676   4.254   5.002
  749SOL    HW1 3146   6.619   4.261   5.083
  749SOL    HW2 3147   6.634   4.189   4.937
  750SOL     OW 3148   2.083   2.755   0.524
  750SOL    HW1 3149   2.130   2.824   0.468
  750SOL    HW2 3150   1.990   2.741   0.489
  751SOL     OW 3151   4.062   2.495   6.160
  751SOL    HW1 3152   3.995   2.512   6.087
  751SOL    HW2 3153   4.047   2.403   6.197
  752SOL     OW 3154   3.917   2.121   1.853
  752SOL    HW1 3155   3.982   2.197   1.848
  752SOL    HW2 3156   3.833   2.152   1.897
  753SOL     OW 3157   1.427   3.224   3.945
  753SOL    HW1 3158   1.395   3.189   3.857
  753SOL    HW2 3159   1.497   3.294   3.930
  754SOL     OW 3160   5.323   2.735   6.274
  754SOL    HW1 3161   5.278   2.818   6.239
  754SOL    HW2 3162   5.395   2.761   6.338
  755SOL     OW 3163   1.505   5.343   6.167
  755SOL    HW1 3164   1.564   5.264   6.151
  755SOL    HW2 3165   1.469   5.376   6.080
  756SOL     OW 3166   3.357   0.482   1.207
  756SOL    HW1 3167   3.436   0.537   1.180
  756SOL    HW2 3168   3.315   0.443   1.126
  757SOL     OW 3169   0.473   6.439   3.204
  757SOL    HW1 3170   0.483   6.403   3.297
  757SOL    HW2 3171   0.521   6.527   3.197
  758SOL     OW 3172   4.159   0.835   2.182
  758SOL    HW1 3173   4.213   0.800   2.259
  758SOL    HW2 3174   4.062   0.829   2.204
  759SOL     OW 3175   0.541   0.703   0.591
  759SOL    HW1 3176   0.487   0.762   0.531
  759SOL    HW2 3177   0.491   0.687   0.676
  760SOL     OW 3178   4.769   0.228   5.872
  760SOL    HW1 3179   4.821   0.155   5.827
  760SOL    HW2 3180   4.744   0.198   5.964
  761SOL     OW 3181   5.348   3.958   5.609
  761SOL    HW1 3182   5.358   3.867   5.568
  761SOL    HW2 3183   5.297   3.951   5.694
  762SOL     OW 3184   1.670   0.192   4.948
  762SOL    HW1 3185   1.759   0.226   4.978
  762SOL    HW2 3186   1.662   0.200   4.849
  763SOL     OW 3187   4.432   5.267   6.964
  763SOL    HW1 3188   4.430   5.188   6.903
  763SOL    HW2 3189   4.520   5.269   7.013
  764SOL     OW 3190   4.018   0.763   4.055
  764SOL    HW1 3191   3.984   0.852   4.085
  764SOL    HW2 3192   4.027   0.703   4.135
  765SOL     OW 3193   1.350   5.829   1.098
  765SOL    HW1 3194   1.420   5.808   1.166
  765SOL    HW2 3195   1.339   5.751   1.036
  766SOL     OW 3196   1.401   3.113   0.408
  766SOL    HW1 3197   1.487   3.120   0.458
  766SOL    HW2 3198   1.328   3.089   0.471
  767SOL     OW 3199   6.149   5.833   2.659
  767SOL    HW1 3200   6.086   5.837   2.736
  767SOL    HW2 3201   6.128   5.907   2.595
  768SOL     OW 3202   2.247   6.737   1.990
  768SOL    HW1 3203   2.189   6.741   2.071
  768SOL    HW2 3204   2.196   6.772   1.911
  769SOL     OW 3205   3.287   0.484   4.817
  769SOL    HW1 3206   3.189   0.480   4.795
  769SOL    HW2 3207   3.298   0.516   4.911
  770SOL     OW 3208   2.161   4.328   3.157
  770SOL    HW1 3209   2.070   4.292   3.138
  770SOL    HW2 3210   2.226   4.295   3.088
  771SOL     OW 3211   2.447   5.737   2.424
  771SOL    HW1 3212   2.415   5.738   2.329
  771SOL    HW2 3213   2.410   5.657   2.471
  772SOL     OW 3214   6.615   5.106   0.824
  772SOL    HW1 3215   6.685   5.150   0.767
  772SOL    HW2 3216   6.604   5.158   0.909
  773SOL     OW 3217   6.809   3.898   4.058
  773SOL    HW1 3218   6.752   3.826   4.017
  773SOL    HW2 3219   6.881   3.924   3.994
  774SOL     OW 3220   1.198   1.594   2.099
  774SOL    HW1 3221   1.257   1.628   2.172
  774SOL    HW2 3222   1.113   1.647   2.097
  775SOL     OW 3223   0.688   2.025   3.216
  775SOL    HW1 3224   0.646   1.957   3.277
  775SOL    HW2 3225   0.630   2.037   3.135
  776SOL     OW 3226   0.307   0.651   5.562
  776SOL    HW1 3227   0.226   0.697   5.600
  776SOL    HW2 3228   0.283   0.607   5.475
  777SOL     OW 3229   3.295   5.340   1.127
  777SOL    HW1 3230   3.206   5.300   1.108
  777SOL    HW2 3231   3.337   5.295   1.206
  778SOL     OW 3232   3.337   1.814   3.023
  778SOL    HW1 3233   3.347   1.714   3.020
  778SOL    HW2 3234   3.274   1.843   2.951
  779SOL     OW 3235   0.153   1.993   2.815
  779SOL    HW1 3236   0.057   1.966   2.809
  779SOL    HW2 3237   0.172   2.066   2.749
  780SOL     OW 3238   6.428   3.727   3.603
  780SOL    HW1 3239   6.408   3.825   3.597
  780SOL    HW2 3240   6.352   3.681   3.649
  781SOL     OW 3241   5.207   1.217   6.819
  781SOL    HW1 3242   5.192   1.291   6.884
  781SOL    HW2 3243   5.304   1.216   6.792
  782SOL     OW 3244   1.161   3.730   6.969
  782SOL    HW1 3245   1.126   3.760   6.880
  782SOL    HW2 3246   1.132   3.794   0.017
  783SOL     OW 3247   4.214   4.933   1.290
  783SOL    HW1 3248   4.233   4.932   1.388
  783SOL    HW2 3249   4.115   4.945   1.275
  784SOL     OW 3250   5.200   6.351   6.983
  784SOL    HW1 3251   5.298   6.370   6.983
  784SOL    HW2 3252   5.182   6.265   0.007
  785SOL     OW 3253   6.892   3.188   2.986
  785SOL    HW1 3254   6.966   3.159   3.047
  785SOL    HW2 3255   6.804   3.179   3.033
  786SOL     OW 3256   1.483   0.851   0.760
  786SOL    HW1 3257   1.555   0.824   0.825
  786SOL    HW2 3258   1.397   0.806   0.785
  787SOL     OW 3259   2.803   0.583   6.685
  787SOL    HW1 3260   2.744   0.565   6.607
  787SOL    HW2 3261   2.773   0.666   6.732
  788SOL     OW 3262   3.078   2.029   5.147
  788SOL    HW1 3263   3.009   2.060   5.212
  788SOL    HW2 3264   3.115   2.107   5.097
  789SOL     OW 3265   5.271   3.867   0.861
  789SOL    HW1 3266   5.319   3.786   0.828
  789SOL    HW2 3267   5.192   3.839   0.916
  790SOL     OW 3268   2.589   0.748   4.340
  790SOL    HW1 3269   2.673   0.694   4.345
  790SOL    HW2 3270   2.541   0.728   4.255
  791SOL     OW 3271   3.359   5.747   3.315
  791SOL    HW1 3272   3.408   5.814   3.370
  791SOL    HW2 3273   3.285   5.793   3.264
  792SOL     OW 3274   0.382   0.693   2.008
  792SOL    HW1 3275   0.332   0.645   2.080
  792SOL    HW2 3276   0.471   0.722   2.044
  793SOL     OW 3277   4.944   5.941   2.675
  793SOL    HW1 3278   5.028   5.973   2.631
  793SOL    HW2 3279   4.942   5.971   2.770
  794SOL     OW 3280   3.124   3.484   5.279
  794SOL    HW1 3281   3.190   3.411   5.261
  794SOL    HW2 3282   3.151   3.567   5.229
  795SOL     OW 3283   3.954   6.245   5.118
  795SOL    HW1 3284   4.043   6.280   5.147
  795SOL    HW2 3285   3.883   6.309   5.147
  796SOL     OW 3286   1.303   2.008   6.240
  796SOL    HW1 3287   1.281   2.091   6.290
  796SOL    HW2 3288   1.337   1.939   6.304
  797SOL     OW 3289   5.003   2.611   2.197
  797SOL    HW1 3290   4.998   2.711   2.189
  797SOL    HW2 3291   4.936   2.580   2.264
  798SOL     OW 3292   5.076   0.198   1.418
  798SOL    HW1 3293   4.976   0.202   1.423
  798SOL    HW2 3294   5.104   0.105   1.392
  799SOL     OW 3295   5.983   1.195   4.690
  799SOL    HW1 3296   5.938   1.220   4.604
  799SOL    HW2 3297   5.990   1.096   4.696
  800SOL     OW 3298   5.325   1.388   2.508
  800SOL    HW1 3299   5.416   1.427   2.487
  800SOL    HW2 3300   5.285   1.353   2.424
  801SOL     OW 3301   2.023   3.461   4.167
  801SOL    HW1 3302   2.024   3.474   4.067
  801SOL    HW2 3303   2.016   3.364   4.188
  802SOL     OW 3304   4.540   0.463   0.762
  802SOL    HW1 3305   4.445   0.495   0.759
  802SOL    HW2 3306   4.549   0.380   0.708
  803SOL     OW 3307   6.952   6.366   4.789
  803SOL    HW1 3308   6.969   6.353   4.691
  803SOL    HW2 3309   6.999   6.295   4.841
  804SOL     OW 3310   5.867   6.115   0.051
  804SOL    HW1 3311   5.821   6.173   7.006
  804SOL    HW2 3312   5.889   6.027   0.009
  805SOL     OW 3313   3.470   1.340   5.575
  805SOL    HW1 3314   3.527   1.301   5.503
  805SOL    HW2 3315   3.528   1.388   5.640
  806SOL     OW 3316   5.143   1.399   4.015
  806SOL    HW1 3317   5.171   1.434   4.104
  806SOL    HW2 3318   5.128   1.475   3.952
  807SOL     OW 3319   0.659   1.578   4.962
  807SOL    HW1 3320   0.662   1.487   4.920
  807SOL    HW2 3321   0.616   1.642   4.898
  808SOL     OW 3322   4.549   3.378   6.289
  808SOL    HW1 3323   4.602   3.461   6.275
  808SOL    HW2 3324   4.568   3.342   6.380
  809SOL     OW 3325   0.214   4.459   1.936
  809SOL    HW1 3326   0.219   4.535   2.001
  809SOL    HW2 3327   0.218   4.495   1.842
  810SOL     OW 3328   3.567   2.765   0.832
  810SOL    HW1 3329   3.645   2.825   0.845
  810SOL    HW2 3330   3.521   2.787   0.746
  811SOL     OW 3331   3.759   5.740   4.404
  811SOL    HW1 3332   3.817   5.815   4.434
  811SOL    HW2 3333   3.794   5.654   4.440
  812SOL     OW 3334   0.338   1.813   1.423
  812SOL    HW1 3335   0.353   1.813   1.324
  812SOL    HW2 3336   0.400   1.749   1.467
  813SOL     OW 3337   3.838   5.440   4.366
  813SOL    HW1 3338   3.828   5.463   4.269
  813SOL    HW2 3339   3.911   5.496   4.406
  814SOL     OW 3340   5.615   6.014   2.504
  814SOL    HW1 3341   5.604   6.112   2.484
  814SOL    HW2 3342   5.554   5.988   2.578
  815SOL     OW 3343   0.275   3.357   3.203
  815SOL    HW1 3344   0.340   3.430   3.182
  815SOL    HW2 3345   0.196   3.364   3.142
  816SOL     OW 3346   6.865   6.755   0.219
  816SOL    HW1 3347   6.963   6.745   0.231
  816SOL    HW2 3348   6.819   6.740   0.307
  817SOL     OW 3349   2.224   3.701   1.504
  817SOL    HW1 3350   2.184   3.786   1.470
  817SOL    HW2 3351   2.319   3.718   1.531
  818SOL     OW 3352   6.654   2.922   1.597
  818SOL    HW1 3353   6.587   2.872   1.652
  818SOL    HW2 3354   6.697   2.859   1.532
  819SOL     OW 3355   5.485   2.935   3.153
  819SOL    HW1 3356   5.494   2.847   3.107
  819SOL    HW2 3357   5.559   2.946   3.219
  820SOL     OW 3358   2.432   2.640   5.783
  820SOL    HW1 3359   2.451   2.666   5.689
  820SOL    HW2 3360   2.470   2.708   5.845
  821SOL     OW 3361   1.875   4.058   0.484
  821SOL    HW1 3362   1.926   3.998   0.546
  821SOL    HW2 3363   1.937   4.098   0.417
  822SOL     OW 3364   1.409   4.862   4.229
  822SOL    HW1 3365   1.379   4.944   4.277
  822SOL    HW2 3366   1.506   4.871   4.204
  823SOL     OW 3367   4.619   4.008   6.124
  823SOL    HW1 3368   4.695   4.038   6.181
  823SOL    HW2 3369   4.559   3.948   6.178
  824SOL     OW 3370   5.393   0.935   5.304
  824SOL    HW1 3371   5.345   0.924   5.392
  824SOL    HW2 3372   5.401   0.846   5.259
  825SOL     OW 3373   1.258   3.915   1.142
  825SOL    HW1 3374   1.275   3.939   1.237
  825SOL    HW2 3375   1.240   3.817   1.135
  826SOL     OW 3376   5.477   3.363   6.292
  826SOL    HW1 3377   5.416   3.378   6.214
  826SOL    HW2 3378   5.438   3.293   6.352
  827SOL     OW 3379   3.488   5.647   6.686
  827SOL    HW1 3380   3.452   5.596   6.608
  827SOL    HW2 3381   3.575   5.608   6.714
  828SOL     OW 3382   5.248   6.393   6.036
  828SOL    HW1 3383   5.219   6.439   5.952
  828SOL    HW2 3384   5.257   6.294   6.018
  829SOL     OW 3385   2.977   3.783   3.848
  829SOL    HW1 3386   3.025   3.857   3.895
  829SOL    HW2 3387   2.987   3.698   3.899
  830SOL     OW 3388   5.054   4.673   6.847
  830SOL    HW1 3389   5.010   4.761   6.828
  830SOL    HW2 3390   5.111   4.647   6.770
  831SOL     OW 3391   5.937   0.904   5.593
  831SOL    HW1 3392   5.957   0.919   5.496
  831SOL    HW2 3393   5.843   0.870   5.602
  832SOL     OW 3394   2.360   0.959   1.322
  832SOL    HW1 3395   2.283   0.901   1.346
  832SOL    HW2 3396   2.418   0.974   1.402
  833SOL     OW 3397   0.355   4.406   6.331
  833SOL    HW1 3398   0.382   4.501   6.315
  833SOL    HW2 3399   0.286   4.402   6.403
  834SOL     OW 3400   2.750   3.185   1.141
  834SOL    HW1 3401   2.662   3.229   1.124
  834SOL    HW2 3402   2.767   3.181   1.240
  835SOL     OW 3403   3.363   0.368   4.591
  835SOL    HW1 3404   3.271   0.336   4.566
  835SOL    HW2 3405   3.359   0.415   4.679
  836SOL     OW 3406   3.580   6.371   0.210
  836SOL    HW1 3407   3.637   6.432   0.265
  836SOL    HW2 3408   3.487   6.407   0.205
  837SOL     OW 3409   5.466   6.181   0.027
  837SOL    HW1 3410   5.452   6.225   0.116
  837SOL    HW2 3411   5.559   6.198   7.019
  838SOL     OW 3412   1.426   6.882   4.926
  838SOL    HW1 3413   1.448   6.868   4.830
  838SOL    HW2 3414   1.508   6.914   4.974
  839SOL     OW 3415   2.690   2.278   2.140
  839SOL    HW1 3416   2.774   2.283   2.084
  839SOL    HW2 3417   2.712   2.240   2.230
  840SOL     OW 3418   5.668   0.130   6.486
  840SOL    HW1 3419   5.767   0.145   6.495
  840SOL    HW2 3420   5.647   0.106   6.391
  841SOL     OW 3421   4.697   4.989   0.835
  841SOL    HW1 3422   4.771   4.925   0.856
  841SOL    HW2 3423   4.686   5.053   0.910
  842SOL     OW 3424   4.158   5.062   4.321
  842SOL    HW1 3425   4.221   5.043   4.245
  842SOL    HW2 3426   4.110   4.978   4.345
  843SOL     OW 3427   2.890   1.767   6.815
  843SOL    HW1 3428   2.800   1.807   6.831
  843SOL    HW2 3429   2.885   1.667   6.826
  844SOL     OW 3430   5.547   6.941   1.080
  844SOL    HW1 3431   5.520   7.011   1.146
  844SOL    HW2 3432   5.497   6.955   0.994
  845SOL     OW 3433   5.629   3.336   4.929
  845SOL    HW1 3434   5.617   3.422   4.879
  845SOL    HW2 3435   5.570   3.337   5.010
  846SOL     OW 3436   3.376   1.585   0.314
  846SOL    HW1 3437   3.426   1.632   0.241
  846SOL    HW2 3438   3.319   1.651   0.363
  847SOL     OW 3439   0.709   3.992   0.361
  847SOL    HW1 3440   0.778   4.056   0.328
  847SOL    HW2 3441   0.713   3.987   0.461
  848SOL     OW 3442   6.113   0.831   6.391
  848SOL    HW1 3443   6.194   0.866   6.439
  848SOL    HW2 3444   6.109   0.871   6.299
  849SOL     OW 3445   0.849   4.832   5.152
  849SOL    HW1 3446   0.947   4.844   5.139
  849SOL    HW2 3447   0.809   4.786   5.073
  850SOL     OW 3448   5.302   1.167   4.062
  850SOL    HW1 3449   5.276   1.090   4.004
  850SOL    HW2 3450   5.256   1.250   4.029
  851SOL     OW 3451   6.843   1.034   1.246
  851SOL    HW1 3452   6.884   1.088   1.173
  851SOL    HW2 3453   6.770   1.086   1.289
  852SOL     OW 3454   1.606   2.096   0.275
  852SOL    HW1 3455   1.511   2.122   0.289
  852SOL    HW2 3456   1.632   2.026   0.342
  853SOL     OW 3457   1.657   4.371   2.405
  853SOL    HW1 3458   1.583   4.307   2.428
  853SOL    HW2 3459   1.725   4.370   2.478
  854SOL     OW 3460   4.607   5.604   2.164
  854SOL    HW1 3461   4.520   5.644   2.134
  854SOL    HW2 3462   4.651   5.559   2.086
  855SOL     OW 3463   6.735   0.272   0.974
  855SOL    HW1 3464   6.759   0.369   0.971
  855SOL    HW2 3465   6.819   0.217   0.972
  856SOL     OW 3466   1.619   1.990   5.045
  856SOL    HW1 3467   1.612   2.089   5.031
  856SOL    HW2 3468   1.657   1.972   5.136
  857SOL     OW 3469   5.983   4.167   1.876
  857SOL    HW1 3470   5.915   4.185   1.805
  857SOL    HW2 3471   6.068   4.212   1.852
  858SOL     OW 3472   2.611   4.282   1.360
  858SOL    HW1 3473   2.539   4.309   1.296
  858SOL    HW2 3474   2.630   4.357   1.423
  859SOL     OW 3475   4.668   5.425   6.752
  859SOL    HW1 3476   4.732   5.458   6.821
  859SOL    HW2 3477   4.624   5.504   6.708
  860SOL     OW 3478   3.949   4.437   0.862
  860SOL    HW1 3479   3.876   4.503   0.877
  860SOL    HW2 3480   3.929   4.352   0.912
  861SOL     OW 3481   2.467   0.323   4.589
  861SOL    HW1 3482   2.460   0.224   4.601
  861SOL    HW2 3483   2.419   0.369   4.664
  862SOL     OW 3484   0.078   4.807   6.192
  862SOL    HW1 3485   0.050   4.711   6.188
  862SOL    HW2 3486   0.008   4.864   6.148
  863SOL     OW 3487   1.100   0.741   0.609
  863SOL    HW1 3488   1.033   0.667   0.611
  863SOL    HW2 3489   1.164   0.731   0.685
  864SOL     OW 3490   4.895   4.461   3.973
  864SOL    HW1 3491   4.985   4.433   4.005
  864SOL    HW2 3492   4.828   4.445   4.045
  865SOL     OW 3493   2.313   6.100   5.092
  865SOL    HW1 3494   2.365   6.080   5.009
  865SOL    HW2 3495   2.219   6.069   5.080
  866SOL     OW 3496   1.975   2.527   2.254
  866SOL    HW1 3497   1.913   2.477   2.315
  866SOL    HW2 3498   1.948   2.623   2.251
  867SOL     OW 3499   4.260   2.863   1.086
  867SOL    HW1 3500   4.173   2.883   1.130
  867SOL    HW2 3501   4.316   2.947   1.083
  868SOL     OW 3502   5.753   6.491   1.403
  868SOL    HW1 3503   5.693   6.447   1.470
  868SOL    HW2 3504   5.770   6.586   1.431
  869SOL     OW 3505   6.750   5.398   3.281
  869SOL    HW1 3506   6.725   5.448   3.364
  869SOL    HW2 3507   6.849   5.392   3.274
  870SOL     OW 3508   5.587   3.461   0.210
  870SOL    HW1 3509   5.673   3.512   0.221
  870SOL    HW2 3510   5.608   3.363   0.203
  871SOL     OW 3511   5.575   3.550   1.913
  871SOL    HW1 3512   5.585   3.451   1.910
  871SOL    HW2 3513   5.535   3.576   2.001
  872SOL     OW 3514   6.085   4.148   3.943
  872SOL    HW1 3515   6.008   4.145   4.007
  872SOL    HW2 3516   6.084   4.236   3.895
  873SOL     OW 3517   5.353   0.400   3.559
  873SOL    HW1 3518   5.352   0.302   3.537
  873SOL    HW2 3519   5.317   0.452   3.482
  874SOL     OW 3520   1.743   4.749   5.275
  874SOL    HW1 3521   1.784   4.661   5.252
  874SOL    HW2 3522   1.646   4.736   5.297
  875SOL     OW 3523   4.473   3.273   0.678
  875SOL    HW1 3524   4.570   3.281   0.654
  875SOL    HW2 3525   4.424   3.354   0.646
  876SOL     OW 3526   0.567   6.237   3.676
  876SOL    HW1 3527   0.573   6.137   3.673
  876SOL    HW2 3528   0.627   6.272   3.748
  877SOL     OW 3529   3.403   4.823   0.480
  877SOL    HW1 3530   3.415   4.746   0.543
  877SOL    HW2 3531   3.444   4.800   0.391
  878SOL     OW 3532   4.391   5.995   5.922
  878SOL    HW1 3533   4.350   5.904   5.916
  878SOL    HW2 3534   4.483   5.987   5.961
  879SOL     OW 3535   3.228   2.018   2.190
  879SOL    HW1 3536   3.293   1.954   2.149
  879SOL    HW2 3537   3.186   2.073   2.118
  880SOL     OW 3538   2.899   5.104   0.217
  880SOL    HW1 3539   2.833   5.038   0.181
  880SOL    HW2 3540   2.992   5.071   0.199
  881SOL     OW 3541   4.197   4.599   5.380
  881SOL    HW1 3542   4.234   4.548   5.303
  881SOL    HW2 3543   4.108   4.560   5.406
  882SOL     OW 3544   1.274   1.206   4.155
  882SOL    HW1 3545   1.267   1.254   4.067
  882SOL    HW2 3546   1.369   1.184   4.173
  883SOL     OW 3547   4.791   5.389   5.063
  883SOL    HW1 3548   4.878   5.368   5.108
  883SOL    HW2 3549   4.791   5.483   5.030
  884SOL     OW 3550   0.235   3.433   1.368
  884SOL    HW1 3551   0.213   3.351   1.314
  884SOL    HW2 3552   0.185   3.511   1.331
  885SOL     OW 3553   5.420   5.597   6.762
  885SOL    HW1 3554   5.456   5.631   6.849
  885SOL    HW2 3555   5.330   5.638   6.746
  886SOL     OW 3556   3.959   6.672   0.833
  886SOL    HW1 3557   4.029   6.738   0.807
  886SOL    HW2 3558   3.928   6.693   0.926
  887SOL     OW 3559   4.540   6.976   4.906
  887SOL    HW1 3560   4.487   6.923   4.839
  887SOL    HW2 3561   4.482   0.024   4.946
  888SOL     OW 3562   5.928   6.535   3.380
  888SOL    HW1 3563   5.970   6.446   3.397
  888SOL    HW2 3564   5.830   6.523   3.365
  889SOL     OW 3565   0.866   6.596   5.843
  889SOL    HW1 3566   0.929   6.530   5.802
  889SOL    HW2 3567   0.812   6.551   5.914
  890SOL     OW 3568   2.628   4.802   1.967
  890SOL    HW1 3569   2.639   4.887   2.019
  890SOL    HW2 3570   2.699   4.737   1.995
  891SOL     OW 3571   5.872   3.828   1.954
  891SOL    HW1 3572   5.965   3.864   1.958
  891SOL    HW2 3573   5.853   3.798   1.861
  892SOL     OW 3574   3.721   3.908   0.710
  892SOL    HW1 3575   3.768   3.852   0.641
  892SOL    HW2 3576   3.625   3.918   0.685
  893SOL     OW 3577   2.384   0.644   2.172
  893SOL    HW1 3578   2.284   0.644   2.177
  893SOL    HW2 3579   2.420   0.726   2.216
  894SOL     OW 3580   1.771   3.535   4.317
  894SOL    HW1 3581   1.775   3.445   4.360
  894SOL    HW2 3582   1.852   3.549   4.260
  895SOL     OW 3583   2.038   5.974   5.093
  895SOL    HW1 3584   2.093   5.893   5.113
  895SOL    HW2 3585   1.964   5.950   5.031
  896SOL     OW 3586   5.502   6.433   2.302
  896SOL    HW1 3587   5.476   6.468   2.212
  896SOL    HW2 3588   5.445   6.354   2.325
  897SOL     OW 3589   5.676   0.679   0.207
  897SOL    HW1 3590   5.580   0.688   0.182
  897SOL    HW2 3591   5.684   0.638   0.297
  898SOL     OW 3592   3.817   5.619   3.414
  898SOL    HW1 3593   3.748   5.580   3.475
  898SOL    HW2 3594   3.792   5.598   3.319
  899SOL     OW 3595   0.374   4.885   0.211
  899SOL    HW1 3596   0.473   4.878   0.199
  899SOL    HW2 3597   0.352   4.969   0.260
  900SOL     OW 3598   5.214   6.236   1.332
  900SOL    HW1 3599   5.274   6.221   1.411
  900SOL    HW2 3600   5.128   6.186   1.345
  901SOL     OW 3601   0.624   1.193   5.133
  901SOL    HW1 3602   0.699   1.243   5.178
  901SOL    HW2 3603   0.658   1.152   5.048
  902SOL     OW 3604   0.202   1.710   5.915
  902SOL    HW1 3605   0.213   1.661   6.002
  902SOL    HW2 3606   0.105   1.711   5.889
  903SOL     OW 3607   6.536   3.613   6.273
  903SOL    HW1 3608   6.531   3.709   6.300
  903SOL    HW2 3609   6.612   3.569   6.320
  904SOL     OW 3610   1.382   1.837   4.055
  904SOL    HW1 3611   1.340   1.766   3.999
  904SOL    HW2 3612   1.359   1.821   4.151
  905SOL     OW 3613   4.452   2.929   6.062
  905SOL    HW1 3614   4.403   2.842   6.063
  905SOL    HW2 3615   4.401   2.995   6.007
  906SOL     OW 3616   0.142   3.569   6.372
  906SOL    HW1 3617   0.120   3.667   6.368
  906SOL    HW2 3618   0.196   3.544   6.292
  907SOL     OW 3619   5.207   2.229   3.878
  907SOL    HW1 3620   5.228   2.298   3.947
  907SOL    HW2 3621   5.254   2.252   3.793
  908SOL     OW 3622   1.653   6.807   3.702
  908SOL    HW1 3623   1.661   6.737   3.772
  908SOL    HW2 3624   1.743   6.847   3.685
  909SOL     OW 3625   2.225   0.330   1.206
  909SOL    HW1 3626   2.295   0.364   1.143
  909SOL    HW2 3627   2.262   0.328   1.299
  910SOL     OW 3628   2.843   0.340   0.677
  910SOL    HW1 3629   2.808   0.346   0.770
  910SOL    HW2 3630   2.794   0.268   0.627
  911SOL     OW 3631   6.682   5.840   1.455
  911SOL    HW1 3632   6.698   5.932   1.492
  911SOL    HW2 3633   6.593   5.807   1.486
  912SOL     OW 3634   6.061   0.971   4.842
  912SOL    HW1 3635   6.131   1.042   4.854
  912SOL    HW2 3636   6.100   0.894   4.793
  913SOL     OW 3637   2.451   0.391   3.664
  913SOL    HW1 3638   2.540   0.420   3.699
  913SOL    HW2 3639   2.392   0.471   3.654
  914SOL     OW 3640   3.058   5.455   5.756
  914SOL    HW1 3641   3.107   5.376   5.717
  914SOL    HW2 3642   2.998   5.494   5.686
  915SOL     OW 3643   0.989   3.226   0.957
  915SOL    HW1 3644   1.024   3.306   1.005
  915SOL    HW2 3645   0.940   3.255   0.874
  916SOL     OW 3646   1.020   2.469   2.699
  916SOL    HW1 3647   1.086   2.420   2.756
  916SOL    HW2 3648   1.009   2.562   2.733
  917SOL     OW 3649   4.771   0.613   1.630
  917SOL    HW1 3650   4.679   0.651   1.642
  917SOL    HW2 3651   4.796   0.615   1.533
  918SOL     OW 3652   2.350   5.909   6.911
  918SOL    HW1 3653   2.418   5.850   6.867
  918SOL    HW2 3654   2.337   5.991   6.855
  919SOL     OW 3655   0.269   5.587   2.497
  919SOL    HW1 3656   0.255   5.488   2.501
  919SOL    HW2 3657   0.358   5.610   2.536
  920SOL     OW 3658   1.757   0.209   2.888
  920SOL    HW1 3659   1.767   0.131   2.950
  920SOL    HW2 3660   1.791   0.292   2.933
  921SOL     OW 3661   5.549   4.568   4.252
  921SOL    HW1 3662   5.568   4.650   4.198
  921SOL    HW2 3663   5.610   4.566   4.331
  922SOL     OW 3664   3.625   2.781   6.481
  922SOL    HW1 3665   3.583   2.741   6.399
  922SOL    HW2 3666   3.713   2.821   6.456
  923SOL     OW 3667   3.035   5.345   0.547
  923SOL    HW1 3668   2.979   5.265   0.525
  923SOL    HW2 3669   3.043   5.402   0.465
  924SOL     OW 3670   6.112   3.469   2.322
  924SOL    HW1 3671   6.078   3.557   2.288
  924SOL    HW2 3672   6.142   3.413   2.245
  925SOL     OW 3673   6.572   1.977   5.509
  925SOL    HW1 3674   6.592   1.899   5.568
  925SOL    HW2 3675   6.475   1.974   5.483
  926SOL     OW 3676   5.850   1.259   6.607
  926SOL    HW1 3677   5.797   1.344   6.613
  926SOL    HW2 3678   5.788   1.182   6.594
  927SOL     OW 3679   5.505   4.286   4.261
  927SOL    HW1 3680   5.521   4.385   4.260
  927SOL    HW2 3681   5.512   4.252   4.354
  928SOL     OW 3682   1.981   0.731   0.577
  928SOL    HW1 3683   1.982   0.688   0.486
  928SOL    HW2 3684   1.915   0.806   0.577
  929SOL     OW 3685   0.064   1.549   0.967
  929SOL    HW1 3686   0.126   1.489   1.017
  929SOL    HW2 3687   7.011   1.576   1.027
  930SOL     OW 3688   6.281   5.903   4.760
  930SOL    HW1 3689   6.296   5.978   4.696
  930SOL    HW2 3690   6.279   5.816   4.711
  931SOL     OW 3691   6.895   3.357   4.129
  931SOL    HW1 3692   6.841   3.371   4.046
  931SOL    HW2 3693   6.969   3.293   4.110
  932SOL     OW 3694   2.385   6.577   1.590
  932SOL    HW1 3695   2.416   6.639   1.662
  932SOL    HW2 3696   2.325   6.508   1.630
  933SOL     OW 3697   0.565   4.986   2.288
  933SOL    HW1 3698   0.630   4.983   2.364
  933SOL    HW2 3699   0.473   4.972   2.322
  934SOL     OW 3700   2.070   0.597   4.254
  934SOL    HW1 3701   1.981   0.558   4.229
  934SOL    HW2 3702   2.139   0.566   4.188
  935SOL     OW 3703   5.076   4.225   5.167
  935SOL    HW1 3704   5.047   4.314   5.203
  935SOL    HW2 3705   5.114   4.170   5.240
  936SOL     OW 3706   1.396   0.556   5.855
  936SOL    HW1 3707   1.354   0.574   5.765
  936SOL    HW2 3708   1.328   0.515   5.915
  937SOL     OW 3709   4.945   2.098   5.415
  937SOL    HW1 3710   4.999   2.059   5.341
  937SOL    HW2 3711   4.982   2.188   5.439
  938SOL     OW 3712   0.402   5.368   6.011
  938SOL    HW1 3713   0.451   5.415   6.084
  938SOL    HW2 3714   0.399   5.270   6.029
  939SOL     OW 3715   4.959   1.335   5.412
  939SOL    HW1 3716   4.929   1.349   5.317
  939SOL    HW2 3717   4.919   1.405   5.471
  940SOL     OW 3718   6.843   3.139   2.449
  940SOL    HW1 3719   6.866   3.228   2.411
  940SOL    HW2 3720   6.779   3.151   2.525
  941SOL     OW 3721   6.144   0.636   3.886
  941SOL    HW1 3722   6.173   0.732   3.896
  941SOL    HW2 3723   6.128   0.616   3.790
  942SOL     OW 3724   4.874   0.622   4.082
  942SOL    HW1 3725   4.909   0.639   3.990
  942SOL    HW2 3726   4.809   0.693   4.106
  943SOL     OW 3727   0.902   3.182   3.642
  943SOL    HW1 3728   0.915   3.274   3.607
  943SOL    HW2 3729   0.830   3.136   3.589
  944SOL     OW 3730   6.268   3.225   6.083
  944SOL    HW1 3731   6.294   3.210   5.988
  944SOL    HW2 3732   6.349   3.246   6.137
  945SOL     OW 3733   6.590   4.211   5.993
  945SOL    HW1 3734   6.651   4.204   6.072
  945SOL    HW2 3735   6.583   4.122   5.949
  946SOL     OW 3736   5.228   2.868   5.995
  946SOL    HW1 3737   5.320   2.866   5.955
  946SOL    HW2 3738   5.215   2.955   6.043
  947SOL     OW 3739   2.969   3.503   5.006
  947SOL    HW1 3740   2.958   3.470   4.912
  947SOL    HW2 3741   2.956   3.426   5.069
  948SOL     OW 3742   4.642   0.935   0.858
  948SOL    HW1 3743   4.628   0.882   0.775
  948SOL    HW2 3744   4.610   0.883   0.937
  949SOL     OW 3745   0.060   6.370   6.458
  949SOL    HW1 3746   0.131   6.439   6.470
  949SOL    HW2 3747   7.012   6.405   6.397
  950SOL     OW 3748   4.290   5.039   2.279
  950SOL    HW1 3749   4.308   5.058   2.182
  950SOL    HW2 3750   4.366   4.987   2.317
  951SOL     OW 3751   2.091   0.581   2.180
  951SOL    HW1 3752   2.091   0.495   2.129
  951SOL    HW2 3753   2.032   0.647   2.133
  952SOL     OW 3754   5.234   1.415   1.776
  952SOL    HW1 3755   5.195   1.357   1.847
  952SOL    HW2 3756   5.172   1.491   1.757
  953SOL     OW 3757   5.007   5.773   5.072
  953SOL    HW1 3758   5.097   5.730   5.066
  953SOL    HW2 3759   4.948   5.718   5.132
  954SOL     OW 3760   5.271   6.274   0.599
  954SOL    HW1 3761   5.354   6.325   0.620
  954SOL    HW2 3762   5.213   6.327   0.538
  955SOL     OW 3763   0.412   4.663   3.096
  955SOL    HW1 3764   0.372   4.571   3.092
  955SOL    HW2 3765   0.460   4.675   3.183
  956SOL     OW 3766   1.018   1.810   2.280
  956SOL    HW1 3767   0.988   1.758   2.200
  956SOL    HW2 3768   0.963   1.784   2.360
  957SOL     OW 3769   1.682   5.021   4.051
  957SOL    HW1 3770   1.666   5.050   3.957
  957SOL    HW2 3771   1.676   4.922   4.058
  958SOL     OW 3772   4.763   2.516   1.278
  958SOL    HW1 3773   4.679   2.565   1.302
  958SOL    HW2 3774   4.742   2.419   1.263
  959SOL     OW 3775   2.575   5.302   3.114
  959SOL    HW1 3776   2.539   5.365   3.046
  959SOL    HW2 3777   2.617   5.354   3.188
  960SOL     OW 3778   0.160   6.329   3.862
  960SOL    HW1 3779   0.079   6.351   3.915
  960SOL    HW2 3780   0.186   6.234   3.878
  961SOL     OW 3781   4.900   6.525   2.975
  961SOL    HW1 3782   4.849   6.593   2.922
  961SOL    HW2 3783   4.882   6.539   3.072
  962SOL     OW 3784   1.393   1.543   3.984
  962SOL    HW1 3785   1.484   1.531   4.024
  962SOL    HW2 3786   1.328   1.571   4.055
  963SOL     OW 3787   5.998   1.322   6.398
  963SOL    HW1 3788   5.960   1.281   6.481
  963SOL    HW2 3789   5.968   1.269   6.318
  964SOL     OW 3790   6.356   3.338   0.491
  964SOL    HW1 3791   6.428   3.269   0.485
  964SOL    HW2 3792   6.325   3.361   0.399
  965SOL     OW 3793   5.609   1.661   0.959
  965SOL    HW1 3794   5.603   1.582   0.899
  965SOL    HW2 3795   5.632   1.742   0.905
  966SOL     OW 3796   6.005   1.650   2.145
  966SOL    HW1 3797   6.023   1.746   2.124
  966SOL    HW2 3798   6.001   1.598   2.060
  967SOL     OW 3799   1.709   5.174   0.906
  967SOL    HW1 3800   1.798   5.144   0.939
  967SOL    HW2 3801   1.721   5.249   0.842
  968SOL     OW 3802   4.581   2.532   2.103
  968SOL    HW1 3803   4.640   2.562   2.028
  968SOL    HW2 3804   4.633   2.534   2.189
  969SOL     OW 3805   4.433   5.709   6.252
  969SOL    HW1 3806   4.495   5.632   6.238
  969SOL    HW2 3807   4.487   5.793   6.263
  970SOL     OW 3808   4.622   0.779   5.050
  970SOL    HW1 3809   4.592   0.690   5.016
  970SOL    HW2 3810   4.547   0.825   5.097
  971SOL     OW 3811   0.046   1.881   3.214
  971SOL    HW1 3812   0.119   1.927   3.163
  971SOL    HW2 3813   0.078   1.861   3.307
  972SOL     OW 3814   5.394   3.639   0.836
  972SOL    HW1 3815   5.490   3.622   0.860
  972SOL    HW2 3816   5.335   3.578   0.889
  973SOL     OW 3817   0.206   4.148   6.577
  973SOL    HW1 3818   0.262   4.068   6.555
  973SOL    HW2 3819   0.256   4.206   6.642
  974SOL     OW 3820   4.309   0.645   2.348
  974SOL    HW1 3821   4.324   0.613   2.442
  974SOL    HW2 3822   4.397   0.658   2.303
  975SOL     OW 3823   1.906   5.646   6.477
  975SOL    HW1 3824   1.919   5.559   6.524
  975SOL    HW2 3825   1.995   5.689   6.461
  976SOL     OW 3826   5.956   3.286   2.925
  976SOL    HW1 3827   5.941   3.380   2.894
  976SOL    HW2 3828   6.044   3.253   2.889
  977SOL     OW 3829   2.575   1.401   3.695
  977SOL    HW1 3830   2.558   1.421   3.791
  977SOL    HW2 3831   2.574   1.487   3.643
  978SOL     OW 3832   4.969   4.006   5.610
  978SOL    HW1 3833   4.882   4.042   5.574
  978SOL    HW2 3834   5.041   4.073   5.594
  979SOL     OW 3835   7.023   1.649   1.952
  979SOL    HW1 3836   0.011   1.551   1.938
  979SOL    HW2 3837   0.084   1.696   1.924
  980SOL     OW 3838   4.450   1.868   3.754
  980SOL    HW1 3839   4.537   1.850   3.800
  980SOL    HW2 3840   4.385   1.907   3.819
  981SOL     OW 3841   1.486   1.377   4.934
  981SOL    HW1 3842   1.582   1.365   4.908
  981SOL    HW2 3843   1.470   1.340   5.025
  982SOL     OW 3844   2.234   1.993   3.875
  982SOL    HW1 3845   2.298   2.063   3.843
  982SOL    HW2 3846   2.199   1.941   3.797
  983SOL     OW 3847   5.834   2.190   3.283
  983SOL    HW1 3848   5.916   2.248   3.277
  983SOL    HW2 3849   5.788   2.206   3.370
  984SOL     OW 3850   3.414   0.925   3.924
  984SOL    HW1 3851   3.332   0.874   3.950
  984SOL    HW2 3852   3.495   0.881   3.964
  985SOL     OW 3853   5.247   4.604   6.649
  985SOL    HW1 3854   5.250   4.529   6.583
  985SOL    HW2 3855   5.329   4.602   6.706
  986SOL     OW 3856   5.248   4.897   0.513
  986SOL    HW1 3857   5.211   4.984   0.543
  986SOL    HW2 3858   5.173   4.835   0.489
  987SOL     OW 3859   4.532   6.535   1.559
  987SOL    HW1 3860   4.434   6.541   1.572
  987SOL    HW2 3861   4.552   6.511   1.463
  988SOL     OW 3862   3.594   3.379   0.985
  988SOL    HW1 3863   3.606   3.296   0.930
  988SOL    HW2 3864   3.629   3.457   0.935
  989SOL     OW 3865   6.720   1.098   5.269
  989SOL    HW1 3866   6.799   1.110   5.209
  989SOL    HW2 3867   6.694   1.187   5.307
  990SOL     OW 3868   4.317   0.687   2.617
  990SOL    HW1 3869   4.253   0.660   2.689
  990SOL    HW2 3870   4.303   0.783   2.595
  991SOL     OW 3871   1.769   2.703   5.247
  991SOL    HW1 3872   1.796   2.764   5.173
  991SOL    HW2 3873   1.669   2.701   5.254
  992SOL     OW 3874   0.860   3.947   1.071
  992SOL    HW1 3875   0.775   3.980   1.030
  992SOL    HW2 3876   0.840   3.908   1.161
  993SOL     OW 3877   1.021   5.128   2.465
  993SOL    HW1 3878   0.938   5.092   2.507
  993SOL    HW2 3879   1.009   5.135   2.366
  994SOL     OW 3880   3.552   3.381   2.601
  994SOL    HW1 3881   3.651   3.370   2.603
  994SOL    HW2 3882   3.522   3.392   2.506
  995SOL     OW 3883   2.692   2.329   6.106
  995SOL    HW1 3884   2.765   2.332   6.175
  995SOL    HW2 3885   2.647   2.240   6.109
  996SOL     OW 3886   1.663   4.449   4.296
  996SOL    HW1 3887   1.605   4.373   4.323
  996SOL    HW2 3888   1.613   4.508   4.233
  997SOL     OW 3889   6.911   0.391   2.081
  997SOL    HW1 3890   6.921   0.437   1.992
  997SOL    HW2 3891   6.844   0.441   2.136
  998SOL     OW 3892   4.984   6.308   3.803
  998SOL    HW1 3893   5.071   6.296   3.849
  998SOL    HW2 3894   4.912   6.263   3.856
  999SOL     OW 3895   5.637   4.980   1.603
  999SOL    HW1 3896   5.584   4.962   1.686
  999SOL    HW2 3897   5.735   4.967   1.623
 1000SOL     OW 3898   1.564   1.118   2.633
 1000SOL    HW1 3899   1.572   1.146   2.538
 1000SOL    HW2 3900   1.546   1.198   2.690
 1001SOL     OW 3901   6.170   6.571   0.156
 1001SOL    HW1 3902   6.159   6.527   0.067
 1001SOL    HW2 3903   6.080   6.595   0.192
 1002SOL     OW 3904   6.009   2.133   6.684
 1002SOL    HW1 3905   5.919   2.163   6.716
 1002SOL    HW2 3906   6.000   2.081   6.599
 1003SOL     OW 3907   2.220   6.413   1.746
 1003SOL    HW1 3908   2.169   6.492   1.780
 1003SOL    HW2 3909   2.160   6.356   1.689
 1004SOL     OW 3910   0.205   0.598   1.298
 1004SOL    HW1 3911   0.126   0.595   1.237
 1004SOL    HW2 3912   0.218   0.691   1.332
 1005SOL     OW 3913   0.357   1.540   3.044
 1005SOL    HW1 3914   0.416   1.599   3.098
 1005SOL    HW2 3915   0.265   1.540   3.083
 1006SOL     OW 3916   1.261   5.920   1.558
 1006SOL    HW1 3917   1.346   5.956   1.597
 1006SOL    HW2 3918   1.272   5.904   1.460
 1007SOL     OW 3919   5.863   6.787   4.249
 1007SOL    HW1 3920   5.925   6.820   4.178
 1007SOL    HW2 3921   5.769   6.814   4.225
 1008SOL     OW 3922   2.191   3.296   4.968
 1008SOL    HW1 3923   2.281   3.305   4.925
 1008SOL    HW2 3924   2.119   3.304   4.899
 1009SOL     OW 3925   0.422   6.159   4.325
 1009SOL    HW1 3926   0.453   6.254   4.321
 1009SOL    HW2 3927   0.501   6.099   4.338
 1010SOL     OW 3928   3.678   2.254   6.291
 1010SOL    HW1 3929   3.678   2.259   6.191
 1010SOL    HW2 3930   3.588   2.284   6.325
 1011SOL     OW 3931   2.694   5.040   2.429
 1011SOL    HW1 3932   2.712   5.092   2.512
 1011SOL    HW2 3933   2.622   5.085   2.377
 1012SOL     OW 3934   0.136   6.821   0.309
 1012SOL    HW1 3935   0.234   6.841   0.300
 1012SOL    HW2 3936   0.098   6.874   0.384
 1013SOL     OW 3937   0.421   1.494   6.352
 1013SOL    HW1 3938   0.416   1.593   6.365
 1013SOL    HW2 3939   0.347   1.451   6.404
 1014SOL     OW 3940   5.330   5.311   6.788
 1014SOL    HW1 3941   5.242   5.344   6.824
 1014SOL    HW2 3942   5.385   5.390   6.760
 1015SOL     OW 3943   2.332   6.660   5.435
 1015SOL    HW1 3944   2.262   6.653   5.364
 1015SOL    HW2 3945   2.290   6.693   5.520
 1016SOL     OW 3946   2.709   3.457   0.156
 1016SOL    HW1 3947   2.648   3.456   0.077
 1016SOL    HW2 3948   2.693   3.376   0.212
 1017SOL     OW 3949   4.535   2.350   0.819
 1017SOL    HW1 3950   4.437   2.370   0.825
 1017SOL    HW2 3951   4.560   2.337   0.724
 1018SOL     OW 3952   1.585   3.487   3.706
 1018SOL    HW1 3953   1.493   3.508   3.739
 1018SOL    HW2 3954   1.643   3.462   3.784
 1019SOL     OW 3955   1.317   0.347   0.129
 1019SOL    HW1 3956   1.330   0.292   0.047
 1019SOL    HW2 3957   1.380   0.425   0.127
 1020SOL     OW 3958   1.081   6.642   1.367
 1020SOL    HW1 3959   1.073   6.736   1.335
 1020SOL    HW2 3960   1.110   6.641   1.462
 1021SOL     OW 3961   5.825   0.989   1.262
 1021SOL    HW1 3962   5.827   0.903   1.212
 1021SOL    HW2 3963   5.770   0.979   1.344
 1022SOL     OW 3964   4.334   4.650   6.454
 1022SOL    HW1 3965   4.425   4.628   6.489
 1022SOL    HW2 3966   4.264   4.609   6.513
 1023SOL     OW 3967   6.745   0.085   1.608
 1023SOL    HW1 3968   6.666   0.096   1.669
 1023SOL    HW2 3969   6.721   0.119   1.517
 1024SOL     OW 3970   5.615   3.444   4.150
 1024SOL    HW1 3971   5.601   3.379   4.225
 1024SOL    HW2 3972   5.526   3.470   4.112
 1025SOL     OW 3973   3.464   3.922   0.614
 1025SOL    HW1 3974   3.392   3.881   0.670
 1025SOL    HW2 3975   3.427   3.944   0.523
 1026SOL     OW 3976   2.149   1.927   1.825
 1026SOL    HW1 3977   2.209   1.978   1.886
 1026SOL    HW2 3978   2.057   1.967   1.827
 1027SOL     OW 3979   2.541   5.699   1.195
 1027SOL    HW1 3980   2.516   5.602   1.190
 1027SOL    HW2 3981   2.605   5.720   1.121
 1028SOL     OW 3982   4.281   5.886   0.432
 1028SOL    HW1 3983   4.194   5.900   0.384
 1028SOL    HW2 3984   4.324   5.975   0.449
 1029SOL     OW 3985   2.009   0.629   0.325
 1029SOL    HW1 3986   1.972   0.545   0.364
 1029SOL    HW2 3987   1.967   0.646   0.236
 1030SOL     OW 3988   3.541   3.693   1.599
 1030SOL    HW1 3989   3.574   3.701   1.505
 1030SOL    HW2 3990   3.521   3.597   1.620
 1031SOL     OW 3991   5.359   5.374   0.562
 1031SOL    HW1 3992   5.427   5.315   0.518
 1031SOL    HW2 3993   5.351   5.349   0.658
 1032SOL     OW 3994   1.730   1.592   4.514
 1032SOL    HW1 3995   1.669   1.593   4.594
 1032SOL    HW2 3996   1.747   1.686   4.484
 1033SOL     OW 3997   1.765   6.269   1.111
 1033SOL    HW1 3998   1.801   6.340   1.050
 1033SOL    HW2 3999   1.709   6.205   1.058
 1034SOL     OW 4000   1.123   5.930   5.543
 1034SOL    HW1 4001   1.135   5.883   5.455
 1034SOL    HW2 4002   1.180   6.012   5.544
 1035SOL     OW 4003   2.396   1.192   3.662
 1035SOL    HW1 4004   2.458   1.269   3.674
 1035SOL    HW2 4005   2.379   1.149   3.751
 1036SOL     OW 4006   3.117   0.738   1.434
 1036SOL    HW1 4007   3.196   0.771   1.485
 1036SOL    HW2 4008   3.089   0.808   1.368
 1037SOL     OW 4009   2.302   0.528   1.406
 1037SOL    HW1 4010   2.335   0.504   1.497
 1037SOL    HW2 4011   2.379   0.561   1.351
 1038SOL     OW 4012   1.366   1.119   5.987
 1038SOL    HW1 4013   1.288   1.085   6.039
 1038SOL    HW2 4014   1.423   1.042   5.958
 1039SOL     OW 4015   3.589   3.096   5.737
 1039SOL    HW1 4016   3.525   3.124   5.666
 1039SOL    HW2 4017   3.590   2.997   5.746
 1040SOL     OW 4018   5.164   2.985   2.427
 1040SOL    HW1 4019   5.159   3.084   2.435
 1040SOL    HW2 4020   5.180   2.959   2.332
 1041SOL     OW 4021   6.566   0.040   4.108
 1041SOL    HW1 4022   6.476   0.062   4.069
 1041SOL    HW2 4023   6.636   0.054   4.038
 1042SOL     OW 4024   3.474   4.894   2.245
 1042SOL    HW1 4025   3.509   4.833   2.174
 1042SOL    HW2 4026   3.399   4.949   2.208
 1043SOL     OW 4027   4.678   1.150   5.262
 1043SOL    HW1 4028   4.735   1.232   5.256
 1043SOL    HW2 4029   4.622   1.153   5.345
 1044SOL     OW 4030   4.616   4.013   1.759
 1044SOL    HW1 4031   4.593   3.970   1.672
 1044SOL    HW2 4032   4.542   4.074   1.787
 1045SOL     OW 4033   2.638   6.607   2.772
 1045SOL    HW1 4034   2.618   6.633   2.867
 1045SOL    HW2 4035   2.561   6.554   2.735
 1046SOL     OW 4036   2.126   6.838   0.012
 1046SOL    HW1 4037   2.053   6.837   0.081
 1046SOL    HW2 4038   2.093   6.793   6.952
 1047SOL     OW 4039   0.867   6.241   2.481
 1047SOL    HW1 4040   0.928   6.297   2.536
 1047SOL    HW2 4041   0.914   6.216   2.395
 1048SOL     OW 4042   5.043   5.670   5.506
 1048SOL    HW1 4043   4.986   5.715   5.574
 1048SOL    HW2 4044   4.989   5.652   5.424
 1049SOL     OW 4045   6.706   5.222   4.704
 1049SOL    HW1 4046   6.730   5.296   4.767
 1049SOL    HW2 4047   6.617   5.185   4.730
 1050SOL     OW 4048   3.063   5.274   1.019
 1050SOL    HW1 4049   3.025   5.187   1.051
 1050SOL    HW2 4050   3.060   5.276   0.919
 1051SOL     OW 4051   2.717   4.746   0.487
 1051SOL    HW1 4052   2.649   4.698   0.432
 1051SOL    HW2 4053   2.807   4.736   0.445
 1052SOL     OW 4054   4.327   6.869   4.353
 1052SOL    HW1 4055   4.405   6.890   4.412
 1052SOL    HW2 4056   4.319   6.769   4.345
 1053SOL     OW 4057   5.150   5.446   3.241
 1053SOL    HW1 4058   5.059   5.484   3.228
 1053SOL    HW2 4059   5.216   5.496   3.184
 1054SOL     OW 4060   2.954   4.762   6.237
 1054SOL    HW1 4061   2.922   4.773   6.143
 1054SOL    HW2 4062   2.889   4.705   6.288
 1055SOL     OW 4063   6.254   6.852   4.529
 1055SOL    HW1 4064   6.246   6.916   4.453
 1055SOL    HW2 4065   6.185   6.780   4.520
 1056SOL     OW 4066   1.393   5.566   5.583
 1056SOL    HW1 4067   1.297   5.593   5.575
 1056SOL    HW2 4068   1.417   5.507   5.506
 1057SOL     OW 4069   3.408   3.461   2.815
 1057SOL    HW1 4070   3.465   3.428   2.740
 1057SOL    HW2 4071   3.425   3.406   2.897
 1058SOL     OW 4072   4.940   1.418   1.879
 1058SOL    HW1 4073   4.949   1.372   1.967
 1058SOL    HW2 4074   4.928   1.350   1.807
 1059SOL     OW 4075   2.149   0.721   0.777
 1059SOL    HW1 4076   2.237   0.690   0.740
 1059SOL    HW2 4077   2.079   0.715   0.706
 1060SOL     OW 4078   0.148   3.392   4.901
 1060SOL    HW1 4079   0.154   3.355   4.808
 1060SOL    HW2 4080   0.221   3.460   4.914
 1061SOL     OW 4081   5.065   3.625   1.307
 1061SOL    HW1 4082   5.069   3.554   1.237
 1061SOL    HW2 4083   5.099   3.588   1.394
 1062SOL     OW 4084   6.589   5.067   5.131
 1062SOL    HW1 4085   6.640   5.022   5.204
 1062SOL    HW2 4086   6.609   5.022   5.044
 1063SOL     OW 4087   1.047   4.251   1.674
 1063SOL    HW1 4088   1.080   4.179   1.613
 1063SOL    HW2 4089   1.113   4.326   1.675
 1064SOL     OW 4090   1.295   4.114   1.764
 1064SOL    HW1 4091   1.325   4.185   1.828
 1064SOL    HW2 4092   1.346   4.029   1.783
 1065SOL     OW 4093   4.218   0.369   4.109
 1065SOL    HW1 4094   4.198   0.466   4.124
 1065SOL    HW2 4095   4.317   0.356   4.105
 1066SOL     OW 4096   5.147   0.475   4.386
 1066SOL    HW1 4097   5.245   0.458   4.388
 1066SOL    HW2 4098   5.105   0.418   4.316
 1067SOL     OW 4099   1.636   2.916   0.137
 1067SOL    HW1 4100   1.593   2.837   0.094
 1067SOL    HW2 4101   1.569   2.991   0.143
 1068SOL     OW 4102   5.360   4.461   2.069
 1068SOL    HW1 4103   5.316   4.398   2.134
 1068SOL    HW2 4104   5.325   4.554   2.084
 1069SOL     OW 4105   4.860   4.650   1.293
 1069SOL    HW1 4106   4.762   4.663   1.273
 1069SOL    HW2 4107   4.894   4.574   1.238
 1070SOL     OW 4108   1.502   0.753   1.107
 1070SOL    HW1 4109   1.563   0.739   1.185
 1070SOL    HW2 4110   1.553   0.798   1.033
 1071SOL     OW 4111   3.641   6.998   3.570
 1071SOL    HW1 4112   3.642   0.016   3.661
 1071SOL    HW2 4113   3.733   6.999   3.532
 1072SOL     OW 4114   1.639   6.032   0.965
 1072SOL    HW1 4115   1.675   6.008   0.875
 1072SOL    HW2 4116   1.667   5.963   1.032
 1073SOL     OW 4117   3.455   6.546   2.764
 1073SOL    HW1 4118   3.521   6.490   2.815
 1073SOL    HW2 4119   3.422   6.494   2.685
 1074SOL     OW 4120   2.065   5.255   0.881
 1074SOL    HW1 4121   1.973   5.290   0.900
 1074SOL    HW2 4122   2.105   5.308   0.806
 1075SOL     OW 4123   4.673   6.274   3.671
 1075SOL    HW1 4124   4.725   6.336   3.612
 1075SOL    HW2 4125   4.712   6.183   3.666
 1076SOL     OW 4126   0.529   4.754   4.971
 1076SOL    HW1 4127   0.534   4.677   5.035
 1076SOL    HW2 4128   0.442   4.752   4.923
 1077SOL     OW 4129   6.562   0.174   7.012
 1077SOL    HW1 4130   6.622   0.121   0.049
 1077SOL    HW2 4131   6.584   0.271   7.022
 1078SOL     OW 4132   2.206   0.976   2.689
 1078SOL    HW1 4133   2.172   0.895   2.641
 1078SOL    HW2 4134   2.255   0.947   2.771
 1079SOL     OW 4135   1.634   5.704   2.318
 1079SOL    HW1 4136   1.606   5.617   2.278
 1079SOL    HW2 4137   1.688   5.687   2.400
 1080SOL     OW 4138   2.060   4.298   3.459
 1080SOL    HW1 4139   2.137   4.247   3.495
 1080SOL    HW2 4140   2.078   4.323   3.364
 1081SOL     OW 4141   0.127   0.095   5.763
 1081SOL    HW1 4142   0.139   0.027   5.690
 1081SOL    HW2 4143   0.035   0.132   5.759
 1082SOL     OW 4144   2.531   0.868   5.469
 1082SOL    HW1 4145   2.516   0.832   5.561
 1082SOL    HW2 4146   2.613   0.826   5.429
 1083SOL     OW 4147   3.835   4.170   1.017
 1083SOL    HW1 4148   3.751   4.120   0.998
 1083SOL    HW2 4149   3.907   4.138   0.955
 1084SOL     OW 4150   6.441   6.013   1.085
 1084SOL    HW1 4151   6.397   6.081   1.144
 1084SOL    HW2 4152   6.515   5.969   1.134
 1085SOL     OW 4153   1.929   4.272   3.013
 1085SOL    HW1 4154   1.935   4.361   2.969
 1085SOL    HW2 4155   1.929   4.200   2.943
 1086SOL     OW 4156   6.593   5.949   2.807
 1086SOL    HW1 4157   6.564   6.042   2.785
 1086SOL    HW2 4158   6.513   5.895   2.836
 1087SOL     OW 4159   5.895   2.469   5.814
 1087SOL    HW1 4160   5.966   2.494   5.747
 1087SOL    HW2 4161   5.810   2.517   5.791
 1088SOL     OW 4162   5.771   4.716   3.335
 1088SOL    HW1 4163   5.775   4.813   3.311
 1088SOL    HW2 4164   5.688   4.676   3.297
 1089SOL     OW 4165   1.221   6.998   4.511
 1089SOL    HW1 4166   1.245   0.070   4.529
 1089SOL    HW2 4167   1.159   6.965   4.582
 1090SOL     OW 4168   2.603   1.675   3.563
 1090SOL    HW1 4169   2.699   1.703   3.571
 1090SOL    HW2 4170   2.544   1.753   3.585
 1091SOL     OW 4171   1.748   3.125   4.761
 1091SOL    HW1 4172   1.784   3.035   4.736
 1091SOL    HW2 4173   1.720   3.174   4.678
 1092SOL     OW 4174   2.861   3.386   0.945
 1092SOL    HW1 4175   2.827   3.311   1.001
 1092SOL    HW2 4176   2.886   3.352   0.854
 1093SOL     OW 4177   1.571   2.366   2.868
 1093SOL    HW1 4178   1.601   2.364   2.964
 1093SOL    HW2 4179   1.642   2.409   2.812
 1094SOL     OW 4180   1.183   6.667   2.731
 1094SOL    HW1 4181   1.221   6.600   2.667
 1094SOL    HW2 4182   1.092   6.637   2.760
 1095SOL     OW 4183   6.908   2.110   5.751
 1095SOL    HW1 4184   6.908   2.078   5.657
 1095SOL    HW2 4185   6.816   2.105   5.789
 1096SOL     OW 4186   3.814   4.612   1.697
 1096SOL    HW1 4187   3.742   4.631   1.763
 1096SOL    HW2 4188   3.775   4.610   1.605
 1097SOL     OW 4189   1.295   4.371   3.874
 1097SOL    HW1 4190   1.267   4.288   3.825
 1097SOL    HW2 4191   1.215   4.412   3.918
 1098SOL     OW 4192   5.026   2.949   0.511
 1098SOL    HW1 4193   4.980   3.033   0.539
 1098SOL    HW2 4194   5.125   2.958   0.527
 1099SOL     OW 4195   3.829   1.247   4.626
 1099SOL    HW1 4196   3.908   1.229   4.686
 1099SOL    HW2 4197   3.779   1.326   4.660
 1100SOL     OW 4198   2.703   2.262   6.603
 1100SOL    HW1 4199   2.624   2.323   6.612
 1100SOL    HW2 4200   2.785   2.316   6.586
 1101SOL     OW 4201   5.673   2.905   0.985
 1101SOL    HW1 4202   5.603   2.901   0.914
 1101SOL    HW2 4203   5.674   2.819   1.035
 1102SOL     OW 4204   1.101   5.379   3.032
 1102SOL    HW1 4205   1.190   5.423   3.048
 1102SOL    HW2 4206   1.076   5.324   3.112
 1103SOL     OW 4207   2.976   1.364   1.297
 1103SOL    HW1 4208   2.893   1.419   1.302
 1103SOL    HW2 4209   2.963   1.289   1.231
 1104SOL     OW 4210   1.937   3.713   6.268
 1104SOL    HW1 4211   1.885   3.797   6.257
 1104SOL    HW2 4212   2.031   3.727   6.237
 1105SOL     OW 4213   5.248   3.601   4.827
 1105SOL    HW1 4214   5.196   3.612   4.742
 1105SOL    HW2 4215   5.187   3.569   4.900
 1106SOL     OW 4216   0.922   1.627   0.794
 1106SOL    HW1 4217   0.838   1.667   0.830
 1106SOL    HW2 4218   0.949   1.675   0.710
 1107SOL     OW 4219   1.040   0.570   6.430
 1107SOL    HW1 4220   1.080   0.519   6.506
 1107SOL    HW2 4221   0.946   0.594   6.452
 1108SOL     OW 4222   2.371   0.452   5.957
 1108SOL    HW1 4223   2.337   0.388   5.887
 1108SOL    HW2 4224   2.335   0.543   5.939
 1109SOL     OW 4225   4.448   5.890   4.644
 1109SOL    HW1 4226   4.517   5.918   4.577
 1109SOL    HW2 4227   4.445   5.790   4.650
 1110SOL     OW 4228   2.580   1.382   2.541
 1110SOL    HW1 4229   2.506   1.317   2.524
 1110SOL    HW2 4230   2.545   1.475   2.534
 1111SOL     OW 4231   5.595   5.585   0.246
 1111SOL    HW1 4232   5.593   5.633   0.158
 1111SOL    HW2 4233   5.642   5.641   0.313
 1112SOL     OW 4234   6.339   1.163   2.762
 1112SOL    HW1 4235   6.253   1.132   2.802
 1112SOL    HW2 4236   6.408   1.091   2.773
 1113SOL     OW 4237   6.208   3.378   2.556
 1113SOL    HW1 4238   6.139   3.411   2.492
 1113SOL    HW2 4239   6.240   3.453   2.613
 1114SOL     OW 4240   4.307   1.043   6.352
 1114SOL    HW1 4241   4.313   1.012   6.447
 1114SOL    HW2 4242   4.230   1.107   6.343
 1115SOL     OW 4243   4.006   3.311   0.172
 1115SOL    HW1 4244   4.037   3.227   0.127
 1115SOL    HW2 4245   3.921   3.293   0.221
 1116SOL     OW 4246   5.578   5.420   4.793
 1116SOL    HW1 4247   5.594   5.478   4.713
 1116SOL    HW2 4248   5.626   5.333   4.782
 1117SOL     OW 4249   2.040   2.982   1.643
 1117SOL    HW1 4250   2.108   2.948   1.578
 1117SOL    HW2 4251   2.017   3.076   1.621
 1118SOL     OW 4252   1.739   4.782   1.512
 1118SOL    HW1 4253   1.784   4.694   1.527
 1118SOL    HW2 4254   1.706   4.788   1.418
 1119SOL     OW 4255   4.098   4.235   1.589
 1119SOL    HW1 4256   4.150   4.226   1.504
 1119SOL    HW2 4257   4.137   4.309   1.644
 1120SOL     OW 4258   4.978   6.304   5.241
 1120SOL    HW1 4259   5.043   6.305   5.317
 1120SOL    HW2 4260   5.006   6.371   5.172
 1121SOL     OW 4261   5.138   4.098   2.389
 1121SOL    HW1 4262   5.143   4.136   2.482
 1121SOL    HW2 4263   5.042   4.085   2.364
 1122SOL     OW 4264   4.892   3.421   5.516
 1122SOL    HW1 4265   4.909   3.476   5.598
 1122SOL    HW2 4266   4.976   3.416   5.462
 1123SOL     OW 4267   5.442   1.812   2.108
 1123SOL    HW1 4268   5.417   1.797   2.013
 1123SOL    HW2 4269   5.421   1.907   2.133
 1124SOL     OW 4270   6.198   4.280   5.238
 1124SOL    HW1 4271   6.202   4.260   5.336
 1124SOL    HW2 4272   6.113   4.327   5.217
 1125SOL     OW 4273   2.079   1.626   4.731
 1125SOL    HW1 4274   2.060   1.707   4.675
 1125SOL    HW2 4275   2.015   1.622   4.807
 1126SOL     OW 4276   5.936   6.948   0.770
 1126SOL    HW1 4277   5.996   7.020   0.736
 1126SOL    HW2 4278   5.930   6.953   0.870
 1127SOL     OW 4279   5.174   5.533   4.714
 1127SOL    HW1 4280   5.083   5.493   4.714
 1127SOL    HW2 4281   5.169   5.631   4.698
 1128SOL     OW 4282   4.776   2.373   5.680
 1128SOL    HW1 4283   4.702   2.439   5.695
 1128SOL    HW2 4284   4.809   2.380   5.586
 1129SOL     OW 4285   3.861   0.116   0.226
 1129SOL    HW1 4286   3.829   0.066   0.306
 1129SOL    HW2 4287   3.955   0.090   0.205
 1130SOL     OW 4288   1.720   3.878   0.964
 1130SOL    HW1 4289   1.722   3.956   0.900
 1130SOL    HW2 4290   1.711   3.913   1.057
 1131SOL     OW 4291   0.574   6.209   5.761
 1131SOL    HW1 4292   0.594   6.112   5.757
 1131SOL    HW2 4293   0.481   6.226   5.726
 1132SOL     OW 4294   4.847   0.277   6.898
 1132SOL    HW1 4295   4.897   0.243   6.977
 1132SOL    HW2 4296   4.857   0.377   6.892
 1133SOL     OW 4297   0.402   1.191   0.824
 1133SOL    HW1 4298   0.469   1.118   0.812
 1133SOL    HW2 4299   0.312   1.159   0.793
 1134SOL     OW 4300   5.211   2.060   0.470
 1134SOL    HW1 4301   5.276   2.135   0.461
 1134SOL    HW2 4302   5.255   1.984   0.519
 1135SOL     OW 4303   2.811   1.332   2.671
 1135SOL    HW1 4304   2.739   1.341   2.603
 1135SOL    HW2 4305   2.847   1.423   2.693
 1136SOL     OW 4306   3.302   5.001   5.326
 1136SOL    HW1 4307   3.365   4.924   5.337
 1136SOL    HW2 4308   3.293   5.050   5.412
 1137SOL     OW 4309   1.251   2.548   0.156
 1137SOL    HW1 4310   1.162   2.586   0.133
 1137SOL    HW2 4311   1.243   2.449   0.168
 1138SOL     OW 4312   1.083   1.350   6.599
 1138SOL    HW1 4313   1.084   1.418   6.672
 1138SOL    HW2 4314   1.133   1.385   6.520
 1139SOL     OW 4315   2.262   6.051   1.768
 1139SOL    HW1 4316   2.351   6.009   1.784
 1139SOL    HW2 4317   2.256   6.083   1.674
 1140SOL     OW 4318   3.483   1.292   2.227
 1140SOL    HW1 4319   3.438   1.370   2.270
 1140SOL    HW2 4320   3.452   1.284   2.132
 1141SOL     OW 4321   6.677   5.981   6.043
 1141SOL    HW1 4322   6.584   5.991   6.008
 1141SOL    HW2 4323   6.712   6.070   6.072
 1142SOL     OW 4324   4.046   0.282   4.433
 1142SOL    HW1 4325   4.015   0.209   4.371
 1142SOL    HW2 4326   4.146   0.286   4.433
 1143SOL     OW 4327   2.868   2.290   2.775
 1143SOL    HW1 4328   2.953   2.239   2.784
 1143SOL    HW2 4329   2.856   2.318   2.679
 1144SOL     OW 4330   6.876   5.159   4.951
 1144SOL    HW1 4331   6.833   5.177   4.863
 1144SOL    HW2 4332   6.972   5.189   4.948
 1145SOL     OW 4333   6.911   4.074   2.687
 1145SOL    HW1 4334   7.001   4.058   2.647
 1145SOL    HW2 4335   6.841   4.031   2.630
 1146SOL     OW 4336   5.273   0.616   0.803
 1146SOL    HW1 4337   5.308   0.608   0.710
 1146SOL    HW2 4338   5.173   0.617   0.802
 1147SOL     OW 4339   0.782   4.399   0.581
 1147SOL    HW1 4340   0.837   4.479   0.557
 1147SOL    HW2 4341   0.842   4.323   0.607
 1148SOL     OW 4342   3.436   6.914   0.289
 1148SOL    HW1 4343   3.420   6.863   0.205
 1148SOL    HW2 4344   3.524   6.888   0.328
 1149SOL     OW 4345   5.786   3.573   3.204
 1149SOL    HW1 4346   5.826   3.626   3.280
 1149SOL    HW2 4347   5.851   3.502   3.176
 1150SOL     OW 4348   1.032   3.931   0.557
 1150SOL    HW1 4349   1.116   3.948   0.506
 1150SOL    HW2 4350   1.055   3.896   0.648
 1151SOL     OW 4351   4.800   5.550   6.971
 1151SOL    HW1 4352   4.763   5.640   6.946
 1151SOL    HW2 4353   4.897   5.559   6.992
 1152SOL     OW 4354   0.672   5.952   5.800
 1152SOL    HW1 4355   0.600   5.883   5.788
 1152SOL    HW2 4356   0.709   5.945   5.893
 1153SOL     OW 4357   2.278   0.024   1.560
 1153SOL    HW1 4358   2.345   0.093   1.587
 1153SOL    HW2 4359   2.322   6.977   1.505
 1154SOL     OW 4360   0.766   3.756   1.912
 1154SOL    HW1 4361   0.764   3.774   2.011
 1154SOL    HW2 4362   0.711   3.675   1.892
 1155SOL     OW 4363   3.144   5.016   0.153
 1155SOL    HW1 4364   3.226   5.064   0.121
 1155SOL    HW2 4365   3.166   4.920   0.169
 1156SOL     OW 4366   1.923   0.680   4.520
 1156SOL    HW1 4367   1.875   0.615   4.460
 1156SOL    HW2 4368   1.887   0.772   4.504
 1157SOL     OW 4369   6.236   1.199   4.433
 1157SOL    HW1 4370   6.230   1.143   4.351
 1157SOL    HW2 4371   6.192   1.287   4.416
 1158SOL     OW 4372   0.022   5.024   5.840
 1158SOL    HW1 4373   0.034   5.123   5.844
 1158SOL    HW2 4374   0.049   4.990   5.750
 1159SOL     OW 4375   5.357   0.120   3.172
 1159SOL    HW1 4376   5.391   0.212   3.192
 1159SOL    HW2 4377   5.317   0.117   3.081
 1160SOL     OW 4378   4.132   3.945   1.526
 1160SOL    HW1 4379   4.048   3.904   1.490
 1160SOL    HW2 4380   4.109   4.021   1.586
 1161SOL     OW 4381   5.200   0.534   6.091
 1161SOL    HW1 4382   5.194   0.617   6.036
 1161SOL    HW2 4383   5.130   0.469   6.062
 1162SOL     OW 4384   4.011   2.642   0.493
 1162SOL    HW1 4385   4.049   2.734   0.500
 1162SOL    HW2 4386   4.080   2.575   0.518
 1163SOL     OW 4387   5.516   2.879   1.860
 1163SOL    HW1 4388   5.478   2.961   1.820
 1163SOL    HW2 4389   5.475   2.798   1.817
 1164SOL     OW 4390   4.901   2.505   4.090
 1164SOL    HW1 4391   4.972   2.471   4.028
 1164SOL    HW2 4392   4.861   2.588   4.053
 1165SOL     OW 4393   2.082   4.865   3.891
 1165SOL    HW1 4394   1.989   4.854   3.856
 1165SOL    HW2 4395   2.125   4.944   3.848
 1166SOL     OW 4396   3.908   0.987   0.029
 1166SOL    HW1 4397   3.878   0.964   0.122
 1166SOL    HW2 4398   3.890   0.910   6.991
 1167SOL     OW 4399   3.312   0.321   6.413
 1167SOL    HW1 4400   3.258   0.306   6.330
 1167SOL    HW2 4401   3.287   0.252   6.482
 1168SOL     OW 4402   0.001   0.378   2.515
 1168SOL    HW1 4403   0.043   0.370   2.424
 1168SOL    HW2 4404   0.038   0.457   2.562
 1169SOL     OW 4405   6.389   3.248   6.946
 1169SOL    HW1 4406   6.470   3.287   6.901
 1169SOL    HW2 4407   6.411   3.227   0.018
 1170SOL     OW 4408   4.579   0.660   2.320
 1170SOL    HW1 4409   4.564   0.692   2.414
 1170SOL    HW2 4410   4.646   0.719   2.275
 1171SOL     OW 4411   2.267   6.529   6.801
 1171SOL    HW1 4412   2.186   6.478   6.831
 1171SOL    HW2 4413   2.296   6.592   6.873
 1172SOL     OW 4414   3.580   4.015   2.914
 1172SOL    HW1 4415   3.541   3.925   2.931
 1172SOL    HW2 4416   3.576   4.069   2.998
 1173SOL     OW 4417   3.218   7.022   5.902
 1173SOL    HW1 4418   3.226   6.972   5.989
 1173SOL    HW2 4419   3.302   7.010   5.849
 1174SOL     OW 4420   2.896   4.618   0.661
 1174SOL    HW1 4421   2.889   4.538   0.721
 1174SOL    HW2 4422   2.822   4.616   0.594
 1175SOL     OW 4423   5.360   3.643   6.417
 1175SOL    HW1 4424   5.441   3.654   6.474
 1175SOL    HW2 4425   5.382   3.587   6.337
 1176SOL     OW 4426   5.751   4.261   0.647
 1176SOL    HW1 4427   5.826   4.318   0.613
 1176SOL    HW2 4428   5.770   4.234   0.742
 1177SOL     OW 4429   6.914   1.429   5.413
 1177SOL    HW1 4430   6.943   1.379   5.495
 1177SOL    HW2 4431   6.989   1.486   5.379
 1178SOL     OW 4432   3.928   3.271   1.222
 1178SOL    HW1 4433   3.853   3.317   1.270
 1178SOL    HW2 4434   3.892   3.222   1.143
 1179SOL     OW 4435   3.083   5.013   0.666
 1179SOL    HW1 4436   2.985   4.994   0.652
 1179SOL    HW2 4437   3.122   5.049   0.581
 1180SOL     OW 4438   3.115   6.996   3.547
 1180SOL    HW1 4439   3.101   0.038   3.622
 1180SOL    HW2 4440   3.053   7.019   3.472
 1181SOL     OW 4441   0.166   2.787   5.113
 1181SOL    HW1 4442   0.130   2.719   5.049
 1181SOL    HW2 4443   0.199   2.867   5.061
 1182SOL     OW 4444   1.737   5.551   3.426
 1182SOL    HW1 4445   1.789   5.494   3.364
 1182SOL    HW2 4446   1.773   5.541   3.519
 1183SOL     OW 4447   3.535   5.464   2.320
 1183SOL    HW1 4448   3.553   5.366   2.320
 1183SOL    HW2 4449   3.521   5.495   2.414
 1184SOL     OW 4450   4.044   1.560   5.357
 1184SOL    HW1 4451   4.012   1.537   5.449
 1184SOL    HW2 4452   3.984   1.516   5.290
 1185SOL     OW 4453   2.136   0.259   0.347
 1185SOL    HW1 4454   2.134   0.292   0.252
 1185SOL    HW2 4455   2.151   0.160   0.347
 1186SOL     OW 4456   6.163   6.205   6.175
 1186SOL    HW1 4457   6.066   6.222   6.189
 1186SOL    HW2 4458   6.206   6.179   6.262
 1187SOL     OW 4459   5.418   5.925   5.089
 1187SOL    HW1 4460   5.493   5.860   5.082
 1187SOL    HW2 4461   5.397   5.941   5.186
 1188SOL     OW 4462   3.446   6.675   6.675
 1188SOL    HW1 4463   3.445   6.699   6.578
 1188SOL    HW2 4464   3.488   6.749   6.727
 1189SOL     OW 4465   5.560   0.533   1.850
 1189SOL    HW1 4466   5.651   0.545   1.890
 1189SOL    HW2 4467   5.563   0.464   1.778
 1190SOL     OW 4468   4.092   4.803   4.726
 1190SOL    HW1 4469   4.001   4.833   4.756
 1190SOL    HW2 4470   4.141   4.880   4.685
 1191SOL     OW 4471   4.490   5.709   5.092
 1191SOL    HW1 4472   4.420   5.779   5.080
 1191SOL    HW2 4473   4.473   5.658   5.177
 1192SOL     OW 4474   5.578   5.361   2.651
 1192SOL    HW1 4475   5.594   5.273   2.696
 1192SOL    HW2 4476   5.493   5.358   2.600
 1193SOL     OW 4477   6.625   0.471   4.523
 1193SOL    HW1 4478   6.636   0.418   4.607
 1193SOL    HW2 4479   6.592   0.412   4.451
 1194SOL     OW 4480   0.084   1.372   1.158
 1194SOL    HW1 4481   0.175   1.337   1.134
 1194SOL    HW2 4482   0.089   1.422   1.244
 1195SOL     OW 4483   6.006   2.515   1.160
 1195SOL    HW1 4484   6.011   2.485   1.255
 1195SOL    HW2 4485   5.957   2.447   1.106
 1196SOL     OW 4486   0.001   4.279   1.883
 1196SOL    HW1 4487   6.980   4.323   1.961
 1196SOL    HW2 4488   0.089   4.323   1.866
 1197SOL     OW 4489   4.084   6.126   4.904
 1197SOL    HW1 4490   4.025   6.167   4.974
 1197SOL    HW2 4491   4.177   6.117   4.940
 1198SOL     OW 4492   2.217   2.978   2.706
 1198SOL    HW1 4493   2.140   2.962   2.768
 1198SOL    HW2 4494   2.186   3.031   2.627
 1199SOL     OW 4495   3.539   2.916   3.293
 1199SOL    HW1 4496   3.591   2.894   3.375
 1199SOL    HW2 4497   3.482   2.997   3.311
 1200SOL     OW 4498   3.540   4.192   4.869
 1200SOL    HW1 4499   3.561   4.283   4.833
 1200SOL    HW2 4500   3.604   4.126   4.832
 1201SOL     OW 4501   0.037   1.327   4.519
 1201SOL    HW1 4502   6.964   1.333   4.545
 1201SOL    HW2 4503   0.059   1.401   4.455
 1202SOL     OW 4504   6.081   1.053   5.779
 1202SOL    HW1 4505   6.012   1.079   5.846
 1202SOL    HW2 4506   6.039   0.997   5.708
 1203SOL     OW 4507   6.187   6.380   1.805
 1203SOL    HW1 4508   6.155   6.426   1.722
 1203SOL    HW2 4509   6.116   6.319   1.840
 1204SOL     OW 4510   4.656   1.622   0.679
 1204SOL    HW1 4511   4.672   1.638   0.582
 1204SOL    HW2 4512   4.558   1.627   0.698
 1205SOL     OW 4513   4.081   3.806   6.284
 1205SOL    HW1 4514   4.070   3.803   6.384
 1205SOL    HW2 4515   4.176   3.787   6.260
 1206SOL     OW 4516   0.942   1.833   4.819
 1206SOL    HW1 4517   0.900   1.923   4.830
 1206SOL    HW2 4518   0.911   1.793   4.732
 1207SOL     OW 4519   0.897   6.687   0.364
 1207SOL    HW1 4520   0.950   6.754   0.312
 1207SOL    HW2 4521   0.959   6.631   0.420
 1208SOL     OW 4522   3.423   4.103   2.683
 1208SOL    HW1 4523   3.467   4.108   2.773
 1208SOL    HW2 4524   3.490   4.128   2.612
 1209SOL     OW 4525   5.619   6.383   4.837
 1209SOL    HW1 4526   5.686   6.390   4.763
 1209SOL    HW2 4527   5.632   6.297   4.886
 1210SOL     OW 4528   4.564   6.355   3.362
 1210SOL    HW1 4529   4.562   6.454   3.376
 1210SOL    HW2 4530   4.609   6.311   3.440
 1211SOL     OW 4531   1.617   3.207   3.001
 1211SOL    HW1 4532   1.683   3.229   2.929
 1211SOL    HW2 4533   1.563   3.289   3.022
 1212SOL     OW 4534   0.165   1.478   5.034
 1212SOL    HW1 4535   0.186   1.425   4.952
 1212SOL    HW2 4536   0.189   1.426   5.116
 1213SOL     OW 4537   5.730   3.089   4.592
 1213SOL    HW1 4538   5.744   3.181   4.626
 1213SOL    HW2 4539   5.818   3.050   4.565
 1214SOL     OW 4540   1.103   3.161   4.885
 1214SOL    HW1 4541   1.162   3.239   4.862
 1214SOL    HW2 4542   1.101   3.150   4.984
 1215SOL     OW 4543   1.691   5.257   2.499
 1215SOL    HW1 4544   1.765   5.319   2.527
 1215SOL    HW2 4545   1.631   5.304   2.435
 1216SOL     OW 4546   0.162   0.164   0.858
 1216SOL    HW1 4547   0.137   0.201   0.947
 1216SOL    HW2 4548   0.080   0.153   0.802
 1217SOL     OW 4549   2.706   5.707   0.961
 1217SOL    HW1 4550   2.778   5.655   1.007
 1217SOL    HW2 4551   2.651   5.645   0.905
 1218SOL     OW 4552   0.514   3.505   4.909
 1218SOL    HW1 4553   0.535   3.408   4.919
 1218SOL    HW2 4554   0.542   3.536   4.818
 1219SOL     OW 4555   4.692   5.200   1.637
 1219SOL    HW1 4556   4.750   5.195   1.719
 1219SOL    HW2 4557   4.689   5.111   1.593
 1220SOL     OW 4558   5.626   4.010   3.082
 1220SOL    HW1 4559   5.537   4.015   3.035
 1220SOL    HW2 4560   5.691   3.962   3.023
 1221SOL     OW 4561   6.001   3.815   6.190
 1221SOL    HW1 4562   5.947   3.826   6.273
 1221SOL    HW2 4563   6.073   3.746   6.205
 1222SOL     OW 4564   6.701   0.191   0.252
 1222SOL    HW1 4565   6.779   0.232   0.205
 1222SOL    HW2 4566   6.649   0.264   0.297
 1223SOL     OW 4567   4.937   0.958   0.544
 1223SOL    HW1 4568   4.879   0.981   0.466
 1223SOL    HW2 4569   4.942   1.036   0.606
 1224SOL     OW 4570   3.133   5.910   0.327
 1224SOL    HW1 4571   3.223   5.894   0.366
 1224SOL    HW2 4572   3.087   5.823   0.312
 1225SOL     OW 4573   3.701   2.488   0.796
 1225SOL    HW1 4574   3.651   2.574   0.805
 1225SOL    HW2 4575   3.654   2.428   0.731
 1226SOL     OW 4576   4.928   6.009   0.813
 1226SOL    HW1 4577   4.882   6.079   0.759
 1226SOL    HW2 4578   5.027   6.020   0.806
 1227SOL     OW 4579   6.230   5.245   6.669
 1227SOL    HW1 4580   6.154   5.277   6.615
 1227SOL    HW2 4581   6.302   5.211   6.609
 1228SOL     OW 4582   4.105   3.471   0.625
 1228SOL    HW1 4583   4.007   3.465   0.647
 1228SOL    HW2 4584   4.138   3.381   0.596
 1229SOL     OW 4585   1.944   5.945   1.332
 1229SOL    HW1 4586   1.958   5.919   1.428
 1229SOL    HW2 4587   2.031   5.945   1.284
 1230SOL     OW 4588   5.321   5.712   2.771
 1230SOL    HW1 4589   5.371   5.676   2.693
 1230SOL    HW2 4590   5.224   5.689   2.762
 1231SOL     OW 4591   1.158   2.254   6.144
 1231SOL    HW1 4592   1.189   2.166   6.106
 1231SOL    HW2 4593   1.229   2.290   6.204
 1232SOL     OW 4594   4.724   0.920   5.409
 1232SOL    HW1 4595   4.639   0.869   5.399
 1232SOL    HW2 4596   4.724   0.997   5.345
 1233SOL     OW 4597   0.620   5.466   3.430
 1233SOL    HW1 4598   0.614   5.530   3.354
 1233SOL    HW2 4599   0.590   5.375   3.401
 1234SOL     OW 4600   6.713   2.627   5.829
 1234SOL    HW1 4601   6.713   2.573   5.745
 1234SOL    HW2 4602   6.647   2.589   5.893
 1235SOL     OW 4603   6.583   4.685   0.673
 1235SOL    HW1 4604   6.614   4.674   0.767
 1235SOL    HW2 4605   6.484   4.702   0.672
 1236SOL     OW 4606   3.860   1.640   1.572
 1236SOL    HW1 4607   3.795   1.615   1.644
 1236SOL    HW2 4608   3.953   1.637   1.609
 1237SOL     OW 4609   1.327   5.611   4.808
 1237SOL    HW1 4610   1.228   5.611   4.804
 1237SOL    HW2 4611   1.360   5.698   4.845
 1238SOL     OW 4612   0.467   0.189   4.307
 1238SOL    HW1 4613   0.376   0.208   4.272
 1238SOL    HW2 4614   0.527   0.267   4.290
 1239SOL     OW 4615   6.237   6.467   5.683
 1239SOL    HW1 4616   6.304   6.534   5.713
 1239SOL    HW2 4617   6.159   6.515   5.641
 1240SOL     OW 4618   6.094   4.896   2.367
 1240SOL    HW1 4619   6.055   4.956   2.297
 1240SOL    HW2 4620   6.080   4.800   2.340
 1241SOL     OW 4621   6.633   4.915   4.915
 1241SOL    HW1 4622   6.543   4.886   4.882
 1241SOL    HW2 4623   6.700   4.844   4.895
 1242SOL     OW 4624   2.174   3.196   0.545
 1242SOL    HW1 4625   2.223   3.276   0.510
 1242SOL    HW2 4626   2.137   3.216   0.635
 1243SOL     OW 4627   0.529   0.841   4.594
 1243SOL    HW1 4628   0.440   0.827   4.552
 1243SOL    HW2 4629   0.590   0.887   4.529
 1244SOL     OW 4630   5.119   6.608   5.291
 1244SOL    HW1 4631   5.051   6.633   5.222
 1244SOL    HW2 4632   5.195   6.560   5.247
 1245SOL     OW 4633   5.758   5.464   0.503
 1245SOL    HW1 4634   5.774   5.422   0.592
 1245SOL    HW2 4635   5.690   5.537   0.512
 1246SOL     OW 4636   3.273   1.091   2.549
 1246SOL    HW1 4637   3.304   1.059   2.638
 1246SOL    HW2 4638   3.193   1.149   2.560
 1247SOL     OW 4639   5.580   6.766   5.136
 1247SOL    HW1 4640   5.597   6.672   5.166
 1247SOL    HW2 4641   5.604   6.830   5.209
 1248SOL     OW 4642   1.481   6.747   3.958
 1248SOL    HW1 4643   1.540   6.673   3.925
 1248SOL    HW2 4644   1.417   6.710   4.026
 1249SOL     OW 4645   6.915   3.790   1.781
 1249SOL    HW1 4646   6.954   3.866   1.832
 1249SOL    HW2 4647   6.819   3.810   1.761
 1250SOL     OW 4648   6.024   3.674   4.106
 1250SOL    HW1 4649   6.068   3.643   4.022
 1250SOL    HW2 4650   6.055   3.766   4.128
 1251SOL     OW 4651   2.322   0.876   2.926
 1251SOL    HW1 4652   2.410   0.832   2.907
 1251SOL    HW2 4653   2.258   0.809   2.963
 1252SOL     OW 4654   3.646   5.530   0.146
 1252SOL    HW1 4655   3.558   5.575   0.157
 1252SOL    HW2 4656   3.643   5.467   0.069
 1253SOL     OW 4657   2.739   6.971   1.482
 1253SOL    HW1 4658   2.726   0.019   1.551
 1253SOL    HW2 4659   2.829   6.929   1.495
 1254SOL     OW 4660   6.603   3.166   2.914
 1254SOL    HW1 4661   6.581   3.086   2.970
 1254SOL    HW2 4662   6.630   3.136   2.822
 1255SOL     OW 4663   5.787   2.715   5.993
 1255SOL    HW1 4664   5.711   2.698   6.056
 1255SOL    HW2 4665   5.753   2.714   5.899
 1256SOL     OW 4666   0.717   6.383   3.869
 1256SOL    HW1 4667   0.660   6.363   3.948
 1256SOL    HW2 4668   0.780   6.459   3.891
 1257SOL     OW 4669   0.342   5.124   4.701
 1257SOL    HW1 4670   0.254   5.080   4.719
 1257SOL    HW2 4671   0.339   5.218   4.734
 1258SOL     OW 4672   1.844   5.811   2.730
 1258SOL    HW1 4673   1.813   5.771   2.644
 1258SOL    HW2 4674   1.776   5.796   2.801
 1259SOL     OW 4675   3.342   6.316   5.506
 1259SOL    HW1 4676   3.427   6.269   5.532
 1259SOL    HW2 4677   3.292   6.261   5.440
 1260SOL     OW 4678   2.865   1.108   1.481
 1260SOL    HW1 4679   2.944   1.057   1.514
 1260SOL    HW2 4680   2.877   1.131   1.384
 1261SOL     OW 4681   0.264   4.380   0.034
 1261SOL    HW1 4682   0.340   4.326   0.071
 1261SOL    HW2 4683   0.258   4.467   0.082
 1262SOL     OW 4684   5.076   5.818   1.303
 1262SOL    HW1 4685   5.031   5.738   1.265
 1262SOL    HW2 4686   5.044   5.834   1.396
 1263SOL     OW 4687   6.512   1.499   0.664
 1263SOL    HW1 4688   6.469   1.411   0.683
 1263SOL    HW2 4689   6.532   1.506   0.566
 1264SOL     OW 4690   0.848   3.630   1.505
 1264SOL    HW1 4691   0.805   3.688   1.574
 1264SOL    HW2 4692   0.940   3.606   1.535
 1265SOL     OW 4693   6.667   4.899   3.645
 1265SOL    HW1 4694   6.736   4.864   3.581
 1265SOL    HW2 4695   6.681   4.857   3.734
 1266SOL     OW 4696   2.108   1.029   3.913
 1266SOL    HW1 4697   2.167   0.948   3.919
 1266SOL    HW2 4698   2.052   1.034   3.996
 1267SOL     OW 4699   5.455   6.218   0.896
 1267SOL    HW1 4700   5.366   6.256   0.872
 1267SOL    HW2 4701   5.462   6.126   0.857
 1268SOL     OW 4702   4.707   2.569   6.659
 1268SOL    HW1 4703   4.684   2.618   6.575
 1268SOL    HW2 4704   4.624   2.531   6.699
 1269SOL     OW 4705   5.812   6.236   5.409
 1269SOL    HW1 4706   5.791   6.318   5.462
 1269SOL    HW2 4707   5.884   6.256   5.343
 1270SOL     OW 4708   2.102   3.459   4.440
 1270SOL    HW1 4709   2.130   3.549   4.473
 1270SOL    HW2 4710   2.045   3.469   4.359
 1271SOL     OW 4711   3.494   2.137   3.658
 1271SOL    HW1 4712   3.433   2.091   3.723
 1271SOL    HW2 4713   3.446   2.151   3.572
 1272SOL     OW 4714   6.171   5.868   0.971
 1272SOL    HW1 4715   6.243   5.927   1.008
 1272SOL    HW2 4716   6.210   5.778   0.949
 1273SOL     OW 4717   1.798   4.733   6.943
 1273SOL    HW1 4718   1.724   4.720   7.010
 1273SOL    HW2 4719   1.880   4.765   6.991
 1274SOL     OW 4720   6.398   2.885   1.718
 1274SOL    HW1 4721   6.356   2.923   1.635
 1274SOL    HW2 4722   6.363   2.934   1.798
 1275SOL     OW 4723   3.915   0.357   3.666
 1275SOL    HW1 4724   3.945   0.262   3.664
 1275SOL    HW2 4725   3.820   0.362   3.697
 1276SOL     OW 4726   0.223   1.393   3.891
 1276SOL    HW1 4727   0.163   1.466   3.859
 1276SOL    HW2 4728   0.180   1.345   3.967
 1277SOL     OW 4729   0.350   0.229   5.241
 1277SOL    HW1 4730   0.284   0.264   5.307
 1277SOL    HW2 4731   0.381   0.138   5.269
 1278SOL     OW 4732   1.465   0.996   5.356
 1278SOL    HW1 4733   1.428   0.970   5.446
 1278SOL    HW2 4734   1.545   0.939   5.336
 1279SOL     OW 4735   3.006   6.018   0.104
 1279SOL    HW1 4736   3.040   6.111   0.118
 1279SOL    HW2 4737   3.073   5.952   0.138
 1280SOL     OW 4738   3.269   6.187   3.905
 1280SOL    HW1 4739   3.218   6.186   3.992
 1280SOL    HW2 4740   3.208   6.165   3.830
 1281SOL     OW 4741   0.938   5.854   3.231
 1281SOL    HW1 4742   0.880   5.845   3.151
 1281SOL    HW2 4743   1.021   5.800   3.218
 1282SOL     OW 4744   0.232   1.025   6.922
 1282SOL    HW1 4745   0.183   1.078   6.992
 1282SOL    HW2 4746   0.318   1.070   6.899
 1283SOL     OW 4747   5.347   2.833   5.198
 1283SOL    HW1 4748   5.425   2.778   5.167
 1283SOL    HW2 4749   5.279   2.773   5.240
 1284SOL     OW 4750   4.301   3.186   1.528
 1284SOL    HW1 4751   4.222   3.150   1.479
 1284SOL    HW2 4752   4.313   3.137   1.614
 1285SOL     OW 4753   5.157   3.427   5.677
 1285SOL    HW1 4754   5.247   3.466   5.698
 1285SOL    HW2 4755   5.086   3.494   5.697
 1286SOL     OW 4756   4.954   4.429   2.943
 1286SOL    HW1 4757   4.989   4.515   2.981
 1286SOL    HW2 4758   4.862   4.443   2.908
 1287SOL     OW 4759   4.600   4.001   5.687
 1287SOL    HW1 4760   4.609   4.099   5.707
 1287SOL    HW2 4761   4.671   3.951   5.736
 1288SOL     OW 4762   6.201   3.780   0.828
 1288SOL    HW1 4763   6.147   3.772   0.912
 1288SOL    HW2 4764   6.275   3.713   0.830
 1289SOL     OW 4765   0.351   6.109   1.710
 1289SOL    HW1 4766   0.386   6.202   1.699
 1289SOL    HW2 4767   0.256   6.112   1.741
 1290SOL     OW 4768   1.290   0.159   0.354
 1290SOL    HW1 4769   1.319   0.213   0.275
 1290SOL    HW2 4770   1.337   0.071   0.353
 1291SOL     OW 4771   0.407   3.310   5.584
 1291SOL    HW1 4772   0.420   3.290   5.487
 1291SOL    HW2 4773   0.454   3.395   5.608
 1292SOL     OW 4774   5.695   5.791   2.844
 1292SOL    HW1 4775   5.759   5.725   2.884
 1292SOL    HW2 4776   5.651   5.750   2.764
 1293SOL     OW 4777   1.862   1.318   6.583
 1293SOL    HW1 4778   1.852   1.412   6.616
 1293SOL    HW2 4779   1.789   1.298   6.517
 1294SOL     OW 4780   1.260   3.389   0.376
 1294SOL    HW1 4781   1.293   3.475   0.339
 1294SOL    HW2 4782   1.329   3.349   0.436
 1295SOL     OW 4783   6.730   3.714   2.836
 1295SOL    HW1 4784   6.687   3.717   2.746
 1295SOL    HW2 4785   6.660   3.715   2.907
 1296SOL     OW 4786   3.922   0.521   5.426
 1296SOL    HW1 4787   3.860   0.444   5.405
 1296SOL    HW2 4788   3.921   0.586   5.350
 1297SOL     OW 4789   5.880   0.729   6.561
 1297SOL    HW1 4790   5.959   0.787   6.542
 1297SOL    HW2 4791   5.870   0.661   6.488
 1298SOL     OW 4792   6.204   3.971   3.187
 1298SOL    HW1 4793   6.141   4.041   3.153
 1298SOL    HW2 4794   6.280   3.961   3.122
 1299SOL     OW 4795   0.376   3.716   2.921
 1299SOL    HW1 4796   0.285   3.730   2.882
 1299SOL    HW2 4797   0.443   3.707   2.848
 1300SOL     OW 4798   3.205   4.123   1.763
 1300SOL    HW1 4799   3.118   4.110   1.810
 1300SOL    HW2 4800   3.267   4.047   1.786
 1301SOL     OW 4801   0.583   5.880   2.165
 1301SOL    HW1 4802   0.507   5.861   2.226
 1301SOL    HW2 4803   0.638   5.797   2.152
 1302SOL     OW 4804   3.090   0.298   5.377
 1302SOL    HW1 4805   3.073   0.266   5.470
 1302SOL    HW2 4806   3.094   0.398   5.376
 1303SOL     OW 4807   4.463   1.824   1.226
 1303SOL    HW1 4808   4.468   1.724   1.238
 1303SOL    HW2 4809   4.548   1.865   1.259
 1304SOL     OW 4810   1.420   1.302   6.643
 1304SOL    HW1 4811   1.330   1.335   6.614
 1304SOL    HW2 4812   1.480   1.295   6.563
 1305SOL     OW 4813   5.604   4.026   0.075
 1305SOL    HW1 4814   5.521   3.998   0.027
 1305SOL    HW2 4815   5.580   4.060   0.166
 1306SOL     OW 4816   1.083   4.451   5.425
 1306SOL    HW1 4817   1.030   4.535   5.419
 1306SOL    HW2 4818   1.146   4.445   5.348
 1307SOL     OW 4819   1.836   2.890   4.659
 1307SOL    HW1 4820   1.935   2.886   4.647
 1307SOL    HW2 4821   1.790   2.857   4.577
 1308SOL     OW 4822   4.221   5.355   4.364
 1308SOL    HW1 4823   4.262   5.339   4.454
 1308SOL    HW2 4824   4.169   5.275   4.335
 1309SOL     OW 4825   5.357   3.625   5.681
 1309SOL    HW1 4826   5.447   3.615   5.723
 1309SOL    HW2 4827   5.367   3.658   5.587
 1310SOL     OW 4828   0.368   4.080   4.875
 1310SOL    HW1 4829   0.280   4.036   4.861
 1310SOL    HW2 4830   0.406   4.109   4.787
 1311SOL     OW 4831   6.706   0.271   3.660
 1311SOL    HW1 4832   6.651   0.350   3.686
 1311SOL    HW2 4833   6.709   0.206   3.736
 1312SOL     OW 4834   1.155   0.390   6.619
 1312SOL    HW1 4835   1.199   0.443   6.691
 1312SOL    HW2 4836   1.121   0.304   6.657
 1313SOL     OW 4837   1.315   4.946   4.503
 1313SOL    HW1 4838   1.276   5.029   4.544
 1313SOL    HW2 4839   1.411   4.939   4.528
 1314SOL     OW 4840   2.851   1.962   5.828
 1314SOL    HW1 4841   2.903   1.893   5.878
 1314SOL    HW2 4842   2.904   2.047   5.825
 1315SOL     OW 4843   0.362   0.949   0.344
 1315SOL    HW1 4844   0.458   0.968   0.328
 1315SOL    HW2 4845   0.328   0.883   0.277
 1316SOL     OW 4846   2.545   6.585   4.174
 1316SOL    HW1 4847   2.613   6.538   4.230
 1316SOL    HW2 4848   2.493   6.649   4.231
 1317SOL     OW 4849   0.581   4.280   4.433
 1317SOL    HW1 4850   0.583   4.331   4.347
 1317SOL    HW2 4851   0.605   4.341   4.509
 1318SOL     OW 4852   0.065   0.487   0.706
 1318SOL    HW1 4853   7.019   0.468   0.637
 1318SOL    HW2 4854   0.151   0.512   0.661
 1319SOL     OW 4855   7.003   0.419   0.373
 1319SOL    HW1 4856   6.974   0.391   0.282
 1319SOL    HW2 4857   0.074   0.388   0.388
 1320SOL     OW 4858   6.037   3.775   0.242
 1320SOL    HW1 4859   6.040   3.787   0.341
 1320SOL    HW2 4860   5.979   3.845   0.201
 1321SOL     OW 4861   4.341   2.239   6.420
 1321SOL    HW1 4862   4.274   2.168   6.441
 1321SOL    HW2 4863   4.298   2.329   6.427
 1322SOL     OW 4864   4.879   0.699   3.565
 1322SOL    HW1 4865   4.977   0.713   3.549
 1322SOL    HW2 4866   4.827   0.736   3.487
 1323SOL     OW 4867   5.274   1.992   5.424
 1323SOL    HW1 4868   5.229   1.953   5.344
 1323SOL    HW2 4869   5.332   1.923   5.467
 1324SOL     OW 4870   0.855   2.521   1.169
 1324SOL    HW1 4871   0.846   2.596   1.103
 1324SOL    HW2 4872   0.793   2.447   1.143
 1325SOL     OW 4873   1.751   6.784   1.948
 1325SOL    HW1 4874   1.761   6.703   1.890
 1325SOL    HW2 4875   1.708   6.857   1.896
 1326SOL     OW 4876   5.198   2.695   4.753
 1326SOL    HW1 4877   5.139   2.640   4.693
 1326SOL    HW2 4878   5.283   2.717   4.704
 1327SOL     OW 4879   2.694   5.055   2.127
 1327SOL    HW1 4880   2.682   5.152   2.147
 1327SOL    HW2 4881   2.716   5.007   2.212
 1328SOL     OW 4882   1.520   2.736   1.014
 1328SOL    HW1 4883   1.496   2.640   1.029
 1328SOL    HW2 4884   1.563   2.746   0.924
 1329SOL     OW 4885   0.413   2.001   0.763
 1329SOL    HW1 4886   0.385   1.921   0.816
 1329SOL    HW2 4887   0.437   1.972   0.670
 1330SOL     OW 4888   6.669   1.174   1.362
 1330SOL    HW1 4889   6.686   1.161   1.459
 1330SOL    HW2 4890   6.642   1.269   1.345
 1331SOL     OW 4891   4.791   2.150   3.359
 1331SOL    HW1 4892   4.781   2.243   3.323
 1331SOL    HW2 4893   4.700   2.108   3.369
 1332SOL     OW 4894   3.650   0.307   0.124
 1332SOL    HW1 4895   3.678   0.402   0.138
 1332SOL    HW2 4896   3.731   0.248   0.124
 1333SOL     OW 4897   3.569   3.470   6.188
 1333SOL    HW1 4898   3.492   3.486   6.127
 1333SOL    HW2 4899   3.541   3.412   6.264
 1334SOL     OW 4900   0.051   2.556   4.997
 1334SOL    HW1 4901   0.132   2.502   4.974
 1334SOL    HW2 4902   0.036   2.553   5.095
 1335SOL     OW 4903   2.902   0.383   2.948
 1335SOL    HW1 4904   2.992   0.351   2.917
 1335SOL    HW2 4905   2.901   0.483   2.947
 1336SOL     OW 4906   2.107   1.269   6.507
 1336SOL    HW1 4907   2.017   1.297   6.540
 1336SOL    HW2 4908   2.130   1.180   6.546
 1337SOL     OW 4909   1.295   1.454   4.740
 1337SOL    HW1 4910   1.355   1.425   4.815
 1337SOL    HW2 4911   1.204   1.474   4.776
 1338SOL     OW 4912   4.369   2.580   6.257
 1338SOL    HW1 4913   4.296   2.519   6.228
 1338SOL    HW2 4914   4.450   2.563   6.201
 1339SOL     OW 4915   1.201   0.006   0.052
 1339SOL    HW1 4916   1.158   0.096   0.046
 1339SOL    HW2 4917   1.232   7.001   6.984
 1340SOL     OW 4918   0.848   1.424   1.594
 1340SOL    HW1 4919   0.770   1.387   1.544
 1340SOL    HW2 4920   0.917   1.352   1.607
 1341SOL     OW 4921   4.523   0.737   5.378
 1341SOL    HW1 4922   4.426   0.748   5.357
 1341SOL    HW2 4923   4.540   0.643   5.408
 1342SOL     OW 4924   1.805   4.881   6.364
 1342SOL    HW1 4925   1.856   4.853   6.445
 1342SOL    HW2 4926   1.787   4.801   6.307
 1343SOL     OW 4927   4.190   5.849   2.678
 1343SOL    HW1 4928   4.190   5.852   2.778
 1343SOL    HW2 4929   4.097   5.862   2.644
 1344SOL     OW 4930   6.606   4.530   3.802
 1344SOL    HW1 4931   6.622   4.578   3.888
 1344SOL    HW2 4932   6.675   4.558   3.735
 1345SOL     OW 4933   1.622   1.874   3.224
 1345SOL    HW1 4934   1.584   1.858   3.133
 1345SOL    HW2 4935   1.722   1.879   3.219
 1346SOL     OW 4936   1.427   0.257   3.088
 1346SOL    HW1 4937   1.474   0.337   3.050
 1346SOL    HW2 4938   1.492   0.199   3.136
 1347SOL     OW 4939   6.269   6.528   4.040
 1347SOL    HW1 4940   6.235   6.590   4.111
 1347SOL    HW2 4941   6.355   6.486   4.071
 1348SOL     OW 4942   5.478   5.312   3.085
 1348SOL    HW1 4943   5.468   5.336   3.181
 1348SOL    HW2 4944   5.569   5.272   3.070
 1349SOL     OW 4945   4.889   2.535   5.905
 1349SOL    HW1 4946   4.872   2.489   5.992
 1349SOL    HW2 4947   4.873   2.471   5.830
 1350SOL     OW 4948   4.378   4.621   6.928
 1350SOL    HW1 4949   4.440   4.543   6.944
 1350SOL    HW2 4950   4.422   4.705   6.960
 1351SOL     OW 4951   6.781   2.398   3.189
 1351SOL    HW1 4952   6.772   2.301   3.209
 1351SOL    HW2 4953   6.723   2.422   3.111
 1352SOL     OW 4954   0.443   0.495   3.285
 1352SOL    HW1 4955   0.503   0.416   3.295
 1352SOL    HW2 4956   0.358   0.467   3.241
 1353SOL     OW 4957   5.959   4.053   5.652
 1353SOL    HW1 4958   5.918   4.045   5.743
 1353SOL    HW2 4959   5.967   3.963   5.611
 1354SOL     OW 4960   0.541   1.873   0.148
 1354SOL    HW1 4961   0.554   1.935   0.225
 1354SOL    HW2 4962   0.447   1.879   0.115
 1355SOL     OW 4963   6.194   2.283   5.825
 1355SOL    HW1 4964   6.249   2.212   5.868
 1355SOL    HW2 4965   6.209   2.370   5.871
 1356SOL     OW 4966   3.123   3.216   3.646
 1356SOL    HW1 4967   3.134   3.313   3.667
 1356SOL    HW2 4968   3.049   3.204   3.580
 1357SOL     OW 4969   1.309   4.563   5.944
 1357SOL    HW1 4970   1.234   4.624   5.969
 1357SOL    HW2 4971   1.383   4.615   5.903
 1358SOL     OW 4972   3.601   1.382   5.830
 1358SOL    HW1 4973   3.585   1.477   5.859
 1358SOL    HW2 4974   3.694   1.355   5.855
 1359SOL     OW 4975   6.972   4.547   1.234
 1359SOL    HW1 4976   6.891   4.584   1.279
 1359SOL    HW2 4977   6.964   4.448   1.226
 1360SOL     OW 4978   4.042   3.680   2.142
 1360SOL    HW1 4979   4.033   3.702   2.240
 1360SOL    HW2 4980   3.971   3.728   2.091
 1361SOL     OW 4981   6.857   6.260   5.647
 1361SOL    HW1 4982   6.933   6.291   5.589
 1361SOL    HW2 4983   6.894   6.219   5.730
 1362SOL     OW 4984   3.035   3.941   4.296
 1362SOL    HW1 4985   3.019   3.913   4.390
 1362SOL    HW2 4986   3.025   3.862   4.235
 1363SOL     OW 4987   6.378   6.129   3.526
 1363SOL    HW1 4988   6.454   6.154   3.587
 1363SOL    HW2 4989   6.405   6.052   3.469
 1364SOL     OW 4990   0.581   2.050   0.349
 1364SOL    HW1 4991   0.486   2.054   0.378
 1364SOL    HW2 4992   0.623   2.140   0.359
 1365SOL     OW 4993   0.599   3.496   5.719
 1365SOL    HW1 4994   0.694   3.525   5.729
 1365SOL    HW2 4995   0.538   3.569   5.748
 1366SOL     OW 4996   0.482   4.088   0.669
 1366SOL    HW1 4997   0.446   4.014   0.726
 1366SOL    HW2 4998   0.581   4.079   0.662
 1367SOL     OW 4999   1.285   5.970   2.754
 1367SOL    HW1 5000   1.310   5.874   2.740
 1367SOL    HW2 5001   1.360   6.029   2.724
 1368SOL     OW 5002   6.591   0.514   3.735
 1368SOL    HW1 5003   6.612   0.590   3.673
 1368SOL    HW2 5004   6.512   0.538   3.792
 1369SOL     OW 5005   1.998   6.987   2.609
 1369SOL    HW1 5006   1.940   6.950   2.536
 1369SOL    HW2 5007   2.074   6.924   2.626
 1370SOL     OW 5008   5.365   1.768   4.206
 1370SOL    HW1 5009   5.454   1.756   4.161
 1370SOL    HW2 5010   5.378   1.821   4.290
 1371SOL     OW 5011   5.073   1.160   5.036
 1371SOL    HW1 5012   5.095   1.064   5.017
 1371SOL    HW2 5013   5.130   1.193   5.111
 1372SOL     OW 5014   1.146   1.966   0.872
 1372SOL    HW1 5015   1.131   1.924   0.962
 1372SOL    HW2 5016   1.069   2.025   0.849
 1373SOL     OW 5017   4.679   2.315   6.842
 1373SOL    HW1 5018   4.729   2.273   6.918
 1373SOL    HW2 5019   4.743   2.343   6.771
 1374SOL     OW 5020   4.433   3.204   0.332
 1374SOL    HW1 5021   4.364   3.277   0.332
 1374SOL    HW2 5022   4.432   3.158   0.421
 1375SOL     OW 5023   0.461   6.924   6.197
 1375SOL    HW1 5024   0.466   6.845   6.135
 1375SOL    HW2 5025   0.552   6.942   6.235
 1376SOL     OW 5026   3.824   4.843   5.208
 1376SOL    HW1 5027   3.915   4.855   5.168
 1376SOL    HW2 5028   3.832   4.805   5.300
 1377SOL     OW 5029   0.761   3.874   3.366
 1377SOL    HW1 5030   0.748   3.972   3.353
 1377SOL    HW2 5031   0.673   3.830   3.382
 1378SOL     OW 5032   5.855   2.463   5.347
 1378SOL    HW1 5033   5.838   2.388   5.411
 1378SOL    HW2 5034   5.953   2.465   5.324
 1379SOL     OW 5035   4.158   6.006   3.249
 1379SOL    HW1 5036   4.169   5.939   3.322
 1379SOL    HW2 5037   4.220   6.083   3.264
 1380SOL     OW 5038   0.432   6.283   3.432
 1380SOL    HW1 5039   0.473   6.307   3.520
 1380SOL    HW2 5040   0.445   6.185   3.415
 1381SOL     OW 5041   5.477   1.803   0.108
 1381SOL    HW1 5042   5.427   1.871   0.162
 1381SOL    HW2 5043   5.492   1.721   0.163
 1382SOL     OW 5044   5.325   3.146   1.525
 1382SOL    HW1 5045   5.333   3.098   1.438
 1382SOL    HW2 5046   5.230   3.144   1.556
 1383SOL     OW 5047   1.334   0.272   1.531
 1383SOL    HW1 5048   1.425   0.302   1.561
 1383SOL    HW2 5049   1.324   0.174   1.548
 1384SOL     OW 5050   4.849   0.523   1.973
 1384SOL    HW1 5051   4.827   0.426   1.960
 1384SOL    HW2 5052   4.766   0.578   1.966
 1385SOL     OW 5053   2.756   4.808   3.664
 1385SOL    HW1 5054   2.759   4.900   3.705
 1385SOL    HW2 5055   2.758   4.739   3.736
 1386SOL     OW 5056   2.954   1.326   3.875
 1386SOL    HW1 5057   2.987   1.349   3.966
 1386SOL    HW2 5058   3.019   1.264   3.831
 1387SOL     OW 5059   3.932   5.325   2.629
 1387SOL    HW1 5060   3.883   5.409   2.606
 1387SOL    HW2 5061   4.021   5.324   2.582
 1388SOL     OW 5062   6.818   0.209   2.788
 1388SOL    HW1 5063   6.787   0.300   2.760
 1388SOL    HW2 5064   6.749   0.141   2.762
 1389SOL     OW 5065   6.239   0.903   3.849
 1389SOL    HW1 5066   6.159   0.963   3.846
 1389SOL    HW2 5067   6.278   0.895   3.757
 1390SOL     OW 5068   0.050   3.266   6.802
 1390SOL    HW1 5069   0.060   3.301   6.709
 1390SOL    HW2 5070   7.019   3.182   6.801
 1391SOL     OW 5071   6.442   6.320   4.752
 1391SOL    HW1 5072   6.405   6.366   4.833
 1391SOL    HW2 5073   6.371   6.265   4.709
 1392SOL     OW 5074   5.140   6.468   5.790
 1392SOL    HW1 5075   5.163   6.384   5.741
 1392SOL    HW2 5076   5.135   6.544   5.725
 1393SOL     OW 5077   6.479   4.676   5.840
 1393SOL    HW1 5078   6.501   4.767   5.875
 1393SOL    HW2 5079   6.437   4.622   5.913
 1394SOL     OW 5080   3.381   5.231   5.783
 1394SOL    HW1 5081   3.369   5.312   5.725
 1394SOL    HW2 5082   3.477   5.201   5.780
 1395SOL     OW 5083   2.378   4.766   4.978
 1395SOL    HW1 5084   2.427   4.696   5.028
 1395SOL    HW2 5085   2.430   4.852   4.980
 1396SOL     OW 5086   1.173   1.451   5.441
 1396SOL    HW1 5087   1.084   1.407   5.440
 1396SOL    HW2 5088   1.238   1.393   5.490
 1397SOL     OW 5089   0.459   6.997   4.118
 1397SOL    HW1 5090   0.432   0.044   4.184
 1397SOL    HW2 5091   0.520   6.931   4.162
 1398SOL     OW 5092   3.154   0.803   6.768
 1398SOL    HW1 5093   3.202   0.744   6.833
 1398SOL    HW2 5094   3.120   0.748   6.692
 1399SOL     OW 5095   3.622   5.532   0.831
 1399SOL    HW1 5096   3.578   5.536   0.921
 1399SOL    HW2 5097   3.551   5.532   0.760
 1400SOL     OW 5098   6.934   1.725   4.010
 1400SOL    HW1 5099   0.001   1.729   4.053
 1400SOL    HW2 5100   6.864   1.711   4.081
 1401SOL     OW 5101   6.195   0.754   4.688
 1401SOL    HW1 5102   6.253   0.829   4.659
 1401SOL    HW2 5103   6.206   0.676   4.626
 1402SOL     OW 5104   6.220   3.654   6.250
 1402SOL    HW1 5105   6.224   3.606   6.338
 1402SOL    HW2 5106   6.272   3.602   6.182
 1403SOL     OW 5107   2.508   2.201   1.910
 1403SOL    HW1 5108   2.592   2.255   1.917
 1403SOL    HW2 5109   2.457   2.230   1.829
 1404SOL     OW 5110   6.458   6.539   0.468
 1404SOL    HW1 5111   6.556   6.540   0.487
 1404SOL    HW2 5112   6.422   6.447   0.482
 1405SOL     OW 5113   2.474   3.329   0.783
 1405SOL    HW1 5114   2.548   3.346   0.718
 1405SOL    HW2 5115   2.395   3.384   0.758
 1406SOL     OW 5116   0.592   4.989   0.694
 1406SOL    HW1 5117   0.518   5.053   0.677
 1406SOL    HW2 5118   0.633   5.008   0.783
 1407SOL     OW 5119   0.431   3.303   2.497
 1407SOL    HW1 5120   0.339   3.309   2.459
 1407SOL    HW2 5121   0.467   3.395   2.512
 1408SOL     OW 5122   5.572   0.947   5.644
 1408SOL    HW1 5123   5.592   0.858   5.604
 1408SOL    HW2 5124   5.616   1.018   5.591
 1409SOL     OW 5125   6.641   0.332   4.779
 1409SOL    HW1 5126   6.724   0.286   4.748
 1409SOL    HW2 5127   6.654   0.365   4.872
 1410SOL     OW 5128   1.273   4.034   6.235
 1410SOL    HW1 5129   1.352   4.094   6.244
 1410SOL    HW2 5130   1.190   4.084   6.260
 1411SOL     OW 5131   3.916   6.850   1.125
 1411SOL    HW1 5132   4.008   6.853   1.165
 1411SOL    HW2 5133   3.906   6.924   1.059
 1412SOL     OW 5134   1.317   2.079   0.688
 1412SOL    HW1 5135   1.408   2.037   0.686
 1412SOL    HW2 5136   1.267   2.045   0.768
 1413SOL     OW 5137   1.577   2.278   5.392
 1413SOL    HW1 5138   1.487   2.320   5.392
 1413SOL    HW2 5139   1.605   2.259   5.486
 1414SOL     OW 5140   2.619   0.946   1.904
 1414SOL    HW1 5141   2.669   0.995   1.832
 1414SOL    HW2 5142   2.672   0.949   1.989
 1415SOL     OW 5143   2.077   1.042   4.248
 1415SOL    HW1 5144   2.144   1.115   4.234
 1415SOL    HW2 5145   2.026   1.059   4.333
 1416SOL     OW 5146   5.169   5.195   4.261
 1416SOL    HW1 5147   5.225   5.112   4.257
 1416SOL    HW2 5148   5.161   5.225   4.356
 1417SOL     OW 5149   3.018   2.649   0.156
 1417SOL    HW1 5150   3.054   2.568   0.203
 1417SOL    HW2 5151   2.920   2.639   0.143
 1418SOL     OW 5152   3.187   4.000   2.771
 1418SOL    HW1 5153   3.281   4.036   2.770
 1418SOL    HW2 5154   3.170   3.950   2.686
 1419SOL     OW 5155   2.830   5.558   3.893
 1419SOL    HW1 5156   2.808   5.598   3.982
 1419SOL    HW2 5157   2.925   5.528   3.892
 1420SOL     OW 5158   2.508   6.667   1.928
 1420SOL    HW1 5159   2.537   6.723   1.851
 1420SOL    HW2 5160   2.411   6.680   1.945
 1421SOL     OW 5161   2.253   5.060   3.437
 1421SOL    HW1 5162   2.277   4.974   3.483
 1421SOL    HW2 5163   2.306   5.069   3.352
 1422SOL     OW 5164   1.383   3.846   0.172
 1422SOL    HW1 5165   1.374   3.766   0.113
 1422SOL    HW2 5166   1.373   3.929   0.117
 1423SOL     OW 5167   5.454   6.140   3.994
 1423SOL    HW1 5168   5.498   6.220   4.033
 1423SOL    HW2 5169   5.482   6.058   4.044
 1424SOL     OW 5170   6.549   4.907   5.975
 1424SOL    HW1 5171   6.629   4.957   5.942
 1424SOL    HW2 5172   6.524   4.940   6.065
 1425SOL     OW 5173   1.893   5.406   5.355
 1425SOL    HW1 5174   1.969   5.471   5.362
 1425SOL    HW2 5175   1.916   5.324   5.408
 1426SOL     OW 5176   2.145   4.009   6.652
 1426SOL    HW1 5177   2.118   4.031   6.558
 1426SOL    HW2 5178   2.123   3.914   6.671
 1427SOL     OW 5179   0.188   0.431   3.429
 1427SOL    HW1 5180   0.108   0.390   3.472
 1427SOL    HW2 5181   0.267   0.372   3.441
 1428SOL     OW 5182   0.488   2.810   6.770
 1428SOL    HW1 5183   0.427   2.813   6.849
 1428SOL    HW2 5184   0.580   2.836   6.799
 1429SOL     OW 5185   4.444   1.627   6.903
 1429SOL    HW1 5186   4.456   1.651   6.999
 1429SOL    HW2 5187   4.530   1.594   6.865
 1430SOL     OW 5188   1.581   4.697   3.512
 1430SOL    HW1 5189   1.514   4.769   3.492
 1430SOL    HW2 5190   1.592   4.638   3.432
 1431SOL     OW 5191   2.614   2.191   0.529
 1431SOL    HW1 5192   2.621   2.114   0.594
 1431SOL    HW2 5193   2.700   2.242   0.528
 1432SOL     OW 5194   2.855   1.528   1.845
 1432SOL    HW1 5195   2.858   1.562   1.751
 1432SOL    HW2 5196   2.783   1.576   1.895
 1433SOL     OW 5197   4.866   0.239   4.778
 1433SOL    HW1 5198   4.774   0.238   4.738
 1433SOL    HW2 5199   4.915   0.320   4.747
 1434SOL     OW 5200   0.600   0.370   5.932
 1434SOL    HW1 5201   0.558   0.285   5.964
 1434SOL    HW2 5202   0.693   0.377   5.968
 1435SOL     OW 5203   6.866   0.107   3.050
 1435SOL    HW1 5204   6.878   0.128   2.953
 1435SOL    HW2 5205   6.789   0.159   3.087
 1436SOL     OW 5206   5.158   3.935   6.725
 1436SOL    HW1 5207   5.231   3.871   6.702
 1436SOL    HW2 5208   5.189   3.997   6.798
 1437SOL     OW 5209   2.882   2.112   4.614
 1437SOL    HW1 5210   2.879   2.012   4.616
 1437SOL    HW2 5211   2.907   2.146   4.705
 1438SOL     OW 5212   2.598   6.285   1.672
 1438SOL    HW1 5213   2.559   6.209   1.620
 1438SOL    HW2 5214   2.548   6.296   1.759
 1439SOL     OW 5215   6.436   5.416   0.800
 1439SOL    HW1 5216   6.417   5.346   0.732
 1439SOL    HW2 5217   6.512   5.387   0.858
 1440SOL     OW 5218   2.911   3.151   6.959
 1440SOL    HW1 5219   2.957   3.191   0.015
 1440SOL    HW2 5220   2.916   3.214   6.882
 1441SOL     OW 5221   6.252   0.644   3.348
 1441SOL    HW1 5222   6.322   0.597   3.294
 1441SOL    HW2 5223   6.267   0.742   3.344
 1442SOL     OW 5224   0.239   6.030   0.027
 1442SOL    HW1 5225   0.324   6.026   0.080
 1442SOL    HW2 5226   0.196   5.940   0.026
 1443SOL     OW 5227   0.566   2.675   4.157
 1443SOL    HW1 5228   0.472   2.706   4.169
 1443SOL    HW2 5229   0.628   2.752   4.169
 1444SOL     OW 5230   5.165   5.637   0.668
 1444SOL    HW1 5231   5.103   5.617   0.744
 1444SOL    HW2 5232   5.135   5.720   0.621
 1445SOL     OW 5233   0.981   2.583   2.926
 1445SOL    HW1 5234   0.923   2.528   2.985
 1445SOL    HW2 5235   1.077   2.559   2.941
 1446SOL     OW 5236   5.899   2.244   0.442
 1446SOL    HW1 5237   5.884   2.238   0.540
 1446SOL    HW2 5238   5.881   2.338   0.411
 1447SOL     OW 5239   6.241   6.583   5.200
 1447SOL    HW1 5240   6.290   6.668   5.221
 1447SOL    HW2 5241   6.163   6.602   5.141
 1448SOL     OW 5242   6.915   2.259   5.408
 1448SOL    HW1 5243   6.848   2.304   5.348
 1448SOL    HW2 5244   6.920   2.308   5.495
 1449SOL     OW 5245   0.749   1.758   6.579
 1449SOL    HW1 5246   0.702   1.842   6.608
 1449SOL    HW2 5247   0.839   1.782   6.543
 1450SOL     OW 5248   0.866   2.704   1.371
 1450SOL    HW1 5249   0.782   2.759   1.378
 1450SOL    HW2 5250   0.850   2.626   1.311
 1451SOL     OW 5251   0.516   0.160   2.090
 1451SOL    HW1 5252   0.524   0.156   2.189
 1451SOL    HW2 5253   0.514   0.068   2.052
 1452SOL     OW 5254   4.427   1.734   4.930
 1452SOL    HW1 5255   4.398   1.701   5.020
 1452SOL    HW2 5256   4.354   1.789   4.889
 1453SOL     OW 5257   6.791   3.578   5.704
 1453SOL    HW1 5258   6.798   3.591   5.803
 1453SOL    HW2 5259   6.882   3.586   5.663
 1454SOL     OW 5260   0.496   2.862   2.486
 1454SOL    HW1 5261   0.553   2.784   2.512
 1454SOL    HW2 5262   0.470   2.854   2.390
 1455SOL     OW 5263   1.653   0.172   1.407
 1455SOL    HW1 5264   1.743   0.179   1.365
 1455SOL    HW2 5265   1.589   0.129   1.342
 1456SOL     OW 5266   7.012   5.967   5.630
 1456SOL    HW1 5267   0.018   5.944   5.537
 1456SOL    HW2 5268   6.933   5.911   5.655
 1457SOL     OW 5269   0.708   6.850   1.333
 1457SOL    HW1 5270   0.688   6.823   1.427
 1457SOL    HW2 5271   0.718   6.768   1.276
 1458SOL     OW 5272   5.710   5.597   4.043
 1458SOL    HW1 5273   5.730   5.499   4.046
 1458SOL    HW2 5274   5.665   5.619   3.957
 1459SOL     OW 5275   3.482   5.883   5.972
 1459SOL    HW1 5276   3.401   5.826   5.958
 1459SOL    HW2 5277   3.488   5.951   5.898
 1460SOL     OW 5278   0.243   6.621   5.260
 1460SOL    HW1 5279   0.183   6.680   5.312
 1460SOL    HW2 5280   0.265   6.539   5.314
 1461SOL     OW 5281   5.911   4.768   2.932
 1461SOL    HW1 5282   5.910   4.867   2.918
 1461SOL    HW2 5283   5.910   4.722   2.844
 1462SOL     OW 5284   1.469   0.588   0.145
 1462SOL    HW1 5285   1.538   0.600   0.217
 1462SOL    HW2 5286   1.423   0.676   0.128
 1463SOL     OW 5287   0.082   5.645   6.179
 1463SOL    HW1 5288   7.018   5.668   6.223
 1463SOL    HW2 5289   0.065   5.592   6.097
 1464SOL     OW 5290   0.309   6.407   2.020
 1464SOL    HW1 5291   0.283   6.491   2.068
 1464SOL    HW2 5292   0.344   6.341   2.086
 1465SOL     OW 5293   1.598   0.587   3.656
 1465SOL    HW1 5294   1.571   0.596   3.560
 1465SOL    HW2 5295   1.664   0.512   3.665
 1466SOL     OW 5296   2.528   2.513   2.421
 1466SOL    HW1 5297   2.539   2.611   2.431
 1466SOL    HW2 5298   2.497   2.492   2.329
 1467SOL     OW 5299   2.090   1.772   2.563
 1467SOL    HW1 5300   2.187   1.768   2.588
 1467SOL    HW2 5301   2.037   1.715   2.626
 1468SOL     OW 5302   3.403   6.003   2.448
 1468SOL    HW1 5303   3.443   5.928   2.396
 1468SOL    HW2 5304   3.465   6.028   2.523
 1469SOL     OW 5305   0.678   1.317   2.245
 1469SOL    HW1 5306   0.688   1.318   2.344
 1469SOL    HW2 5307   0.611   1.387   2.218
 1470SOL     OW 5308   1.075   2.027   2.151
 1470SOL    HW1 5309   1.136   2.082   2.209
 1470SOL    HW2 5310   1.045   1.946   2.202
 1471SOL     OW 5311   0.587   6.969   0.640
 1471SOL    HW1 5312   0.649   6.940   0.713
 1471SOL    HW2 5313   0.512   7.021   0.680
 1472SOL     OW 5314   3.114   5.355   5.362
 1472SOL    HW1 5315   3.055   5.416   5.415
 1472SOL    HW2 5316   3.065   5.271   5.341
 1473SOL     OW 5317   4.437   5.237   5.049
 1473SOL    HW1 5318   4.434   5.250   5.148
 1473SOL    HW2 5319   4.366   5.172   5.021
 1474SOL     OW 5320   5.696   5.365   2.357
 1474SOL    HW1 5321   5.597   5.375   2.343
 1474SOL    HW2 5322   5.713   5.337   2.452
 1475SOL     OW 5323   6.228   0.731   1.596
 1475SOL    HW1 5324   6.207   0.730   1.694
 1475SOL    HW2 5325   6.267   0.820   1.571
 1476SOL     OW 5326   3.531   0.773   0.872
 1476SOL    HW1 5327   3.600   0.749   0.940
 1476SOL    HW2 5328   3.494   0.864   0.893
 1477SOL     OW 5329   2.814   6.963   5.868
 1477SOL    HW1 5330   2.889   6.959   5.801
 1477SOL    HW2 5331   2.729   6.987   5.821
 1478SOL     OW 5332   6.111   5.164   5.818
 1478SOL    HW1 5333   6.178   5.213   5.874
 1478SOL    HW2 5334   6.028   5.219   5.809
 1479SOL     OW 5335   1.628   2.286   0.844
 1479SOL    HW1 5336   1.589   2.238   0.765
 1479SOL    HW2 5337   1.653   2.219   0.914
 1480SOL     OW 5338   3.306   0.744   5.021
 1480SOL    HW1 5339   3.394   0.696   5.030
 1480SOL    HW2 5340   3.321   0.842   5.027
 1481SOL     OW 5341   6.641   3.165   6.562
 1481SOL    HW1 5342   6.622   3.082   6.614
 1481SOL    HW2 5343   6.698   3.142   6.483
 1482SOL     OW 5344   4.303   1.434   1.936
 1482SOL    HW1 5345   4.247   1.499   1.885
 1482SOL    HW2 5346   4.282   1.441   2.034
 1483SOL     OW 5347   4.453   1.988   6.078
 1483SOL    HW1 5348   4.504   1.944   6.152
 1483SOL    HW2 5349   4.504   1.978   5.992
 1484SOL     OW 5350   5.463   4.474   4.753
 1484SOL    HW1 5351   5.507   4.385   4.761
 1484SOL    HW2 5352   5.469   4.505   4.658
 1485SOL     OW 5353   3.782   1.124   4.048
 1485SOL    HW1 5354   3.839   1.206   4.050
 1485SOL    HW2 5355   3.803   1.067   4.127
 1486SOL     OW 5356   5.539   1.100   2.678
 1486SOL    HW1 5357   5.616   1.128   2.620
 1486SOL    HW2 5358   5.506   1.180   2.729
 1487SOL     OW 5359   0.490   2.555   0.053
 1487SOL    HW1 5360   0.451   2.463   0.060
 1487SOL    HW2 5361   0.451   2.613   0.124
 1488SOL     OW 5362   5.132   0.784   3.526
 1488SOL    HW1 5363   5.141   0.882   3.544
 1488SOL    HW2 5364   5.216   0.737   3.552
 1489SOL     OW 5365   4.076   4.778   5.145
 1489SOL    HW1 5366   4.173   4.755   5.141
 1489SOL    HW2 5367   4.030   4.716   5.209
 1490SOL     OW 5368   1.114   3.243   1.610
 1490SOL    HW1 5369   1.132   3.159   1.662
 1490SOL    HW2 5370   1.197   3.272   1.563
 1491SOL     OW 5371   6.061   4.636   2.314
 1491SOL    HW1 5372   6.036   4.561   2.251
 1491SOL    HW2 5373   6.120   4.600   2.386
 1492SOL     OW 5374   6.654   1.019   2.512
 1492SOL    HW1 5375   6.618   0.985   2.599
 1492SOL    HW2 5376   6.730   1.082   2.531
 1493SOL     OW 5377   3.437   6.904   5.428
 1493SOL    HW1 5378   3.469   6.982   5.374
 1493SOL    HW2 5379   3.339   6.890   5.413
 1494SOL     OW 5380   4.751   1.615   6.375
 1494SOL    HW1 5381   4.775   1.642   6.468
 1494SOL    HW2 5382   4.698   1.530   6.377
 1495SOL     OW 5383   6.999   3.090   5.251
 1495SOL    HW1 5384   0.038   3.159   5.214
 1495SOL    HW2 5385   6.933   3.063   5.181
 1496SOL     OW 5386   0.157   1.599   1.618
 1496SOL    HW1 5387   0.225   1.644   1.677
 1496SOL    HW2 5388   0.100   1.668   1.574
 1497SOL     OW 5389   5.965   3.530   2.814
 1497SOL    HW1 5390   5.898   3.567   2.750
 1497SOL    HW2 5391   6.034   3.600   2.835
 1498SOL     OW 5392   2.312   5.131   7.005
 1498SOL    HW1 5393   2.321   5.081   6.919
 1498SOL    HW2 5394   2.325   5.229   6.989
 1499SOL     OW 5395   0.560   2.785   5.538
 1499SOL    HW1 5396   0.491   2.713   5.537
 1499SOL    HW2 5397   0.548   2.842   5.619
 1500SOL     OW 5398   0.264   6.961   6.748
 1500SOL    HW1 5399   0.219   6.948   6.836
 1500SOL    HW2 5400   0.214   6.910   6.677
 1501SOL     OW 5401   4.987   2.416   6.528
 1501SOL    HW1 5402   4.895   2.429   6.491
 1501SOL    HW2 5403   4.986   2.434   6.626
 1502SOL     OW 5404   4.144   0.038   0.087
 1502SOL    HW1 5405   4.197   6.988   0.044
 1502SOL    HW2 5406   4.176   0.052   0.181
 1503SOL     OW 5407   0.868   3.103   1.967
 1503SOL    HW1 5408   0.857   3.102   2.066
 1503SOL    HW2 5409   0.926   3.026   1.939
 1504SOL     OW 5410   0.318   0.088   4.524
 1504SOL    HW1 5411   0.274   0.147   4.592
 1504SOL    HW2 5412   0.368   0.145   4.459
 1505SOL     OW 5413   5.342   0.056   4.868
 1505SOL    HW1 5414   5.337   0.119   4.946
 1505SOL    HW2 5415   5.399   7.001   4.892
 1506SOL     OW 5416   0.433   6.085   0.389
 1506SOL    HW1 5417   0.466   6.035   0.309
 1506SOL    HW2 5418   0.389   6.021   0.452
 1507SOL     OW 5419   0.651   1.698   5.798
 1507SOL    HW1 5420   0.743   1.708   5.760
 1507SOL    HW2 5421   0.596   1.778   5.773
 1508SOL     OW 5422   6.497   1.585   1.740
 1508SOL    HW1 5423   6.480   1.504   1.683
 1508SOL    HW2 5424   6.595   1.589   1.763
 1509SOL     OW 5425   3.797   1.669   5.690
 1509SOL    HW1 5426   3.758   1.679   5.598
 1509SOL    HW2 5427   3.865   1.741   5.705
 1510SOL     OW 5428   4.935   1.627   4.994
 1510SOL    HW1 5429   4.955   1.720   4.963
 1510SOL    HW2 5430   4.839   1.606   4.975
 1511SOL     OW 5431   3.752   3.190   3.327
 1511SOL    HW1 5432   3.780   3.216   3.235
 1511SOL    HW2 5433   3.768   3.093   3.341
 1512SOL     OW 5434   0.323   5.084   0.947
 1512SOL    HW1 5435   0.379   5.140   0.886
 1512SOL    HW2 5436   0.243   5.137   0.977
 1513SOL     OW 5437   4.078   0.515   5.061
 1513SOL    HW1 5438   4.052   0.491   4.968
 1513SOL    HW2 5439   3.996   0.537   5.114
 1514SOL     OW 5440   3.989   2.121   5.648
 1514SOL    HW1 5441   3.896   2.127   5.682
 1514SOL    HW2 5442   4.033   2.211   5.656
 1515SOL     OW 5443   5.792   1.657   2.563
 1515SOL    HW1 5444   5.835   1.615   2.483
 1515SOL    HW2 5445   5.859   1.662   2.637
 1516SOL     OW 5446   0.174   6.176   6.595
 1516SOL    HW1 5447   0.115   6.233   6.537
 1516SOL    HW2 5448   0.136   6.172   6.687
 1517SOL     OW 5449   4.465   5.924   3.351
 1517SOL    HW1 5450   4.468   5.899   3.447
 1517SOL    HW2 5451   4.405   6.003   3.339
 1518SOL     OW 5452   0.996   2.430   0.663
 1518SOL    HW1 5453   0.991   2.341   0.618
 1518SOL    HW2 5454   1.029   2.498   0.599
 1519SOL     OW 5455   6.730   4.974   1.726
 1519SOL    HW1 5456   6.675   5.057   1.731
 1519SOL    HW2 5457   6.824   4.997   1.703
 1520SOL     OW 5458   0.004   4.003   1.900
 1520SOL    HW1 5459   0.074   4.021   1.970
 1520SOL    HW2 5460   7.002   4.089   1.855
 1521SOL     OW 5461   1.746   3.936   6.255
 1521SOL    HW1 5462   1.775   3.994   6.331
 1521SOL    HW2 5463   1.804   3.953   6.175
 1522SOL     OW 5464   5.429   6.211   5.107
 1522SOL    HW1 5465   5.388   6.131   5.064
 1522SOL    HW2 5466   5.528   6.201   5.107
 1523SOL     OW 5467   4.846   5.933   0.488
 1523SOL    HW1 5468   4.938   5.913   0.523
 1523SOL    HW2 5469   4.778   5.894   0.550
 1524SOL     OW 5470   2.565   2.017   2.145
 1524SOL    HW1 5471   2.561   2.100   2.090
 1524SOL    HW2 5472   2.485   1.960   2.126
 1525SOL     OW 5473   6.983   2.986   0.531
 1525SOL    HW1 5474   0.017   3.068   0.527
 1525SOL    HW2 5475   6.927   2.981   0.449
 1526SOL     OW 5476   0.332   0.559   6.765
 1526SOL    HW1 5477   0.380   0.631   6.815
 1526SOL    HW2 5478   0.291   0.495   6.831
 1527SOL     OW 5479   4.341   0.517   4.773
 1527SOL    HW1 5480   4.291   0.600   4.796
 1527SOL    HW2 5481   4.396   0.533   4.691
 1528SOL     OW 5482   4.161   5.031   2.656
 1528SOL    HW1 5483   4.155   5.126   2.624
 1528SOL    HW2 5484   4.253   4.996   2.638
 1529SOL     OW 5485   4.670   0.652   0.299
 1529SOL    HW1 5486   4.706   0.700   0.379
 1529SOL    HW2 5487   4.609   0.578   0.329
 1530SOL     OW 5488   3.684   1.946   1.955
 1530SOL    HW1 5489   3.686   2.041   1.986
 1530SOL    HW2 5490   3.659   1.887   2.032
 1531SOL     OW 5491   4.616   0.276   5.607
 1531SOL    HW1 5492   4.583   0.184   5.586
 1531SOL    HW2 5493   4.677   0.273   5.686
 1532SOL     OW 5494   3.076   3.091   6.707
 1532SOL    HW1 5495   3.029   3.180   6.704
 1532SOL    HW2 5496   3.048   3.041   6.789
 1533SOL     OW 5497   6.436   4.150   6.532
 1533SOL    HW1 5498   6.421   4.079   6.602
 1533SOL    HW2 5499   6.348   4.180   6.497
 1534SOL     OW 5500   2.486   4.753   0.119
 1534SOL    HW1 5501   2.437   4.819   0.177
 1534SOL    HW2 5502   2.491   4.788   0.026
 1535SOL     OW 5503   4.966   6.544   4.459
 1535SOL    HW1 5504   4.880   6.594   4.453
 1535SOL    HW2 5505   5.041   6.601   4.424
 1536SOL     OW 5506   3.321   4.758   5.992
 1536SOL    HW1 5507   3.375   4.805   5.922
 1536SOL    HW2 5508   3.374   4.751   6.077
 1537SOL     OW 5509   4.774   6.029   3.525
 1537SOL    HW1 5510   4.770   5.941   3.572
 1537SOL    HW2 5511   4.855   6.031   3.466
 1538SOL     OW 5512   3.654   6.261   6.987
 1538SOL    HW1 5513   3.622   6.290   0.054
 1538SOL    HW2 5514   3.642   6.162   6.977
 1539SOL     OW 5515   4.656   3.949   1.472
 1539SOL    HW1 5516   4.748   3.920   1.446
 1539SOL    HW2 5517   4.595   3.869   1.474
 1540SOL     OW 5518   1.033   6.050   5.941
 1540SOL    HW1 5519   1.071   6.033   6.032
 1540SOL    HW2 5520   1.098   6.019   5.871
 1541SOL     OW 5521   3.898   2.973   3.643
 1541SOL    HW1 5522   3.914   3.004   3.737
 1541SOL    HW2 5523   3.935   3.040   3.580
 1542SOL     OW 5524   5.891   6.816   2.815
 1542SOL    HW1 5525   5.794   6.835   2.799
 1542SOL    HW2 5526   5.915   6.838   2.909
 1543SOL     OW 5527   3.037   5.108   5.266
 1543SOL    HW1 5528   3.128   5.079   5.295
 1543SOL    HW2 5529   3.036   5.120   5.166
 1544SOL     OW 5530   2.918   3.594   2.655
 1544SOL    HW1 5531   2.869   3.598   2.567
 1544SOL    HW2 5532   2.985   3.520   2.653
 1545SOL     OW 5533   5.105   0.709   3.240
 1545SOL    HW1 5534   5.068   0.759   3.319
 1545SOL    HW2 5535   5.088   0.761   3.156
 1546SOL     OW 5536   3.756   6.589   5.917
 1546SOL    HW1 5537   3.836   6.548   5.873
 1546SOL    HW2 5538   3.786   6.644   5.996
 1547SOL     OW 5539   1.912   4.147   2.711
 1547SOL    HW1 5540   1.821   4.105   2.720
 1547SOL    HW2 5541   1.982   4.078   2.732
 1548SOL     OW 5542   5.287   4.019   5.861
 1548SOL    HW1 5543   5.329   4.100   5.901
 1548SOL    HW2 5544   5.222   3.979   5.926
 1549SOL     OW 5545   4.858   1.203   2.256
 1549SOL    HW1 5546   4.851   1.270   2.330
 1549SOL    HW2 5547   4.935   1.226   2.197
 1550SOL     OW 5548   3.269   3.599   0.122
 1550SOL    HW1 5549   3.326   3.674   0.155
 1550SOL    HW2 5550   3.207   3.569   0.194
 1551SOL     OW 5551   2.496   4.224   6.087
 1551SOL    HW1 5552   2.542   4.193   6.004
 1551SOL    HW2 5553   2.398   4.226   6.072
 1552SOL     OW 5554   0.526   5.966   0.168
 1552SOL    HW1 5555   0.525   5.867   0.154
 1552SOL    HW2 5556   0.614   6.003   0.136
 1553SOL     OW 5557   0.079   1.639   5.410
 1553SOL    HW1 5558   0.135   1.557   5.421
 1553SOL    HW2 5559   0.138   1.717   5.390
 1554SOL     OW 5560   4.156   2.033   2.866
 1554SOL    HW1 5561   4.160   2.112   2.927
 1554SOL    HW2 5562   4.217   2.046   2.789
 1555SOL     OW 5563   4.969   2.521   6.775
 1555SOL    HW1 5564   4.896   2.588   6.759
 1555SOL    HW2 5565   4.978   2.505   6.873
 1556SOL     OW 5566   3.759   1.431   0.380
 1556SOL    HW1 5567   3.710   1.410   0.465
 1556SOL    HW2 5568   3.738   1.525   0.352
 1557SOL     OW 5569   2.470   2.103   6.235
 1557SOL    HW1 5570   2.517   2.075   6.151
 1557SOL    HW2 5571   2.442   2.021   6.286
 1558SOL     OW 5572   5.319   0.731   4.760
 1558SOL    HW1 5573   5.352   0.638   4.777
 1558SOL    HW2 5574   5.220   0.734   4.773
 1559SOL     OW 5575   0.793   2.550   0.383
 1559SOL    HW1 5576   0.785   2.602   0.298
 1559SOL    HW2 5577   0.869   2.587   0.437
 1560SOL     OW 5578   0.798   1.035   5.873
 1560SOL    HW1 5579   0.851   0.961   5.830
 1560SOL    HW2 5580   0.701   1.011   5.872
 1561SOL     OW 5581   6.407   6.749   3.913
 1561SOL    HW1 5582   6.371   6.674   3.968
 1561SOL    HW2 5583   6.334   6.815   3.895
 1562SOL     OW 5584   3.810   5.777   3.051
 1562SOL    HW1 5585   3.885   5.713   3.044
 1562SOL    HW2 5586   3.844   5.866   3.083
 1563SOL     OW 5587   1.608   0.165   6.048
 1563SOL    HW1 5588   1.593   0.116   5.963
 1563SOL    HW2 5589   1.695   0.214   6.044
 1564SOL     OW 5590   1.102   2.594   3.318
 1564SOL    HW1 5591   1.004   2.580   3.307
 1564SOL    HW2 5592   1.120   2.646   3.402
 1565SOL     OW 5593   4.197   5.035   4.614
 1565SOL    HW1 5594   4.256   5.116   4.615
 1565SOL    HW2 5595   4.132   5.043   4.538
 1566SOL     OW 5596   5.608   4.947   3.121
 1566SOL    HW1 5597   5.561   4.872   3.073
 1566SOL    HW2 5598   5.542   4.998   3.176
 1567SOL     OW 5599   6.061   5.730   0.305
 1567SOL    HW1 5600   6.154   5.694   0.302
 1567SOL    HW2 5601   6.050   5.788   0.386
 1568SOL     OW 5602   1.877   6.251   0.796
 1568SOL    HW1 5603   1.848   6.158   0.774
 1568SOL    HW2 5604   1.804   6.315   0.772
 1569SOL     OW 5605   4.399   6.169   3.624
 1569SOL    HW1 5606   4.487   6.200   3.661
 1569SOL    HW2 5607   4.399   6.069   3.616
 1570SOL     OW 5608   1.878   0.130   0.477
 1570SOL    HW1 5609   1.781   0.126   0.502
 1570SOL    HW2 5610   1.931   0.076   0.543
 1571SOL     OW 5611   5.344   1.953   1.117
 1571SOL    HW1 5612   5.257   1.970   1.163
 1571SOL    HW2 5613   5.351   2.012   1.036
 1572SOL     OW 5614   0.740   6.899   0.873
 1572SOL    HW1 5615   0.702   6.814   0.909
 1572SOL    HW2 5616   0.815   6.929   0.932
 1573SOL     OW 5617   5.239   3.473   1.481
 1573SOL    HW1 5618   5.277   3.497   1.570
 1573SOL    HW2 5619   5.263   3.379   1.458
 1574SOL     OW 5620   6.846   0.843   1.993
 1574SOL    HW1 5621   6.852   0.759   1.939
 1574SOL    HW2 5622   6.934   0.890   1.993
 1575SOL     OW 5623   3.886   1.411   1.173
 1575SOL    HW1 5624   3.798   1.457   1.184
 1575SOL    HW2 5625   3.874   1.328   1.118
 1576SOL     OW 5626   1.567   6.966   3.490
 1576SOL    HW1 5627   1.580   6.924   3.580
 1576SOL    HW2 5628   1.592   6.901   3.419
 1577SOL     OW 5629   2.991   1.318   4.962
 1577SOL    HW1 5630   3.010   1.247   4.894
 1577SOL    HW2 5631   2.902   1.360   4.942
 1578SOL     OW 5632   6.292   2.821   5.417
 1578SOL    HW1 5633   6.301   2.722   5.406
 1578SOL    HW2 5634   6.315   2.846   5.511
 1579SOL     OW 5635   0.478   1.474   2.171
 1579SOL    HW1 5636   0.404   1.483   2.238
 1579SOL    HW2 5637   0.439   1.460   2.080
 1580SOL     OW 5638   3.016   3.921   5.040
 1580SOL    HW1 5639   3.083   3.994   5.055
 1580SOL    HW2 5640   3.008   3.901   4.943
 1581SOL     OW 5641   0.855   3.610   4.836
 1581SOL    HW1 5642   0.912   3.613   4.754
 1581SOL    HW2 5643   0.912   3.585   4.915
 1582SOL     OW 5644   1.297   6.843   3.782
 1582SOL    HW1 5645   1.387   6.823   3.820
 1582SOL    HW2 5646   1.244   6.897   3.848
 1583SOL     OW 5647   1.292   4.801   3.580
 1583SOL    HW1 5648   1.322   4.721   3.631
 1583SOL    HW2 5649   1.280   4.879   3.642
 1584SOL     OW 5650   1.123   6.887   5.451
 1584SOL    HW1 5651   1.218   6.857   5.458
 1584SOL    HW2 5652   1.078   6.837   5.377
 1585SOL     OW 5653   6.006   1.739   3.977
 1585SOL    HW1 5654   5.994   1.832   3.941
 1585SOL    HW2 5655   6.068   1.688   3.917
 1586SOL     OW 5656   3.623   4.930   1.786
 1586SOL    HW1 5657   3.623   4.830   1.786
 1586SOL    HW2 5658   3.610   4.963   1.879
 1587SOL     OW 5659   3.230   6.058   6.502
 1587SOL    HW1 5660   3.244   6.026   6.595
 1587SOL    HW2 5661   3.185   6.147   6.504
 1588SOL     OW 5662   4.549   1.484   3.275
 1588SOL    HW1 5663   4.513   1.406   3.328
 1588SOL    HW2 5664   4.569   1.559   3.337
 1589SOL     OW 5665   5.618   3.716   1.473
 1589SOL    HW1 5666   5.540   3.690   1.416
 1589SOL    HW2 5667   5.702   3.684   1.431
 1590SOL     OW 5668   3.442   6.204   6.339
 1590SOL    HW1 5669   3.527   6.171   6.380
 1590SOL    HW2 5670   3.366   6.146   6.369
 1591SOL     OW 5671   6.374   5.554   2.999
 1591SOL    HW1 5672   6.394   5.651   2.990
 1591SOL    HW2 5673   6.458   5.504   3.021
 1592SOL     OW 5674   2.053   4.180   0.284
 1592SOL    HW1 5675   2.019   4.141   0.199
 1592SOL    HW2 5676   2.132   4.127   0.315
 1593SOL     OW 5677   1.052   6.661   4.354
 1593SOL    HW1 5678   1.146   6.660   4.388
 1593SOL    HW2 5679   1.013   6.570   4.361
 1594SOL     OW 5680   0.329   6.241   2.244
 1594SOL    HW1 5681   0.295   6.159   2.290
 1594SOL    HW2 5682   0.415   6.270   2.286
 1595SOL     OW 5683   1.097   5.401   0.187
 1595SOL    HW1 5684   1.159   5.384   0.110
 1595SOL    HW2 5685   1.131   5.353   0.268
 1596SOL     OW 5686   0.321   2.787   4.220
 1596SOL    HW1 5687   0.240   2.756   4.169
 1596SOL    HW2 5688   0.332   2.886   4.207
 1597SOL     OW 5689   1.594   6.407   6.743
 1597SOL    HW1 5690   1.656   6.377   6.670
 1597SOL    HW2 5691   1.564   6.327   6.795
 1598SOL     OW 5692   0.973   3.677   6.210
 1598SOL    HW1 5693   1.045   3.729   6.164
 1598SOL    HW2 5694   0.898   3.738   6.234
 1599SOL     OW 5695   4.541   4.540   5.817
 1599SOL    HW1 5696   4.561   4.613   5.752
 1599SOL    HW2 5697   4.529   4.579   5.909
 1600SOL     OW 5698   5.302   1.555   4.720
 1600SOL    HW1 5699   5.397   1.554   4.689
 1600SOL    HW2 5700   5.252   1.625   4.669
 1601SOL     OW 5701   0.151   5.069   4.946
 1601SOL    HW1 5702   0.137   5.030   4.855
 1601SOL    HW2 5703   0.247   5.093   4.958
 1602SOL     OW 5704   2.504   5.422   3.714
 1602SOL    HW1 5705   2.548   5.340   3.752
 1602SOL    HW2 5706   2.405   5.408   3.711
 1603SOL     OW 5707   6.773   6.296   2.628
 1603SOL    HW1 5708   6.800   6.387   2.596
 1603SOL    HW2 5709   6.855   6.242   2.647
 1604SOL     OW 5710   6.120   4.561   0.921
 1604SOL    HW1 5711   6.167   4.648   0.935
 1604SOL    HW2 5712   6.092   4.554   0.825
 1605SOL     OW 5713   6.820   6.486   1.816
 1605SOL    HW1 5714   6.911   6.445   1.819
 1605SOL    HW2 5715   6.771   6.466   1.901
 1606SOL     OW 5716   3.577   0.701   5.009
 1606SOL    HW1 5717   3.606   0.665   5.098
 1606SOL    HW2 5718   3.648   0.762   4.974
 1607SOL     OW 5719   3.846   1.891   1.232
 1607SOL    HW1 5720   3.936   1.849   1.219
 1607SOL    HW2 5721   3.798   1.843   1.305
 1608SOL     OW 5722   1.110   0.163   4.093
 1608SOL    HW1 5723   1.146   0.141   4.002
 1608SOL    HW2 5724   1.019   0.123   4.103
 1609SOL     OW 5725   3.854   0.327   0.487
 1609SOL    HW1 5726   3.908   0.292   0.410
 1609SOL    HW2 5727   3.801   0.407   0.457
 1610SOL     OW 5728   5.717   4.565   6.915
 1610SOL    HW1 5729   5.727   4.466   6.902
 1610SOL    HW2 5730   5.761   4.591   7.001
 1611SOL     OW 5731   2.475   3.805   1.653
 1611SOL    HW1 5732   2.528   3.720   1.651
 1611SOL    HW2 5733   2.534   3.882   1.629
 1612SOL     OW 5734   2.424   0.603   5.115
 1612SOL    HW1 5735   2.324   0.607   5.114
 1612SOL    HW2 5736   2.461   0.695   5.102
 1613SOL     OW 5737   1.804   5.337   1.497
 1613SOL    HW1 5738   1.887   5.348   1.552
 1613SOL    HW2 5739   1.780   5.240   1.491
 1614SOL     OW 5740   6.172   3.453   6.982
 1614SOL    HW1 5741   6.155   3.491   6.891
 1614SOL    HW2 5742   6.198   3.356   6.973
 1615SOL     OW 5743   6.629   5.355   0.972
 1615SOL    HW1 5744   6.599   5.398   1.057
 1615SOL    HW2 5745   6.725   5.327   0.981
 1616SOL     OW 5746   3.205   1.663   5.098
 1616SOL    HW1 5747   3.213   1.568   5.067
 1616SOL    HW2 5748   3.114   1.678   5.136
 1617SOL     OW 5749   6.040   0.580   2.210
 1617SOL    HW1 5750   5.946   0.614   2.208
 1617SOL    HW2 5751   6.081   0.601   2.298
 1618SOL     OW 5752   1.434   4.291   1.928
 1618SOL    HW1 5753   1.446   4.339   2.015
 1618SOL    HW2 5754   1.523   4.266   1.891
 1619SOL     OW 5755   0.741   2.206   2.501
 1619SOL    HW1 5756   0.738   2.278   2.571
 1619SOL    HW2 5757   0.698   2.240   2.417
 1620SOL     OW 5758   2.871   5.307   1.494
 1620SOL    HW1 5759   2.816   5.226   1.476
 1620SOL    HW2 5760   2.959   5.299   1.447
 1621SOL     OW 5761   0.600   1.380   0.728
 1621SOL    HW1 5762   0.550   1.299   0.760
 1621SOL    HW2 5763   0.698   1.366   0.742
 1622SOL     OW 5764   0.467   2.562   4.584
 1622SOL    HW1 5765   0.390   2.509   4.618
 1622SOL    HW2 5766   0.437   2.654   4.562
 1623SOL     OW 5767   2.266   3.646   5.376
 1623SOL    HW1 5768   2.276   3.588   5.295
 1623SOL    HW2 5769   2.312   3.733   5.360
 1624SOL     OW 5770   2.556   1.204   5.191
 1624SOL    HW1 5771   2.496   1.142   5.241
 1624SOL    HW2 5772   2.651   1.187   5.215
 1625SOL     OW 5773   1.275   5.699   1.760
 1625SOL    HW1 5774   1.234   5.740   1.842
 1625SOL    HW2 5775   1.246   5.750   1.679
 1626SOL     OW 5776   3.283   2.307   6.062
 1626SOL    HW1 5777   3.199   2.315   6.114
 1626SOL    HW2 5778   3.299   2.391   6.010
 1627SOL     OW 5779   6.347   2.735   3.670
 1627SOL    HW1 5780   6.367   2.655   3.726
 1627SOL    HW2 5781   6.367   2.818   3.722
 1628SOL     OW 5782   4.682   4.528   0.481
 1628SOL    HW1 5783   4.618   4.475   0.537
 1628SOL    HW2 5784   4.651   4.623   0.476
 1629SOL     OW 5785   2.795   1.223   3.656
 1629SOL    HW1 5786   2.859   1.240   3.731
 1629SOL    HW2 5787   2.706   1.264   3.678
 1630SOL     OW 5788   1.253   6.010   5.797
 1630SOL    HW1 5789   1.337   6.021   5.849
 1630SOL    HW2 5790   1.270   5.950   5.718
 1631SOL     OW 5791   0.430   1.771   6.364
 1631SOL    HW1 5792   0.439   1.840   6.436
 1631SOL    HW2 5793   0.445   1.813   6.274
 1632SOL     OW 5794   0.184   1.683   6.542
 1632SOL    HW1 5795   0.209   1.737   6.462
 1632SOL    HW2 5796   0.264   1.633   6.575
 1633SOL     OW 5797   5.038   2.445   4.314
 1633SOL    HW1 5798   5.007   2.456   4.220
 1633SOL    HW2 5799   4.962   2.411   4.370
 1634SOL     OW 5800   4.231   4.936   0.025
 1634SOL    HW1 5801   4.209   5.033   0.038
 1634SOL    HW2 5802   4.223   4.888   0.112
 1635SOL     OW 5803   7.020   6.124   5.875
 1635SOL    HW1 5804   6.985   6.054   5.812
 1635SOL    HW2 5805   0.097   6.123   5.873
 1636SOL     OW 5806   2.692   3.974   1.646
 1636SOL    HW1 5807   2.717   4.070   1.635
 1636SOL    HW2 5808   2.758   3.929   1.705
 1637SOL     OW 5809   0.449   0.267   3.498
 1637SOL    HW1 5810   0.504   0.227   3.424
 1637SOL    HW2 5811   0.476   0.226   3.585
 1638SOL     OW 5812   0.409   4.632   3.833
 1638SOL    HW1 5813   0.481   4.562   3.834
 1638SOL    HW2 5814   0.394   4.666   3.926
 1639SOL     OW 5815   4.590   6.948   3.041
 1639SOL    HW1 5816   4.501   6.989   3.064
 1639SOL    HW2 5817   4.576   6.855   3.007
 1640SOL     OW 5818   5.917   1.631   0.629
 1640SOL    HW1 5819   5.866   1.545   0.632
 1640SOL    HW2 5820   5.984   1.632   0.702
 1641SOL     OW 5821   5.088   2.500   4.589
 1641SOL    HW1 5822   5.002   2.489   4.639
 1641SOL    HW2 5823   5.069   2.498   4.491
 1642SOL     OW 5824   6.304   3.921   6.195
 1642SOL    HW1 5825   6.294   3.911   6.095
 1642SOL    HW2 5826   6.288   3.832   6.238
 1643SOL     OW 5827   2.884   5.093   3.647
 1643SOL    HW1 5828   2.924   5.086   3.738
 1643SOL    HW2 5829   2.943   5.047   3.580
 1644SOL     OW 5830   0.340   2.918   1.271
 1644SOL    HW1 5831   0.424   2.868   1.289
 1644SOL    HW2 5832   0.262   2.857   1.280
 1645SOL     OW 5833   2.791   5.620   5.829
 1645SOL    HW1 5834   2.849   5.698   5.805
 1645SOL    HW2 5835   2.839   5.563   5.896
 1646SOL     OW 5836   2.674   5.390   0.595
 1646SOL    HW1 5837   2.700   5.476   0.552
 1646SOL    HW2 5838   2.728   5.315   0.555
 1647SOL     OW 5839   6.346   2.681   4.791
 1647SOL    HW1 5840   6.407   2.671   4.870
 1647SOL    HW2 5841   6.258   2.638   4.811
 1648SOL     OW 5842   6.217   6.065   0.715
 1648SOL    HW1 5843   6.313   6.082   0.737
 1648SOL    HW2 5844   6.159   6.114   0.779
 1649SOL     OW 5845   3.496   6.977   4.814
 1649SOL    HW1 5846   3.503   6.888   4.769
 1649SOL    HW2 5847   3.573   0.011   4.787
 1650SOL     OW 5848   2.097   6.637   5.646
 1650SOL    HW1 5849   2.056   6.671   5.731
 1650SOL    HW2 5850   2.170   6.572   5.668
 1651SOL     OW 5851   0.484   1.382   1.663
 1651SOL    HW1 5852   0.461   1.472   1.700
 1651SOL    HW2 5853   0.527   1.392   1.573
 1652SOL     OW 5854   1.511   3.343   1.862
 1652SOL    HW1 5855   1.501   3.248   1.832
 1652SOL    HW2 5856   1.465   3.354   1.950
 1653SOL     OW 5857   1.056   6.886   1.257
 1653SOL    HW1 5858   1.033   6.965   1.313
 1653SOL    HW2 5859   1.028   6.904   1.162
 1654SOL     OW 5860   6.503   3.202   2.160
 1654SOL    HW1 5861   6.510   3.246   2.249
 1654SOL    HW2 5862   6.581   3.142   2.146
 1655SOL     OW 5863   6.270   2.275   5.345
 1655SOL    HW1 5864   6.204   2.281   5.270
 1655SOL    HW2 5865   6.224   2.246   5.429
 1656SOL     OW 5866   2.509   4.553   2.474
 1656SOL    HW1 5867   2.549   4.596   2.393
 1656SOL    HW2 5868   2.450   4.478   2.447
 1657SOL     OW 5869   6.902   0.782   3.980
 1657SOL    HW1 5870   6.903   0.851   4.053
 1657SOL    HW2 5871   6.825   0.799   3.919
 1658SOL     OW 5872   0.800   0.045   1.452
 1658SOL    HW1 5873   0.739   7.005   1.403
 1658SOL    HW2 5874   0.770   0.139   1.436
 1659SOL     OW 5875   3.904   1.056   5.588
 1659SOL    HW1 5876   3.844   0.998   5.644
 1659SOL    HW2 5877   3.966   1.107   5.648
 1660SOL     OW 5878   1.072   5.316   3.880
 1660SOL    HW1 5879   1.006   5.307   3.805
 1660SOL    HW2 5880   1.036   5.376   3.950
 1661SOL     OW 5881   3.316   1.526   2.326
 1661SOL    HW1 5882   3.259   1.452   2.361
 1661SOL    HW2 5883   3.286   1.613   2.367
 1662SOL     OW 5884   6.640   0.808   3.879
 1662SOL    HW1 5885   6.565   0.747   3.903
 1662SOL    HW2 5886   6.609   0.903   3.885
 1663SOL     OW 5887   3.727   0.474   2.940
 1663SOL    HW1 5888   3.664   0.526   2.882
 1663SOL    HW2 5889   3.740   0.383   2.901
 1664SOL     OW 5890   2.726   6.721   4.001
 1664SOL    HW1 5891   2.657   6.664   4.047
 1664SOL    HW2 5892   2.686   6.760   3.918
 1665SOL     OW 5893   0.507   1.020   3.264
 1665SOL    HW1 5894   0.519   1.043   3.360
 1665SOL    HW2 5895   0.409   1.016   3.242
 1666SOL     OW 5896   5.288   3.206   0.626
 1666SOL    HW1 5897   5.314   3.189   0.721
 1666SOL    HW2 5898   5.321   3.132   0.568
 1667SOL     OW 5899   6.751   6.717   1.485
 1667SOL    HW1 5900   6.698   6.707   1.401
 1667SOL    HW2 5901   6.830   6.775   1.468
 1668SOL     OW 5902   5.126   5.990   5.436
 1668SOL    HW1 5903   5.057   6.062   5.444
 1668SOL    HW2 5904   5.082   5.901   5.449
 1669SOL     OW 5905   6.716   6.033   6.369
 1669SOL    HW1 5906   6.780   6.088   6.315
 1669SOL    HW2 5907   6.623   6.068   6.358
 1670SOL     OW 5908   0.052   4.415   6.509
 1670SOL    HW1 5909   0.038   4.316   6.510
 1670SOL    HW2 5910   0.041   4.450   6.416
 1671SOL     OW 5911   4.603   2.639   0.990
 1671SOL    HW1 5912   4.693   2.643   0.947
 1671SOL    HW2 5913   4.598   2.707   1.063
 1672SOL     OW 5914   1.731   3.475   1.419
 1672SOL    HW1 5915   1.726   3.375   1.424
 1672SOL    HW2 5916   1.651   3.514   1.465
 1673SOL     OW 5917   6.752   2.256   4.058
 1673SOL    HW1 5918   6.663   2.243   4.015
 1673SOL    HW2 5919   6.818   2.192   4.018
 1674SOL     OW 5920   0.972   4.113   2.789
 1674SOL    HW1 5921   0.933   4.206   2.795
 1674SOL    HW2 5922   0.922   4.052   2.851
 1675SOL     OW 5923   4.499   0.479   5.487
 1675SOL    HW1 5924   4.518   0.397   5.540
 1675SOL    HW2 5925   4.428   0.533   5.533
 1676SOL     OW 5926   2.126   1.080   2.169
 1676SOL    HW1 5927   2.142   1.179   2.167
 1676SOL    HW2 5928   2.131   1.043   2.076
 1677SOL     OW 5929   3.894   3.634   5.628
 1677SOL    HW1 5930   3.842   3.571   5.685
 1677SOL    HW2 5931   3.851   3.725   5.630
 1678SOL     OW 5932   4.947   4.875   5.033
 1678SOL    HW1 5933   4.902   4.912   4.952
 1678SOL    HW2 5934   4.993   4.949   5.082
 1679SOL     OW 5935   1.985   3.194   5.150
 1679SOL    HW1 5936   2.042   3.113   5.137
 1679SOL    HW2 5937   2.037   3.276   5.124
 1680SOL     OW 5938   0.313   2.767   4.483
 1680SOL    HW1 5939   0.352   2.735   4.397
 1680SOL    HW2 5940   0.214   2.775   4.474
 1681SOL     OW 5941   6.367   5.686   0.354
 1681SOL    HW1 5942   6.318   5.666   0.439
 1681SOL    HW2 5943   6.446   5.744   0.374
 1682SOL     OW 5944   0.467   2.074   4.901
 1682SOL    HW1 5945   0.415   2.037   4.824
 1682SOL    HW2 5946   0.527   2.147   4.869
 1683SOL     OW 5947   3.951   5.458   1.128
 1683SOL    HW1 5948   3.870   5.406   1.158
 1683SOL    HW2 5949   3.935   5.492   1.036
 1684SOL     OW 5950   1.236   6.395   2.918
 1684SOL    HW1 5951   1.156   6.447   2.947
 1684SOL    HW2 5952   1.317   6.431   2.965
 1685SOL     OW 5953   2.672   1.107   6.040
 1685SOL    HW1 5954   2.612   1.163   5.983
 1685SOL    HW2 5955   2.624   1.024   6.067
 1686SOL     OW 5956   2.375   5.041   5.235
 1686SOL    HW1 5957   2.349   4.974   5.303
 1686SOL    HW2 5958   2.316   5.121   5.242
 1687SOL     OW 5959   2.377   3.195   1.437
 1687SOL    HW1 5960   2.371   3.294   1.423
 1687SOL    HW2 5961   2.329   3.148   1.363
 1688SOL     OW 5962   1.495   2.696   3.787
 1688SOL    HW1 5963   1.532   2.783   3.753
 1688SOL    HW2 5964   1.566   2.626   3.783
 1689SOL     OW 5965   4.558   0.808   2.538
 1689SOL    HW1 5966   4.596   0.894   2.571
 1689SOL    HW2 5967   4.514   0.760   2.614
 1690SOL     OW 5968   1.599   3.238   3.420
 1690SOL    HW1 5969   1.623   3.275   3.331
 1690SOL    HW2 5970   1.681   3.199   3.464
 1691SOL     OW 5971   5.385   4.424   3.445
 1691SOL    HW1 5972   5.462   4.377   3.486
 1691SOL    HW2 5973   5.414   4.468   3.360
 1692SOL     OW 5974   5.505   0.663   1.527
 1692SOL    HW1 5975   5.488   0.580   1.474
 1692SOL    HW2 5976   5.423   0.688   1.579
 1693SOL     OW 5977   0.084   2.238   2.557
 1693SOL    HW1 5978   0.054   2.261   2.649
 1693SOL    HW2 5979   0.019   2.273   2.490
 1694SOL     OW 5980   5.216   0.603   3.839
 1694SOL    HW1 5981   5.209   0.503   3.834
 1694SOL    HW2 5982   5.291   0.634   3.780
 1695SOL     OW 5983   2.709   1.628   5.959
 1695SOL    HW1 5984   2.657   1.661   5.880
 1695SOL    HW2 5985   2.646   1.613   6.035
 1696SOL     OW 5986   4.928   4.632   0.656
 1696SOL    HW1 5987   4.898   4.716   0.609
 1696SOL    HW2 5988   4.858   4.605   0.722
 1697SOL     OW 5989   5.351   6.686   1.733
 1697SOL    HW1 5990   5.397   6.718   1.650
 1697SOL    HW2 5991   5.396   6.726   1.813
 1698SOL     OW 5992   5.591   1.079   0.423
 1698SOL    HW1 5993   5.553   1.171   0.429
 1698SOL    HW2 5994   5.552   1.021   0.495
 1699SOL     OW 5995   2.875   1.304   0.957
 1699SOL    HW1 5996   2.937   1.367   0.911
 1699SOL    HW2 5997   2.806   1.357   1.007
 1700SOL     OW 5998   5.915   2.602   3.354
 1700SOL    HW1 5999   5.976   2.573   3.428
 1700SOL    HW2 6000   5.947   2.689   3.317
 1701SOL     OW 6001   5.605   3.589   6.067
 1701SOL    HW1 6002   5.523   3.587   6.010
 1701SOL    HW2 6003   5.674   3.647   6.024
 1702SOL     OW 6004   6.509   3.133   0.505
 1702SOL    HW1 6005   6.486   3.049   0.457
 1702SOL    HW2 6006   6.499   3.120   0.603
 1703SOL     OW 6007   4.062   3.222   2.751
 1703SOL    HW1 6008   4.032   3.128   2.769
 1703SOL    HW2 6009   4.036   3.280   2.828
 1704SOL     OW 6010   0.854   1.363   2.043
 1704SOL    HW1 6011   0.819   1.331   2.131
 1704SOL    HW2 6012   0.951   1.388   2.053
 1705SOL     OW 6013   3.575   2.514   1.426
 1705SOL    HW1 6014   3.583   2.437   1.362
 1705SOL    HW2 6015   3.627   2.592   1.392
 1706SOL     OW 6016   4.830   0.233   1.421
 1706SOL    HW1 6017   4.789   0.147   1.450
 1706SOL    HW2 6018   4.778   0.271   1.344
 1707SOL     OW 6019   4.804   1.746   2.716
 1707SOL    HW1 6020   4.723   1.771   2.662
 1707SOL    HW2 6021   4.789   1.658   2.760
 1708SOL     OW 6022   4.975   4.673   2.090
 1708SOL    HW1 6023   4.966   4.762   2.134
 1708SOL    HW2 6024   5.052   4.676   2.025
 1709SOL     OW 6025   2.284   5.749   1.587
 1709SOL    HW1 6026   2.288   5.775   1.490
 1709SOL    HW2 6027   2.201   5.696   1.604
 1710SOL     OW 6028   5.802   4.789   3.740
 1710SOL    HW1 6029   5.724   4.731   3.761
 1710SOL    HW2 6030   5.773   4.865   3.682
 1711SOL     OW 6031   1.112   4.768   4.467
 1711SOL    HW1 6032   1.038   4.810   4.413
 1711SOL    HW2 6033   1.196   4.819   4.451
 1712SOL     OW 6034   0.470   3.137   6.181
 1712SOL    HW1 6035   0.543   3.164   6.118
 1712SOL    HW2 6036   0.504   3.064   6.241
 1713SOL     OW 6037   3.908   2.297   1.506
 1713SOL    HW1 6038   3.951   2.208   1.514
 1713SOL    HW2 6039   3.808   2.286   1.501
 1714SOL     OW 6040   4.265   1.823   5.823
 1714SOL    HW1 6041   4.260   1.761   5.901
 1714SOL    HW2 6042   4.305   1.774   5.745
 1715SOL     OW 6043   6.985   3.639   2.422
 1715SOL    HW1 6044   0.035   3.649   2.354
 1715SOL    HW2 6045   6.965   3.728   2.463
 1716SOL     OW 6046   4.583   0.069   2.706
 1716SOL    HW1 6047   4.675   0.030   2.695
 1716SOL    HW2 6048   4.577   0.112   2.796
 1717SOL     OW 6049   2.265   6.399   6.189
 1717SOL    HW1 6050   2.241   6.336   6.115
 1717SOL    HW2 6051   2.346   6.452   6.163
 1718SOL     OW 6052   2.193   2.371   2.382
 1718SOL    HW1 6053   2.120   2.427   2.344
 1718SOL    HW2 6054   2.280   2.397   2.340
 1719SOL     OW 6055   2.069   4.039   1.100
 1719SOL    HW1 6056   2.008   3.990   1.162
 1719SOL    HW2 6057   2.088   4.130   1.137
 1720SOL     OW 6058   0.767   1.934   0.521
 1720SOL    HW1 6059   0.706   1.866   0.560
 1720SOL    HW2 6060   0.719   1.984   0.449
 1721SOL     OW 6061   1.277   6.379   2.250
 1721SOL    HW1 6062   1.238   6.374   2.342
 1721SOL    HW2 6063   1.213   6.339   2.184
 1722SOL     OW 6064   4.680   2.237   4.214
 1722SOL    HW1 6065   4.604   2.301   4.228
 1722SOL    HW2 6066   4.766   2.283   4.238
 1723SOL     OW 6067   0.018   2.643   2.367
 1723SOL    HW1 6068   6.983   2.617   2.444
 1723SOL    HW2 6069   0.114   2.637   2.394
 1724SOL     OW 6070   6.030   1.915   0.988
 1724SOL    HW1 6071   6.040   1.913   0.889
 1724SOL    HW2 6072   6.057   1.827   1.027
 1725SOL     OW 6073   2.227   4.658   6.976
 1725SOL    HW1 6074   2.260   4.653   6.882
 1725SOL    HW2 6075   2.234   4.568   7.020
 1726SOL     OW 6076   5.681   4.776   5.702
 1726SOL    HW1 6077   5.596   4.742   5.661
 1726SOL    HW2 6078   5.745   4.800   5.630
 1727SOL     OW 6079   3.962   3.328   4.563
 1727SOL    HW1 6080   4.018   3.391   4.617
 1727SOL    HW2 6081   3.939   3.248   4.618
 1728SOL     OW 6082   5.050   5.088   5.184
 1728SOL    HW1 6083   5.130   5.046   5.227
 1728SOL    HW2 6084   5.059   5.187   5.185
 1729SOL     OW 6085   1.943   3.542   3.674
 1729SOL    HW1 6086   1.843   3.539   3.679
 1729SOL    HW2 6087   1.974   3.491   3.593
 1730SOL     OW 6088   6.671   0.246   5.557
 1730SOL    HW1 6089   6.655   0.340   5.527
 1730SOL    HW2 6090   6.600   0.186   5.520
 1731SOL     OW 6091   7.006   5.035   2.280
 1731SOL    HW1 6092   0.010   5.131   2.277
 1731SOL    HW2 6093   6.909   5.027   2.257
 1732SOL     OW 6094   2.422   4.609   5.205
 1732SOL    HW1 6095   2.340   4.552   5.200
 1732SOL    HW2 6096   2.494   4.560   5.255
 1733SOL     OW 6097   1.025   4.158   2.356
 1733SOL    HW1 6098   1.069   4.068   2.365
 1733SOL    HW2 6099   1.095   4.229   2.352
 1734SOL     OW 6100   4.743   3.101   1.673
 1734SOL    HW1 6101   4.835   3.117   1.710
 1734SOL    HW2 6102   4.682   3.072   1.747
 1735SOL     OW 6103   5.628   5.773   1.463
 1735SOL    HW1 6104   5.618   5.696   1.526
 1735SOL    HW2 6105   5.615   5.742   1.369
 1736SOL     OW 6106   4.313   2.594   0.995
 1736SOL    HW1 6107   4.300   2.679   1.046
 1736SOL    HW2 6108   4.402   2.597   0.949
 1737SOL     OW 6109   2.796   1.048   4.175
 1737SOL    HW1 6110   2.789   1.144   4.148
 1737SOL    HW2 6111   2.779   1.040   4.273
 1738SOL     OW 6112   1.776   1.681   4.070
 1738SOL    HW1 6113   1.838   1.696   4.148
 1738SOL    HW2 6114   1.749   1.769   4.032
 1739SOL     OW 6115   5.621   2.109   5.610
 1739SOL    HW1 6116   5.539   2.159   5.637
 1739SOL    HW2 6117   5.641   2.040   5.679
 1740SOL     OW 6118   0.441   1.413   6.095
 1740SOL    HW1 6119   0.358   1.436   6.044
 1740SOL    HW2 6120   0.435   1.451   6.187
 1741SOL     OW 6121   2.247   0.779   3.968
 1741SOL    HW1 6122   2.195   0.694   3.964
 1741SOL    HW2 6123   2.333   0.763   4.017
 1742SOL     OW 6124   4.927   6.713   5.986
 1742SOL    HW1 6125   4.879   6.758   5.911
 1742SOL    HW2 6126   4.862   6.665   6.044
 1743SOL     OW 6127   1.823   2.338   2.410
 1743SOL    HW1 6128   1.826   2.314   2.507
 1743SOL    HW2 6129   1.729   2.326   2.377
 1744SOL     OW 6130   0.683   0.420   1.759
 1744SOL    HW1 6131   0.714   0.398   1.851
 1744SOL    HW2 6132   0.734   0.499   1.725
 1745SOL     OW 6133   6.179   0.840   3.034
 1745SOL    HW1 6134   6.213   0.795   3.117
 1745SOL    HW2 6135   6.128   0.774   2.979
 1746SOL     OW 6136   2.315   4.769   5.411
 1746SOL    HW1 6137   2.365   4.702   5.356
 1746SOL    HW2 6138   2.218   4.766   5.388
 1747SOL     OW 6139   5.686   1.278   3.157
 1747SOL    HW1 6140   5.761   1.312   3.214
 1747SOL    HW2 6141   5.630   1.355   3.126
 1748SOL     OW 6142   0.464   0.778   4.019
 1748SOL    HW1 6143   0.471   0.854   3.954
 1748SOL    HW2 6144   0.538   0.785   4.085
 1749SOL     OW 6145   2.369   6.811   5.033
 1749SOL    HW1 6146   2.434   6.821   4.958
 1749SOL    HW2 6147   2.413   6.838   5.119
 1750SOL     OW 6148   6.618   0.033   3.519
 1750SOL    HW1 6149   6.691   7.012   3.466
 1750SOL    HW2 6150   6.657   0.106   3.575
 1751SOL     OW 6151   4.171   5.572   4.788
 1751SOL    HW1 6152   4.161   5.667   4.817
 1751SOL    HW2 6153   4.252   5.532   4.832
 1752SOL     OW 6154   0.397   2.240   2.102
 1752SOL    HW1 6155   0.453   2.267   2.024
 1752SOL    HW2 6156   0.344   2.318   2.134
 1753SOL     OW 6157   0.343   2.109   0.492
 1753SOL    HW1 6158   0.261   2.145   0.446
 1753SOL    HW2 6159   0.315   2.048   0.566
 1754SOL     OW 6160   3.136   3.466   0.978
 1754SOL    HW1 6161   3.124   3.561   1.007
 1754SOL    HW2 6162   3.048   3.419   0.982
 1755SOL     OW 6163   6.051   6.105   1.969
 1755SOL    HW1 6164   6.063   6.153   2.055
 1755SOL    HW2 6165   6.135   6.057   1.945
 1756SOL     OW 6166   3.872   4.370   6.167
 1756SOL    HW1 6167   3.845   4.299   6.231
 1756SOL    HW2 6168   3.904   4.328   6.082
 1757SOL     OW 6169   2.557   4.957   4.875
 1757SOL    HW1 6170   2.587   5.013   4.798
 1757SOL    HW2 6171   2.584   5.002   4.960
 1758SOL     OW 6172   2.818   0.312   4.116
 1758SOL    HW1 6173   2.815   0.226   4.066
 1758SOL    HW2 6174   2.912   0.329   4.147
 1759SOL     OW 6175   1.953   5.390   6.591
 1759SOL    HW1 6176   1.892   5.319   6.557
 1759SOL    HW2 6177   1.954   5.388   6.691
 1760SOL     OW 6178   5.566   2.322   2.123
 1760SOL    HW1 6179   5.618   2.379   2.187
 1760SOL    HW2 6180   5.472   2.355   2.119
 1761SOL     OW 6181   0.870   0.265   0.650
 1761SOL    HW1 6182   0.817   0.238   0.730
 1761SOL    HW2 6183   0.836   0.216   0.569
 1762SOL     OW 6184   0.115   1.956   4.881
 1762SOL    HW1 6185   0.204   1.974   4.839
 1762SOL    HW2 6186   0.043   1.998   4.827
 1763SOL     OW 6187   1.437   3.855   3.834
 1763SOL    HW1 6188   1.404   3.762   3.846
 1763SOL    HW2 6189   1.531   3.862   3.869
 1764SOL     OW 6190   2.093   3.680   1.961
 1764SOL    HW1 6191   2.143   3.756   1.920
 1764SOL    HW2 6192   2.149   3.597   1.955
 1765SOL     OW 6193   4.225   1.767   0.253
 1765SOL    HW1 6194   4.192   1.738   0.163
 1765SOL    HW2 6195   4.181   1.712   0.324
 1766SOL     OW 6196   4.923   3.623   2.901
 1766SOL    HW1 6197   4.893   3.560   2.973
 1766SOL    HW2 6198   4.983   3.575   2.837
 1767SOL     OW 6199   6.378   3.933   2.969
 1767SOL    HW1 6200   6.422   4.014   3.008
 1767SOL    HW2 6201   6.444   3.858   2.964
 1768SOL     OW 6202   3.762   1.328   5.179
 1768SOL    HW1 6203   3.842   1.317   5.121
 1768SOL    HW2 6204   3.690   1.265   5.149
 1769SOL     OW 6205   4.480   2.592   5.207
 1769SOL    HW1 6206   4.458   2.688   5.191
 1769SOL    HW2 6207   4.560   2.585   5.266
 1770SOL     OW 6208   0.124   5.373   4.490
 1770SOL    HW1 6209   0.175   5.431   4.426
 1770SOL    HW2 6210   0.128   5.278   4.459
 1771SOL     OW 6211   2.027   5.196   0.401
 1771SOL    HW1 6212   2.111   5.248   0.383
 1771SOL    HW2 6213   2.039   5.101   0.372
 1772SOL     OW 6214   3.233   6.177   3.368
 1772SOL    HW1 6215   3.331   6.158   3.363
 1772SOL    HW2 6216   3.216   6.256   3.427
 1773SOL     OW 6217   2.745   4.843   6.458
 1773SOL    HW1 6218   2.721   4.750   6.429
 1773SOL    HW2 6219   2.740   4.904   6.379
 1774SOL     OW 6220   4.788   6.499   1.905
 1774SOL    HW1 6221   4.750   6.576   1.956
 1774SOL    HW2 6222   4.871   6.467   1.952
 1775SOL     OW 6223   1.220   4.764   3.903
 1775SOL    HW1 6224   1.281   4.838   3.930
 1775SOL    HW2 6225   1.269   4.700   3.843
 1776SOL     OW 6226   3.458   1.056   5.362
 1776SOL    HW1 6227   3.518   1.133   5.342
 1776SOL    HW2 6228   3.447   1.047   5.461
 1777SOL     OW 6229   3.691   5.210   5.791
 1777SOL    HW1 6230   3.731   5.188   5.702
 1777SOL    HW2 6231   3.735   5.156   5.862
 1778SOL     OW 6232   4.956   2.417   5.174
 1778SOL    HW1 6233   4.866   2.425   5.131
 1778SOL    HW2 6234   5.023   2.387   5.106
 1779SOL     OW 6235   4.618   1.236   4.438
 1779SOL    HW1 6236   4.537   1.295   4.432
 1779SOL    HW2 6237   4.684   1.278   4.500
 1780SOL     OW 6238   2.751   3.911   6.044
 1780SOL    HW1 6239   2.713   3.965   5.969
 1780SOL    HW2 6240   2.678   3.858   6.087
 1781SOL     OW 6241   4.403   5.043   3.686
 1781SOL    HW1 6242   4.408   4.994   3.599
 1781SOL    HW2 6243   4.427   5.139   3.672
 1782SOL     OW 6244   2.649   2.090   3.567
 1782SOL    HW1 6245   2.677   2.074   3.661
 1782SOL    HW2 6246   2.711   2.156   3.524
 1783SOL     OW 6247   1.679   3.850   6.518
 1783SOL    HW1 6248   1.737   3.878   6.441
 1783SOL    HW2 6249   1.732   3.795   6.582
 1784SOL     OW 6250   3.327   1.024   5.006
 1784SOL    HW1 6251   3.355   1.027   4.910
 1784SOL    HW2 6252   3.246   1.080   5.019
 1785SOL     OW 6253   5.312   5.789   3.550
 1785SOL    HW1 6254   5.309   5.690   3.565
 1785SOL    HW2 6255   5.236   5.832   3.598
 1786SOL     OW 6256   1.318   2.857   1.513
 1786SOL    HW1 6257   1.365   2.917   1.447
 1786SOL    HW2 6258   1.358   2.766   1.509
 1787SOL     OW 6259   2.235   0.842   4.386
 1787SOL    HW1 6260   2.198   0.852   4.293
 1787SOL    HW2 6261   2.320   0.895   4.393
 1788SOL     OW 6262   3.267   3.086   0.331
 1788SOL    HW1 6263   3.303   3.132   0.411
 1788SOL    HW2 6264   3.321   3.110   0.251
 1789SOL     OW 6265   6.567   2.076   2.405
 1789SOL    HW1 6266   6.624   2.001   2.372
 1789SOL    HW2 6267   6.513   2.112   2.329
 1790SOL     OW 6268   3.995   6.449   4.209
 1790SOL    HW1 6269   3.895   6.451   4.214
 1790SOL    HW2 6270   4.033   6.465   4.300
 1791SOL     OW 6271   0.099   1.608   4.403
 1791SOL    HW1 6272   0.039   1.606   4.482
 1791SOL    HW2 6273   0.133   1.701   4.388
 1792SOL     OW 6274   0.087   2.708   4.129
 1792SOL    HW1 6275   0.090   2.618   4.086
 1792SOL    HW2 6276   0.000   2.753   4.108
 1793SOL     OW 6277   6.351   0.421   3.513
 1793SOL    HW1 6278   6.275   0.479   3.544
 1793SOL    HW2 6279   6.432   0.477   3.498
 1794SOL     OW 6280   5.418   5.929   6.331
 1794SOL    HW1 6281   5.324   5.913   6.301
 1794SOL    HW2 6282   5.421   5.934   6.431
 1795SOL     OW 6283   0.477   3.234   2.164
 1795SOL    HW1 6284   0.449   3.225   2.260
 1795SOL    HW2 6285   0.577   3.239   2.159
 1796SOL     OW 6286   1.900   0.870   4.134
 1796SOL    HW1 6287   1.977   0.905   4.188
 1796SOL    HW2 6288   1.858   0.944   4.083
 1797SOL     OW 6289   1.082   1.075   6.403
 1797SOL    HW1 6290   1.129   0.990   6.425
 1797SOL    HW2 6291   0.983   1.059   6.399
 1798SOL     OW 6292   5.121   2.321   4.995
 1798SOL    HW1 6293   5.190   2.392   5.003
 1798SOL    HW2 6294   5.144   2.260   4.920
 1799SOL     OW 6295   6.452   1.550   6.363
 1799SOL    HW1 6296   6.475   1.567   6.459
 1799SOL    HW2 6297   6.382   1.616   6.334
 1800SOL     OW 6298   4.340   5.337   2.982
 1800SOL    HW1 6299   4.362   5.393   2.901
 1800SOL    HW2 6300   4.296   5.395   3.051
 1801SOL     OW 6301   0.939   0.929   2.320
 1801SOL    HW1 6302   1.027   0.896   2.354
 1801SOL    HW2 6303   0.951   0.968   2.229
 1802SOL     OW 6304   5.301   5.352   2.040
 1802SOL    HW1 6305   5.384   5.375   2.093
 1802SOL    HW2 6306   5.247   5.284   2.091
 1803SOL     OW 6307   6.939   6.480   0.266
 1803SOL    HW1 6308   6.881   6.553   0.229
 1803SOL    HW2 6309   6.962   6.415   0.194
 1804SOL     OW 6310   2.302   3.959   5.939
 1804SOL    HW1 6311   2.242   3.888   5.975
 1804SOL    HW2 6312   2.352   3.923   5.860
 1805SOL     OW 6313   6.621   4.017   5.630
 1805SOL    HW1 6314   6.592   3.995   5.723
 1805SOL    HW2 6315   6.597   3.942   5.569
 1806SOL     OW 6316   1.221   1.074   0.496
 1806SOL    HW1 6317   1.293   1.117   0.443
 1806SOL    HW2 6318   1.242   0.977   0.510
 1807SOL     OW 6319   5.192   2.461   5.921
 1807SOL    HW1 6320   5.117   2.496   5.977
 1807SOL    HW2 6321   5.154   2.409   5.844
 1808SOL     OW 6322   6.683   3.290   5.671
 1808SOL    HW1 6323   6.750   3.361   5.691
 1808SOL    HW2 6324   6.728   3.212   5.627
 1809SOL     OW 6325   2.304   2.830   4.347
 1809SOL    HW1 6326   2.328   2.798   4.439
 1809SOL    HW2 6327   2.341   2.922   4.333
 1810SOL     OW 6328   2.737   0.750   5.359
 1810SOL    HW1 6329   2.799   0.778   5.431
 1810SOL    HW2 6330   2.757   0.802   5.276
 1811SOL     OW 6331   4.628   4.451   3.485
 1811SOL    HW1 6332   4.648   4.456   3.583
 1811SOL    HW2 6333   4.685   4.380   3.443
 1812SOL     OW 6334   4.194   6.714   6.357
 1812SOL    HW1 6335   4.179   6.788   6.291
 1812SOL    HW2 6336   4.236   6.751   6.440
 1813SOL     OW 6337   4.927   4.901   0.481
 1813SOL    HW1 6338   4.944   4.853   0.395
 1813SOL    HW2 6339   4.828   4.907   0.496
 1814SOL     OW 6340   0.116   0.654   0.300
 1814SOL    HW1 6341   0.050   0.579   0.309
 1814SOL    HW2 6342   0.204   0.625   0.339
 1815SOL     OW 6343   6.761   2.356   1.843
 1815SOL    HW1 6344   6.764   2.447   1.883
 1815SOL    HW2 6345   6.765   2.362   1.744
 1816SOL     OW 6346   1.929   3.888   1.283
 1816SOL    HW1 6347   1.967   3.800   1.311
 1816SOL    HW2 6348   1.830   3.882   1.275
 1817SOL     OW 6349   2.684   6.667   3.529
 1817SOL    HW1 6350   2.677   6.568   3.536
 1817SOL    HW2 6351   2.780   6.695   3.540
 1818SOL     OW 6352   1.849   6.618   2.338
 1818SOL    HW1 6353   1.847   6.590   2.242
 1818SOL    HW2 6354   1.796   6.702   2.350
 1819SOL     OW 6355   0.474   5.355   1.718
 1819SOL    HW1 6356   0.383   5.348   1.760
 1819SOL    HW2 6357   0.499   5.451   1.708
 1820SOL     OW 6358   3.985   0.668   2.737
 1820SOL    HW1 6359   4.029   0.755   2.758
 1820SOL    HW2 6360   3.996   0.606   2.815
 1821SOL     OW 6361   2.800   0.580   1.700
 1821SOL    HW1 6362   2.870   0.509   1.715
 1821SOL    HW2 6363   2.775   0.581   1.603
 1822SOL     OW 6364   2.093   2.693   1.265
 1822SOL    HW1 6365   2.115   2.596   1.263
 1822SOL    HW2 6366   2.046   2.719   1.181
 1823SOL     OW 6367   2.623   5.749   3.369
 1823SOL    HW1 6368   2.651   5.833   3.323
 1823SOL    HW2 6369   2.659   5.670   3.319
 1824SOL     OW 6370   3.558   3.678   1.327
 1824SOL    HW1 6371   3.480   3.666   1.265
 1824SOL    HW2 6372   3.624   3.740   1.285
 1825SOL     OW 6373   1.307   2.120   3.515
 1825SOL    HW1 6374   1.386   2.094   3.459
 1825SOL    HW2 6375   1.331   2.111   3.612
 1826SOL     OW 6376   3.266   0.661   0.694
 1826SOL    HW1 6377   3.259   0.685   0.791
 1826SOL    HW2 6378   3.223   0.572   0.679
 1827SOL     OW 6379   0.297   5.600   1.392
 1827SOL    HW1 6380   0.268   5.651   1.474
 1827SOL    HW2 6381   0.383   5.553   1.410
 1828SOL     OW 6382   1.039   2.331   0.921
 1828SOL    HW1 6383   0.968   2.260   0.928
 1828SOL    HW2 6384   1.048   2.360   0.826
 1829SOL     OW 6385   2.938   0.677   3.180
 1829SOL    HW1 6386   2.875   0.621   3.234
 1829SOL    HW2 6387   2.910   0.676   3.084
 1830SOL     OW 6388   6.144   6.425   3.817
 1830SOL    HW1 6389   6.219   6.461   3.762
 1830SOL    HW2 6390   6.160   6.447   3.914
 1831SOL     OW 6391   6.151   0.321   2.512
 1831SOL    HW1 6392   6.096   0.404   2.520
 1831SOL    HW2 6393   6.141   0.266   2.595
 1832SOL     OW 6394   4.719   1.277   1.565
 1832SOL    HW1 6395   4.819   1.270   1.575
 1832SOL    HW2 6396   4.697   1.303   1.471
 1833SOL     OW 6397   5.124   0.423   6.805
 1833SOL    HW1 6398   5.186   0.497   6.777
 1833SOL    HW2 6399   5.033   0.439   6.768
 1834SOL     OW 6400   2.889   3.871   0.500
 1834SOL    HW1 6401   2.896   3.880   0.401
 1834SOL    HW2 6402   2.801   3.907   0.531
 1835SOL     OW 6403   6.922   3.882   2.461
 1835SOL    HW1 6404   7.004   3.933   2.438
 1835SOL    HW2 6405   6.841   3.936   2.437
 1836SOL     OW 6406   5.193   2.559   1.497
 1836SOL    HW1 6407   5.154   2.556   1.405
 1836SOL    HW2 6408   5.121   2.582   1.563
 1837SOL     OW 6409   0.833   0.798   5.187
 1837SOL    HW1 6410   0.874   0.849   5.112
 1837SOL    HW2 6411   0.804   0.862   5.259
 1838SOL     OW 6412   6.957   1.643   4.614
 1838SOL    HW1 6413   6.907   1.571   4.662
 1838SOL    HW2 6414   6.929   1.732   4.651
 1839SOL     OW 6415   5.773   2.151   5.197
 1839SOL    HW1 6416   5.674   2.135   5.201
 1839SOL    HW2 6417   5.805   2.181   5.287
 1840SOL     OW 6418   3.360   6.734   1.449
 1840SOL    HW1 6419   3.328   6.640   1.438
 1840SOL    HW2 6420   3.300   6.795   1.398
 1841SOL     OW 6421   2.324   0.808   3.532
 1841SOL    HW1 6422   2.234   0.848   3.515
 1841SOL    HW2 6423   2.393   0.859   3.482
 1842SOL     OW 6424   1.380   5.628   0.266
 1842SOL    HW1 6425   1.337   5.539   0.283
 1842SOL    HW2 6426   1.451   5.644   0.335
 1843SOL     OW 6427   6.072   2.381   3.243
 1843SOL    HW1 6428   6.003   2.451   3.259
 1843SOL    HW2 6429   6.143   2.417   3.183
 1844SOL     OW 6430   3.086   6.997   5.651
 1844SOL    HW1 6431   3.051   0.066   5.633
 1844SOL    HW2 6432   3.126   6.995   5.743
 1845SOL     OW 6433   1.952   0.026   5.184
 1845SOL    HW1 6434   2.040   7.014   5.151
 1845SOL    HW2 6435   1.923   0.102   5.125
 1846SOL     OW 6436   3.855   2.275   1.141
 1846SOL    HW1 6437   3.914   2.202   1.106
 1846SOL    HW2 6438   3.822   2.250   1.233
 1847SOL     OW 6439   1.672   1.358   6.965
 1847SOL    HW1 6440   1.697   1.433   0.003
 1847SOL    HW2 6441   1.574   1.360   6.948
 1848SOL     OW 6442   1.043   6.372   3.371
 1848SOL    HW1 6443   1.105   6.414   3.305
 1848SOL    HW2 6444   1.013   6.283   3.336
 1849SOL     OW 6445   4.256   2.491   0.556
 1849SOL    HW1 6446   4.318   2.553   0.508
 1849SOL    HW2 6447   4.263   2.399   0.516
 1850SOL     OW 6448   0.851   2.550   2.143
 1850SOL    HW1 6449   0.946   2.518   2.139
 1850SOL    HW2 6450   0.850   2.650   2.150
 1851SOL     OW 6451   6.979   2.713   0.251
 1851SOL    HW1 6452   6.886   2.731   0.281
 1851SOL    HW2 6453   6.999   2.767   0.169
 1852SOL     OW 6454   6.307   4.581   2.048
 1852SOL    HW1 6455   6.273   4.668   2.011
 1852SOL    HW2 6456   6.230   4.520   2.066
 1853SOL     OW 6457   7.017   2.316   2.796
 1853SOL    HW1 6458   7.000   2.395   2.854
 1853SOL    HW2 6459   6.963   2.238   2.829
 1854SOL     OW 6460   2.614   5.809   2.858
 1854SOL    HW1 6461   2.657   5.787   2.771
 1854SOL    HW2 6462   2.522   5.770   2.861
 1855SOL     OW 6463   5.243   2.908   5.640
 1855SOL    HW1 6464   5.202   2.989   5.683
 1855SOL    HW2 6465   5.209   2.826   5.685
 1856SOL     OW 6466   6.240   3.917   5.908
 1856SOL    HW1 6467   6.255   4.001   5.856
 1856SOL    HW2 6468   6.172   3.860   5.862
 1857SOL     OW 6469   4.591   1.567   5.730
 1857SOL    HW1 6470   4.600   1.614   5.642
 1857SOL    HW2 6471   4.614   1.629   5.804
 1858SOL     OW 6472   5.845   3.998   3.837
 1858SOL    HW1 6473   5.838   4.031   3.931
 1858SOL    HW2 6474   5.880   4.070   3.778
 1859SOL     OW 6475   5.123   2.206   3.000
 1859SOL    HW1 6476   5.215   2.200   2.961
 1859SOL    HW2 6477   5.101   2.121   3.049
 1860SOL     OW 6478   6.293   0.479   5.012
 1860SOL    HW1 6479   6.358   0.418   5.057
 1860SOL    HW2 6480   6.231   0.518   5.081
 1861SOL     OW 6481   6.328   6.632   2.249
 1861SOL    HW1 6482   6.428   6.635   2.247
 1861SOL    HW2 6483   6.295   6.563   2.184
 1862SOL     OW 6484   2.156   0.217   6.274
 1862SOL    HW1 6485   2.176   0.307   6.234
 1862SOL    HW2 6486   2.158   0.224   6.373
 1863SOL     OW 6487   0.791   2.406   3.028
 1863SOL    HW1 6488   0.773   2.404   3.127
 1863SOL    HW2 6489   0.802   2.313   2.995
 1864SOL     OW 6490   1.597   0.336   5.345
 1864SOL    HW1 6491   1.679   0.336   5.288
 1864SOL    HW2 6492   1.516   0.320   5.288
 1865SOL     OW 6493   3.517   6.734   6.386
 1865SOL    HW1 6494   3.500   6.829   6.413
 1865SOL    HW2 6495   3.483   6.718   6.293
 1866SOL     OW 6496   4.384   4.915   3.099
 1866SOL    HW1 6497   4.324   4.836   3.085
 1866SOL    HW2 6498   4.337   4.998   3.070
 1867SOL     OW 6499   0.468   3.858   0.261
 1867SOL    HW1 6500   0.480   3.762   0.285
 1867SOL    HW2 6501   0.537   3.913   0.309
 1868SOL     OW 6502   4.933   3.464   6.454
 1868SOL    HW1 6503   5.009   3.524   6.429
 1868SOL    HW2 6504   4.856   3.518   6.489
 1869SOL     OW 6505   5.955   2.944   5.456
 1869SOL    HW1 6506   5.970   2.911   5.363
 1869SOL    HW2 6507   5.878   2.895   5.496
 1870SOL     OW 6508   0.855   3.334   5.564
 1870SOL    HW1 6509   0.839   3.244   5.603
 1870SOL    HW2 6510   0.767   3.375   5.538
 1871SOL     OW 6511   1.002   0.738   6.994
 1871SOL    HW1 6512   0.989   0.769   0.065
 1871SOL    HW2 6513   1.055   0.805   6.943
 1872SOL     OW 6514   3.923   1.683   6.564
 1872SOL    HW1 6515   3.978   1.609   6.601
 1872SOL    HW2 6516   3.951   1.701   6.470
 1873SOL     OW 6517   5.254   0.928   5.852
 1873SOL    HW1 6518   5.183   0.996   5.834
 1873SOL    HW2 6519   5.309   0.915   5.770
 1874SOL     OW 6520   3.200   1.810   0.446
 1874SOL    HW1 6521   3.142   1.861   0.382
 1874SOL    HW2 6522   3.160   1.816   0.538
 1875SOL     OW 6523   0.432   0.764   6.924
 1875SOL    HW1 6524   0.358   0.810   6.973
 1875SOL    HW2 6525   0.498   0.728   6.990
 1876SOL     OW 6526   3.269   6.443   5.978
 1876SOL    HW1 6527   3.229   6.404   5.895
 1876SOL    HW2 6528   3.368   6.450   5.967
 1877SOL     OW 6529   0.759   1.116   2.906
 1877SOL    HW1 6530   0.746   1.151   2.999
 1877SOL    HW2 6531   0.803   1.026   2.911
 1878SOL     OW 6532   6.856   2.772   3.967
 1878SOL    HW1 6533   6.931   2.775   3.900
 1878SOL    HW2 6534   6.840   2.677   3.994
 1879SOL     OW 6535   1.444   5.195   3.740
 1879SOL    HW1 6536   1.541   5.183   3.757
 1879SOL    HW2 6537   1.415   5.286   3.768
 1880SOL     OW 6538   6.721   0.552   4.290
 1880SOL    HW1 6539   6.744   0.645   4.317
 1880SOL    HW2 6540   6.681   0.504   4.369
 1881SOL     OW 6541   6.326   2.947   2.670
 1881SOL    HW1 6542   6.389   2.966   2.595
 1881SOL    HW2 6543   6.365   2.875   2.728
 1882SOL     OW 6544   0.901   3.521   6.657
 1882SOL    HW1 6545   0.988   3.475   6.674
 1882SOL    HW2 6546   0.901   3.559   6.564
 1883SOL     OW 6547   0.980   2.144   3.642
 1883SOL    HW1 6548   0.959   2.078   3.569
 1883SOL    HW2 6549   1.040   2.215   3.606
 1884SOL     OW 6550   6.400   2.929   0.297
 1884SOL    HW1 6551   6.432   2.853   0.240
 1884SOL    HW2 6552   6.306   2.911   0.326
 1885SOL     OW 6553   1.129   2.406   5.897
 1885SOL    HW1 6554   1.216   2.453   5.911
 1885SOL    HW2 6555   1.108   2.350   5.978
 1886SOL     OW 6556   2.551   0.314   1.274
 1886SOL    HW1 6557   2.539   0.413   1.268
 1886SOL    HW2 6558   2.637   0.294   1.320
 1887SOL     OW 6559   1.151   5.892   5.260
 1887SOL    HW1 6560   1.125   5.822   5.194
 1887SOL    HW2 6561   1.219   5.953   5.219
 1888SOL     OW 6562   2.902   2.464   6.618
 1888SOL    HW1 6563   2.895   2.498   6.712
 1888SOL    HW2 6564   2.995   2.479   6.583
 1889SOL     OW 6565   0.528   2.959   5.745
 1889SOL    HW1 6566   0.441   3.007   5.736
 1889SOL    HW2 6567   0.566   2.974   5.836
 1890SOL     OW 6568   1.581   6.877   4.677
 1890SOL    HW1 6569   1.632   6.792   4.690
 1890SOL    HW2 6570   1.544   6.881   4.584
 1891SOL     OW 6571   5.354   1.658   2.313
 1891SOL    HW1 6572   5.439   1.625   2.355
 1891SOL    HW2 6573   5.376   1.718   2.237
 1892SOL     OW 6574   2.367   1.228   1.986
 1892SOL    HW1 6575   2.339   1.217   1.891
 1892SOL    HW2 6576   2.306   1.293   2.032
 1893SOL     OW 6577   3.773   2.852   6.708
 1893SOL    HW1 6578   3.703   2.855   6.637
 1893SOL    HW2 6579   3.836   2.776   6.689
 1894SOL     OW 6580   3.977   3.655   3.642
 1894SOL    HW1 6581   3.885   3.690   3.662
 1894SOL    HW2 6582   3.972   3.556   3.625
 1895SOL     OW 6583   4.826   0.361   1.687
 1895SOL    HW1 6584   4.810   0.459   1.684
 1895SOL    HW2 6585   4.832   0.325   1.594
 1896SOL     OW 6586   5.773   0.174   1.271
 1896SOL    HW1 6587   5.787   0.131   1.182
 1896SOL    HW2 6588   5.810   0.267   1.269
 1897SOL     OW 6589   1.493   4.289   1.609
 1897SOL    HW1 6590   1.561   4.234   1.560
 1897SOL    HW2 6591   1.407   4.238   1.616
 1898SOL     OW 6592   2.309   5.640   2.888
 1898SOL    HW1 6593   2.311   5.736   2.916
 1898SOL    HW2 6594   2.214   5.608   2.888
 1899SOL     OW 6595   1.163   0.807   2.414
 1899SOL    HW1 6596   1.169   0.734   2.483
 1899SOL    HW2 6597   1.225   0.882   2.440
 1900SOL     OW 6598   1.136   0.522   6.006
 1900SOL    HW1 6599   1.177   0.496   6.093
 1900SOL    HW2 6600   1.133   0.621   5.998
 1901SOL     OW 6601   2.075   1.635   0.714
 1901SOL    HW1 6602   2.054   1.571   0.788
 1901SOL    HW2 6603   2.067   1.728   0.748
 1902SOL     OW 6604   2.028   2.226   4.574
 1902SOL    HW1 6605   2.038   2.136   4.532
 1902SOL    HW2 6606   2.099   2.239   4.643
 1903SOL     OW 6607   6.857   3.395   2.390
 1903SOL    HW1 6608   6.924   3.468   2.402
 1903SOL    HW2 6609   6.767   3.434   2.375
 1904SOL     OW 6610   5.588   5.913   3.668
 1904SOL    HW1 6611   5.559   6.005   3.691
 1904SOL    HW2 6612   5.515   5.867   3.616
 1905SOL     OW 6613   1.759   0.168   3.766
 1905SOL    HW1 6614   1.791   0.244   3.709
 1905SOL    HW2 6615   1.662   0.181   3.787
 1906SOL     OW 6616   2.268   0.373   5.273
 1906SOL    HW1 6617   2.314   0.448   5.321
 1906SOL    HW2 6618   2.310   0.359   5.183
 1907SOL     OW 6619   3.717   0.565   2.083
 1907SOL    HW1 6620   3.662   0.511   2.019
 1907SOL    HW2 6621   3.658   0.597   2.158
 1908SOL     OW 6622   3.950   6.894   5.525
 1908SOL    HW1 6623   3.947   6.984   5.568
 1908SOL    HW2 6624   3.858   6.864   5.503
 1909SOL     OW 6625   0.365   3.575   2.600
 1909SOL    HW1 6626   0.271   3.577   2.634
 1909SOL    HW2 6627   0.384   3.658   2.549
 1910SOL     OW 6628   0.440   3.369   6.664
 1910SOL    HW1 6629   0.363   3.320   6.621
 1910SOL    HW2 6630   0.455   3.333   6.756
 1911SOL     OW 6631   6.404   3.553   5.308
 1911SOL    HW1 6632   6.478   3.539   5.374
 1911SOL    HW2 6633   6.351   3.469   5.299
 1912SOL     OW 6634   3.861   5.647   0.867
 1912SOL    HW1 6635   3.777   5.605   0.831
 1912SOL    HW2 6636   3.841   5.690   0.955
 1913SOL     OW 6637   2.570   6.623   4.545
 1913SOL    HW1 6638   2.472   6.627   4.566
 1913SOL    HW2 6639   2.587   6.547   4.482
 1914SOL     OW 6640   3.799   2.890   6.087
 1914SOL    HW1 6641   3.743   2.963   6.049
 1914SOL    HW2 6642   3.892   2.897   6.050
 1915SOL     OW 6643   3.732   1.958   5.440
 1915SOL    HW1 6644   3.674   1.980   5.362
 1915SOL    HW2 6645   3.782   2.040   5.469
 1916SOL     OW 6646   4.202   5.634   1.454
 1916SOL    HW1 6647   4.300   5.648   1.443
 1916SOL    HW2 6648   4.186   5.557   1.516
 1917SOL     OW 6649   2.663   3.124   5.798
 1917SOL    HW1 6650   2.630   3.182   5.872
 1917SOL    HW2 6651   2.691   3.035   5.835
 1918SOL     OW 6652   1.354   1.284   5.568
 1918SOL    HW1 6653   1.341   1.302   5.666
 1918SOL    HW2 6654   1.449   1.305   5.543
 1919SOL     OW 6655   1.891   0.339   1.973
 1919SOL    HW1 6656   1.847   0.356   2.061
 1919SOL    HW2 6657   1.989   0.357   1.980
 1920SOL     OW 6658   0.500   3.889   3.146
 1920SOL    HW1 6659   0.458   3.836   3.073
 1920SOL    HW2 6660   0.429   3.937   3.198
 1921SOL     OW 6661   1.513   4.210   6.224
 1921SOL    HW1 6662   1.612   4.219   6.213
 1921SOL    HW2 6663   1.484   4.262   6.303
 1922SOL     OW 6664   2.015   3.741   1.001
 1922SOL    HW1 6665   2.015   3.832   1.042
 1922SOL    HW2 6666   2.072   3.741   0.919
 1923SOL     OW 6667   3.856   0.744   5.564
 1923SOL    HW1 6668   3.845   0.647   5.542
 1923SOL    HW2 6669   3.873   0.796   5.481
 1924SOL     OW 6670   4.825   5.774   0.871
 1924SOL    HW1 6671   4.730   5.766   0.841
 1924SOL    HW2 6672   4.862   5.862   0.841
 1925SOL     OW 6673   1.827   4.898   0.736
 1925SOL    HW1 6674   1.899   4.943   0.683
 1925SOL    HW2 6675   1.858   4.885   0.830
 1926SOL     OW 6676   2.512   6.967   3.155
 1926SOL    HW1 6677   2.549   6.940   3.244
 1926SOL    HW2 6678   2.464   6.889   3.114
 1927SOL     OW 6679   2.394   4.471   0.051
 1927SOL    HW1 6680   2.310   4.430   0.088
 1927SOL    HW2 6681   2.397   4.568   0.074
 1928SOL     OW 6682   6.809   4.187   5.561
 1928SOL    HW1 6683   6.828   4.236   5.646
 1928SOL    HW2 6684   6.731   4.125   5.574
 1929SOL     OW 6685   2.035   6.271   1.574
 1929SOL    HW1 6686   2.111   6.224   1.530
 1929SOL    HW2 6687   1.953   6.263   1.517
 1930SOL     OW 6688   3.847   4.083   6.527
 1930SOL    HW1 6689   3.801   4.169   6.508
 1930SOL    HW2 6690   3.919   4.097   6.595
 1931SOL     OW 6691   1.032   2.716   1.648
 1931SOL    HW1 6692   1.026   2.744   1.552
 1931SOL    HW2 6693   1.027   2.616   1.654
 1932SOL     OW 6694   4.599   2.610   3.061
 1932SOL    HW1 6695   4.589   2.639   2.965
 1932SOL    HW2 6696   4.672   2.664   3.104
 1933SOL     OW 6697   2.031   3.143   0.966
 1933SOL    HW1 6698   2.039   3.054   0.920
 1933SOL    HW2 6699   2.053   3.216   0.902
 1934SOL     OW 6700   6.949   6.614   5.391
 1934SOL    HW1 6701   6.974   6.557   5.312
 1934SOL    HW2 6702   6.945   6.710   5.362
 1935SOL     OW 6703   4.410   5.674   4.037
 1935SOL    HW1 6704   4.382   5.641   4.127
 1935SOL    HW2 6705   4.481   5.744   4.047
 1936SOL     OW 6706   5.656   4.046   3.651
 1936SOL    HW1 6707   5.700   4.029   3.739
 1936SOL    HW2 6708   5.717   4.016   3.577
 1937SOL     OW 6709   4.230   6.208   1.091
 1937SOL    HW1 6710   4.209   6.179   1.185
 1937SOL    HW2 6711   4.144   6.223   1.042
 1938SOL     OW 6712   1.871   1.407   1.839
 1938SOL    HW1 6713   1.842   1.424   1.933
 1938SOL    HW2 6714   1.967   1.432   1.829
 1939SOL     OW 6715   6.818   6.603   4.495
 1939SOL    HW1 6716   6.890   6.673   4.498
 1939SOL    HW2 6717   6.729   6.647   4.482
 1940SOL     OW 6718   5.766   5.271   0.719
 1940SOL    HW1 6719   5.845   5.277   0.780
 1940SOL    HW2 6720   5.734   5.176   0.715
 1941SOL     OW 6721   0.950   3.445   4.333
 1941SOL    HW1 6722   0.909   3.511   4.269
 1941SOL    HW2 6723   0.926   3.352   4.304
 1942SOL     OW 6724   5.556   3.422   1.362
 1942SOL    HW1 6725   5.625   3.438   1.432
 1942SOL    HW2 6726   5.586   3.465   1.276
 1943SOL     OW 6727   2.314   7.016   3.516
 1943SOL    HW1 6728   2.255   6.996   3.437
 1943SOL    HW2 6729   2.306   6.942   3.583
 1944SOL     OW 6730   6.473   3.198   0.168
 1944SOL    HW1 6731   6.519   3.286   0.184
 1944SOL    HW2 6732   6.476   3.143   0.251
 1945SOL     OW 6733   3.872   4.804   0.696
 1945SOL    HW1 6734   3.902   4.817   0.791
 1945SOL    HW2 6735   3.775   4.828   0.689
 1946SOL     OW 6736   6.197   6.401   1.116
 1946SOL    HW1 6737   6.290   6.418   1.148
 1946SOL    HW2 6738   6.135   6.400   1.194
 1947SOL     OW 6739   5.498   5.946   4.196
 1947SOL    HW1 6740   5.483   5.893   4.280
 1947SOL    HW2 6741   5.568   6.015   4.213
 1948SOL     OW 6742   6.265   5.296   3.485
 1948SOL    HW1 6743   6.178   5.254   3.508
 1948SOL    HW2 6744   6.253   5.358   3.408
 1949SOL     OW 6745   3.076   3.510   6.290
 1949SOL    HW1 6746   3.121   3.435   6.242
 1949SOL    HW2 6747   2.978   3.508   6.270
 1950SOL     OW 6748   3.819   3.035   0.955
 1950SOL    HW1 6749   3.882   2.989   0.893
 1950SOL    HW2 6750   3.782   2.969   1.020
 1951SOL     OW 6751   6.793   5.085   0.142
 1951SOL    HW1 6752   6.831   5.176   0.125
 1951SOL    HW2 6753   6.860   5.015   0.114
 1952SOL     OW 6754   4.823   3.745   1.146
 1952SOL    HW1 6755   4.727   3.730   1.168
 1952SOL    HW2 6756   4.880   3.703   1.217
 1953SOL     OW 6757   6.087   1.769   5.890
 1953SOL    HW1 6758   6.008   1.821   5.859
 1953SOL    HW2 6759   6.121   1.711   5.816
 1954SOL     OW 6760   6.871   0.379   1.525
 1954SOL    HW1 6761   6.804   0.332   1.582
 1954SOL    HW2 6762   6.863   0.348   1.431
 1955SOL     OW 6763   0.804   0.409   3.298
 1955SOL    HW1 6764   0.787   0.410   3.200
 1955SOL    HW2 6765   0.895   0.370   3.316
 1956SOL     OW 6766   4.788   6.703   1.709
 1956SOL    HW1 6767   4.779   6.634   1.781
 1956SOL    HW2 6768   4.806   6.792   1.750
 1957SOL     OW 6769   5.446   4.319   3.991
 1957SOL    HW1 6770   5.518   4.365   3.938
 1957SOL    HW2 6771   5.479   4.303   4.084
 1958SOL     OW 6772   4.540   1.978   2.113
 1958SOL    HW1 6773   4.584   2.063   2.143
 1958SOL    HW2 6774   4.479   1.997   2.037
 1959SOL     OW 6775   1.450   0.172   3.720
 1959SOL    HW1 6776   1.456   0.224   3.634
 1959SOL    HW2 6777   1.414   0.081   3.700
 1960SOL     OW 6778   0.367   4.278   2.525
 1960SOL    HW1 6779   0.460   4.270   2.489
 1960SOL    HW2 6780   0.341   4.375   2.528
 1961SOL     OW 6781   6.404   4.627   5.081
 1961SOL    HW1 6782   6.500   4.626   5.052
 1961SOL    HW2 6783   6.379   4.720   5.109
 1962SOL     OW 6784   1.488   6.129   2.598
 1962SOL    HW1 6785   1.575   6.173   2.621
 1962SOL    HW2 6786   1.506   6.036   2.565
 1963SOL     OW 6787   0.881   1.676   1.275
 1963SOL    HW1 6788   0.875   1.697   1.177
 1963SOL    HW2 6789   0.830   1.744   1.327
 1964SOL     OW 6790   4.409   4.541   2.003
 1964SOL    HW1 6791   4.463   4.457   1.996
 1964SOL    HW2 6792   4.386   4.574   1.912
 1965SOL     OW 6793   1.208   3.383   4.377
 1965SOL    HW1 6794   1.236   3.296   4.334
 1965SOL    HW2 6795   1.119   3.410   4.341
 1966SOL     OW 6796   0.478   6.109   0.828
 1966SOL    HW1 6797   0.413   6.128   0.754
 1966SOL    HW2 6798   0.571   6.129   0.797
 1967SOL     OW 6799   5.374   2.782   4.324
 1967SOL    HW1 6800   5.441   2.716   4.356
 1967SOL    HW2 6801   5.365   2.856   4.391
 1968SOL     OW 6802   1.743   0.464   5.545
 1968SOL    HW1 6803   1.816   0.412   5.590
 1968SOL    HW2 6804   1.730   0.431   5.452
 1969SOL     OW 6805   2.357   1.570   0.794
 1969SOL    HW1 6806   2.291   1.496   0.782
 1969SOL    HW2 6807   2.329   1.649   0.740
 1970SOL     OW 6808   2.411   6.799   5.892
 1970SOL    HW1 6809   2.383   6.718   5.840
 1970SOL    HW2 6810   2.342   6.821   5.960
 1971SOL     OW 6811   0.454   0.465   5.188
 1971SOL    HW1 6812   0.382   0.526   5.222
 1971SOL    HW2 6813   0.431   0.370   5.210
 1972SOL     OW 6814   5.068   2.266   1.242
 1972SOL    HW1 6815   5.111   2.194   1.297
 1972SOL    HW2 6816   4.980   2.233   1.208
 1973SOL     OW 6817   3.078   3.604   0.495
 1973SOL    HW1 6818   3.036   3.693   0.511
 1973SOL    HW2 6819   3.034   3.560   0.417
 1974SOL     OW 6820   5.070   0.411   4.658
 1974SOL    HW1 6821   5.082   0.503   4.697
 1974SOL    HW2 6822   5.043   0.418   4.562
 1975SOL     OW 6823   1.779   1.849   4.471
 1975SOL    HW1 6824   1.790   1.891   4.561
 1975SOL    HW2 6825   1.722   1.907   4.414
 1976SOL     OW 6826   6.786   6.755   0.488
 1976SOL    HW1 6827   6.745   6.846   0.481
 1976SOL    HW2 6828   6.782   6.724   0.582
 1977SOL     OW 6829   1.725   3.274   5.001
 1977SOL    HW1 6830   1.755   3.259   4.907
 1977SOL    HW2 6831   1.798   3.249   5.065
 1978SOL     OW 6832   2.110   5.984   3.276
 1978SOL    HW1 6833   2.194   5.930   3.278
 1978SOL    HW2 6834   2.055   5.964   3.357
 1979SOL     OW 6835   5.514   4.660   6.716
 1979SOL    HW1 6836   5.592   4.639   6.774
 1979SOL    HW2 6837   5.542   4.725   6.644
 1980SOL     OW 6838   3.418   0.303   4.215
 1980SOL    HW1 6839   3.373   0.284   4.303
 1980SOL    HW2 6840   3.485   0.376   4.228
 1981SOL     OW 6841   6.347   3.384   1.878
 1981SOL    HW1 6842   6.423   3.425   1.929
 1981SOL    HW2 6843   6.382   3.317   1.814
 1982SOL     OW 6844   0.191   4.446   4.365
 1982SOL    HW1 6845   0.202   4.545   4.377
 1982SOL    HW2 6846   0.256   4.414   4.296
 1983SOL     OW 6847   1.839   0.074   1.592
 1983SOL    HW1 6848   1.889   0.023   1.522
 1983SOL    HW2 6849   1.767   0.128   1.548
 1984SOL     OW 6850   5.052   2.844   4.964
 1984SOL    HW1 6851   4.955   2.818   4.965
 1984SOL    HW2 6852   5.097   2.801   4.886
 1985SOL     OW 6853   0.464   6.439   2.589
 1985SOL    HW1 6854   0.473   6.367   2.659
 1985SOL    HW2 6855   0.429   6.523   2.632
 1986SOL     OW 6856   2.786   1.047   6.848
 1986SOL    HW1 6857   2.859   1.089   6.795
 1986SOL    HW2 6858   2.800   1.065   6.945
 1987SOL     OW 6859   1.989   1.678   3.022
 1987SOL    HW1 6860   2.069   1.723   2.982
 1987SOL    HW2 6861   2.013   1.585   3.049
 1988SOL     OW 6862   6.758   3.341   0.524
 1988SOL    HW1 6863   6.742   3.430   0.568
 1988SOL    HW2 6864   6.684   3.278   0.549
 1989SOL     OW 6865   2.224   5.745   5.163
 1989SOL    HW1 6866   2.320   5.726   5.140
 1989SOL    HW2 6867   2.194   5.682   5.235
 1990SOL     OW 6868   4.286   5.903   0.806
 1990SOL    HW1 6869   4.301   5.987   0.754
 1990SOL    HW2 6870   4.202   5.860   0.775
 1991SOL     OW 6871   3.011   5.861   6.627
 1991SOL    HW1 6872   2.938   5.838   6.692
 1991SOL    HW2 6873   3.032   5.958   6.634
 1992SOL     OW 6874   0.433   0.554   0.324
 1992SOL    HW1 6875   0.517   0.509   0.354
 1992SOL    HW2 6876   0.409   0.523   0.232
 1993SOL     OW 6877   3.695   2.089   5.832
 1993SOL    HW1 6878   3.785   2.114   5.865
 1993SOL    HW2 6879   3.682   2.125   5.739
 1994SOL     OW 6880   6.966   1.995   0.374
 1994SOL    HW1 6881   7.009   2.064   0.317
 1994SOL    HW2 6882   6.986   1.904   0.338
 1995SOL     OW 6883   4.784   2.960   3.494
 1995SOL    HW1 6884   4.862   2.933   3.438
 1995SOL    HW2 6885   4.791   3.056   3.518
 1996SOL     OW 6886   2.221   2.295   0.920
 1996SOL    HW1 6887   2.291   2.332   0.981
 1996SOL    HW2 6888   2.213   2.196   0.935
 1997SOL     OW 6889   3.580   2.015   4.948
 1997SOL    HW1 6890   3.496   2.053   4.910
 1997SOL    HW2 6891   3.612   1.940   4.890
 1998SOL     OW 6892   1.906   3.589   0.701
 1998SOL    HW1 6893   1.850   3.625   0.627
 1998SOL    HW2 6894   1.853   3.592   0.787
 1999SOL     OW 6895   1.797   6.388   6.326
 1999SOL    HW1 6896   1.793   6.380   6.226
 1999SOL    HW2 6897   1.884   6.429   6.352
 2000SOL     OW 6898   4.041   2.609   5.825
 2000SOL    HW1 6899   4.107   2.542   5.861
 2000SOL    HW2 6900   3.956   2.562   5.801
 2001SOL     OW 6901   2.149   0.767   1.369
 2001SOL    HW1 6902   2.139   0.773   1.269
 2001SOL    HW2 6903   2.211   0.692   1.392
 2002SOL     OW 6904   0.438   4.334   0.817
 2002SOL    HW1 6905   0.482   4.306   0.731
 2002SOL    HW2 6906   0.360   4.393   0.798
 2003SOL     OW 6907   6.371   4.955   2.388
 2003SOL    HW1 6908   6.433   4.888   2.429
 2003SOL    HW2 6909   6.277   4.922   2.395
 2004SOL     OW 6910   5.489   0.888   4.174
 2004SOL    HW1 6911   5.433   0.809   4.148
 2004SOL    HW2 6912   5.544   0.865   4.254
 2005SOL     OW 6913   0.329   4.497   0.573
 2005SOL    HW1 6914   0.346   4.596   0.564
 2005SOL    HW2 6915   0.409   4.447   0.539
 2006SOL     OW 6916   5.502   0.371   3.198
 2006SOL    HW1 6917   5.488   0.468   3.218
 2006SOL    HW2 6918   5.583   0.360   3.140
 2007SOL     OW 6919   5.175   4.189   1.072
 2007SOL    HW1 6920   5.157   4.230   0.983
 2007SOL    HW2 6921   5.090   4.152   1.110
 2008SOL     OW 6922   2.126   4.013   3.634
 2008SOL    HW1 6923   2.154   3.925   3.672
 2008SOL    HW2 6924   2.068   4.061   3.701
 2009SOL     OW 6925   4.686   0.364   2.742
 2009SOL    HW1 6926   4.673   0.331   2.648
 2009SOL    HW2 6927   4.667   0.463   2.745
 2010SOL     OW 6928   3.278   1.999   1.699
 2010SOL    HW1 6929   3.239   1.923   1.750
 2010SOL    HW2 6930   3.352   2.041   1.752
 2011SOL     OW 6931   0.838   0.819   4.772
 2011SOL    HW1 6932   0.758   0.876   4.754
 2011SOL    HW2 6933   0.846   0.749   4.701
 2012SOL     OW 6934   1.150   3.929   2.354
 2012SOL    HW1 6935   1.207   3.848   2.367
 2012SOL    HW2 6936   1.057   3.900   2.332
 2013SOL     OW 6937   6.210   2.822   3.466
 2013SOL    HW1 6938   6.275   2.801   3.539
 2013SOL    HW2 6939   6.155   2.902   3.491
 2014SOL     OW 6940   2.707   6.827   3.312
 2014SOL    HW1 6941   2.802   6.858   3.315
 2014SOL    HW2 6942   2.686   6.776   3.396
 2015SOL     OW 6943   2.420   0.387   1.009
 2015SOL    HW1 6944   2.344   0.450   0.994
 2015SOL    HW2 6945   2.386   0.293   1.005
 2016SOL     OW 6946   1.779   5.751   6.136
 2016SOL    HW1 6947   1.702   5.778   6.195
 2016SOL    HW2 6948   1.820   5.833   6.096
 2017SOL     OW 6949   3.725   0.288   3.270
 2017SOL    HW1 6950   3.816   0.321   3.294
 2017SOL    HW2 6951   3.709   0.302   3.172
 2018SOL     OW 6952   5.731   2.669   4.140
 2018SOL    HW1 6953   5.739   2.607   4.218
 2018SOL    HW2 6954   5.762   2.760   4.168
 2019SOL     OW 6955   5.450   3.785   6.641
 2019SOL    HW1 6956   5.517   3.805   6.713
 2019SOL    HW2 6957   5.392   3.709   6.670
 2020SOL     OW 6958   2.316   0.008   6.278
 2020SOL    HW1 6959   2.303   6.997   6.371
 2020SOL    HW2 6960   2.247   0.077   6.257
 2021SOL     OW 6961   6.489   6.684   4.994
 2021SOL    HW1 6962   6.480   6.716   5.089
 2021SOL    HW2 6963   6.580   6.644   4.982
 2022SOL     OW 6964   1.827   4.484   3.814
 2022SOL    HW1 6965   1.859   4.407   3.758
 2022SOL    HW2 6966   1.905   4.526   3.860
 2023SOL     OW 6967   0.522   0.258   6.539
 2023SOL    HW1 6968   0.555   0.226   6.450
 2023SOL    HW2 6969   0.485   0.351   6.529
 2024SOL     OW 6970   0.200   6.076   3.558
 2024SOL    HW1 6971   0.141   6.157   3.557
 2024SOL    HW2 6972   0.224   6.055   3.653
 2025SOL     OW 6973   4.061   0.920   3.821
 2025SOL    HW1 6974   4.120   0.931   3.741
 2025SOL    HW2 6975   4.114   0.934   3.904
 2026SOL     OW 6976   6.425   2.880   6.062
 2026SOL    HW1 6977   6.503   2.884   6.000
 2026SOL    HW2 6978   6.344   2.915   6.016
 2027SOL     OW 6979   1.509   0.110   1.190
 2027SOL    HW1 6980   1.419   0.143   1.160
 2027SOL    HW2 6981   1.527   0.021   1.149
 2028SOL     OW 6982   3.536   5.621   4.873
 2028SOL    HW1 6983   3.497   5.631   4.965
 2028SOL    HW2 6984   3.477   5.563   4.818
 2029SOL     OW 6985   6.211   1.880   0.435
 2029SOL    HW1 6986   6.204   1.781   0.436
 2029SOL    HW2 6987   6.121   1.920   0.420
 2030SOL     OW 6988   3.061   0.792   3.555
 2030SOL    HW1 6989   3.151   0.765   3.520
 2030SOL    HW2 6990   3.009   0.834   3.481
 2031SOL     OW 6991   7.006   5.833   1.623
 2031SOL    HW1 6992   6.962   5.769   1.560
 2031SOL    HW2 6993   0.046   5.784   1.683
 2032SOL     OW 6994   4.006   1.273   1.999
 2032SOL    HW1 6995   4.063   1.256   1.919
 2032SOL    HW2 6996   4.042   1.224   2.078
 2033SOL     OW 6997   2.322   2.417   6.995
 2033SOL    HW1 6998   2.297   2.504   0.012
 2033SOL    HW2 6999   2.306   2.420   6.896
 2034SOL     OW 7000   2.883   4.466   5.778
 2034SOL    HW1 7001   2.895   4.444   5.874
 2034SOL    HW2 7002   2.874   4.382   5.725
 2035SOL     OW 7003   6.270   6.611   3.368
 2035SOL    HW1 7004   6.233   6.592   3.277
 2035SOL    HW2 7005   6.206   6.578   3.438
 2036SOL     OW 7006   1.243   3.284   2.660
 2036SOL    HW1 7007   1.269   3.213   2.725
 2036SOL    HW2 7008   1.148   3.271   2.632
 2037SOL     OW 7009   6.212   2.940   5.889
 2037SOL    HW1 7010   6.156   3.000   5.831
 2037SOL    HW2 7011   6.276   2.889   5.831
 2038SOL     OW 7012   1.971   1.482   0.157
 2038SOL    HW1 7013   1.918   1.405   0.193
 2038SOL    HW2 7014   2.001   1.541   0.231
 2039SOL     OW 7015   6.730   6.251   3.378
 2039SOL    HW1 7016   6.707   6.320   3.310
 2039SOL    HW2 7017   6.706   6.161   3.343
 2040SOL     OW 7018   1.464   2.607   6.912
 2040SOL    HW1 7019   1.443   2.638   7.004
 2040SOL    HW2 7020   1.379   2.579   6.866
 2041SOL     OW 7021   1.045   6.786   5.214
 2041SOL    HW1 7022   0.998   6.870   5.188
 2041SOL    HW2 7023   1.000   6.707   5.171
 2042SOL     OW 7024   5.019   6.254   6.748
 2042SOL    HW1 7025   4.976   6.165   6.766
 2042SOL    HW2 7026   5.086   6.274   6.820
 2043SOL     OW 7027   6.697   3.217   3.398
 2043SOL    HW1 7028   6.677   3.290   3.333
 2043SOL    HW2 7029   6.621   3.209   3.464
 2044SOL     OW 7030   6.573   0.457   1.462
 2044SOL    HW1 7031   6.601   0.441   1.557
 2044SOL    HW2 7032   6.596   0.550   1.436
 2045SOL     OW 7033   1.798   4.974   4.385
 2045SOL    HW1 7034   1.788   4.876   4.401
 2045SOL    HW2 7035   1.876   4.990   4.324
 2046SOL     OW 7036   6.328   1.814   4.649
 2046SOL    HW1 7037   6.271   1.840   4.727
 2046SOL    HW2 7038   6.378   1.894   4.616
 2047SOL     OW 7039   6.888   2.383   0.185
 2047SOL    HW1 7040   6.971   2.405   0.238
 2047SOL    HW2 7041   6.843   2.467   0.156
 2048SOL     OW 7042   0.137   6.854   5.378
 2048SOL    HW1 7043   0.065   6.898   5.324
 2048SOL    HW2 7044   0.222   6.905   5.369
 2049SOL     OW 7045   5.612   1.458   4.381
 2049SOL    HW1 7046   5.708   1.442   4.404
 2049SOL    HW2 7047   5.579   1.383   4.323
 2050SOL     OW 7048   6.050   2.671   4.013
 2050SOL    HW1 7049   6.000   2.614   4.078
 2050SOL    HW2 7050   6.142   2.688   4.049
 2051SOL     OW 7051   1.768   5.921   6.439
 2051SOL    HW1 7052   1.769   5.827   6.403
 2051SOL    HW2 7053   1.756   5.985   6.363
 2052SOL     OW 7054   1.627   2.764   1.256
 2052SOL    HW1 7055   1.576   2.769   1.170
 2052SOL    HW2 7056   1.712   2.816   1.247
 2053SOL     OW 7057   6.813   5.674   4.695
 2053SOL    HW1 7058   6.715   5.659   4.686
 2053SOL    HW2 7059   6.862   5.619   4.628
 2054SOL     OW 7060   3.548   4.139   3.147
 2054SOL    HW1 7061   3.582   4.079   3.219
 2054SOL    HW2 7062   3.503   4.218   3.189
 2055SOL     OW 7063   6.409   3.025   4.759
 2055SOL    HW1 7064   6.447   3.112   4.790
 2055SOL    HW2 7065   6.324   3.041   4.710
 2056SOL     OW 7066   4.471   5.209   1.351
 2056SOL    HW1 7067   4.391   5.206   1.290
 2056SOL    HW2 7068   4.509   5.301   1.351
 2057SOL     OW 7069   4.992   3.795   5.770
 2057SOL    HW1 7070   5.040   3.805   5.857
 2057SOL    HW2 7071   5.006   3.877   5.714
 2058SOL     OW 7072   0.188   6.416   2.554
 2058SOL    HW1 7073   0.287   6.420   2.563
 2058SOL    HW2 7074   0.146   6.414   2.644
 2059SOL     OW 7075   2.038   6.233   6.666
 2059SOL    HW1 7076   2.001   6.149   6.706
 2059SOL    HW2 7077   2.068   6.214   6.572
 2060SOL     OW 7078   0.254   3.602   1.933
 2060SOL    HW1 7079   0.255   3.507   1.962
 2060SOL    HW2 7080   0.170   3.620   1.880
 2061SOL     OW 7081   1.739   1.989   2.448
 2061SOL    HW1 7082   1.819   1.953   2.400
 2061SOL    HW2 7083   1.764   2.071   2.499
 2062SOL     OW 7084   0.053   5.913   5.367
 2062SOL    HW1 7085   0.069   5.833   5.308
 2062SOL    HW2 7086   6.985   5.949   5.350
 2063SOL     OW 7087   1.309   6.741   5.192
 2063SOL    HW1 7088   1.214   6.773   5.190
 2063SOL    HW2 7089   1.369   6.818   5.212
 2064SOL     OW 7090   0.052   2.515   5.257
 2064SOL    HW1 7091   0.128   2.450   5.259
 2064SOL    HW2 7092   7.003   2.484   5.319
 2065SOL     OW 7093   6.051   3.055   6.221
 2065SOL    HW1 7094   6.043   2.962   6.186
 2065SOL    HW2 7095   6.127   3.102   6.176
 2066SOL     OW 7096   6.784   3.935   5.115
 2066SOL    HW1 7097   6.724   4.012   5.095
 2066SOL    HW2 7098   6.759   3.857   5.058
 2067SOL     OW 7099   0.176   4.758   0.707
 2067SOL    HW1 7100   0.152   4.854   0.689
 2067SOL    HW2 7101   0.124   4.699   0.645
 2068SOL     OW 7102   3.274   0.531   4.024
 2068SOL    HW1 7103   3.300   0.482   3.941
 2068SOL    HW2 7104   3.246   0.465   4.094
 2069SOL     OW 7105   6.847   2.369   4.399
 2069SOL    HW1 7106   6.801   2.458   4.403
 2069SOL    HW2 7107   6.805   2.313   4.327
 2070SOL     OW 7108   1.073   1.554   0.994
 2070SOL    HW1 7109   1.105   1.460   0.977
 2070SOL    HW2 7110   1.019   1.585   0.915
 2071SOL     OW 7111   6.059   0.660   5.617
 2071SOL    HW1 7112   6.099   0.637   5.706
 2071SOL    HW2 7113   6.003   0.742   5.626
 2072SOL     OW 7114   4.547   5.618   4.716
 2072SOL    HW1 7115   4.468   5.579   4.763
 2072SOL    HW2 7116   4.584   5.693   4.771
 2073SOL     OW 7117   4.176   6.199   5.296
 2073SOL    HW1 7118   4.128   6.230   5.378
 2073SOL    HW2 7119   4.262   6.251   5.286
 2074SOL     OW 7120   1.721   2.675   6.493
 2074SOL    HW1 7121   1.783   2.752   6.483
 2074SOL    HW2 7122   1.651   2.678   6.422
 2075SOL     OW 7123   6.827   2.703   2.910
 2075SOL    HW1 7124   6.786   2.614   2.927
 2075SOL    HW2 7125   6.922   2.691   2.880
 2076SOL     OW 7126   5.458   6.456   6.398
 2076SOL    HW1 7127   5.433   6.435   6.492
 2076SOL    HW2 7128   5.375   6.470   6.344
 2077SOL     OW 7129   6.904   2.137   1.965
 2077SOL    HW1 7130   6.875   2.211   1.905
 2077SOL    HW2 7131   7.001   2.147   1.987
 2078SOL     OW 7132   2.302   5.153   6.298
 2078SOL    HW1 7133   2.380   5.119   6.350
 2078SOL    HW2 7134   2.218   5.133   6.348
 2079SOL     OW 7135   0.007   1.128   2.974
 2079SOL    HW1 7136   0.058   1.168   2.897
 2079SOL    HW2 7137   0.068   1.066   3.025
 2080SOL     OW 7138   2.473   0.869   5.098
 2080SOL    HW1 7139   2.455   0.889   5.002
 2080SOL    HW2 7140   2.504   0.952   5.144
 2081SOL     OW 7141   0.884   6.672   4.987
 2081SOL    HW1 7142   0.969   6.715   4.957
 2081SOL    HW2 7143   0.807   6.714   4.939
 2082SOL     OW 7144   0.891   6.253   3.595
 2082SOL    HW1 7145   0.838   6.312   3.657
 2082SOL    HW2 7146   0.918   6.305   3.514
 2083SOL     OW 7147   1.410   6.056   5.275
 2083SOL    HW1 7148   1.481   6.083   5.211
 2083SOL    HW2 7149   1.425   5.961   5.304
 2084SOL     OW 7150   0.826   2.809   2.146
 2084SOL    HW1 7151   0.739   2.856   2.134
 2084SOL    HW2 7152   0.895   2.874   2.177
 2085SOL     OW 7153   4.887   6.847   1.057
 2085SOL    HW1 7154   4.815   6.794   1.102
 2085SOL    HW2 7155   4.960   6.785   1.029
 2086SOL     OW 7156   3.642   5.878   0.312
 2086SOL    HW1 7157   3.654   5.977   0.310
 2086SOL    HW2 7158   3.697   5.836   0.240
 2087SOL     OW 7159   4.689   1.972   1.268
 2087SOL    HW1 7160   4.649   1.981   1.359
 2087SOL    HW2 7161   4.777   1.925   1.274
 2088SOL     OW 7162   1.128   5.700   6.485
 2088SOL    HW1 7163   1.077   5.622   6.522
 2088SOL    HW2 7164   1.066   5.757   6.432
 2089SOL     OW 7165   4.410   2.421   5.493
 2089SOL    HW1 7166   4.421   2.503   5.549
 2089SOL    HW2 7167   4.455   2.344   5.538
 2090SOL     OW 7168   4.839   3.146   5.784
 2090SOL    HW1 7169   4.817   3.075   5.852
 2090SOL    HW2 7170   4.805   3.234   5.816
 2091SOL     OW 7171   6.964   5.605   1.101
 2091SOL    HW1 7172   0.019   5.610   1.162
 2091SOL    HW2 7173   6.879   5.614   1.154
 2092SOL     OW 7174   5.638   3.319   0.481
 2092SOL    HW1 7175   5.636   3.262   0.399
 2092SOL    HW2 7176   5.721   3.374   0.481
 2093SOL     OW 7177   3.192   2.253   1.694
 2093SOL    HW1 7178   3.230   2.161   1.702
 2093SOL    HW2 7179   3.258   2.312   1.647
 2094SOL     OW 7180   5.406   1.584   1.332
 2094SOL    HW1 7181   5.445   1.663   1.285
 2094SOL    HW2 7182   5.434   1.500   1.284
 2095SOL     OW 7183   6.278   6.474   4.353
 2095SOL    HW1 7184   6.344   6.475   4.428
 2095SOL    HW2 7185   6.317   6.426   4.274
 2096SOL     OW 7186   4.934   5.705   3.466
 2096SOL    HW1 7187   5.014   5.711   3.407
 2096SOL    HW2 7188   4.852   5.733   3.416
 2097SOL     OW 7189   2.918   3.531   6.957
 2097SOL    HW1 7190   2.864   3.507   0.015
 2097SOL    HW2 7191   2.947   3.626   6.964
 2098SOL     OW 7192   4.054   6.580   2.997
 2098SOL    HW1 7193   4.139   6.561   3.046
 2098SOL    HW2 7194   3.977   6.574   3.060
 2099SOL     OW 7195   3.986   1.442   6.655
 2099SOL    HW1 7196   4.019   1.348   6.662
 2099SOL    HW2 7197   3.995   1.487   6.744
 2100SOL     OW 7198   5.378   1.276   0.820
 2100SOL    HW1 7199   5.296   1.230   0.854
 2100SOL    HW2 7200   5.452   1.266   0.887
 2101SOL     OW 7201   6.921   6.026   1.131
 2101SOL    HW1 7202   7.003   6.014   1.187
 2101SOL    HW2 7203   6.926   6.115   1.084
 2102SOL     OW 7204   4.799   3.549   1.684
 2102SOL    HW1 7205   4.888   3.508   1.704
 2102SOL    HW2 7206   4.811   3.622   1.616
 2103SOL     OW 7207   4.070   3.974   0.314
 2103SOL    HW1 7208   4.054   3.882   0.350
 2103SOL    HW2 7209   3.986   4.028   0.321
 2104SOL     OW 7210   1.235   4.504   1.906
 2104SOL    HW1 7211   1.297   4.581   1.914
 2104SOL    HW2 7212   1.276   4.423   1.949
 2105SOL     OW 7213   4.669   5.035   6.988
 2105SOL    HW1 7214   4.699   4.971   6.917
 2105SOL    HW2 7215   4.617   4.986   0.035
 2106SOL     OW 7216   4.559   3.733   1.213
 2106SOL    HW1 7217   4.545   3.666   1.287
 2106SOL    HW2 7218   4.502   3.707   1.134
 2107SOL     OW 7219   6.083   2.581   5.628
 2107SOL    HW1 7220   6.095   2.662   5.685
 2107SOL    HW2 7221   6.156   2.576   5.560
 2108SOL     OW 7222   6.337   5.966   5.045
 2108SOL    HW1 7223   6.334   5.942   4.948
 2108SOL    HW2 7224   6.378   5.891   5.097
 2109SOL     OW 7225   2.945   5.917   2.596
 2109SOL    HW1 7226   2.917   5.889   2.688
 2109SOL    HW2 7227   2.960   6.015   2.594
 2110SOL     OW 7228   3.551   0.606   6.356
 2110SOL    HW1 7229   3.514   0.688   6.311
 2110SOL    HW2 7230   3.499   0.588   6.440
 2111SOL     OW 7231   1.732   3.587   5.396
 2111SOL    HW1 7232   1.813   3.644   5.410
 2111SOL    HW2 7233   1.718   3.528   5.476
 2112SOL     OW 7234   5.122   2.155   0.109
 2112SOL    HW1 7235   5.065   2.145   0.191
 2112SOL    HW2 7236   5.094   2.089   0.040
 2113SOL     OW 7237   2.168   0.624   5.006
 2113SOL    HW1 7238   2.098   0.583   4.948
 2113SOL    HW2 7239   2.126   0.665   5.086
 2114SOL     OW 7240   2.349   2.731   6.948
 2114SOL    HW1 7241   2.422   2.708   7.012
 2114SOL    HW2 7242   2.261   2.701   6.986
 2115SOL     OW 7243   1.034   4.554   2.818
 2115SOL    HW1 7244   0.990   4.637   2.783
 2115SOL    HW2 7245   1.123   4.579   2.858
 2116SOL     OW 7246   1.425   3.088   1.742
 2116SOL    HW1 7247   1.456   3.126   1.655
 2116SOL    HW2 7248   1.331   3.055   1.731
 2117SOL     OW 7249   5.393   3.677   1.340
 2117SOL    HW1 7250   5.331   3.750   1.369
 2117SOL    HW2 7251   5.343   3.591   1.334
 2118SOL     OW 7252   6.663   3.167   2.638
 2118SOL    HW1 7253   6.650   3.266   2.636
 2118SOL    HW2 7254   6.596   3.123   2.579
 2119SOL     OW 7255   1.899   1.301   1.023
 2119SOL    HW1 7256   1.991   1.276   1.052
 2119SOL    HW2 7257   1.897   1.398   0.998
 2120SOL     OW 7258   0.253   3.349   2.030
 2120SOL    HW1 7259   0.167   3.336   2.080
 2120SOL    HW2 7260   0.326   3.299   2.076
 2121SOL     OW 7261   1.534   3.021   5.598
 2121SOL    HW1 7262   1.543   2.935   5.547
 2121SOL    HW2 7263   1.598   3.021   5.675
 2122SOL     OW 7264   5.342   6.113   6.006
 2122SOL    HW1 7265   5.403   6.146   6.078
 2122SOL    HW2 7266   5.394   6.060   5.939
 2123SOL     OW 7267   6.478   6.182   1.716
 2123SOL    HW1 7268   6.449   6.277   1.700
 2123SOL    HW2 7269   6.532   6.178   1.800
 2124SOL     OW 7270   3.010   1.745   0.120
 2124SOL    HW1 7271   2.994   1.826   0.064
 2124SOL    HW2 7272   3.092   1.697   0.088
 2125SOL     OW 7273   0.899   5.348   2.199
 2125SOL    HW1 7274   0.881   5.388   2.109
 2125SOL    HW2 7275   0.927   5.253   2.188
 2126SOL     OW 7276   3.309   2.829   6.244
 2126SOL    HW1 7277   3.263   2.816   6.156
 2126SOL    HW2 7278   3.346   2.922   6.249
 2127SOL     OW 7279   0.865   1.766   5.664
 2127SOL    HW1 7280   0.875   1.865   5.654
 2127SOL    HW2 7281   0.829   1.728   5.579
 2128SOL     OW 7282   5.738   2.597   2.030
 2128SOL    HW1 7283   5.832   2.576   2.058
 2128SOL    HW2 7284   5.717   2.544   1.947
 2129SOL     OW 7285   4.301   4.752   4.901
 2129SOL    HW1 7286   4.318   4.658   4.932
 2129SOL    HW2 7287   4.216   4.754   4.847
 2130SOL     OW 7288   2.573   0.659   1.826
 2130SOL    HW1 7289   2.650   0.628   1.770
 2130SOL    HW2 7290   2.589   0.753   1.857
 2131SOL     OW 7291   4.910   1.376   1.003
 2131SOL    HW1 7292   4.862   1.344   1.085
 2131SOL    HW2 7293   4.941   1.298   0.950
 2132SOL     OW 7294   3.205   1.596   0.007
 2132SOL    HW1 7295   3.211   1.616   6.932
 2132SOL    HW2 7296   3.240   1.504   0.024
 2133SOL     OW 7297   3.514   2.136   0.786
 2133SOL    HW1 7298   3.474   2.219   0.747
 2133SOL    HW2 7299   3.611   2.152   0.804
 2134SOL     OW 7300   1.111   1.153   4.843
 2134SOL    HW1 7301   1.173   1.082   4.811
 2134SOL    HW2 7302   1.138   1.182   4.934
 2135SOL     OW 7303   0.352   1.708   4.649
 2135SOL    HW1 7304   0.317   1.614   4.642
 2135SOL    HW2 7305   0.448   1.709   4.623
 2136SOL     OW 7306   1.395   3.647   4.190
 2136SOL    HW1 7307   1.319   3.673   4.131
 2136SOL    HW2 7308   1.369   3.661   4.286
 2137SOL     OW 7309   0.447   6.726   4.288
 2137SOL    HW1 7310   0.541   6.754   4.305
 2137SOL    HW2 7311   0.431   6.722   4.189
 2138SOL     OW 7312   5.978   2.539   1.918
 2138SOL    HW1 7313   5.966   2.534   1.819
 2138SOL    HW2 7314   6.053   2.601   1.939
 2139SOL     OW 7315   4.162   1.069   3.078
 2139SOL    HW1 7316   4.103   1.130   3.025
 2139SOL    HW2 7317   4.119   0.979   3.085
 2140SOL     OW 7318   3.163   6.319   3.106
 2140SOL    HW1 7319   3.131   6.261   3.031
 2140SOL    HW2 7320   3.184   6.262   3.185
 2141SOL     OW 7321   6.914   3.076   1.100
 2141SOL    HW1 7322   6.977   3.073   1.023
 2141SOL    HW2 7323   6.820   3.066   1.067
 2142SOL     OW 7324   1.279   2.347   3.318
 2142SOL    HW1 7325   1.227   2.409   3.259
 2142SOL    HW2 7326   1.223   2.322   3.397
 2143SOL     OW 7327   3.086   4.769   0.802
 2143SOL    HW1 7328   3.098   4.843   0.735
 2143SOL    HW2 7329   3.035   4.694   0.760
 2144SOL     OW 7330   1.663   0.434   2.684
 2144SOL    HW1 7331   1.745   0.479   2.646
 2144SOL    HW2 7332   1.635   0.482   2.767
 2145SOL     OW 7333   3.538   5.664   4.056
 2145SOL    HW1 7334   3.623   5.655   4.108
 2145SOL    HW2 7335   3.514   5.761   4.047
 2146SOL     OW 7336   3.035   3.785   2.040
 2146SOL    HW1 7337   3.078   3.710   1.990
 2146SOL    HW2 7338   3.090   3.807   2.121
 2147SOL     OW 7339   6.665   1.106   0.036
 2147SOL    HW1 7340   6.708   1.187   0.074
 2147SOL    HW2 7341   6.732   1.033   0.026
 2148SOL     OW 7342   4.734   2.971   4.712
 2148SOL    HW1 7343   4.782   3.054   4.685
 2148SOL    HW2 7344   4.717   2.914   4.632
 2149SOL     OW 7345   3.468   0.200   0.646
 2149SOL    HW1 7346   3.505   0.152   0.565
 2149SOL    HW2 7347   3.373   0.224   0.629
 2150SOL     OW 7348   3.057   2.138   2.584
 2150SOL    HW1 7349   2.979   2.163   2.526
 2150SOL    HW2 7350   3.133   2.110   2.526
 2151SOL     OW 7351   2.485   1.704   4.240
 2151SOL    HW1 7352   2.417   1.651   4.190
 2151SOL    HW2 7353   2.577   1.673   4.215
 2152SOL     OW 7354   3.770   6.199   1.924
 2152SOL    HW1 7355   3.706   6.250   1.982
 2152SOL    HW2 7356   3.862   6.237   1.937
 2153SOL     OW 7357   3.980   0.740   3.410
 2153SOL    HW1 7358   3.948   0.711   3.500
 2153SOL    HW2 7359   4.046   0.814   3.420
 2154SOL     OW 7360   3.498   6.303   5.068
 2154SOL    HW1 7361   3.428   6.371   5.048
 2154SOL    HW2 7362   3.560   6.337   5.139
 2155SOL     OW 7363   1.492   5.262   0.073
 2155SOL    HW1 7364   1.396   5.288   0.077
 2155SOL    HW2 7365   1.548   5.337   0.107
 2156SOL     OW 7366   2.948   0.393   2.051
 2156SOL    HW1 7367   2.908   0.460   2.114
 2156SOL    HW2 7368   2.930   0.301   2.086
 2157SOL     OW 7369   6.848   1.003   3.147
 2157SOL    HW1 7370   6.891   1.072   3.089
 2157SOL    HW2 7371   6.868   0.912   3.111
 2158SOL     OW 7372   4.104   6.391   0.668
 2158SOL    HW1 7373   4.063   6.406   0.758
 2158SOL    HW2 7374   4.105   6.293   0.648
 2159SOL     OW 7375   1.620   6.201   5.613
 2159SOL    HW1 7376   1.560   6.132   5.573
 2159SOL    HW2 7377   1.711   6.162   5.626
 2160SOL     OW 7378   4.282   3.450   1.578
 2160SOL    HW1 7379   4.272   3.351   1.564
 2160SOL    HW2 7380   4.377   3.471   1.598
 2161SOL     OW 7381   5.222   2.831   3.482
 2161SOL    HW1 7382   5.304   2.786   3.518
 2161SOL    HW2 7383   5.208   2.918   3.529
 2162SOL     OW 7384   2.646   0.708   0.315
 2162SOL    HW1 7385   2.590   0.741   0.391
 2162SOL    HW2 7386   2.732   0.759   0.314
 2163SOL     OW 7387   6.922   5.773   5.990
 2163SOL    HW1 7388   7.009   5.814   5.961
 2163SOL    HW2 7389   6.896   5.810   6.079
 2164SOL     OW 7390   1.964   1.832   6.960
 2164SOL    HW1 7391   1.869   1.825   6.990
 2164SOL    HW2 7392   2.020   1.868   0.012
 2165SOL     OW 7393   1.156   1.574   2.855
 2165SOL    HW1 7394   1.151   1.501   2.923
 2165SOL    HW2 7395   1.163   1.535   2.763
 2166SOL     OW 7396   2.145   2.336   5.422
 2166SOL    HW1 7397   2.187   2.329   5.512
 2166SOL    HW2 7398   2.074   2.406   5.423
 2167SOL     OW 7399   2.751   0.186   2.743
 2167SOL    HW1 7400   2.685   0.111   2.752
 2167SOL    HW2 7401   2.765   0.229   2.832
 2168SOL     OW 7402   6.483   2.193   3.952
 2168SOL    HW1 7403   6.502   2.096   3.938
 2168SOL    HW2 7404   6.453   2.234   3.866
 2169SOL     OW 7405   5.526   2.320   6.059
 2169SOL    HW1 7406   5.557   2.358   5.972
 2169SOL    HW2 7407   5.533   2.220   6.057
 2170SOL     OW 7408   5.874   4.884   5.534
 2170SOL    HW1 7409   5.847   4.966   5.484
 2170SOL    HW2 7410   5.960   4.902   5.584
 2171SOL     OW 7411   6.246   3.056   0.848
 2171SOL    HW1 7412   6.186   3.133   0.827
 2171SOL    HW2 7413   6.223   2.978   0.790
 2172SOL     OW 7414   2.869   1.793   0.657
 2172SOL    HW1 7415   2.826   1.805   0.568
 2172SOL    HW2 7416   2.819   1.724   0.709
 2173SOL     OW 7417   3.891   0.140   5.592
 2173SOL    HW1 7418   3.814   0.116   5.650
 2173SOL    HW2 7419   3.931   0.226   5.623
 2174SOL     OW 7420   6.335   5.234   5.995
 2174SOL    HW1 7421   6.397   5.268   5.924
 2174SOL    HW2 7422   6.383   5.169   6.053
 2175SOL     OW 7423   2.912   2.316   3.468
 2175SOL    HW1 7424   2.926   2.401   3.520
 2175SOL    HW2 7425   2.988   2.254   3.483
 2176SOL     OW 7426   0.946   2.253   1.327
 2176SOL    HW1 7427   1.038   2.233   1.360
 2176SOL    HW2 7428   0.931   2.352   1.325
 2177SOL     OW 7429   6.562   0.548   1.965
 2177SOL    HW1 7430   6.537   0.630   2.017
 2177SOL    HW2 7431   6.526   0.467   2.012
 2178SOL     OW 7432   1.075   4.323   0.462
 2178SOL    HW1 7433   1.149   4.356   0.402
 2178SOL    HW2 7434   1.109   4.311   0.555
 2179SOL     OW 7435   2.298   5.457   4.118
 2179SOL    HW1 7436   2.312   5.391   4.044
 2179SOL    HW2 7437   2.385   5.497   4.144
 2180SOL     OW 7438   3.268   3.001   1.655
 2180SOL    HW1 7439   3.195   2.970   1.715
 2180SOL    HW2 7440   3.351   3.016   1.709
 2181SOL     OW 7441   4.628   4.286   5.776
 2181SOL    HW1 7442   4.567   4.365   5.779
 2181SOL    HW2 7443   4.720   4.317   5.752
 2182SOL     OW 7444   6.350   3.231   5.808
 2182SOL    HW1 7445   6.420   3.299   5.830
 2182SOL    HW2 7446   6.284   3.270   5.744
 2183SOL     OW 7447   3.783   3.651   0.596
 2183SOL    HW1 7448   3.697   3.665   0.548
 2183SOL    HW2 7449   3.816   3.559   0.578
 2184SOL     OW 7450   3.220   1.267   5.316
 2184SOL    HW1 7451   3.240   1.315   5.231
 2184SOL    HW2 7452   3.303   1.222   5.349
 2185SOL     OW 7453   1.939   1.564   0.966
 2185SOL    HW1 7454   2.016   1.567   1.031
 2185SOL    HW2 7455   1.860   1.611   1.006
 2186SOL     OW 7456   0.126   4.593   2.257
 2186SOL    HW1 7457   0.171   4.661   2.199
 2186SOL    HW2 7458   0.095   4.638   2.342
 2187SOL     OW 7459   0.532   1.077   2.120
 2187SOL    HW1 7460   0.571   1.167   2.143
 2187SOL    HW2 7461   0.461   1.089   2.051
 2188SOL     OW 7462   4.799   5.610   3.888
 2188SOL    HW1 7463   4.867   5.560   3.834
 2188SOL    HW2 7464   4.838   5.636   3.976
 2189SOL     OW 7465   1.520   6.641   6.207
 2189SOL    HW1 7466   1.531   6.631   6.306
 2189SOL    HW2 7467   1.573   6.719   6.175
 2190SOL     OW 7468   6.541   2.143   1.786
 2190SOL    HW1 7469   6.610   2.206   1.822
 2190SOL    HW2 7470   6.586   2.059   1.757
 2191SOL     OW 7471   3.675   1.984   6.315
 2191SOL    HW1 7472   3.656   2.080   6.296
 2191SOL    HW2 7473   3.741   1.977   6.390
 2192SOL     OW 7474   3.956   7.011   4.631
 2192SOL    HW1 7475   3.973   0.052   4.706
 2192SOL    HW2 7476   4.006   0.017   4.549
 2193SOL     OW 7477   6.118   5.648   5.892
 2193SOL    HW1 7478   6.046   5.578   5.887
 2193SOL    HW2 7479   6.191   5.616   5.952
 2194SOL     OW 7480   2.596   5.088   0.108
 2194SOL    HW1 7481   2.524   5.061   0.173
 2194SOL    HW2 7482   2.560   5.157   0.046
 2195SOL     OW 7483   0.061   6.764   1.918
 2195SOL    HW1 7484   0.089   6.742   1.824
 2195SOL    HW2 7485   7.023   6.843   1.917
 2196SOL     OW 7486   2.264   0.127   5.367
 2196SOL    HW1 7487   2.275   0.225   5.350
 2196SOL    HW2 7488   2.168   0.102   5.362
 2197SOL     OW 7489   4.890   3.805   1.463
 2197SOL    HW1 7490   4.919   3.856   1.544
 2197SOL    HW2 7491   4.971   3.783   1.407
 2198SOL     OW 7492   6.913   2.483   6.859
 2198SOL    HW1 7493   6.956   2.393   6.845
 2198SOL    HW2 7494   6.913   2.534   6.773
 2199SOL     OW 7495   5.359   0.126   1.209
 2199SOL    HW1 7496   5.321   0.141   1.118
 2199SOL    HW2 7497   5.288   0.085   1.267
 2200SOL     OW 7498   3.945   0.495   4.566
 2200SOL    HW1 7499   4.000   0.423   4.525
 2200SOL    HW2 7500   3.922   0.563   4.497
 2201SOL     OW 7501   6.242   3.923   2.424
 2201SOL    HW1 7502   6.157   3.921   2.370
 2201SOL    HW2 7503   6.220   3.911   2.521
 2202SOL     OW 7504   3.598   5.204   4.677
 2202SOL    HW1 7505   3.681   5.185   4.729
 2202SOL    HW2 7506   3.521   5.155   4.718
 2203SOL     OW 7507   2.639   1.940   2.900
 2203SOL    HW1 7508   2.651   1.945   2.999
 2203SOL    HW2 7509   2.660   1.847   2.868
 2204SOL     OW 7510   3.510   1.467   6.665
 2204SOL    HW1 7511   3.498   1.401   6.591
 2204SOL    HW2 7512   3.448   1.544   6.651
 2205SOL     OW 7513   1.572   0.352   6.869
 2205SOL    HW1 7514   1.650   0.318   6.818
 2205SOL    HW2 7515   1.597   0.436   6.917
 2206SOL     OW 7516   3.265   4.051   5.549
 2206SOL    HW1 7517   3.207   4.093   5.619
 2206SOL    HW2 7518   3.223   3.966   5.517
 2207SOL     OW 7519   1.853   4.118   6.421
 2207SOL    HW1 7520   1.951   4.135   6.415
 2207SOL    HW2 7521   1.823   4.125   6.516
 2208SOL     OW 7522   1.852   4.372   2.171
 2208SOL    HW1 7523   1.852   4.450   2.234
 2208SOL    HW2 7524   1.794   4.300   2.208
 2209SOL     OW 7525   1.330   6.137   5.532
 2209SOL    HW1 7526   1.311   6.235   5.538
 2209SOL    HW2 7527   1.350   6.112   5.437
 2210SOL     OW 7528   0.352   4.982   3.124
 2210SOL    HW1 7529   0.350   4.916   3.199
 2210SOL    HW2 7530   0.274   4.965   3.063
 2211SOL     OW 7531   5.441   1.564   6.089
 2211SOL    HW1 7532   5.482   1.652   6.067
 2211SOL    HW2 7533   5.508   1.491   6.077
 2212SOL     OW 7534   0.736   6.419   6.794
 2212SOL    HW1 7535   0.669   6.351   6.823
 2212SOL    HW2 7536   0.823   6.401   6.840
 2213SOL     OW 7537   4.407   2.395   4.906
 2213SOL    HW1 7538   4.326   2.386   4.964
 2213SOL    HW2 7539   4.434   2.304   4.872
 2214SOL     OW 7540   4.871   0.669   5.511
 2214SOL    HW1 7541   4.864   0.768   5.498
 2214SOL    HW2 7542   4.793   0.624   5.467
 2215SOL     OW 7543   6.681   1.333   5.767
 2215SOL    HW1 7544   6.653   1.237   5.759
 2215SOL    HW2 7545   6.628   1.377   5.839
 2216SOL     OW 7546   1.897   0.575   6.611
 2216SOL    HW1 7547   1.798   0.584   6.623
 2216SOL    HW2 7548   1.939   0.665   6.620
 2217SOL     OW 7549   2.816   0.228   0.988
 2217SOL    HW1 7550   2.776   0.162   1.052
 2217SOL    HW2 7551   2.751   0.302   0.972
 2218SOL     OW 7552   1.185   6.319   0.405
 2218SOL    HW1 7553   1.149   6.407   0.374
 2218SOL    HW2 7554   1.119   6.276   0.467
 2219SOL     OW 7555   1.200   3.829   2.880
 2219SOL    HW1 7556   1.243   3.912   2.845
 2219SOL    HW2 7557   1.133   3.796   2.814
 2220SOL     OW 7558   0.590   1.408   4.502
 2220SOL    HW1 7559   0.495   1.410   4.469
 2220SOL    HW2 7560   0.647   1.363   4.433
 2221SOL     OW 7561   0.046   1.429   0.238
 2221SOL    HW1 7562   0.095   1.409   0.323
 2221SOL    HW2 7563   0.039   1.528   0.227
 2222SOL     OW 7564   3.819   1.417   0.821
 2222SOL    HW1 7565   3.790   1.489   0.884
 2222SOL    HW2 7566   3.918   1.424   0.807
 2223SOL     OW 7567   5.850   5.802   3.599
 2223SOL    HW1 7568   5.754   5.830   3.596
 2223SOL    HW2 7569   5.861   5.724   3.661
 2224SOL     OW 7570   1.768   4.266   1.534
 2224SOL    HW1 7571   1.747   4.234   1.626
 2224SOL    HW2 7572   1.835   4.340   1.538
 2225SOL     OW 7573   6.215   5.373   3.198
 2225SOL    HW1 7574   6.260   5.384   3.109
 2225SOL    HW2 7575   6.181   5.279   3.206
 2226SOL     OW 7576   3.813   3.360   0.585
 2226SOL    HW1 7577   3.714   3.377   0.586
 2226SOL    HW2 7578   3.835   3.297   0.511
 2227SOL     OW 7579   6.052   4.267   0.027
 2227SOL    HW1 7580   6.098   4.197   0.083
 2227SOL    HW2 7581   5.953   4.255   0.034
 2228SOL     OW 7582   3.226   5.683   0.878
 2228SOL    HW1 7583   3.216   5.661   0.975
 2228SOL    HW2 7584   3.154   5.638   0.825
 2229SOL     OW 7585   4.259   1.951   3.920
 2229SOL    HW1 7586   4.188   1.883   3.901
 2229SOL    HW2 7587   4.284   1.946   4.017
 2230SOL     OW 7588   1.020   6.389   4.053
 2230SOL    HW1 7589   0.927   6.362   4.080
 2230SOL    HW2 7590   1.057   6.322   3.990
 2231SOL     OW 7591   1.661   1.831   2.091
 2231SOL    HW1 7592   1.671   1.748   2.146
 2231SOL    HW2 7593   1.567   1.838   2.058
 2232SOL     OW 7594   0.771   2.874   4.204
 2232SOL    HW1 7595   0.797   2.891   4.299
 2232SOL    HW2 7596   0.707   2.944   4.174
 2233SOL     OW 7597   3.225   5.032   0.428
 2233SOL    HW1 7598   3.200   5.033   0.331
 2233SOL    HW2 7599   3.292   4.960   0.444
 2234SOL     OW 7600   4.244   2.092   0.873
 2234SOL    HW1 7601   4.227   2.047   0.786
 2234SOL    HW2 7602   4.240   2.192   0.861
 2235SOL     OW 7603   1.628   0.575   0.404
 2235SOL    HW1 7604   1.548   0.528   0.442
 2235SOL    HW2 7605   1.708   0.516   0.414
 2236SOL     OW 7606   0.878   4.532   1.147
 2236SOL    HW1 7607   0.915   4.447   1.111
 2236SOL    HW2 7608   0.783   4.544   1.116
 2237SOL     OW 7609   6.079   3.577   4.989
 2237SOL    HW1 7610   6.111   3.644   5.057
 2237SOL    HW2 7611   6.024   3.507   5.034
 2238SOL     OW 7612   6.726   5.092   2.660
 2238SOL    HW1 7613   6.645   5.113   2.605
 2238SOL    HW2 7614   6.767   5.177   2.692
 2239SOL     OW 7615   4.154   4.718   3.758
 2239SOL    HW1 7616   4.176   4.776   3.837
 2239SOL    HW2 7617   4.237   4.695   3.708
 2240SOL     OW 7618   6.028   5.173   3.536
 2240SOL    HW1 7619   5.947   5.219   3.498
 2240SOL    HW2 7620   5.999   5.095   3.591
 2241SOL     OW 7621   0.038   6.246   2.157
 2241SOL    HW1 7622   0.133   6.273   2.141
 2241SOL    HW2 7623   7.015   6.317   2.211
 2242SOL     OW 7624   5.508   1.706   3.339
 2242SOL    HW1 7625   5.427   1.656   3.311
 2242SOL    HW2 7626   5.589   1.665   3.297
 2243SOL     OW 7627   1.993   6.104   5.346
 2243SOL    HW1 7628   1.999   6.032   5.277
 2243SOL    HW2 7629   2.069   6.096   5.410
 2244SOL     OW 7630   4.158   0.407   3.196
 2244SOL    HW1 7631   4.116   0.317   3.194
 2244SOL    HW2 7632   4.257   0.398   3.184
 2245SOL     OW 7633   0.478   2.062   2.281
 2245SOL    HW1 7634   0.396   2.038   2.333
 2245SOL    HW2 7635   0.460   2.143   2.225
 2246SOL     OW 7636   1.643   1.998   5.350
 2246SOL    HW1 7637   1.636   1.986   5.450
 2246SOL    HW2 7638   1.607   2.087   5.325
 2247SOL     OW 7639   2.467   2.360   6.313
 2247SOL    HW1 7640   2.481   2.412   6.229
 2247SOL    HW2 7641   2.447   2.265   6.291
 2248SOL     OW 7642   4.919   4.325   5.745
 2248SOL    HW1 7643   4.941   4.313   5.842
 2248SOL    HW2 7644   4.998   4.298   5.690
 2249SOL     OW 7645   6.035   6.589   2.716
 2249SOL    HW1 7646   5.991   6.664   2.765
 2249SOL    HW2 7647   6.120   6.564   2.762
 2250SOL     OW 7648   5.312   3.956   1.149
 2250SOL    HW1 7649   5.297   3.884   1.081
 2250SOL    HW2 7650   5.265   4.039   1.120
 2251SOL     OW 7651   5.899   1.754   0.385
 2251SOL    HW1 7652   5.897   1.706   0.473
 2251SOL    HW2 7653   5.972   1.716   0.328
 2252SOL     OW 7654   6.481   2.359   5.169
 2252SOL    HW1 7655   6.445   2.449   5.144
 2252SOL    HW2 7656   6.423   2.318   5.239
 2253SOL     OW 7657   0.848   3.042   6.508
 2253SOL    HW1 7658   0.811   2.979   6.440
 2253SOL    HW2 7659   0.788   3.122   6.516
 2254SOL     OW 7660   2.204   2.848   5.934
 2254SOL    HW1 7661   2.230   2.756   5.964
 2254SOL    HW2 7662   2.105   2.859   5.942
 2255SOL     OW 7663   6.646   2.261   0.910
 2255SOL    HW1 7664   6.681   2.183   0.858
 2255SOL    HW2 7665   6.547   2.251   0.924
 2256SOL     OW 7666   3.976   5.781   1.964
 2256SOL    HW1 7667   3.898   5.840   1.942
 2256SOL    HW2 7668   4.014   5.808   2.053
 2257SOL     OW 7669   0.868   2.662   4.483
 2257SOL    HW1 7670   0.910   2.625   4.400
 2257SOL    HW2 7671   0.846   2.758   4.470
 2258SOL     OW 7672   1.618   5.951   4.229
 2258SOL    HW1 7673   1.566   5.866   4.237
 2258SOL    HW2 7674   1.685   5.957   4.303
 2259SOL     OW 7675   5.083   3.693   6.337
 2259SOL    HW1 7676   5.181   3.691   6.359
 2259SOL    HW2 7677   5.069   3.667   6.242
 2260SOL     OW 7678   4.766   4.147   3.052
 2260SOL    HW1 7679   4.779   4.132   2.954
 2260SOL    HW2 7680   4.846   4.112   3.102
 2261SOL     OW 7681   5.894   6.311   0.785
 2261SOL    HW1 7682   5.903   6.409   0.804
 2261SOL    HW2 7683   5.957   6.260   0.844
 2262SOL     OW 7684   5.921   2.256   2.895
 2262SOL    HW1 7685   5.827   2.278   2.873
 2262SOL    HW2 7686   5.967   2.218   2.815
 2263SOL     OW 7687   2.538   5.806   6.154
 2263SOL    HW1 7688   2.523   5.745   6.233
 2263SOL    HW2 7689   2.535   5.752   6.070
 2264SOL     OW 7690   3.285   4.090   2.365
 2264SOL    HW1 7691   3.382   4.104   2.383
 2264SOL    HW2 7692   3.231   4.113   2.446
 2265SOL     OW 7693   0.492   1.024   3.539
 2265SOL    HW1 7694   0.451   0.933   3.534
 2265SOL    HW2 7695   0.432   1.085   3.591
 2266SOL     OW 7696   6.749   1.554   1.054
 2266SOL    HW1 7697   6.676   1.622   1.046
 2266SOL    HW2 7698   6.775   1.523   0.963
 2267SOL     OW 7699   5.438   2.793   4.647
 2267SOL    HW1 7700   5.471   2.713   4.597
 2267SOL    HW2 7701   5.486   2.800   4.734
 2268SOL     OW 7702   6.946   5.393   0.432
 2268SOL    HW1 7703   6.979   5.473   0.382
 2268SOL    HW2 7704   6.866   5.355   0.385
 2269SOL     OW 7705   6.024   5.824   5.127
 2269SOL    HW1 7706   6.018   5.724   5.131
 2269SOL    HW2 7707   6.093   5.851   5.060
 2270SOL     OW 7708   3.573   4.102   0.924
 2270SOL    HW1 7709   3.523   4.148   0.851
 2270SOL    HW2 7710   3.518   4.027   0.960
 2271SOL     OW 7711   6.117   4.081   0.980
 2271SOL    HW1 7712   6.107   3.983   0.963
 2271SOL    HW2 7713   6.186   4.119   0.920
 2272SOL     OW 7714   6.061   2.109   4.676
 2272SOL    HW1 7715   6.075   2.069   4.766
 2272SOL    HW2 7716   5.985   2.062   4.630
 2273SOL     OW 7717   1.947   1.902   2.763
 2273SOL    HW1 7718   2.031   1.900   2.708
 2273SOL    HW2 7719   1.908   1.810   2.766
 2274SOL     OW 7720   1.503   3.492   4.970
 2274SOL    HW1 7721   1.518   3.531   5.061
 2274SOL    HW2 7722   1.590   3.466   4.930
 2275SOL     OW 7723   4.801   6.803   4.446
 2275SOL    HW1 7724   4.810   6.874   4.376
 2275SOL    HW2 7725   4.868   6.819   4.519
 2276SOL     OW 7726   3.490   5.093   1.129
 2276SOL    HW1 7727   3.504   5.075   1.227
 2276SOL    HW2 7728   3.408   5.045   1.098
 2277SOL     OW 7729   3.128   3.549   4.739
 2277SOL    HW1 7730   3.130   3.456   4.778
 2277SOL    HW2 7731   3.219   3.590   4.746
 2278SOL     OW 7732   4.674   6.593   3.743
 2278SOL    HW1 7733   4.574   6.593   3.735
 2278SOL    HW2 7734   4.704   6.676   3.790
 2279SOL     OW 7735   5.780   4.606   4.418
 2279SOL    HW1 7736   5.869   4.643   4.393
 2279SOL    HW2 7737   5.786   4.506   4.424
 2280SOL     OW 7738   6.369   6.427   4.982
 2280SOL    HW1 7739   6.395   6.521   5.004
 2280SOL    HW2 7740   6.320   6.386   5.059
 2281SOL     OW 7741   3.467   1.561   1.736
 2281SOL    HW1 7742   3.492   1.548   1.640
 2281SOL    HW2 7743   3.499   1.650   1.767
 2282SOL     OW 7744   5.241   5.966   4.902
 2282SOL    HW1 7745   5.307   5.939   4.972
 2282SOL    HW2 7746   5.171   6.025   4.943
 2283SOL     OW 7747   6.847   3.324   1.985
 2283SOL    HW1 7748   6.826   3.235   1.945
 2283SOL    HW2 7749   6.915   3.371   1.927
 2284SOL     OW 7750   2.495   1.784   1.642
 2284SOL    HW1 7751   2.494   1.808   1.739
 2284SOL    HW2 7752   2.511   1.867   1.587
 2285SOL     OW 7753   1.414   3.346   7.008
 2285SOL    HW1 7754   1.508   3.322   0.008
 2285SOL    HW2 7755   1.403   3.446   7.009
 2286SOL     OW 7756   6.659   5.992   4.892
 2286SOL    HW1 7757   6.742   6.047   4.881
 2286SOL    HW2 7758   6.606   6.026   4.969
 2287SOL     OW 7759   2.661   2.876   1.689
 2287SOL    HW1 7760   2.592   2.919   1.630
 2287SOL    HW2 7761   2.641   2.778   1.698
 2288SOL     OW 7762   0.223   6.122   4.177
 2288SOL    HW1 7763   0.135   6.165   4.198
 2288SOL    HW2 7764   0.291   6.150   4.244
 2289SOL     OW 7765   5.758   3.088   1.722
 2289SOL    HW1 7766   5.728   2.999   1.755
 2289SOL    HW2 7767   5.750   3.155   1.796
 2290SOL     OW 7768   3.166   3.291   2.061
 2290SOL    HW1 7769   3.115   3.210   2.032
 2290SOL    HW2 7770   3.225   3.268   2.138
 2291SOL     OW 7771   2.253   2.038   0.985
 2291SOL    HW1 7772   2.171   2.008   0.937
 2291SOL    HW2 7773   2.312   1.960   1.003
 2292SOL     OW 7774   5.278   3.384   3.874
 2292SOL    HW1 7775   5.181   3.358   3.873
 2292SOL    HW2 7776   5.311   3.395   3.780
 2293SOL     OW 7777   5.971   1.306   0.503
 2293SOL    HW1 7778   5.967   1.206   0.511
 2293SOL    HW2 7779   5.883   1.340   0.472
 2294SOL     OW 7780   3.050   2.047   6.314
 2294SOL    HW1 7781   3.103   1.998   6.244
 2294SOL    HW2 7782   3.016   1.983   6.382
 2295SOL     OW 7783   6.791   0.816   2.367
 2295SOL    HW1 7784   6.714   0.855   2.417
 2295SOL    HW2 7785   6.851   0.889   2.335
 2296SOL     OW 7786   2.577   4.988   2.806
 2296SOL    HW1 7787   2.581   4.904   2.860
 2296SOL    HW2 7788   2.637   5.057   2.845
 2297SOL     OW 7789   4.484   4.781   6.045
 2297SOL    HW1 7790   4.572   4.767   6.090
 2297SOL    HW2 7791   4.411   4.771   6.113
 2298SOL     OW 7792   3.455   3.470   3.172
 2298SOL    HW1 7793   3.523   3.543   3.182
 2298SOL    HW2 7794   3.486   3.405   3.102
 2299SOL     OW 7795   4.906   4.092   4.984
 2299SOL    HW1 7796   4.975   4.140   5.039
 2299SOL    HW2 7797   4.871   4.014   5.035
 2300SOL     OW 7798   3.475   6.751   3.529
 2300SOL    HW1 7799   3.523   6.836   3.507
 2300SOL    HW2 7800   3.410   6.767   3.604
 2301SOL     OW 7801   3.569   3.023   3.987
 2301SOL    HW1 7802   3.490   2.962   3.982
 2301SOL    HW2 7803   3.553   3.093   4.056
 2302SOL     OW 7804   3.423   0.490   1.481
 2302SOL    HW1 7805   3.392   0.484   1.386
 2302SOL    HW2 7806   3.350   0.527   1.538
 2303SOL     OW 7807   2.447   2.937   1.542
 2303SOL    HW1 7808   2.434   3.028   1.501
 2303SOL    HW2 7809   2.395   2.870   1.490
 2304SOL     OW 7810   6.062   5.592   3.718
 2304SOL    HW1 7811   6.096   5.667   3.774
 2304SOL    HW2 7812   6.121   5.512   3.730
 2305SOL     OW 7813   2.044   0.514   3.985
 2305SOL    HW1 7814   1.962   0.567   3.963
 2305SOL    HW2 7815   2.036   0.423   3.943
 2306SOL     OW 7816   1.502   4.886   2.278
 2306SOL    HW1 7817   1.551   4.809   2.237
 2306SOL    HW2 7818   1.550   4.971   2.257
 2307SOL     OW 7819   1.026   3.438   5.384
 2307SOL    HW1 7820   0.969   3.418   5.462
 2307SOL    HW2 7821   1.104   3.375   5.382
 2308SOL     OW 7822   2.746   4.625   1.257
 2308SOL    HW1 7823   2.662   4.639   1.205
 2308SOL    HW2 7824   2.783   4.713   1.286
 2309SOL     OW 7825   1.555   0.629   3.917
 2309SOL    HW1 7826   1.573   0.609   3.821
 2309SOL    HW2 7827   1.522   0.723   3.926
 2310SOL     OW 7828   6.276   6.415   2.066
 2310SOL    HW1 7829   6.263   6.400   1.968
 2310SOL    HW2 7830   6.212   6.358   2.118
 2311SOL     OW 7831   2.304   5.992   6.617
 2311SOL    HW1 7832   2.261   5.947   6.539
 2311SOL    HW2 7833   2.236   6.045   6.667
 2312SOL     OW 7834   3.899   5.289   3.480
 2312SOL    HW1 7835   3.832   5.228   3.522
 2312SOL    HW2 7836   3.891   5.284   3.380
 2313SOL     OW 7837   5.201   4.881   1.846
 2313SOL    HW1 7838   5.191   4.980   1.841
 2313SOL    HW2 7839   5.132   4.837   1.789
 2314SOL     OW 7840   3.606   6.522   3.072
 2314SOL    HW1 7841   3.648   6.453   3.132
 2314SOL    HW2 7842   3.668   6.599   3.062
 2315SOL     OW 7843   5.328   3.685   5.951
 2315SOL    HW1 7844   5.262   3.757   5.974
 2315SOL    HW2 7845   5.315   3.658   5.855
 2316SOL     OW 7846   5.240   1.849   3.441
 2316SOL    HW1 7847   5.303   1.905   3.494
 2316SOL    HW2 7848   5.161   1.904   3.414
 2317SOL     OW 7849   0.556   5.082   2.921
 2317SOL    HW1 7850   0.492   5.047   2.990
 2317SOL    HW2 7851   0.513   5.156   2.870
 2318SOL     OW 7852   0.025   2.721   3.774
 2318SOL    HW1 7853   0.122   2.730   3.752
 2318SOL    HW2 7854   7.003   2.667   3.702
 2319SOL     OW 7855   1.604   4.419   4.964
 2319SOL    HW1 7856   1.635   4.513   4.975
 2319SOL    HW2 7857   1.585   4.402   4.867
 2320SOL     OW 7858   6.805   2.839   4.479
 2320SOL    HW1 7859   6.780   2.806   4.570
 2320SOL    HW2 7860   6.897   2.808   4.456
 2321SOL     OW 7861   3.843   0.722   5.272
 2321SOL    HW1 7862   3.788   0.644   5.242
 2321SOL    HW2 7863   3.805   0.806   5.233
 2322SOL     OW 7864   2.279   1.645   5.695
 2322SOL    HW1 7865   2.233   1.695   5.622
 2322SOL    HW2 7866   2.213   1.624   5.767
 2323SOL     OW 7867   3.106   5.104   3.014
 2323SOL    HW1 7868   3.096   5.130   2.918
 2323SOL    HW2 7869   3.084   5.007   3.025
 2324SOL     OW 7870   0.273   6.103   2.657
 2324SOL    HW1 7871   0.200   6.148   2.708
 2324SOL    HW2 7872   0.361   6.147   2.678
 2325SOL     OW 7873   1.032   3.732   1.828
 2325SOL    HW1 7874   0.934   3.739   1.850
 2325SOL    HW2 7875   1.084   3.785   1.894
 2326SOL     OW 7876   2.194   3.791   6.193
 2326SOL    HW1 7877   2.252   3.712   6.174
 2326SOL    HW2 7878   2.234   3.844   6.267
 2327SOL     OW 7879   4.504   2.538   4.678
 2327SOL    HW1 7880   4.476   2.476   4.605
 2327SOL    HW2 7881   4.459   2.512   4.764
 2328SOL     OW 7882   5.102   1.054   3.602
 2328SOL    HW1 7883   5.130   1.123   3.669
 2328SOL    HW2 7884   5.021   1.086   3.554
 2329SOL     OW 7885   1.496   5.419   4.114
 2329SOL    HW1 7886   1.480   5.396   4.018
 2329SOL    HW2 7887   1.482   5.338   4.171
 2330SOL     OW 7888   0.069   4.984   1.993
 2330SOL    HW1 7889   7.009   4.985   1.937
 2330SOL    HW2 7890   0.046   4.961   2.087
 2331SOL     OW 7891   6.680   4.605   6.143
 2331SOL    HW1 7892   6.688   4.682   6.079
 2331SOL    HW2 7893   6.606   4.545   6.113
 2332SOL     OW 7894   5.264   2.050   5.701
 2332SOL    HW1 7895   5.237   1.973   5.758
 2332SOL    HW2 7896   5.265   2.021   5.605
 2333SOL     OW 7897   0.387   5.155   2.601
 2333SOL    HW1 7898   0.479   5.170   2.564
 2333SOL    HW2 7899   0.376   5.058   2.624
 2334SOL     OW 7900   3.268   0.155   6.987
 2334SOL    HW1 7901   3.291   0.176   0.059
 2334SOL    HW2 7902   3.188   0.095   6.984
 2335SOL     OW 7903   6.080   1.305   3.100
 2335SOL    HW1 7904   6.029   1.276   3.019
 2335SOL    HW2 7905   6.161   1.246   3.110
 2336SOL     OW 7906   4.564   1.283   5.522
 2336SOL    HW1 7907   4.549   1.297   5.620
 2336SOL    HW2 7908   4.538   1.366   5.472
 2337SOL     OW 7909   5.049   0.381   3.188
 2337SOL    HW1 7910   5.105   0.366   3.106
 2337SOL    HW2 7911   5.041   0.480   3.205
 2338SOL     OW 7912   0.834   0.031   0.186
 2338SOL    HW1 7913   0.897   0.076   0.122
 2338SOL    HW2 7914   0.846   6.955   0.179
 2339SOL     OW 7915   3.409   3.271   5.595
 2339SOL    HW1 7916   3.444   3.361   5.571
 2339SOL    HW2 7917   3.366   3.229   5.515
 2340SOL     OW 7918   3.758   6.611   5.604
 2340SOL    HW1 7919   3.717   6.679   5.543
 2340SOL    HW2 7920   3.835   6.653   5.653
 2341SOL     OW 7921   5.211   4.110   0.197
 2341SOL    HW1 7922   5.132   4.065   0.239
 2341SOL    HW2 7923   5.294   4.088   0.248
 2342SOL     OW 7924   0.489   6.699   5.519
 2342SOL    HW1 7925   0.582   6.702   5.555
 2342SOL    HW2 7926   0.438   6.778   5.552
 2343SOL     OW 7927   1.715   6.702   0.957
 2343SOL    HW1 7928   1.635   6.666   1.005
 2343SOL    HW2 7929   1.788   6.634   0.957
 2344SOL     OW 7930   2.589   1.908   2.419
 2344SOL    HW1 7931   2.604   1.988   2.478
 2344SOL    HW2 7932   2.619   1.930   2.326
 2345SOL     OW 7933   1.509   0.012   5.313
 2345SOL    HW1 7934   1.451   0.088   5.343
 2345SOL    HW2 7935   1.548   6.989   5.393
 2346SOL     OW 7936   4.733   2.606   5.306
 2346SOL    HW1 7937   4.753   2.700   5.279
 2346SOL    HW2 7938   4.817   2.551   5.299
 2347SOL     OW 7939   1.746   4.247   1.820
 2347SOL    HW1 7940   1.775   4.185   1.892
 2347SOL    HW2 7941   1.737   4.340   1.858
 2348SOL     OW 7942   2.055   6.621   3.650
 2348SOL    HW1 7943   2.079   6.532   3.610
 2348SOL    HW2 7944   1.956   6.634   3.646
 2349SOL     OW 7945   0.201   6.071   6.263
 2349SOL    HW1 7946   0.259   6.089   6.342
 2349SOL    HW2 7947   0.225   6.135   6.189
 2350SOL     OW 7948   3.383   0.568   5.739
 2350SOL    HW1 7949   3.393   0.647   5.800
 2350SOL    HW2 7950   3.405   0.484   5.789
 2351SOL     OW 7951   3.157   4.907   3.528
 2351SOL    HW1 7952   3.099   4.861   3.461
 2351SOL    HW2 7953   3.253   4.895   3.503
 2352SOL     OW 7954   6.365   3.984   3.543
 2352SOL    HW1 7955   6.461   3.999   3.521
 2352SOL    HW2 7956   6.346   4.018   3.635
 2353SOL     OW 7957   2.496   4.163   5.370
 2353SOL    HW1 7958   2.463   4.098   5.301
 2353SOL    HW2 7959   2.596   4.159   5.374
 2354SOL     OW 7960   3.545   2.320   6.942
 2354SOL    HW1 7961   3.561   2.418   6.957
 2354SOL    HW2 7962   3.545   2.301   6.844
 2355SOL     OW 7963   1.165   6.765   0.615
 2355SOL    HW1 7964   1.257   6.768   0.654
 2355SOL    HW2 7965   1.141   6.856   0.580
 2356SOL     OW 7966   2.194   4.673   2.016
 2356SOL    HW1 7967   2.167   4.746   2.080
 2356SOL    HW2 7968   2.121   4.605   2.010
 2357SOL     OW 7969   5.264   4.696   4.070
 2357SOL    HW1 7970   5.187   4.647   4.111
 2357SOL    HW2 7971   5.345   4.686   4.128
 2358SOL     OW 7972   3.106   6.931   3.928
 2358SOL    HW1 7973   3.073   7.019   3.894
 2358SOL    HW2 7974   3.148   6.944   4.018
 2359SOL     OW 7975   2.933   1.474   6.002
 2359SOL    HW1 7976   2.849   1.526   5.987
 2359SOL    HW2 7977   2.919   1.407   6.075
 2360SOL     OW 7978   3.877   4.866   6.974
 2360SOL    HW1 7979   3.893   4.949   0.004
 2360SOL    HW2 7980   3.910   4.787   0.001
 2361SOL     OW 7981   2.887   0.118   3.316
 2361SOL    HW1 7982   2.918   0.208   3.284
 2361SOL    HW2 7983   2.899   0.051   3.243
 2362SOL     OW 7984   4.666   6.126   5.225
 2362SOL    HW1 7985   4.761   6.159   5.221
 2362SOL    HW2 7986   4.604   6.203   5.210
 2363SOL     OW 7987   4.217   2.039   5.482
 2363SOL    HW1 7988   4.166   2.073   5.403
 2363SOL    HW2 7989   4.162   2.051   5.565
 2364SOL     OW 7990   5.545   1.888   1.448
 2364SOL    HW1 7991   5.537   1.856   1.542
 2364SOL    HW2 7992   5.515   1.816   1.386
 2365SOL     OW 7993   6.089   4.610   4.990
 2365SOL    HW1 7994   6.140   4.676   5.045
 2365SOL    HW2 7995   6.137   4.522   4.989
 2366SOL     OW 7996   1.096   4.365   5.675
 2366SOL    HW1 7997   1.101   4.267   5.697
 2366SOL    HW2 7998   1.099   4.377   5.576
 2367SOL     OW 7999   0.640   3.436   5.405
 2367SOL    HW1 8000   0.694   3.518   5.423
 2367SOL    HW2 8001   0.570   3.456   5.336
 2368SOL     OW 8002   4.396   0.805   4.658
 2368SOL    HW1 8003   4.357   0.865   4.727
 2368SOL    HW2 8004   4.471   0.852   4.611
 2369SOL     OW 8005   2.967   1.963   3.730
 2369SOL    HW1 8006   2.877   1.993   3.761
 2369SOL    HW2 8007   3.023   1.937   3.809
 2370SOL     OW 8008   4.478   2.827   0.784
 2370SOL    HW1 8009   4.500   2.759   0.715
 2370SOL    HW2 8010   4.545   2.824   0.858
 2371SOL     OW 8011   1.045   6.386   2.627
 2371SOL    HW1 8012   1.133   6.340   2.623
 2371SOL    HW2 8013   1.024   6.411   2.722
 2372SOL     OW 8014   0.036   0.661   6.963
 2372SOL    HW1 8015   0.029   0.606   0.023
 2372SOL    HW2 8016   0.042   0.601   6.884
 2373SOL     OW 8017   6.426   1.017   6.060
 2373SOL    HW1 8018   6.361   1.073   6.112
 2373SOL    HW2 8019   6.501   0.990   6.120
 2374SOL     OW 8020   5.783   6.303   3.044
 2374SOL    HW1 8021   5.713   6.293   3.114
 2374SOL    HW2 8022   5.743   6.344   2.962
 2375SOL     OW 8023   0.814   0.620   3.485
 2375SOL    HW1 8024   0.803   0.556   3.409
 2375SOL    HW2 8025   0.728   0.628   3.535
 2376SOL     OW 8026   6.421   2.504   3.440
 2376SOL    HW1 8027   6.403   2.587   3.492
 2376SOL    HW2 8028   6.479   2.526   3.361
 2377SOL     OW 8029   3.381   4.171   5.907
 2377SOL    HW1 8030   3.351   4.208   5.820
 2377SOL    HW2 8031   3.324   4.093   5.933
 2378SOL     OW 8032   5.500   2.132   6.980
 2378SOL    HW1 8033   5.513   2.035   6.997
 2378SOL    HW2 8034   5.445   2.145   6.897
 2379SOL     OW 8035   6.728   4.417   0.138
 2379SOL    HW1 8036   6.684   4.364   0.065
 2379SOL    HW2 8037   6.804   4.364   0.176
 2380SOL     OW 8038   6.331   1.670   5.072
 2380SOL    HW1 8039   6.326   1.571   5.057
 2380SOL    HW2 8040   6.239   1.706   5.087
 2381SOL     OW 8041   2.333   5.127   4.911
 2381SOL    HW1 8042   2.406   5.062   4.934
 2381SOL    HW2 8043   2.246   5.078   4.905
 2382SOL     OW 8044   1.924   6.180   2.823
 2382SOL    HW1 8045   1.846   6.129   2.859
 2382SOL    HW2 8046   2.009   6.130   2.843
 2383SOL     OW 8047   5.335   5.360   5.635
 2383SOL    HW1 8048   5.293   5.290   5.693
 2383SOL    HW2 8049   5.431   5.336   5.619
 2384SOL     OW 8050   1.251   2.353   1.117
 2384SOL    HW1 8051   1.164   2.344   1.068
 2384SOL    HW2 8052   1.299   2.265   1.116
 2385SOL     OW 8053   0.969   1.307   6.973
 2385SOL    HW1 8054   0.971   1.253   6.890
 2385SOL    HW2 8055   0.943   1.249   0.028
 2386SOL     OW 8056   3.334   5.013   4.733
 2386SOL    HW1 8057   3.379   4.993   4.646
 2386SOL    HW2 8058   3.238   5.035   4.716
 2387SOL     OW 8059   6.579   3.609   4.235
 2387SOL    HW1 8060   6.523   3.647   4.308
 2387SOL    HW2 8061   6.658   3.563   4.276
 2388SOL     OW 8062   0.027   1.248   5.643
 2388SOL    HW1 8063   0.060   1.268   5.735
 2388SOL    HW2 8064   0.090   1.286   5.575
 2389SOL     OW 8065   5.066   4.549   4.195
 2389SOL    HW1 8066   5.068   4.455   4.161
 2389SOL    HW2 8067   5.055   4.548   4.294
 2390SOL     OW 8068   3.575   3.723   5.057
 2390SOL    HW1 8069   3.658   3.768   5.088
 2390SOL    HW2 8070   3.503   3.735   5.127
 2391SOL     OW 8071   3.839   3.927   5.921
 2391SOL    HW1 8072   3.766   3.991   5.899
 2391SOL    HW2 8073   3.926   3.977   5.927
 2392SOL     OW 8074   3.202   4.253   6.510
 2392SOL    HW1 8075   3.239   4.288   6.424
 2392SOL    HW2 8076   3.207   4.153   6.509
 2393SOL     OW 8077   4.138   5.257   1.298
 2393SOL    HW1 8078   4.116   5.308   1.214
 2393SOL    HW2 8079   4.086   5.171   1.299
 2394SOL     OW 8080   0.438   4.052   4.066
 2394SOL    HW1 8081   0.455   4.016   4.157
 2394SOL    HW2 8082   0.411   3.978   4.005
 2395SOL     OW 8083   0.241   3.262   0.016
 2395SOL    HW1 8084   0.192   3.249   6.953
 2395SOL    HW2 8085   0.178   3.299   0.085
 2396SOL     OW 8086   5.263   0.339   0.674
 2396SOL    HW1 8087   5.324   0.325   0.752
 2396SOL    HW2 8088   5.251   0.437   0.657
 2397SOL     OW 8089   6.823   4.669   0.085
 2397SOL    HW1 8090   6.759   4.716   0.024
 2397SOL    HW2 8091   6.779   4.587   0.122
 2398SOL     OW 8092   2.729   5.082   4.669
 2398SOL    HW1 8093   2.693   5.134   4.592
 2398SOL    HW2 8094   2.800   5.135   4.715
 2399SOL     OW 8095   3.692   2.134   3.873
 2399SOL    HW1 8096   3.631   2.113   3.950
 2399SOL    HW2 8097   3.638   2.170   3.797
 2400SOL     OW 8098   1.701   3.344   0.373
 2400SOL    HW1 8099   1.710   3.275   0.445
 2400SOL    HW2 8100   1.790   3.386   0.355
 2401SOL     OW 8101   3.388   0.158   3.701
 2401SOL    HW1 8102   3.406   0.255   3.684
 2401SOL    HW2 8103   3.421   0.105   3.623
 2402SOL     OW 8104   6.937   1.670   3.593
 2402SOL    HW1 8105   6.930   1.761   3.634
 2402SOL    HW2 8106   6.846   1.639   3.566
 2403SOL     OW 8107   3.749   3.613   0.872
 2403SOL    HW1 8108   3.774   3.646   0.781
 2403SOL    HW2 8109   3.830   3.608   0.929
 2404SOL     OW 8110   5.801   2.009   1.131
 2404SOL    HW1 8111   5.813   1.965   1.220
 2404SOL    HW2 8112   5.872   1.977   1.069
 2405SOL     OW 8113   2.972   4.958   5.736
 2405SOL    HW1 8114   3.046   4.964   5.803
 2405SOL    HW2 8115   2.976   4.870   5.690
 2406SOL     OW 8116   2.726   0.060   3.750
 2406SOL    HW1 8117   2.688   0.121   3.680
 2406SOL    HW2 8118   2.695   6.989   3.733
 2407SOL     OW 8119   4.436   2.215   2.869
 2407SOL    HW1 8120   4.518   2.161   2.886
 2407SOL    HW2 8121   4.409   2.205   2.773
 2408SOL     OW 8122   2.482   5.289   2.733
 2408SOL    HW1 8123   2.528   5.294   2.644
 2408SOL    HW2 8124   2.542   5.326   2.804
 2409SOL     OW 8125   2.541   3.086   0.662
 2409SOL    HW1 8126   2.457   3.049   0.622
 2409SOL    HW2 8127   2.518   3.161   0.724
 2410SOL     OW 8128   6.033   3.065   5.663
 2410SOL    HW1 8129   6.003   3.014   5.582
 2410SOL    HW2 8130   6.080   3.149   5.635
 2411SOL     OW 8131   2.644   4.128   5.825
 2411SOL    HW1 8132   2.574   4.102   5.759
 2411SOL    HW2 8133   2.730   4.148   5.777
 2412SOL     OW 8134   2.481   2.760   0.756
 2412SOL    HW1 8135   2.556   2.799   0.809
 2412SOL    HW2 8136   2.435   2.832   0.704
 2413SOL     OW 8137   5.641   3.461   6.491
 2413SOL    HW1 8138   5.592   3.408   6.422
 2413SOL    HW2 8139   5.738   3.437   6.489
 2414SOL     OW 8140   5.742   2.916   3.747
 2414SOL    HW1 8141   5.646   2.942   3.753
 2414SOL    HW2 8142   5.794   2.992   3.707
 2415SOL     OW 8143   2.419   0.066   1.180
 2415SOL    HW1 8144   2.413   0.077   1.080
 2415SOL    HW2 8145   2.468   0.144   1.219
 2416SOL     OW 8146   1.124   2.904   3.845
 2416SOL    HW1 8147   1.045   2.846   3.825
 2416SOL    HW2 8148   1.141   2.904   3.943
 2417SOL     OW 8149   4.499   1.863   6.597
 2417SOL    HW1 8150   4.586   1.825   6.630
 2417SOL    HW2 8151   4.488   1.956   6.633
 2418SOL     OW 8152   3.722   3.790   4.776
 2418SOL    HW1 8153   3.707   3.725   4.702
 2418SOL    HW2 8154   3.777   3.746   4.848
 2419SOL     OW 8155   1.852   6.759   4.391
 2419SOL    HW1 8156   1.831   6.679   4.448
 2419SOL    HW2 8157   1.829   6.740   4.296
 2420SOL     OW 8158   3.375   5.712   1.984
 2420SOL    HW1 8159   3.358   5.732   1.887
 2420SOL    HW2 8160   3.334   5.624   2.008
 2421SOL     OW 8161   3.726   6.984   4.104
 2421SOL    HW1 8162   3.721   6.885   4.118
 2421SOL    HW2 8163   3.642   7.016   4.061
 2422SOL     OW 8164   3.841   0.213   1.191
 2422SOL    HW1 8165   3.869   0.137   1.249
 2422SOL    HW2 8166   3.851   0.187   1.095
 2423SOL     OW 8167   1.523   5.342   1.067
 2423SOL    HW1 8168   1.581   5.375   1.142
 2423SOL    HW2 8169   1.579   5.324   0.987
 2424SOL     OW 8170   5.737   6.299   6.935
 2424SOL    HW1 8171   5.681   6.327   6.857
 2424SOL    HW2 8172   5.775   6.381   6.979
 2425SOL     OW 8173   4.875   6.392   5.797
 2425SOL    HW1 8174   4.857   6.467   5.734
 2425SOL    HW2 8175   4.972   6.391   5.821
 2426SOL     OW 8176   1.351   5.020   3.926
 2426SOL    HW1 8177   1.397   5.080   3.860
 2426SOL    HW2 8178   1.343   5.068   4.014
 2427SOL     OW 8179   5.254   5.669   0.086
 2427SOL    HW1 8180   5.200   5.751   0.107
 2427SOL    HW2 8181   5.193   5.596   0.056
 2428SOL     OW 8182   0.313   0.608   2.736
 2428SOL    HW1 8183   0.326   0.678   2.806
 2428SOL    HW2 8184   0.380   0.535   2.750
 2429SOL     OW 8185   5.647   4.842   2.695
 2429SOL    HW1 8186   5.725   4.802   2.647
 2429SOL    HW2 8187   5.606   4.772   2.754
 2430SOL     OW 8188   5.321   2.315   0.036
 2430SOL    HW1 8189   5.395   2.252   0.013
 2430SOL    HW2 8190   5.238   2.264   0.054
 2431SOL     OW 8191   5.116   1.610   1.292
 2431SOL    HW1 8192   5.115   1.627   1.194
 2431SOL    HW2 8193   5.211   1.614   1.325
 2432SOL     OW 8194   3.203   6.482   1.428
 2432SOL    HW1 8195   3.260   6.401   1.441
 2432SOL    HW2 8196   3.124   6.477   1.490
 2433SOL     OW 8197   1.425   6.933   0.338
 2433SOL    HW1 8198   1.406   6.907   0.243
 2433SOL    HW2 8199   1.451   6.852   0.390
 2434SOL     OW 8200   5.668   1.888   2.650
 2434SOL    HW1 8201   5.698   1.903   2.743
 2434SOL    HW2 8202   5.681   1.792   2.625
 2435SOL     OW 8203   5.906   5.057   6.917
 2435SOL    HW1 8204   5.824   5.069   6.861
 2435SOL    HW2 8205   5.974   5.005   6.865
 2436SOL     OW 8206   1.693   0.835   1.391
 2436SOL    HW1 8207   1.695   0.905   1.319
 2436SOL    HW2 8208   1.775   0.843   1.447
 2437SOL     OW 8209   5.530   6.669   0.917
 2437SOL    HW1 8210   5.606   6.703   0.972
 2437SOL    HW2 8211   5.520   6.726   0.835
 2438SOL     OW 8212   3.958   1.582   4.200
 2438SOL    HW1 8213   4.052   1.597   4.167
 2438SOL    HW2 8214   3.921   1.500   4.158
 2439SOL     OW 8215   0.694   4.731   0.709
 2439SOL    HW1 8216   0.696   4.667   0.632
 2439SOL    HW2 8217   0.634   4.808   0.686
 2440SOL     OW 8218   3.777   7.000   6.183
 2440SOL    HW1 8219   3.827   0.043   6.239
 2440SOL    HW2 8220   3.790   6.908   6.219
 2441SOL     OW 8221   5.839   1.342   0.136
 2441SOL    HW1 8222   5.924   1.297   0.165
 2441SOL    HW2 8223   5.848   1.371   0.041
 2442SOL     OW 8224   5.276   5.134   2.945
 2442SOL    HW1 8225   5.333   5.207   2.983
 2442SOL    HW2 8226   5.196   5.120   3.004
 2443SOL     OW 8227   2.665   0.566   0.066
 2443SOL    HW1 8228   2.648   0.609   0.155
 2443SOL    HW2 8229   2.653   0.467   0.074
 2444SOL     OW 8230   3.972   4.733   0.438
 2444SOL    HW1 8231   3.948   4.746   0.534
 2444SOL    HW2 8232   3.891   4.705   0.386
 2445SOL     OW 8233   5.543   1.556   1.822
 2445SOL    HW1 8234   5.501   1.550   1.912
 2445SOL    HW2 8235   5.555   1.464   1.784
 2446SOL     OW 8236   0.899   2.795   3.907
 2446SOL    HW1 8237   0.818   2.737   3.900
 2446SOL    HW2 8238   0.954   2.767   3.986
 2447SOL     OW 8239   2.396   0.794   1.066
 2447SOL    HW1 8240   2.371   0.814   0.971
 2447SOL    HW2 8241   2.408   0.879   1.116
 2448SOL     OW 8242   6.279   1.128   4.167
 2448SOL    HW1 8243   6.247   1.213   4.126
 2448SOL    HW2 8244   6.379   1.130   4.174
 2449SOL     OW 8245   1.474   3.624   1.530
 2449SOL    HW1 8246   1.402   3.687   1.502
 2449SOL    HW2 8247   1.471   3.612   1.629
 2450SOL     OW 8248   3.027   5.185   6.316
 2450SOL    HW1 8249   2.976   5.148   6.238
 2450SOL    HW2 8250   3.122   5.153   6.312
 2451SOL     OW 8251   1.581   0.577   3.365
 2451SOL    HW1 8252   1.601   0.511   3.293
 2451SOL    HW2 8253   1.645   0.653   3.360
 2452SOL     OW 8254   2.900   1.817   4.137
 2452SOL    HW1 8255   2.948   1.823   4.224
 2452SOL    HW2 8256   2.910   1.903   4.087
 2453SOL     OW 8257   0.407   3.105   0.222
 2453SOL    HW1 8258   0.462   3.036   0.174
 2453SOL    HW2 8259   0.366   3.167   0.155
 2454SOL     OW 8260   2.764   6.897   0.197
 2454SOL    HW1 8261   2.713   6.976   0.162
 2454SOL    HW2 8262   2.800   6.844   0.120
 2455SOL     OW 8263   4.505   0.870   0.620
 2455SOL    HW1 8264   4.423   0.822   0.590
 2455SOL    HW2 8265   4.584   0.837   0.568
 2456SOL     OW 8266   0.300   2.669   6.631
 2456SOL    HW1 8267   0.230   2.740   6.638
 2456SOL    HW2 8268   0.386   2.703   6.669
 2457SOL     OW 8269   6.344   0.893   6.547
 2457SOL    HW1 8270   6.417   0.824   6.545
 2457SOL    HW2 8271   6.384   0.984   6.536
 2458SOL     OW 8272   1.851   6.409   3.919
 2458SOL    HW1 8273   1.913   6.351   3.867
 2458SOL    HW2 8274   1.894   6.498   3.936
 2459SOL     OW 8275   2.667   6.651   5.802
 2459SOL    HW1 8276   2.720   6.710   5.740
 2459SOL    HW2 8277   2.603   6.706   5.855
 2460SOL     OW 8278   1.515   1.342   0.853
 2460SOL    HW1 8279   1.439   1.287   0.818
 2460SOL    HW2 8280   1.489   1.439   0.850
 2461SOL     OW 8281   5.261   0.362   4.022
 2461SOL    HW1 8282   5.180   0.411   4.054
 2461SOL    HW2 8283   5.236   0.299   3.949
 2462SOL     OW 8284   1.935   4.804   6.608
 2462SOL    HW1 8285   1.914   4.888   6.658
 2462SOL    HW2 8286   1.872   4.732   6.635
 2463SOL     OW 8287   5.744   2.111   6.741
 2463SOL    HW1 8288   5.737   2.207   6.769
 2463SOL    HW2 8289   5.748   2.053   6.822
 2464SOL     OW 8290   2.178   3.288   2.823
 2464SOL    HW1 8291   2.181   3.318   2.918
 2464SOL    HW2 8292   2.213   3.194   2.816
 2465SOL     OW 8293   0.959   6.541   6.534
 2465SOL    HW1 8294   0.874   6.492   6.519
 2465SOL    HW2 8295   0.944   6.639   6.518
 2466SOL     OW 8296   2.368   1.791   2.687
 2466SOL    HW1 8297   2.463   1.817   2.703
 2466SOL    HW2 8298   2.325   1.764   2.773
 2467SOL     OW 8299   5.109   1.795   5.305
 2467SOL    HW1 8300   5.151   1.727   5.245
 2467SOL    HW2 8301   5.011   1.802   5.285
 2468SOL     OW 8302   4.245   0.145   1.002
 2468SOL    HW1 8303   4.203   0.066   0.957
 2468SOL    HW2 8304   4.178   0.219   1.007
 2469SOL     OW 8305   4.184   3.509   4.794
 2469SOL    HW1 8306   4.220   3.595   4.828
 2469SOL    HW2 8307   4.249   3.469   4.729
 2470SOL     OW 8308   4.040   4.320   5.964
 2470SOL    HW1 8309   4.107   4.393   5.957
 2470SOL    HW2 8310   4.085   4.231   5.952
 2471SOL     OW 8311   3.065   6.160   0.398
 2471SOL    HW1 8312   3.077   6.209   0.312
 2471SOL    HW2 8313   3.111   6.071   0.393
 2472SOL     OW 8314   5.011   1.986   3.433
 2472SOL    HW1 8315   5.036   1.968   3.528
 2472SOL    HW2 8316   4.930   2.045   3.431
 2473SOL     OW 8317   0.945   3.609   4.563
 2473SOL    HW1 8318   0.913   3.688   4.511
 2473SOL    HW2 8319   0.972   3.536   4.499
 2474SOL     OW 8320   0.341   5.672   1.713
 2474SOL    HW1 8321   0.421   5.677   1.772
 2474SOL    HW2 8322   0.258   5.662   1.769
 2475SOL     OW 8323   3.840   0.814   2.540
 2475SOL    HW1 8324   3.897   0.750   2.591
 2475SOL    HW2 8325   3.866   0.908   2.563
 2476SOL     OW 8326   6.094   1.354   2.694
 2476SOL    HW1 8327   6.097   1.306   2.606
 2476SOL    HW2 8328   6.156   1.310   2.759
 2477SOL     OW 8329   4.427   1.281   3.081
 2477SOL    HW1 8330   4.485   1.362   3.088
 2477SOL    HW2 8331   4.334   1.305   3.108
 2478SOL     OW 8332   6.128   1.494   1.433
 2478SOL    HW1 8333   6.084   1.462   1.516
 2478SOL    HW2 8334   6.185   1.573   1.453
 2479SOL     OW 8335   0.869   2.778   2.522
 2479SOL    HW1 8336   0.967   2.756   2.524
 2479SOL    HW2 8337   0.854   2.856   2.461
 2480SOL     OW 8338   4.997   4.079   0.801
 2480SOL    HW1 8339   5.011   4.173   0.830
 2480SOL    HW2 8340   4.949   4.029   0.873
 2481SOL     OW 8341   3.952   6.359   0.377
 2481SOL    HW1 8342   3.981   6.375   0.472
 2481SOL    HW2 8343   3.989   6.272   0.345
 2482SOL     OW 8344   5.464   3.753   5.435
 2482SOL    HW1 8345   5.563   3.745   5.443
 2482SOL    HW2 8346   5.436   3.736   5.340
 2483SOL     OW 8347   2.095   1.648   0.336
 2483SOL    HW1 8348   2.157   1.632   0.413
 2483SOL    HW2 8349   2.100   1.743   0.307
 2484SOL     OW 8350   4.026   0.541   6.987
 2484SOL    HW1 8351   4.057   0.452   6.955
 2484SOL    HW2 8352   4.018   0.541   0.064
 2485SOL     OW 8353   6.059   3.716   1.666
 2485SOL    HW1 8354   6.115   3.735   1.747
 2485SOL    HW2 8355   5.978   3.664   1.692
 2486SOL     OW 8356   2.120   4.773   5.137
 2486SOL    HW1 8357   2.207   4.776   5.088
 2486SOL    HW2 8358   2.090   4.678   5.148
 2487SOL     OW 8359   4.420   6.147   0.373
 2487SOL    HW1 8360   4.463   6.219   0.428
 2487SOL    HW2 8361   4.401   6.181   0.281
 2488SOL     OW 8362   1.476   4.383   2.165
 2488SOL    HW1 8363   1.444   4.466   2.211
 2488SOL    HW2 8364   1.535   4.331   2.227
 2489SOL     OW 8365   1.296   6.805   3.511
 2489SOL    HW1 8366   1.199   6.788   3.492
 2489SOL    HW2 8367   1.306   6.837   3.605
 2490SOL     OW 8368   6.903   5.402   1.330
 2490SOL    HW1 8369   6.830   5.381   1.264
 2490SOL    HW2 8370   6.990   5.410   1.282
 2491SOL     OW 8371   2.067   4.800   0.593
 2491SOL    HW1 8372   2.150   4.778   0.541
 2491SOL    HW2 8373   2.092   4.847   0.678
 2492SOL     OW 8374   4.908   3.148   1.050
 2492SOL    HW1 8375   4.818   3.155   1.008
 2492SOL    HW2 8376   4.974   3.115   0.982
 2493SOL     OW 8377   5.826   0.183   2.158
 2493SOL    HW1 8378   5.919   0.152   2.176
 2493SOL    HW2 8379   5.805   0.172   2.061
 2494SOL     OW 8380   5.284   4.660   2.873
 2494SOL    HW1 8381   5.293   4.647   2.972
 2494SOL    HW2 8382   5.194   4.627   2.843
 2495SOL     OW 8383   5.157   6.718   4.398
 2495SOL    HW1 8384   5.159   6.811   4.361
 2495SOL    HW2 8385   5.248   6.694   4.431
 2496SOL     OW 8386   6.983   2.668   5.912
 2496SOL    HW1 8387   0.025   2.712   5.851
 2496SOL    HW2 8388   6.895   2.658   5.867
 2497SOL     OW 8389   0.603   0.441   0.797
 2497SOL    HW1 8390   0.642   0.354   0.825
 2497SOL    HW2 8391   0.611   0.451   0.698
 2498SOL     OW 8392   3.027   1.834   4.401
 2498SOL    HW1 8393   3.098   1.776   4.441
 2498SOL    HW2 8394   2.947   1.834   4.461
 2499SOL     OW 8395   6.429   2.424   2.064
 2499SOL    HW1 8396   6.507   2.424   2.127
 2499SOL    HW2 8397   6.436   2.501   2.001
 2500SOL     OW 8398   4.713   3.710   6.514
 2500SOL    HW1 8399   4.632   3.765   6.494
 2500SOL    HW2 8400   4.726   3.706   6.614
 2501SOL     OW 8401   6.110   5.180   0.801
 2501SOL    HW1 8402   6.049   5.102   0.808
 2501SOL    HW2 8403   6.098   5.225   0.713
 2502SOL     OW 8404   1.054   6.691   3.329
 2502SOL    HW1 8405   0.986   6.654   3.265
 2502SOL    HW2 8406   1.026   6.670   3.423
 2503SOL     OW 8407   2.335   5.867   4.375
 2503SOL    HW1 8408   2.370   5.960   4.381
 2503SOL    HW2 8409   2.390   5.807   4.434
 2504SOL     OW 8410   3.592   5.322   4.423
 2504SOL    HW1 8411   3.607   5.284   4.514
 2504SOL    HW2 8412   3.677   5.365   4.391
 2505SOL     OW 8413   0.973   6.555   2.839
 2505SOL    HW1 8414   0.885   6.513   2.818
 2505SOL    HW2 8415   0.963   6.616   2.918
 2506SOL     OW 8416   5.627   4.157   5.895
 2506SOL    HW1 8417   5.547   4.160   5.955
 2506SOL    HW2 8418   5.687   4.082   5.923
 2507SOL     OW 8419   0.339   3.670   0.547
 2507SOL    HW1 8420   0.361   3.730   0.625
 2507SOL    HW2 8421   0.418   3.665   0.486
 2508SOL     OW 8422   2.149   1.436   3.366
 2508SOL    HW1 8423   2.193   1.500   3.430
 2508SOL    HW2 8424   2.130   1.350   3.414
 2509SOL     OW 8425   7.009   3.492   0.701
 2509SOL    HW1 8426   7.016   3.444   0.613
 2509SOL    HW2 8427   0.078   3.509   0.737
 2510SOL     OW 8428   2.635   4.513   1.487
 2510SOL    HW1 8429   2.719   4.550   1.448
 2510SOL    HW2 8430   2.634   4.530   1.586
 2511SOL     OW 8431   3.760   2.116   4.601
 2511SOL    HW1 8432   3.664   2.138   4.583
 2511SOL    HW2 8433   3.770   2.079   4.694
 2512SOL     OW 8434   5.170   3.886   5.043
 2512SOL    HW1 8435   5.149   3.825   4.966
 2512SOL    HW2 8436   5.102   3.873   5.115
 2513SOL     OW 8437   1.815   4.493   5.287
 2513SOL    HW1 8438   1.903   4.457   5.256
 2513SOL    HW2 8439   1.741   4.436   5.252
 2514SOL     OW 8440   6.762   3.075   5.040
 2514SOL    HW1 8441   6.691   3.127   5.088
 2514SOL    HW2 8442   6.725   2.988   5.008
 2515SOL     OW 8443   1.785   6.770   0.558
 2515SOL    HW1 8444   1.855   6.838   0.539
 2515SOL    HW2 8445   1.728   6.801   0.633
 2516SOL     OW 8446   5.983   1.513   2.406
 2516SOL    HW1 8447   6.048   1.437   2.408
 2516SOL    HW2 8448   6.017   1.584   2.344
 2517SOL     OW 8449   1.272   6.292   5.767
 2517SOL    HW1 8450   1.358   6.297   5.817
 2517SOL    HW2 8451   1.256   6.198   5.739
 2518SOL     OW 8452   0.968   4.469   6.851
 2518SOL    HW1 8453   0.888   4.479   6.793
 2518SOL    HW2 8454   1.036   4.413   6.804
 2519SOL     OW 8455   3.898   6.728   3.321
 2519SOL    HW1 8456   3.981   6.682   3.288
 2519SOL    HW2 8457   3.908   6.750   3.418
 2520SOL     OW 8458   2.926   2.084   0.655
 2520SOL    HW1 8459   2.943   2.139   0.737
 2520SOL    HW2 8460   2.913   1.988   0.681
 2521SOL     OW 8461   1.746   1.194   5.389
 2521SOL    HW1 8462   1.742   1.242   5.477
 2521SOL    HW2 8463   1.717   1.255   5.316
 2522SOL     OW 8464   0.275   3.662   4.840
 2522SOL    HW1 8465   0.289   3.680   4.937
 2522SOL    HW2 8466   0.363   3.650   4.795
 2523SOL     OW 8467   0.179   3.169   1.292
 2523SOL    HW1 8468   0.089   3.138   1.321
 2523SOL    HW2 8469   0.241   3.091   1.287
 2524SOL     OW 8470   1.363   6.240   4.888
 2524SOL    HW1 8471   1.290   6.281   4.942
 2524SOL    HW2 8472   1.346   6.255   4.791
 2525SOL     OW 8473   0.798   2.484   5.685
 2525SOL    HW1 8474   0.759   2.469   5.594
 2525SOL    HW2 8475   0.857   2.407   5.710
 2526SOL     OW 8476   1.235   4.637   6.420
 2526SOL    HW1 8477   1.318   4.630   6.475
 2526SOL    HW2 8478   1.200   4.546   6.400
 2527SOL     OW 8479   5.091   5.813   4.736
 2527SOL    HW1 8480   5.000   5.839   4.768
 2527SOL    HW2 8481   5.160   5.862   4.790
 2528SOL     OW 8482   5.909   4.711   0.722
 2528SOL    HW1 8483   6.005   4.728   0.701
 2528SOL    HW2 8484   5.854   4.721   0.639
 2529SOL     OW 8485   6.401   6.581   6.545
 2529SOL    HW1 8486   6.475   6.542   6.491
 2529SOL    HW2 8487   6.414   6.680   6.552
 2530SOL     OW 8488   2.607   6.632   5.398
 2530SOL    HW1 8489   2.508   6.626   5.407
 2530SOL    HW2 8490   2.632   6.661   5.306
 2531SOL     OW 8491   5.201   5.964   4.254
 2531SOL    HW1 8492   5.295   5.997   4.251
 2531SOL    HW2 8493   5.149   6.015   4.321
 2532SOL     OW 8494   0.760   6.398   0.773
 2532SOL    HW1 8495   0.837   6.459   0.755
 2532SOL    HW2 8496   0.751   6.332   0.698
 2533SOL     OW 8497   3.332   6.476   3.846
 2533SOL    HW1 8498   3.283   6.503   3.763
 2533SOL    HW2 8499   3.328   6.376   3.856
 2534SOL     OW 8500   3.700   0.699   3.365
 2534SOL    HW1 8501   3.661   0.760   3.434
 2534SOL    HW2 8502   3.797   0.721   3.353
 2535SOL     OW 8503   3.554   2.009   5.236
 2535SOL    HW1 8504   3.544   2.003   5.137
 2535SOL    HW2 8505   3.518   2.097   5.267
 2536SOL     OW 8506   1.155   2.074   5.039
 2536SOL    HW1 8507   1.151   2.100   4.943
 2536SOL    HW2 8508   1.079   2.117   5.089
 2537SOL     OW 8509   4.139   0.307   6.707
 2537SOL    HW1 8510   4.181   0.319   6.797
 2537SOL    HW2 8511   4.056   0.252   6.717
 2538SOL     OW 8512   1.373   4.589   3.720
 2538SOL    HW1 8513   1.464   4.625   3.740
 2538SOL    HW2 8514   1.350   4.519   3.787
 2539SOL     OW 8515   5.301   1.583   5.471
 2539SOL    HW1 8516   5.287   1.509   5.404
 2539SOL    HW2 8517   5.222   1.588   5.532
 2540SOL     OW 8518   4.555   1.408   2.707
 2540SOL    HW1 8519   4.529   1.341   2.637
 2540SOL    HW2 8520   4.474   1.460   2.735
 2541SOL     OW 8521   2.678   7.008   5.273
 2541SOL    HW1 8522   2.719   6.959   5.195
 2541SOL    HW2 8523   2.580   6.988   5.276
 2542SOL     OW 8524   3.735   1.449   6.120
 2542SOL    HW1 8525   3.706   1.543   6.105
 2542SOL    HW2 8526   3.672   1.404   6.183
 2543SOL     OW 8527   1.404   1.446   3.192
 2543SOL    HW1 8528   1.313   1.488   3.200
 2543SOL    HW2 8529   1.400   1.371   3.126
 2544SOL     OW 8530   0.688   6.102   1.494
 2544SOL    HW1 8531   0.599   6.148   1.490
 2544SOL    HW2 8532   0.696   6.039   1.417
 2545SOL     OW 8533   1.075   0.141   1.397
 2545SOL    HW1 8534   0.975   0.139   1.396
 2545SOL    HW2 8535   1.108   0.101   1.482
 2546SOL     OW 8536   0.187   1.464   1.373
 2546SOL    HW1 8537   0.225   1.375   1.399
 2546SOL    HW2 8538   0.178   1.521   1.455
 2547SOL     OW 8539   6.201   5.498   0.510
 2547SOL    HW1 8540   6.104   5.475   0.497
 2547SOL    HW2 8541   6.210   5.563   0.585
 2548SOL     OW 8542   1.988   6.572   6.025
 2548SOL    HW1 8543   1.998   6.615   6.115
 2548SOL    HW2 8544   1.922   6.497   6.032
 2549SOL     OW 8545   2.338   0.977   0.798
 2549SOL    HW1 8546   2.248   0.997   0.835
 2549SOL    HW2 8547   2.329   0.946   0.704
 2550SOL     OW 8548   0.196   6.963   6.294
 2550SOL    HW1 8549   0.289   6.939   6.266
 2550SOL    HW2 8550   0.145   6.996   6.214
 2551SOL     OW 8551   3.313   5.305   0.519
 2551SOL    HW1 8552   3.217   5.281   0.535
 2551SOL    HW2 8553   3.371   5.225   0.537
 2552SOL     OW 8554   2.247   5.637   5.536
 2552SOL    HW1 8555   2.240   5.644   5.636
 2552SOL    HW2 8556   2.319   5.572   5.512
 2553SOL     OW 8557   4.932   2.770   5.235
 2553SOL    HW1 8558   4.987   2.786   5.153
 2553SOL    HW2 8559   4.979   2.808   5.315
 2554SOL     OW 8560   2.220   6.472   0.625
 2554SOL    HW1 8561   2.191   6.547   0.684
 2554SOL    HW2 8562   2.139   6.425   0.588
 2555SOL     OW 8563   6.029   7.003   5.777
 2555SOL    HW1 8564   5.988   6.918   5.811
 2555SOL    HW2 8565   5.995   0.057   5.830
 2556SOL     OW 8566   4.550   5.756   0.803
 2556SOL    HW1 8567   4.461   5.798   0.817
 2556SOL    HW2 8568   4.541   5.657   0.808
 2557SOL     OW 8569   2.664   3.588   6.835
 2557SOL    HW1 8570   2.750   3.549   6.867
 2557SOL    HW2 8571   2.602   3.515   6.808
 2558SOL     OW 8572   5.089   2.056   5.177
 2558SOL    HW1 8573   5.037   1.970   5.180
 2558SOL    HW2 8574   5.029   2.130   5.148
 2559SOL     OW 8575   6.679   3.974   4.284
 2559SOL    HW1 8576   6.726   3.944   4.201
 2559SOL    HW2 8577   6.607   4.039   4.260
 2560SOL     OW 8578   5.867   3.363   4.541
 2560SOL    HW1 8579   5.931   3.416   4.597
 2560SOL    HW2 8580   5.857   3.407   4.452
 2561SOL     OW 8581   3.597   6.045   4.972
 2561SOL    HW1 8582   3.552   6.132   4.992
 2561SOL    HW2 8583   3.636   6.007   5.056
 2562SOL     OW 8584   1.346   5.251   2.262
 2562SOL    HW1 8585   1.364   5.255   2.360
 2562SOL    HW2 8586   1.293   5.331   2.234
 2563SOL     OW 8587   4.421   2.454   0.198
 2563SOL    HW1 8588   4.417   2.381   0.266
 2563SOL    HW2 8589   4.356   2.435   0.124
 2564SOL     OW 8590   2.173   6.220   5.982
 2564SOL    HW1 8591   2.089   6.164   5.981
 2564SOL    HW2 8592   2.246   6.171   5.934
 2565SOL     OW 8593   0.834   0.452   6.687
 2565SOL    HW1 8594   0.746   0.499   6.691
 2565SOL    HW2 8595   0.837   0.391   6.608
 2566SOL     OW 8596   2.606   6.968   0.598
 2566SOL    HW1 8597   2.625   6.997   0.692
 2566SOL    HW2 8598   2.576   0.023   0.544
 2567SOL     OW 8599   0.561   1.001   1.463
 2567SOL    HW1 8600   0.590   0.910   1.432
 2567SOL    HW2 8601   0.576   1.067   1.389
 2568SOL     OW 8602   4.167   0.071   0.385
 2568SOL    HW1 8603   4.244   0.007   0.390
 2568SOL    HW2 8604   4.118   0.071   0.473
 2569SOL     OW 8605   3.189   1.479   1.667
 2569SOL    HW1 8606   3.200   1.427   1.582
 2569SOL    HW2 8607   3.280   1.497   1.706
 2570SOL     OW 8608   5.511   0.345   6.534
 2570SOL    HW1 8609   5.558   0.263   6.501
 2570SOL    HW2 8610   5.471   0.394   6.457
 2571SOL     OW 8611   2.278   4.335   5.242
 2571SOL    HW1 8612   2.363   4.300   5.280
 2571SOL    HW2 8613   2.224   4.259   5.206
 2572SOL     OW 8614   2.054   4.932   0.308
 2572SOL    HW1 8615   2.019   4.874   0.234
 2572SOL    HW2 8616   2.020   4.897   0.395
 2573SOL     OW 8617   6.480   2.653   1.909
 2573SOL    HW1 8618   6.548   2.686   1.975
 2573SOL    HW2 8619   6.519   2.656   1.817
 2574SOL     OW 8620   6.671   3.881   0.174
 2574SOL    HW1 8621   6.604   3.827   0.124
 2574SOL    HW2 8622   6.698   3.833   0.257
 2575SOL     OW 8623   5.510   5.341   0.862
 2575SOL    HW1 8624   5.599   5.354   0.819
 2575SOL    HW2 8625   5.502   5.246   0.895
 2576SOL     OW 8626   3.659   6.817   4.469
 2576SOL    HW1 8627   3.641   6.788   4.375
 2576SOL    HW2 8628   3.597   6.768   4.531
 2577SOL     OW 8629   3.638   6.806   1.878
 2577SOL    HW1 8630   3.676   6.886   1.831
 2577SOL    HW2 8631   3.554   6.777   1.832
 2578SOL     OW 8632   4.853   1.168   4.135
 2578SOL    HW1 8633   4.909   1.230   4.190
 2578SOL    HW2 8634   4.910   1.095   4.099
 2579SOL     OW 8635   1.641   6.080   3.352
 2579SOL    HW1 8636   1.670   5.989   3.321
 2579SOL    HW2 8637   1.571   6.116   3.290
 2580SOL     OW 8638   2.932   3.531   6.584
 2580SOL    HW1 8639   2.986   3.551   6.502
 2580SOL    HW2 8640   2.874   3.610   6.606
 2581SOL     OW 8641   0.756   4.993   1.269
 2581SOL    HW1 8642   0.834   5.049   1.296
 2581SOL    HW2 8643   0.758   4.907   1.320
 2582SOL     OW 8644   0.495   4.732   2.484
 2582SOL    HW1 8645   0.569   4.685   2.437
 2582SOL    HW2 8646   0.525   4.761   2.575
 2583SOL     OW 8647   0.595   1.155   0.493
 2583SOL    HW1 8648   0.506   1.184   0.459
 2583SOL    HW2 8649   0.667   1.210   0.451
 2584SOL     OW 8650   4.277   5.575   6.652
 2584SOL    HW1 8651   4.356   5.625   6.686
 2584SOL    HW2 8652   4.223   5.634   6.592
 2585SOL     OW 8653   4.441   2.732   6.938
 2585SOL    HW1 8654   4.475   2.642   6.911
 2585SOL    HW2 8655   4.357   2.722   6.992
 2586SOL     OW 8656   3.663   1.339   3.362
 2586SOL    HW1 8657   3.625   1.371   3.275
 2586SOL    HW2 8658   3.682   1.241   3.355
 2587SOL     OW 8659   0.362   0.829   3.421
 2587SOL    HW1 8660   0.372   0.743   3.472
 2587SOL    HW2 8661   0.277   0.828   3.369
 2588SOL     OW 8662   4.331   0.990   6.630
 2588SOL    HW1 8663   4.339   1.089   6.638
 2588SOL    HW2 8664   4.416   0.948   6.660
 2589SOL     OW 8665   0.872   6.159   6.164
 2589SOL    HW1 8666   0.916   6.220   6.098
 2589SOL    HW2 8667   0.821   6.088   6.116
 2590SOL     OW 8668   3.320   5.983   1.010
 2590SOL    HW1 8669   3.222   5.965   1.022
 2590SOL    HW2 8670   3.359   5.915   0.948
 2591SOL     OW 8671   0.075   4.661   3.034
 2591SOL    HW1 8672   0.078   4.634   2.937
 2591SOL    HW2 8673   0.084   4.760   3.041
 2592SOL     OW 8674   3.833   5.752   0.175
 2592SOL    HW1 8675   3.798   5.659   0.190
 2592SOL    HW2 8676   3.859   5.762   0.079
 2593SOL     OW 8677   3.689   5.347   1.186
 2593SOL    HW1 8678   3.632   5.369   1.106
 2593SOL    HW2 8679   3.647   5.272   1.237
 2594SOL     OW 8680   1.944   4.433   6.374
 2594SOL    HW1 8681   2.005   4.436   6.453
 2594SOL    HW2 8682   1.994   4.396   6.295
 2595SOL     OW 8683   6.528   1.450   3.991
 2595SOL    HW1 8684   6.474   1.386   3.935
 2595SOL    HW2 8685   6.467   1.495   4.057
 2596SOL     OW 8686   3.012   1.689   1.649
 2596SOL    HW1 8687   3.069   1.608   1.642
 2596SOL    HW2 8688   3.057   1.758   1.706
 2597SOL     OW 8689   1.364   4.961   6.072
 2597SOL    HW1 8690   1.323   4.873   6.096
 2597SOL    HW2 8691   1.319   5.034   6.124
 2598SOL     OW 8692   6.999   1.235   3.485
 2598SOL    HW1 8693   6.976   1.316   3.430
 2598SOL    HW2 8694   6.965   1.248   3.578
 2599SOL     OW 8695   2.069   6.189   1.086
 2599SOL    HW1 8696   2.058   6.289   1.093
 2599SOL    HW2 8697   1.999   6.152   1.025
 2600SOL     OW 8698   5.311   3.025   4.844
 2600SOL    HW1 8699   5.231   2.969   4.866
 2600SOL    HW2 8700   5.283   3.100   4.784
 2601SOL     OW 8701   2.176   1.368   2.154
 2601SOL    HW1 8702   2.089   1.404   2.189
 2601SOL    HW2 8703   2.252   1.415   2.198
 2602SOL     OW 8704   1.312   4.886   4.851
 2602SOL    HW1 8705   1.372   4.807   4.838
 2602SOL    HW2 8706   1.363   4.958   4.898
 2603SOL     OW 8707   3.092   0.949   4.310
 2603SOL    HW1 8708   3.022   0.880   4.288
 2603SOL    HW2 8709   3.153   0.913   4.381
 2604SOL     OW 8710   4.926   1.877   2.512
 2604SOL    HW1 8711   4.988   1.940   2.559
 2604SOL    HW2 8712   4.888   1.811   2.577
 2605SOL     OW 8713   2.065   3.424   3.898
 2605SOL    HW1 8714   2.146   3.365   3.901
 2605SOL    HW2 8715   2.057   3.465   3.807
 2606SOL     OW 8716   5.312   4.539   1.776
 2606SOL    HW1 8717   5.362   4.529   1.862
 2606SOL    HW2 8718   5.222   4.579   1.793
 2607SOL     OW 8719   1.327   1.511   1.827
 2607SOL    HW1 8720   1.278   1.562   1.899
 2607SOL    HW2 8721   1.261   1.478   1.760
 2608SOL     OW 8722   4.927   4.904   0.203
 2608SOL    HW1 8723   5.019   4.939   0.221
 2608SOL    HW2 8724   4.867   4.980   0.177
 2609SOL     OW 8725   6.241   1.256   1.480
 2609SOL    HW1 8726   6.164   1.195   1.462
 2609SOL    HW2 8727   6.212   1.351   1.465
 2610SOL     OW 8728   1.290   4.470   4.349
 2610SOL    HW1 8729   1.270   4.536   4.277
 2610SOL    HW2 8730   1.212   4.464   4.412
 2611SOL     OW 8731   4.198   6.572   1.126
 2611SOL    HW1 8732   4.251   6.520   1.193
 2611SOL    HW2 8733   4.244   6.571   1.038
 2612SOL     OW 8734   6.422   7.003   4.701
 2612SOL    HW1 8735   6.414   0.079   4.694
 2612SOL    HW2 8736   6.337   6.960   4.669
 2613SOL     OW 8737   2.777   5.578   6.360
 2613SOL    HW1 8738   2.789   5.497   6.418
 2613SOL    HW2 8739   2.763   5.659   6.417
 2614SOL     OW 8740   6.152   1.816   6.607
 2614SOL    HW1 8741   6.195   1.818   6.698
 2614SOL    HW2 8742   6.057   1.787   6.616
 2615SOL     OW 8743   0.737   3.136   2.290
 2615SOL    HW1 8744   0.810   3.111   2.353
 2615SOL    HW2 8745   0.729   3.236   2.286
 2616SOL     OW 8746   2.796   2.745   5.701
 2616SOL    HW1 8747   2.700   2.715   5.707
 2616SOL    HW2 8748   2.842   2.694   5.628
 2617SOL     OW 8749   4.150   6.902   0.789
 2617SOL    HW1 8750   4.098   6.945   0.716
 2617SOL    HW2 8751   4.237   6.869   0.753
 2618SOL     OW 8752   6.625   0.246   3.109
 2618SOL    HW1 8753   6.572   0.275   3.029
 2618SOL    HW2 8754   6.681   0.322   3.141
 2619SOL     OW 8755   4.581   2.045   2.421
 2619SOL    HW1 8756   4.485   2.068   2.434
 2619SOL    HW2 8757   4.614   2.086   2.337
 2620SOL     OW 8758   6.339   6.558   3.640
 2620SOL    HW1 8759   6.344   6.636   3.578
 2620SOL    HW2 8760   6.429   6.515   3.646
 2621SOL     OW 8761   1.011   4.782   1.815
 2621SOL    HW1 8762   1.096   4.804   1.768
 2621SOL    HW2 8763   1.001   4.683   1.822
 2622SOL     OW 8764   1.207   3.689   5.720
 2622SOL    HW1 8765   1.155   3.725   5.642
 2622SOL    HW2 8766   1.249   3.765   5.769
 2623SOL     OW 8767   0.169   0.865   5.194
 2623SOL    HW1 8768   0.150   0.921   5.274
 2623SOL    HW2 8769   0.112   0.782   5.197
 2624SOL     OW 8770   0.142   1.067   4.518
 2624SOL    HW1 8771   0.082   1.146   4.506
 2624SOL    HW2 8772   0.236   1.092   4.493
 2625SOL     OW 8773   2.490   3.811   5.371
 2625SOL    HW1 8774   2.582   3.773   5.366
 2625SOL    HW2 8775   2.482   3.886   5.305
 2626SOL     OW 8776   0.037   0.444   6.061
 2626SOL    HW1 8777   6.970   0.481   6.081
 2626SOL    HW2 8778   0.107   0.513   6.083
 2627SOL     OW 8779   1.032   1.439   6.093
 2627SOL    HW1 8780   0.959   1.371   6.094
 2627SOL    HW2 8781   1.027   1.492   6.009
 2628SOL     OW 8782   2.249   3.813   5.654
 2628SOL    HW1 8783   2.164   3.769   5.683
 2628SOL    HW2 8784   2.239   3.849   5.561
 2629SOL     OW 8785   3.890   3.136   2.360
 2629SOL    HW1 8786   3.917   3.104   2.269
 2629SOL    HW2 8787   3.970   3.175   2.406
 2630SOL     OW 8788   3.144   1.881   2.849
 2630SOL    HW1 8789   3.168   1.978   2.848
 2630SOL    HW2 8790   3.045   1.871   2.862
 2631SOL     OW 8791   5.519   0.783   6.104
 2631SOL    HW1 8792   5.421   0.774   6.122
 2631SOL    HW2 8793   5.534   0.858   6.039
 2632SOL     OW 8794   5.254   3.101   0.373
 2632SOL    HW1 8795   5.245   3.200   0.365
 2632SOL    HW2 8796   5.279   3.062   0.284
 2633SOL     OW 8797   0.628   1.672   4.558
 2633SOL    HW1 8798   0.603   1.579   4.534
 2633SOL    HW2 8799   0.604   1.734   4.482
 2634SOL     OW 8800   0.784   5.067   4.106
 2634SOL    HW1 8801   0.739   5.012   4.035
 2634SOL    HW2 8802   0.754   5.162   4.098
 2635SOL     OW 8803   0.192   6.238   4.876
 2635SOL    HW1 8804   0.280   6.201   4.846
 2635SOL    HW2 8805   0.206   6.330   4.911
 2636SOL     OW 8806   4.232   0.241   5.418
 2636SOL    HW1 8807   4.260   0.329   5.380
 2636SOL    HW2 8808   4.156   0.255   5.481
 2637SOL     OW 8809   6.092   1.992   3.421
 2637SOL    HW1 8810   6.124   2.084   3.442
 2637SOL    HW2 8811   6.000   1.996   3.381
 2638SOL     OW 8812   7.012   0.043   4.153
 2638SOL    HW1 8813   0.004   0.034   4.251
 2638SOL    HW2 8814   0.062   7.019   4.103
 2639SOL     OW 8815   0.751   5.897   0.585
 2639SOL    HW1 8816   0.810   5.877   0.507
 2639SOL    HW2 8817   0.795   5.966   0.643
 2640SOL     OW 8818   6.661   6.437   5.292
 2640SOL    HW1 8819   6.738   6.396   5.242
 2640SOL    HW2 8820   6.692   6.468   5.381
 2641SOL     OW 8821   6.012   3.044   2.302
 2641SOL    HW1 8822   5.942   3.070   2.367
 2641SOL    HW2 8823   6.006   3.101   2.220
 2642SOL     OW 8824   5.714   0.740   3.887
 2642SOL    HW1 8825   5.659   0.657   3.891
 2642SOL    HW2 8826   5.654   0.820   3.889
 2643SOL     OW 8827   1.182   3.655   3.143
 2643SOL    HW1 8828   1.277   3.680   3.159
 2643SOL    HW2 8829   1.149   3.698   3.059
 2644SOL     OW 8830   4.907   5.492   4.761
 2644SOL    HW1 8831   4.872   5.545   4.838
 2644SOL    HW2 8832   4.835   5.479   4.693
 2645SOL     OW 8833   4.051   5.766   3.472
 2645SOL    HW1 8834   4.125   5.705   3.502
 2645SOL    HW2 8835   3.984   5.713   3.421
 2646SOL     OW 8836   6.216   1.767   6.906
 2646SOL    HW1 8837   6.241   1.845   6.963
 2646SOL    HW2 8838   6.142   1.715   6.950
 2647SOL     OW 8839   6.008   0.027   1.374
 2647SOL    HW1 8840   6.007   7.019   1.470
 2647SOL    HW2 8841   5.930   0.088   1.358
 2648SOL     OW 8842   0.990   6.709   3.603
 2648SOL    HW1 8843   0.892   6.726   3.614
 2648SOL    HW2 8844   1.037   6.727   3.690
 2649SOL     OW 8845   6.983   3.287   0.881
 2649SOL    HW1 8846   6.893   3.254   0.855
 2649SOL    HW2 8847   7.007   3.367   0.826
 2650SOL     OW 8848   1.920   4.732   3.585
 2650SOL    HW1 8849   1.876   4.751   3.673
 2650SOL    HW2 8850   1.935   4.818   3.537
 2651SOL     OW 8851   2.469   1.775   1.314
 2651SOL    HW1 8852   2.375   1.740   1.304
 2651SOL    HW2 8853   2.467   1.860   1.365
 2652SOL     OW 8854   4.260   3.215   5.235
 2652SOL    HW1 8855   4.171   3.192   5.195
 2652SOL    HW2 8856   4.272   3.314   5.235
 2653SOL     OW 8857   4.726   6.934   6.015
 2653SOL    HW1 8858   4.705   6.876   6.093
 2653SOL    HW2 8859   4.696   0.005   6.034
 2654SOL     OW 8860   4.211   0.182   1.382
 2654SOL    HW1 8861   4.176   0.180   1.288
 2654SOL    HW2 8862   4.138   0.208   1.445
 2655SOL     OW 8863   5.516   6.158   3.731
 2655SOL    HW1 8864   5.508   6.182   3.828
 2655SOL    HW2 8865   5.604   6.191   3.696
 2656SOL     OW 8866   3.476   5.011   4.487
 2656SOL    HW1 8867   3.427   4.952   4.423
 2656SOL    HW2 8868   3.482   5.104   4.450
 2657SOL     OW 8869   1.199   4.340   6.738
 2657SOL    HW1 8870   1.186   4.252   6.693
 2657SOL    HW2 8871   1.239   4.405   6.673
 2658SOL     OW 8872   5.505   4.872   0.437
 2658SOL    HW1 8873   5.572   4.945   0.433
 2658SOL    HW2 8874   5.414   4.911   0.452
 2659SOL     OW 8875   4.687   2.923   5.119
 2659SOL    HW1 8876   4.712   2.874   5.036
 2659SOL    HW2 8877   4.768   2.968   5.157
 2660SOL     OW 8878   1.657   6.999   1.777
 2660SOL    HW1 8879   1.680   0.043   1.707
 2660SOL    HW2 8880   1.597   0.018   1.845
 2661SOL     OW 8881   2.010   6.630   1.387
 2661SOL    HW1 8882   2.016   6.640   1.486
 2661SOL    HW2 8883   1.917   6.648   1.356
 2662SOL     OW 8884   3.325   6.615   5.507
 2662SOL    HW1 8885   3.359   6.540   5.451
 2662SOL    HW2 8886   3.378   6.620   5.592
 2663SOL     OW 8887   3.695   4.520   6.758
 2663SOL    HW1 8888   3.690   4.451   6.831
 2663SOL    HW2 8889   3.745   4.483   6.680
 2664SOL     OW 8890   4.489   3.351   5.840
 2664SOL    HW1 8891   4.432   3.425   5.875
 2664SOL    HW2 8892   4.515   3.370   5.746
 2665SOL     OW 8893   3.028   3.138   5.092
 2665SOL    HW1 8894   3.072   3.053   5.122
 2665SOL    HW2 8895   2.956   3.163   5.156
 2666SOL     OW 8896   0.743   4.721   1.660
 2666SOL    HW1 8897   0.746   4.716   1.760
 2666SOL    HW2 8898   0.664   4.670   1.626
 2667SOL     OW 8899   1.352   5.693   3.825
 2667SOL    HW1 8900   1.444   5.686   3.788
 2667SOL    HW2 8901   1.301   5.762   3.774
 2668SOL     OW 8902   0.221   3.032   5.011
 2668SOL    HW1 8903   0.127   3.066   4.999
 2668SOL    HW2 8904   0.274   3.050   4.928
 2669SOL     OW 8905   3.063   5.407   6.020
 2669SOL    HW1 8906   3.070   5.431   5.923
 2669SOL    HW2 8907   3.079   5.489   6.076
 2670SOL     OW 8908   5.925   3.842   5.001
 2670SOL    HW1 8909   5.995   3.771   5.012
 2670SOL    HW2 8910   5.948   3.920   5.060
 2671SOL     OW 8911   4.206   5.420   0.384
 2671SOL    HW1 8912   4.298   5.388   0.363
 2671SOL    HW2 8913   4.149   5.411   0.302
 2672SOL     OW 8914   2.764   5.469   1.321
 2672SOL    HW1 8915   2.665   5.462   1.329
 2672SOL    HW2 8916   2.807   5.410   1.391
 2673SOL     OW 8917   6.409   2.102   1.455
 2673SOL    HW1 8918   6.477   2.052   1.402
 2673SOL    HW2 8919   6.414   2.199   1.433
 2674SOL     OW 8920   1.510   4.571   4.120
 2674SOL    HW1 8921   1.527   4.506   4.046
 2674SOL    HW2 8922   1.411   4.582   4.132
 2675SOL     OW 8923   6.600   5.679   3.872
 2675SOL    HW1 8924   6.620   5.743   3.946
 2675SOL    HW2 8925   6.671   5.609   3.869
 2676SOL     OW 8926   2.887   3.358   1.399
 2676SOL    HW1 8927   2.937   3.433   1.442
 2676SOL    HW2 8928   2.867   3.288   1.468
 2677SOL     OW 8929   3.088   4.269   0.057
 2677SOL    HW1 8930   3.137   4.336   0.001
 2677SOL    HW2 8931   3.000   4.307   0.085
 2678SOL     OW 8932   0.290   2.104   2.457
 2678SOL    HW1 8933   0.357   2.110   2.531
 2678SOL    HW2 8934   0.207   2.155   2.482
 2679SOL     OW 8935   2.051   5.115   2.083
 2679SOL    HW1 8936   2.126   5.172   2.118
 2679SOL    HW2 8937   1.968   5.135   2.135
 2680SOL     OW 8938   1.428   1.860   1.164
 2680SOL    HW1 8939   1.429   1.767   1.126
 2680SOL    HW2 8940   1.502   1.868   1.231
 2681SOL     OW 8941   1.303   2.282   5.079
 2681SOL    HW1 8942   1.245   2.201   5.091
 2681SOL    HW2 8943   1.304   2.309   4.983
 2682SOL     OW 8944   4.683   4.593   3.809
 2682SOL    HW1 8945   4.765   4.556   3.851
 2682SOL    HW2 8946   4.603   4.543   3.843
 2683SOL     OW 8947   2.604   4.611   2.202
 2683SOL    HW1 8948   2.694   4.625   2.160
 2683SOL    HW2 8949   2.572   4.697   2.242
 2684SOL     OW 8950   4.435   6.721   2.027
 2684SOL    HW1 8951   4.344   6.683   2.047
 2684SOL    HW2 8952   4.429   6.780   1.947
 2685SOL     OW 8953   6.008   5.805   6.136
 2685SOL    HW1 8954   6.030   5.712   6.168
 2685SOL    HW2 8955   6.000   5.804   6.036
 2686SOL     OW 8956   1.800   1.908   5.935
 2686SOL    HW1 8957   1.818   1.896   6.033
 2686SOL    HW2 8958   1.707   1.877   5.914
 2687SOL     OW 8959   4.940   5.599   1.188
 2687SOL    HW1 8960   4.952   5.602   1.088
 2687SOL    HW2 8961   4.842   5.604   1.209
 2688SOL     OW 8962   2.744   2.704   0.148
 2688SOL    HW1 8963   2.750   2.793   0.103
 2688SOL    HW2 8964   2.764   2.715   0.245
 2689SOL     OW 8965   0.525   3.671   2.114
 2689SOL    HW1 8966   0.447   3.733   2.112
 2689SOL    HW2 8967   0.517   3.606   2.039
 2690SOL     OW 8968   3.622   3.481   5.446
 2690SOL    HW1 8969   3.685   3.431   5.386
 2690SOL    HW2 8970   3.669   3.505   5.530
 2691SOL     OW 8971   0.539   5.455   3.704
 2691SOL    HW1 8972   0.582   5.458   3.614
 2691SOL    HW2 8973   0.509   5.547   3.729
 2692SOL     OW 8974   2.574   6.861   3.817
 2692SOL    HW1 8975   2.505   6.910   3.870
 2692SOL    HW2 8976   2.530   6.816   3.739
 2693SOL     OW 8977   2.405   4.669   3.806
 2693SOL    HW1 8978   2.444   4.753   3.768
 2693SOL    HW2 8979   2.341   4.693   3.879
 2694SOL     OW 8980   4.277   6.549   3.155
 2694SOL    HW1 8981   4.271   6.647   3.175
 2694SOL    HW2 8982   4.282   6.498   3.240
 2695SOL     OW 8983   6.052   0.584   2.522
 2695SOL    HW1 8984   6.137   0.631   2.500
 2695SOL    HW2 8985   5.983   0.652   2.549
 2696SOL     OW 8986   3.650   3.093   6.004
 2696SOL    HW1 8987   3.564   3.069   6.049
 2696SOL    HW2 8988   3.636   3.102   5.906
 2697SOL     OW 8989   3.040   1.533   2.925
 2697SOL    HW1 8990   3.138   1.518   2.932
 2697SOL    HW2 8991   3.018   1.569   2.834
 2698SOL     OW 8992   1.242   4.607   0.711
 2698SOL    HW1 8993   1.211   4.642   0.622
 2698SOL    HW2 8994   1.341   4.594   0.709
 2699SOL     OW 8995   2.544   5.889   1.562
 2699SOL    HW1 8996   2.455   5.843   1.553
 2699SOL    HW2 8997   2.570   5.889   1.659
 2700SOL     OW 8998   2.555   2.428   0.823
 2700SOL    HW1 8999   2.470   2.444   0.773
 2700SOL    HW2 9000   2.599   2.346   0.788
 2701SOL     OW 9001   4.956   2.194   6.052
 2701SOL    HW1 9002   5.055   2.191   6.036
 2701SOL    HW2 9003   4.931   2.286   6.083
 2702SOL     OW 9004   0.867   2.577   3.554
 2702SOL    HW1 9005   0.794   2.635   3.592
 2702SOL    HW2 9006   0.955   2.622   3.566
 2703SOL     OW 9007   0.882   6.272   0.405
 2703SOL    HW1 9008   0.823   6.318   0.339
 2703SOL    HW2 9009   0.828   6.248   0.486
 2704SOL     OW 9010   6.797   5.910   1.825
 2704SOL    HW1 9011   6.799   5.832   1.888
 2704SOL    HW2 9012   6.862   5.893   1.750
 2705SOL     OW 9013   6.163   6.949   4.978
 2705SOL    HW1 9014   6.141   6.855   4.952
 2705SOL    HW2 9015   6.244   6.948   5.037
 2706SOL     OW 9016   6.528   5.260   3.418
 2706SOL    HW1 9017   6.435   5.279   3.452
 2706SOL    HW2 9018   6.535   5.289   3.323
 2707SOL     OW 9019   3.585   0.085   4.434
 2707SOL    HW1 9020   3.496   0.084   4.480
 2707SOL    HW2 9021   3.629   7.019   4.446
 2708SOL     OW 9022   6.355   2.738   1.204
 2708SOL    HW1 9023   6.267   2.717   1.161
 2708SOL    HW2 9024   6.381   2.832   1.184
 2709SOL     OW 9025   5.333   0.192   0.233
 2709SOL    HW1 9026   5.292   0.204   0.142
 2709SOL    HW2 9027   5.406   0.124   0.228
 2710SOL     OW 9028   1.129   3.418   3.804
 2710SOL    HW1 9029   1.131   3.376   3.713
 2710SOL    HW2 9030   1.037   3.413   3.841
 2711SOL     OW 9031   2.712   0.746   3.513
 2711SOL    HW1 9032   2.752   0.787   3.594
 2711SOL    HW2 9033   2.657   0.667   3.539
 2712SOL     OW 9034   2.580   5.108   1.539
 2712SOL    HW1 9035   2.538   5.029   1.583
 2712SOL    HW2 9036   2.661   5.079   1.488
 2713SOL     OW 9037   2.578   3.639   6.003
 2713SOL    HW1 9038   2.549   3.696   5.927
 2713SOL    HW2 9039   2.498   3.609   6.055
 2714SOL     OW 9040   4.021   2.609   6.955
 2714SOL    HW1 9041   4.097   2.674   6.959
 2714SOL    HW2 9042   4.047   2.524   7.001
 2715SOL     OW 9043   5.768   2.571   0.803
 2715SOL    HW1 9044   5.764   2.618   0.891
 2715SOL    HW2 9045   5.692   2.507   0.796
 2716SOL     OW 9046   5.030   2.951   3.776
 2716SOL    HW1 9047   4.967   3.006   3.832
 2716SOL    HW2 9048   4.995   2.945   3.683
 2717SOL     OW 9049   0.802   0.126   2.229
 2717SOL    HW1 9050   0.790   0.223   2.246
 2717SOL    HW2 9051   0.731   0.075   2.277
 2718SOL     OW 9052   1.620   1.372   5.636
 2718SOL    HW1 9053   1.679   1.380   5.716
 2718SOL    HW2 9054   1.552   1.446   5.638
 2719SOL     OW 9055   0.684   4.983   2.006
 2719SOL    HW1 9056   0.676   4.889   1.971
 2719SOL    HW2 9057   0.639   4.989   2.095
 2720SOL     OW 9058   1.671   0.003   2.423
 2720SOL    HW1 9059   1.611   6.965   2.475
 2720SOL    HW2 9060   1.696   0.082   2.478
 2721SOL     OW 9061   2.848   6.346   3.318
 2721SOL    HW1 9062   2.761   6.306   3.289
 2721SOL    HW2 9063   2.920   6.321   3.254
 2722SOL     OW 9064   6.067   5.210   0.495
 2722SOL    HW1 9065   6.164   5.222   0.473
 2722SOL    HW2 9066   6.012   5.253   0.424
 2723SOL     OW 9067   1.067   5.545   6.216
 2723SOL    HW1 9068   1.016   5.539   6.301
 2723SOL    HW2 9069   1.007   5.522   6.139
 2724SOL     OW 9070   1.701   6.041   6.857
 2724SOL    HW1 9071   1.647   5.985   6.793
 2724SOL    HW2 9072   1.797   6.040   6.830
 2725SOL     OW 9073   4.963   4.484   4.836
 2725SOL    HW1 9074   5.002   4.568   4.799
 2725SOL    HW2 9075   5.013   4.458   4.919
 2726SOL     OW 9076   0.249   2.451   2.099
 2726SOL    HW1 9077   0.272   2.548   2.085
 2726SOL    HW2 9078   0.150   2.439   2.092
 2727SOL     OW 9079   0.898   4.694   3.873
 2727SOL    HW1 9080   0.975   4.649   3.919
 2727SOL    HW2 9081   0.817   4.688   3.932
 2728SOL     OW 9082   4.378   6.726   5.161
 2728SOL    HW1 9083   4.335   6.816   5.163
 2728SOL    HW2 9084   4.379   6.692   5.066
 2729SOL     OW 9085   0.358   6.259   0.607
 2729SOL    HW1 9086   0.370   6.296   0.515
 2729SOL    HW2 9087   0.260   6.251   0.628
 2730SOL     OW 9088   1.227   5.297   1.941
 2730SOL    HW1 9089   1.295   5.225   1.927
 2730SOL    HW2 9090   1.138   5.255   1.962
 2731SOL     OW 9091   3.048   3.657   3.618
 2731SOL    HW1 9092   3.016   3.692   3.705
 2731SOL    HW2 9093   2.975   3.661   3.551
 2732SOL     OW 9094   5.910   2.287   1.059
 2732SOL    HW1 9095   5.971   2.220   1.102
 2732SOL    HW2 9096   5.816   2.253   1.060
 2733SOL     OW 9097   6.578   1.756   4.943
 2733SOL    HW1 9098   6.495   1.712   4.976
 2733SOL    HW2 9099   6.608   1.825   5.009
 2734SOL     OW 9100   3.079   5.020   1.179
 2734SOL    HW1 9101   3.158   4.974   1.219
 2734SOL    HW2 9102   3.032   4.956   1.117
 2735SOL     OW 9103   1.834   2.619   1.853
 2735SOL    HW1 9104   1.751   2.589   1.899
 2735SOL    HW2 9105   1.824   2.605   1.754
 2736SOL     OW 9106   6.335   6.167   4.357
 2736SOL    HW1 9107   6.419   6.118   4.335
 2736SOL    HW2 9108   6.258   6.123   4.312
 2737SOL     OW 9109   2.759   4.157   5.347
 2737SOL    HW1 9110   2.770   4.069   5.301
 2737SOL    HW2 9111   2.845   4.208   5.341
 2738SOL     OW 9112   5.130   6.285   1.849
 2738SOL    HW1 9113   5.127   6.371   1.797
 2738SOL    HW2 9114   5.222   6.246   1.843
 2739SOL     OW 9115   1.450   4.849   0.827
 2739SOL    HW1 9116   1.509   4.879   0.752
 2739SOL    HW2 9117   1.367   4.904   0.828
 2740SOL     OW 9118   6.215   4.333   1.624
 2740SOL    HW1 9119   6.273   4.412   1.645
 2740SOL    HW2 9120   6.254   4.283   1.547
 2741SOL     OW 9121   6.102   0.503   4.315
 2741SOL    HW1 9122   6.084   0.436   4.387
 2741SOL    HW2 9123   6.051   0.477   4.233
 2742SOL     OW 9124   1.504   4.755   0.461
 2742SOL    HW1 9125   1.411   4.761   0.498
 2742SOL    HW2 9126   1.501   4.742   0.362
 2743SOL     OW 9127   0.075   4.093   2.432
 2743SOL    HW1 9128   0.033   4.152   2.364
 2743SOL    HW2 9129   0.169   4.123   2.448
 2744SOL     OW 9130   4.695   2.491   0.290
 2744SOL    HW1 9131   4.606   2.463   0.251
 2744SOL    HW2 9132   4.720   2.581   0.255
 2745SOL     OW 9133   0.035   0.892   4.730
 2745SOL    HW1 9134   0.051   0.947   4.648
 2745SOL    HW2 9135   0.085   0.806   4.723
 2746SOL     OW 9136   0.903   2.520   5.159
 2746SOL    HW1 9137   0.950   2.577   5.226
 2746SOL    HW2 9138   0.914   2.424   5.184
 2747SOL     OW 9139   4.829   5.217   0.224
 2747SOL    HW1 9140   4.925   5.241   0.240
 2747SOL    HW2 9141   4.782   5.208   0.312
 2748SOL     OW 9142   4.576   1.241   2.474
 2748SOL    HW1 9143   4.658   1.298   2.476
 2748SOL    HW2 9144   4.548   1.225   2.380
 2749SOL     OW 9145   6.776   4.317   0.903
 2749SOL    HW1 9146   6.722   4.233   0.903
 2749SOL    HW2 9147   6.830   4.322   0.988
 2750SOL     OW 9148   1.516   3.566   1.251
 2750SOL    HW1 9149   1.612   3.564   1.280
 2750SOL    HW2 9150   1.457   3.556   1.332
 2751SOL     OW 9151   1.177   2.973   1.709
 2751SOL    HW1 9152   1.215   2.926   1.629
 2751SOL    HW2 9153   1.157   2.906   1.780
 2752SOL     OW 9154   3.470   4.880   5.782
 2752SOL    HW1 9155   3.498   4.822   5.706
 2752SOL    HW2 9156   3.496   4.975   5.762
 2753SOL     OW 9157   6.760   6.598   4.960
 2753SOL    HW1 9158   6.857   6.607   4.983
 2753SOL    HW2 9159   6.746   6.513   4.910
 2754SOL     OW 9160   0.710   0.193   0.858
 2754SOL    HW1 9161   0.731   0.249   0.939
 2754SOL    HW2 9162   0.688   0.100   0.886
 2755SOL     OW 9163   3.182   6.591   2.042
 2755SOL    HW1 9164   3.228   6.546   2.118
 2755SOL    HW2 9165   3.135   6.673   2.075
 2756SOL     OW 9166   5.515   5.341   0.199
 2756SOL    HW1 9167   5.558   5.281   0.267
 2756SOL    HW2 9168   5.553   5.433   0.208
 2757SOL     OW 9169   2.804   6.553   6.768
 2757SOL    HW1 9170   2.749   6.604   6.701
 2757SOL    HW2 9171   2.743   6.504   6.830
 2758SOL     OW 9172   3.802   6.350   3.901
 2758SOL    HW1 9173   3.739   6.377   3.828
 2758SOL    HW2 9174   3.772   6.264   3.942
 2759SOL     OW 9175   5.154   6.711   6.160
 2759SOL    HW1 9176   5.081   6.699   6.093
 2759SOL    HW2 9177   5.115   6.718   6.252
 2760SOL     OW 9178   0.576   6.046   1.938
 2760SOL    HW1 9179   0.484   6.048   1.898
 2760SOL    HW2 9180   0.575   5.992   2.022
 2761SOL     OW 9181   2.018   5.290   4.317
 2761SOL    HW1 9182   2.117   5.286   4.333
 2761SOL    HW2 9183   1.993   5.223   4.247
 2762SOL     OW 9184   1.811   1.219   5.994
 2762SOL    HW1 9185   1.880   1.240   6.064
 2762SOL    HW2 9186   1.851   1.158   5.925
 2763SOL     OW 9187   5.079   1.600   3.842
 2763SOL    HW1 9188   5.151   1.632   3.779
 2763SOL    HW2 9189   4.992   1.597   3.793
 2764SOL     OW 9190   5.805   1.034   0.727
 2764SOL    HW1 9191   5.877   1.035   0.797
 2764SOL    HW2 9192   5.720   0.999   0.768
 2765SOL     OW 9193   6.124   6.763   0.852
 2765SOL    HW1 9194   6.065   6.836   0.818
 2765SOL    HW2 9195   6.161   6.711   0.775
 2766SOL     OW 9196   4.804   2.094   7.005
 2766SOL    HW1 9197   4.752   2.120   0.063
 2766SOL    HW2 9198   4.837   2.000   7.016
 2767SOL     OW 9199   0.149   5.266   0.241
 2767SOL    HW1 9200   0.162   5.342   0.305
 2767SOL    HW2 9201   0.064   5.281   0.190
 2768SOL     OW 9202   4.262   1.229   0.973
 2768SOL    HW1 9203   4.352   1.238   0.930
 2768SOL    HW2 9204   4.191   1.255   0.909
 2769SOL     OW 9205   1.063   4.483   3.991
 2769SOL    HW1 9206   0.989   4.425   3.957
 2769SOL    HW2 9207   1.065   4.479   4.091
 2770SOL     OW 9208   3.293   5.448   5.572
 2770SOL    HW1 9209   3.290   5.546   5.552
 2770SOL    HW2 9210   3.251   5.397   5.497
 2771SOL     OW 9211   6.922   0.987   3.396
 2771SOL    HW1 9212   6.933   1.069   3.453
 2771SOL    HW2 9213   6.877   1.012   3.310
 2772SOL     OW 9214   4.262   1.484   1.203
 2772SOL    HW1 9215   4.182   1.526   1.247
 2772SOL    HW2 9216   4.263   1.510   1.106
 2773SOL     OW 9217   6.129   2.157   5.575
 2773SOL    HW1 9218   6.161   2.064   5.596
 2773SOL    HW2 9219   6.145   2.216   5.653
 2774SOL     OW 9220   5.524   3.528   3.147
 2774SOL    HW1 9221   5.612   3.552   3.189
 2774SOL    HW2 9222   5.493   3.604   3.090
 2775SOL     OW 9223   6.956   6.010   6.579
 2775SOL    HW1 9224   6.912   5.996   6.490
 2775SOL    HW2 9225   0.029   5.980   6.574
 2776SOL     OW 9226   4.037   4.966   6.153
 2776SOL    HW1 9227   4.009   4.963   6.248
 2776SOL    HW2 9228   4.088   4.882   6.131
 2777SOL     OW 9229   2.677   1.500   2.119
 2777SOL    HW1 9230   2.588   1.507   2.165
 2777SOL    HW2 9231   2.675   1.421   2.057
 2778SOL     OW 9232   1.543   0.117   5.635
 2778SOL    HW1 9233   1.561   0.215   5.639
 2778SOL    HW2 9234   1.453   0.101   5.597
 2779SOL     OW 9235   4.728   6.340   1.117
 2779SOL    HW1 9236   4.715   6.331   1.019
 2779SOL    HW2 9237   4.801   6.279   1.147
 2780SOL     OW 9238   6.322   6.209   6.798
 2780SOL    HW1 9239   6.370   6.238   6.715
 2780SOL    HW2 9240   6.346   6.269   6.874
 2781SOL     OW 9241   5.119   6.544   1.751
 2781SOL    HW1 9242   5.204   6.590   1.726
 2781SOL    HW2 9243   5.075   6.592   1.827
 2782SOL     OW 9244   4.008   1.847   5.716
 2782SOL    HW1 9245   4.004   1.933   5.667
 2782SOL    HW2 9246   4.094   1.840   5.766
 2783SOL     OW 9247   4.979   4.260   4.167
 2783SOL    HW1 9248   4.911   4.188   4.159
 2783SOL    HW2 9249   5.070   4.220   4.173
 2784SOL     OW 9250   3.664   1.762   1.760
 2784SOL    HW1 9251   3.675   1.834   1.829
 2784SOL    HW2 9252   3.619   1.800   1.680
 2785SOL     OW 9253   4.830   1.403   0.467
 2785SOL    HW1 9254   4.910   1.460   0.487
 2785SOL    HW2 9255   4.791   1.430   0.379
 2786SOL     OW 9256   5.135   6.675   2.017
 2786SOL    HW1 9257   5.115   6.678   2.115
 2786SOL    HW2 9258   5.196   6.751   1.993
 2787SOL     OW 9259   3.641   1.745   6.620
 2787SOL    HW1 9260   3.736   1.713   6.618
 2787SOL    HW2 9261   3.611   1.753   6.716
 2788SOL     OW 9262   2.522   4.743   6.244
 2788SOL    HW1 9263   2.552   4.819   6.187
 2788SOL    HW2 9264   2.539   4.657   6.196
 2789SOL     OW 9265   1.803   2.695   3.685
 2789SOL    HW1 9266   1.766   2.634   3.754
 2789SOL    HW2 9267   1.897   2.721   3.710
 2790SOL     OW 9268   3.162   5.809   2.171
 2790SOL    HW1 9269   3.259   5.786   2.155
 2790SOL    HW2 9270   3.127   5.860   2.092
 2791SOL     OW 9271   0.969   3.285   2.685
 2791SOL    HW1 9272   0.930   3.261   2.774
 2791SOL    HW2 9273   0.923   3.366   2.649
 2792SOL     OW 9274   1.854   0.130   4.086
 2792SOL    HW1 9275   1.767   0.113   4.132
 2792SOL    HW2 9276   1.837   0.159   3.992
 2793SOL     OW 9277   5.304   3.265   3.405
 2793SOL    HW1 9278   5.265   3.354   3.379
 2793SOL    HW2 9279   5.340   3.220   3.323
 2794SOL     OW 9280   0.343   2.842   6.996
 2794SOL    HW1 9281   0.396   2.913   0.020
 2794SOL    HW2 9282   0.299   2.783   0.041
 2795SOL     OW 9283   1.806   2.447   0.678
 2795SOL    HW1 9284   1.898   2.462   0.715
 2795SOL    HW2 9285   1.745   2.417   0.752
 2796SOL     OW 9286   0.018   5.981   2.210
 2796SOL    HW1 9287   6.943   5.963   2.219
 2796SOL    HW2 9288   0.034   6.078   2.196
 2797SOL     OW 9289   5.844   5.321   4.538
 2797SOL    HW1 9290   5.762   5.304   4.592
 2797SOL    HW2 9291   5.825   5.304   4.441
 2798SOL     OW 9292   0.619   5.287   2.219
 2798SOL    HW1 9293   0.710   5.312   2.252
 2798SOL    HW2 9294   0.584   5.211   2.274
 2799SOL     OW 9295   6.141   6.227   0.066
 2799SOL    HW1 9296   6.053   6.182   0.081
 2799SOL    HW2 9297   6.135   6.285   7.008
 2800SOL     OW 9298   4.693   5.528   0.364
 2800SOL    HW1 9299   4.621   5.587   0.400
 2800SOL    HW2 9300   4.662   5.484   0.280
 2801SOL     OW 9301   5.826   5.601   5.686
 2801SOL    HW1 9302   5.752   5.537   5.711
 2801SOL    HW2 9303   5.830   5.674   5.754
 2802SOL     OW 9304   4.628   1.119   4.995
 2802SOL    HW1 9305   4.705   1.076   4.948
 2802SOL    HW2 9306   4.637   1.107   5.094
 2803SOL     OW 9307   3.905   6.111   6.816
 2803SOL    HW1 9308   3.851   6.194   6.798
 2803SOL    HW2 9309   3.844   6.035   6.835
 2804SOL     OW 9310   0.390   5.170   5.032
 2804SOL    HW1 9311   0.468   5.116   5.000
 2804SOL    HW2 9312   0.371   5.244   4.967
 2805SOL     OW 9313   5.398   3.111   1.791
 2805SOL    HW1 9314   5.308   3.125   1.833
 2805SOL    HW2 9315   5.392   3.127   1.693
 2806SOL     OW 9316   6.427   5.113   5.514
 2806SOL    HW1 9317   6.374   5.180   5.462
 2806SOL    HW2 9318   6.402   5.120   5.611
 2807SOL     OW 9319   5.063   5.774   3.705
 2807SOL    HW1 9320   5.011   5.748   3.623
 2807SOL    HW2 9321   5.017   5.850   3.751
 2808SOL     OW 9322   5.515   3.637   2.435
 2808SOL    HW1 9323   5.538   3.546   2.401
 2808SOL    HW2 9324   5.537   3.705   2.365
 2809SOL     OW 9325   5.989   3.136   1.064
 2809SOL    HW1 9326   6.055   3.069   1.098
 2809SOL    HW2 9327   5.905   3.130   1.118
 2810SOL     OW 9328   3.330   5.538   3.716
 2810SOL    HW1 9329   3.402   5.526   3.784
 2810SOL    HW2 9330   3.366   5.520   3.625
 2811SOL     OW 9331   0.991   1.801   3.538
 2811SOL    HW1 9332   1.025   1.716   3.578
 2811SOL    HW2 9333   1.049   1.828   3.461
 2812SOL     OW 9334   5.021   3.908   6.478
 2812SOL    HW1 9335   5.073   3.899   6.564
 2812SOL    HW2 9336   5.055   3.841   6.412
 2813SOL     OW 9337   6.827   6.867   5.969
 2813SOL    HW1 9338   6.728   6.859   5.964
 2813SOL    HW2 9339   6.851   6.963   5.983
 2814SOL     OW 9340   4.216   3.424   5.574
 2814SOL    HW1 9341   4.204   3.472   5.488
 2814SOL    HW2 9342   4.309   3.387   5.579
 2815SOL     OW 9343   6.235   0.393   5.478
 2815SOL    HW1 9344   6.246   0.476   5.424
 2815SOL    HW2 9345   6.208   0.317   5.418
 2816SOL     OW 9346   6.780   5.822   3.523
 2816SOL    HW1 9347   6.687   5.785   3.525
 2816SOL    HW2 9348   6.778   5.913   3.481
 2817SOL     OW 9349   2.683   6.777   1.311
 2817SOL    HW1 9350   2.673   6.859   1.367
 2817SOL    HW2 9351   2.641   6.792   1.222
 2818SOL     OW 9352   0.166   0.581   0.925
 2818SOL    HW1 9353   0.116   0.551   0.843
 2818SOL    HW2 9354   0.123   0.541   1.006
 2819SOL     OW 9355   0.377   1.100   1.640
 2819SOL    HW1 9356   0.449   1.071   1.576
 2819SOL    HW2 9357   0.392   1.195   1.667
 2820SOL     OW 9358   0.626   2.606   2.911
 2820SOL    HW1 9359   0.679   2.564   2.985
 2820SOL    HW2 9360   0.682   2.676   2.866
 2821SOL     OW 9361   4.044   3.587   0.206
 2821SOL    HW1 9362   4.133   3.580   0.160
 2821SOL    HW2 9363   3.998   3.498   0.205
 2822SOL     OW 9364   4.455   1.776   0.110
 2822SOL    HW1 9365   4.470   1.868   0.073
 2822SOL    HW2 9366   4.358   1.766   0.132
 2823SOL     OW 9367   4.570   6.680   0.094
 2823SOL    HW1 9368   4.631   6.611   0.131
 2823SOL    HW2 9369   4.476   6.645   0.093
 2824SOL     OW 9370   3.163   1.298   3.239
 2824SOL    HW1 9371   3.084   1.315   3.181
 2824SOL    HW2 9372   3.218   1.381   3.247
 2825SOL     OW 9373   6.606   0.129   6.374
 2825SOL    HW1 9374   6.595   0.032   6.356
 2825SOL    HW2 9375   6.619   0.143   6.473
 2826SOL     OW 9376   4.729   1.055   6.952
 2826SOL    HW1 9377   4.724   0.963   6.991
 2826SOL    HW2 9378   4.638   1.084   6.923
 2827SOL     OW 9379   7.015   0.467   5.047
 2827SOL    HW1 9380   0.014   0.510   4.960
 2827SOL    HW2 9381   0.063   0.402   5.073
 2828SOL     OW 9382   2.961   0.731   0.004
 2828SOL    HW1 9383   2.993   0.716   6.933
 2828SOL    HW2 9384   2.982   0.651   0.060
 2829SOL     OW 9385   3.460   3.674   5.325
 2829SOL    HW1 9386   3.369   3.666   5.367
 2829SOL    HW2 9387   3.526   3.622   5.379
 2830SOL     OW 9388   1.478   3.263   5.750
 2830SOL    HW1 9389   1.536   3.343   5.737
 2830SOL    HW2 9390   1.471   3.213   5.663
 2831SOL     OW 9391   0.405   5.243   3.771
 2831SOL    HW1 9392   0.476   5.311   3.752
 2831SOL    HW2 9393   0.366   5.211   3.684
 2832SOL     OW 9394   1.051   1.741   2.632
 2832SOL    HW1 9395   1.137   1.757   2.584
 2832SOL    HW2 9396   1.067   1.747   2.731
 2833SOL     OW 9397   3.892   2.066   2.587
 2833SOL    HW1 9398   3.926   2.152   2.627
 2833SOL    HW2 9399   3.793   2.071   2.578
 2834SOL     OW 9400   3.665   5.355   6.934
 2834SOL    HW1 9401   3.584   5.314   6.893
 2834SOL    HW2 9402   3.724   5.392   6.862
 2835SOL     OW 9403   0.126   0.416   1.507
 2835SOL    HW1 9404   0.031   0.393   1.483
 2835SOL    HW2 9405   0.149   0.506   1.469
 2836SOL     OW 9406   6.118   0.088   2.051
 2836SOL    HW1 9407   6.121   0.018   2.122
 2836SOL    HW2 9408   6.126   0.179   2.092
 2837SOL     OW 9409   5.582   4.164   2.754
 2837SOL    HW1 9410   5.540   4.171   2.845
 2837SOL    HW2 9411   5.553   4.241   2.697
 2838SOL     OW 9412   2.413   4.386   1.154
 2838SOL    HW1 9413   2.425   4.411   1.058
 2838SOL    HW2 9414   2.421   4.468   1.211
 2839SOL     OW 9415   6.757   1.363   1.864
 2839SOL    HW1 9416   6.793   1.275   1.835
 2839SOL    HW2 9417   6.783   1.434   1.798
 2840SOL     OW 9418   1.976   0.846   3.115
 2840SOL    HW1 9419   2.018   0.766   3.073
 2840SOL    HW2 9420   2.039   0.887   3.181
 2841SOL     OW 9421   0.189   1.168   6.351
 2841SOL    HW1 9422   0.282   1.149   6.383
 2841SOL    HW2 9423   0.124   1.113   6.402
 2842SOL     OW 9424   0.026   4.139   4.087
 2842SOL    HW1 9425   0.053   4.229   4.122
 2842SOL    HW2 9426   0.037   4.071   4.159
 2843SOL     OW 9427   2.646   1.686   2.751
 2843SOL    HW1 9428   2.610   1.601   2.789
 2843SOL    HW2 9429   2.647   1.680   2.651
 2844SOL     OW 9430   0.159   5.045   0.594
 2844SOL    HW1 9431   0.219   5.124   0.580
 2844SOL    HW2 9432   0.134   5.006   0.505
 2845SOL     OW 9433   6.108   2.966   1.267
 2845SOL    HW1 9434   6.122   2.882   1.215
 2845SOL    HW2 9435   6.177   2.973   1.339
 2846SOL     OW 9436   4.077   1.178   6.731
 2846SOL    HW1 9437   4.120   1.143   6.648
 2846SOL    HW2 9438   4.147   1.211   6.795
 2847SOL     OW 9439   5.080   3.490   3.630
 2847SOL    HW1 9440   5.058   3.538   3.544
 2847SOL    HW2 9441   5.105   3.557   3.700
 2848SOL     OW 9442   1.343   2.851   5.089
 2848SOL    HW1 9443   1.315   2.863   4.993
 2848SOL    HW2 9444   1.375   2.939   5.125
 2849SOL     OW 9445   3.924   6.030   0.862
 2849SOL    HW1 9446   4.004   6.090   0.871
 2849SOL    HW2 9447   3.925   5.963   0.935
 2850SOL     OW 9448   1.940   0.199   2.350
 2850SOL    HW1 9449   1.896   0.267   2.291
 2850SOL    HW2 9450   1.892   0.196   2.438
 2851SOL     OW 9451   6.223   1.493   6.047
 2851SOL    HW1 9452   6.311   1.447   6.060
 2851SOL    HW2 9453   6.231   1.589   6.074
 2852SOL     OW 9454   6.113   4.647   0.041
 2852SOL    HW1 9455   6.084   4.717   0.106
 2852SOL    HW2 9456   6.111   4.685   6.971
 2853SOL     OW 9457   1.585   2.987   6.543
 2853SOL    HW1 9458   1.544   2.928   6.612
 2853SOL    HW2 9459   1.682   2.964   6.531
 2854SOL     OW 9460   4.227   1.322   5.536
 2854SOL    HW1 9461   4.263   1.305   5.627
 2854SOL    HW2 9462   4.131   1.351   5.543
 2855SOL     OW 9463   2.713   1.712   0.201
 2855SOL    HW1 9464   2.789   1.701   0.136
 2855SOL    HW2 9465   2.628   1.722   0.150
 2856SOL     OW 9466   1.300   2.963   5.377
 2856SOL    HW1 9467   1.383   2.940   5.427
 2856SOL    HW2 9468   1.322   3.023   5.301
 2857SOL     OW 9469   2.817   1.987   2.194
 2857SOL    HW1 9470   2.718   2.001   2.197
 2857SOL    HW2 9471   2.862   2.057   2.250
 2858SOL     OW 9472   4.785   4.229   2.489
 2858SOL    HW1 9473   4.823   4.151   2.440
 2858SOL    HW2 9474   4.720   4.277   2.430
 2859SOL     OW 9475   4.951   1.746   6.565
 2859SOL    HW1 9476   4.997   1.660   6.544
 2859SOL    HW2 9477   5.018   1.810   6.603
 2860SOL     OW 9478   3.453   1.583   2.009
 2860SOL    HW1 9479   3.361   1.558   2.039
 2860SOL    HW2 9480   3.466   1.552   1.914
 2861SOL     OW 9481   3.807   3.832   5.349
 2861SOL    HW1 9482   3.709   3.829   5.368
 2861SOL    HW2 9483   3.857   3.845   5.435
 2862SOL     OW 9484   5.583   1.735   3.008
 2862SOL    HW1 9485   5.486   1.752   3.021
 2862SOL    HW2 9486   5.606   1.644   3.044
 2863SOL     OW 9487   5.297   0.993   6.458
 2863SOL    HW1 9488   5.200   0.982   6.436
 2863SOL    HW2 9489   5.341   0.903   6.456
 2864SOL     OW 9490   4.488   1.677   1.843
 2864SOL    HW1 9491   4.479   1.612   1.768
 2864SOL    HW2 9492   4.575   1.663   1.890
 2865SOL     OW 9493   4.013   4.273   6.917
 2865SOL    HW1 9494   4.054   4.225   6.995
 2865SOL    HW2 9495   4.073   4.348   6.889
 2866SOL     OW 9496   6.779   5.247   0.675
 2866SOL    HW1 9497   6.743   5.339   0.657
 2866SOL    HW2 9498   6.878   5.251   0.685
 2867SOL     OW 9499   5.902   4.703   2.622
 2867SOL    HW1 9500   5.873   4.607   2.615
 2867SOL    HW2 9501   6.001   4.708   2.606
 2868SOL     OW 9502   0.754   1.632   5.433
 2868SOL    HW1 9503   0.792   1.540   5.423
 2868SOL    HW2 9504   0.697   1.654   5.354
 2869SOL     OW 9505   6.549   1.200   2.967
 2869SOL    HW1 9506   6.501   1.250   2.896
 2869SOL    HW2 9507   6.637   1.167   2.932
 2870SOL     OW 9508   0.247   1.465   4.628
 2870SOL    HW1 9509   0.150   1.470   4.655
 2870SOL    HW2 9510   0.273   1.370   4.615
 2871SOL     OW 9511   0.444   2.012   6.864
 2871SOL    HW1 9512   0.531   2.005   6.815
 2871SOL    HW2 9513   0.419   1.922   6.901
 2872SOL     OW 9514   2.408   1.188   2.458
 2872SOL    HW1 9515   2.416   1.137   2.373
 2872SOL    HW2 9516   2.315   1.178   2.494
 2873SOL     OW 9517   0.117   5.538   3.120
 2873SOL    HW1 9518   0.204   5.578   3.150
 2873SOL    HW2 9519   0.053   5.612   3.099
 2874SOL     OW 9520   3.917   6.399   3.221
 2874SOL    HW1 9521   3.966   6.402   3.308
 2874SOL    HW2 9522   3.923   6.306   3.182
 2875SOL     OW 9523   4.731   6.907   0.469
 2875SOL    HW1 9524   4.702   6.915   0.564
 2875SOL    HW2 9525   4.704   6.818   0.433
 2876SOL     OW 9526   1.004   6.960   1.600
 2876SOL    HW1 9527   0.997   7.001   1.691
 2876SOL    HW2 9528   0.918   6.974   1.551
 2877SOL     OW 9529   3.244   2.610   5.373
 2877SOL    HW1 9530   3.239   2.520   5.328
 2877SOL    HW2 9531   3.157   2.629   5.418
 2878SOL     OW 9532   4.544   5.133   4.460
 2878SOL    HW1 9533   4.595   5.082   4.530
 2878SOL    HW2 9534   4.464   5.176   4.501
 2879SOL     OW 9535   5.027   5.146   0.815
 2879SOL    HW1 9536   4.999   5.057   0.852
 2879SOL    HW2 9537   5.121   5.165   0.842
 2880SOL     OW 9538   6.819   0.342   1.257
 2880SOL    HW1 9539   6.796   0.244   1.255
 2880SOL    HW2 9540   6.769   0.390   1.186
 2881SOL     OW 9541   5.500   5.687   6.985
 2881SOL    HW1 9542   5.407   5.679   7.022
 2881SOL    HW2 9543   5.529   5.782   6.987
 2882SOL     OW 9544   0.514   4.464   2.736
 2882SOL    HW1 9545   0.445   4.499   2.672
 2882SOL    HW2 9546   0.533   4.368   2.715
 2883SOL     OW 9547   5.864   0.007   3.362
 2883SOL    HW1 9548   5.879   0.101   3.333
 2883SOL    HW2 9549   5.948   6.992   3.399
 2884SOL     OW 9550   0.830   6.921   2.524
 2884SOL    HW1 9551   0.911   6.873   2.491
 2884SOL    HW2 9552   0.753   6.857   2.527
 2885SOL     OW 9553   0.586   2.994   2.852
 2885SOL    HW1 9554   0.640   2.912   2.837
 2885SOL    HW2 9555   0.516   3.002   2.781
 2886SOL     OW 9556   2.186   4.382   5.527
 2886SOL    HW1 9557   2.233   4.358   5.442
 2886SOL    HW2 9558   2.252   4.383   5.602
 2887SOL     OW 9559   0.381   0.494   4.427
 2887SOL    HW1 9560   0.299   0.540   4.395
 2887SOL    HW2 9561   0.357   0.432   4.502
 2888SOL     OW 9562   0.701   4.264   0.070
 2888SOL    HW1 9563   0.792   4.222   0.077
 2888SOL    HW2 9564   0.688   4.302   7.001
 2889SOL     OW 9565   1.907   6.970   2.046
 2889SOL    HW1 9566   1.950   7.010   1.965
 2889SOL    HW2 9567   1.844   6.898   2.017
 2890SOL     OW 9568   2.325   5.964   0.613
 2890SOL    HW1 9569   2.282   5.929   0.696
 2890SOL    HW2 9570   2.268   6.037   0.575
 2891SOL     OW 9571   1.307   4.251   3.526
 2891SOL    HW1 9572   1.247   4.323   3.561
 2891SOL    HW2 9573   1.297   4.169   3.582
 2892SOL     OW 9574   5.042   3.162   0.108
 2892SOL    HW1 9575   5.039   3.188   0.012
 2892SOL    HW2 9576   5.043   3.245   0.165
 2893SOL     OW 9577   0.727   6.575   4.515
 2893SOL    HW1 9578   0.660   6.512   4.554
 2893SOL    HW2 9579   0.813   6.528   4.501
 2894SOL     OW 9580   1.704   2.300   1.867
 2894SOL    HW1 9581   1.650   2.384   1.859
 2894SOL    HW2 9582   1.790   2.321   1.914
 2895SOL     OW 9583   4.516   2.388   5.900
 2895SOL    HW1 9584   4.599   2.390   5.956
 2895SOL    HW2 9585   4.478   2.480   5.893
 2896SOL     OW 9586   4.748   5.330   5.915
 2896SOL    HW1 9587   4.649   5.341   5.931
 2896SOL    HW2 9588   4.767   5.340   5.818
 2897SOL     OW 9589   3.675   4.914   3.215
 2897SOL    HW1 9590   3.637   4.822   3.216
 2897SOL    HW2 9591   3.675   4.949   3.122
 2898SOL     OW 9592   3.802   5.613   4.155
 2898SOL    HW1 9593   3.836   5.635   4.064
 2898SOL    HW2 9594   3.842   5.676   4.222
 2899SOL     OW 9595   0.990   1.785   0.500
 2899SOL    HW1 9596   1.016   1.764   0.406
 2899SOL    HW2 9597   0.908   1.842   0.500
 2900SOL     OW 9598   1.518   4.604   5.328
 2900SOL    HW1 9599   1.467   4.580   5.410
 2900SOL    HW2 9600   1.552   4.521   5.284
 2901SOL     OW 9601   3.137   5.876   3.561
 2901SOL    HW1 9602   3.150   5.815   3.639
 2901SOL    HW2 9603   3.127   5.822   3.477
 2902SOL     OW 9604   4.765   6.430   2.265
 2902SOL    HW1 9605   4.839   6.397   2.206
 2902SOL    HW2 9606   4.708   6.353   2.294
 2903SOL     OW 9607   3.943   1.027   0.563
 2903SOL    HW1 9608   4.020   1.007   0.501
 2903SOL    HW2 9609   3.863   1.053   0.509
 2904SOL     OW 9610   2.093   4.157   5.131
 2904SOL    HW1 9611   2.012   4.172   5.075
 2904SOL    HW2 9612   2.162   4.108   5.078
 2905SOL     OW 9613   1.349   2.769   4.063
 2905SOL    HW1 9614   1.386   2.689   4.111
 2905SOL    HW2 9615   1.358   2.756   3.964
 2906SOL     OW 9616   4.374   5.776   2.446
 2906SOL    HW1 9617   4.343   5.790   2.352
 2906SOL    HW2 9618   4.295   5.770   2.507
 2907SOL     OW 9619   0.756   1.851   3.700
 2907SOL    HW1 9620   0.735   1.760   3.663
 2907SOL    HW2 9621   0.847   1.879   3.669
 2908SOL     OW 9622   4.636   6.092   4.183
 2908SOL    HW1 9623   4.550   6.140   4.165
 2908SOL    HW2 9624   4.686   6.138   4.257
 2909SOL     OW 9625   1.370   6.549   3.124
 2909SOL    HW1 9626   1.319   6.634   3.122
 2909SOL    HW2 9627   1.410   6.536   3.214
 2910SOL     OW 9628   4.568   6.608   4.668
 2910SOL    HW1 9629   4.660   6.594   4.704
 2910SOL    HW2 9630   4.571   6.607   4.568
 2911SOL     OW 9631   0.907   5.407   3.379
 2911SOL    HW1 9632   0.891   5.495   3.424
 2911SOL    HW2 9633   0.934   5.340   3.447
 2912SOL     OW 9634   4.875   0.548   6.915
 2912SOL    HW1 9635   4.866   0.536   7.014
 2912SOL    HW2 9636   4.948   0.614   6.896
 2913SOL     OW 9637   2.686   4.702   2.847
 2913SOL    HW1 9638   2.621   4.714   2.922
 2913SOL    HW2 9639   2.682   4.608   2.813
 2914SOL     OW 9640   5.561   6.182   6.177
 2914SOL    HW1 9641   5.583   6.279   6.179
 2914SOL    HW2 9642   5.519   6.156   6.264
 2915SOL     OW 9643   5.534   1.600   4.570
 2915SOL    HW1 9644   5.613   1.658   4.593
 2915SOL    HW2 9645   5.552   1.553   4.484
 2916SOL     OW 9646   0.683   6.498   6.513
 2916SOL    HW1 9647   0.698   6.410   6.467
 2916SOL    HW2 9648   0.702   6.488   6.611
 2917SOL     OW 9649   2.843   6.902   2.893
 2917SOL    HW1 9650   2.772   6.961   2.931
 2917SOL    HW2 9651   2.823   6.883   2.797
 2918SOL     OW 9652   0.105   5.128   4.345
 2918SOL    HW1 9653   0.048   5.134   4.263
 2918SOL    HW2 9654   0.062   5.067   4.411
 2919SOL     OW 9655   6.658   1.142   0.992
 2919SOL    HW1 9656   6.625   1.156   0.899
 2919SOL    HW2 9657   6.746   1.189   1.004
 2920SOL     OW 9658   2.800   2.180   1.856
 2920SOL    HW1 9659   2.784   2.084   1.881
 2920SOL    HW2 9660   2.860   2.222   1.924
 2921SOL     OW 9661   1.152   0.996   3.287
 2921SOL    HW1 9662   1.234   1.039   3.326
 2921SOL    HW2 9663   1.176   0.908   3.246
 2922SOL     OW 9664   5.145   0.766   0.500
 2922SOL    HW1 9665   5.056   0.805   0.525
 2922SOL    HW2 9666   5.199   0.834   0.451
 2923SOL     OW 9667   6.956   5.671   2.220
 2923SOL    HW1 9668   6.923   5.586   2.261
 2923SOL    HW2 9669   0.029   5.660   2.194
 2924SOL     OW 9670   6.624   1.550   6.167
 2924SOL    HW1 9671   6.561   1.566   6.243
 2924SOL    HW2 9672   6.672   1.635   6.145
 2925SOL     OW 9673   4.174   1.010   2.539
 2925SOL    HW1 9674   4.078   1.009   2.510
 2925SOL    HW2 9675   4.182   0.965   2.627
 2926SOL     OW 9676   6.203   1.551   4.701
 2926SOL    HW1 9677   6.275   1.482   4.693
 2926SOL    HW2 9678   6.244   1.642   4.703
 2927SOL     OW 9679   0.646   1.951   2.464
 2927SOL    HW1 9680   0.707   2.030   2.471
 2927SOL    HW2 9681   0.573   1.971   2.399
 2928SOL     OW 9682   6.794   1.295   6.161
 2928SOL    HW1 9683   6.718   1.350   6.196
 2928SOL    HW2 9684   6.837   1.343   6.084
 2929SOL     OW 9685   0.862   1.892   6.883
 2929SOL    HW1 9686   0.812   1.905   6.798
 2929SOL    HW2 9687   0.937   1.958   6.889
 2930SOL     OW 9688   4.684   6.386   4.886
 2930SOL    HW1 9689   4.757   6.328   4.849
 2930SOL    HW2 9690   4.716   6.480   4.891
 2931SOL     OW 9691   5.671   4.691   0.550
 2931SOL    HW1 9692   5.629   4.601   0.559
 2931SOL    HW2 9693   5.603   4.756   0.517
 2932SOL     OW 9694   0.536   5.087   1.159
 2932SOL    HW1 9695   0.617   5.047   1.201
 2932SOL    HW2 9696   0.483   5.016   1.113
 2933SOL     OW 9697   5.853   4.482   3.200
 2933SOL    HW1 9698   5.807   4.557   3.246
 2933SOL    HW2 9699   5.936   4.515   3.156
 2934SOL     OW 9700   4.507   1.231   0.133
 2934SOL    HW1 9701   4.510   1.169   0.054
 2934SOL    HW2 9702   4.559   1.313   0.113
 2935SOL     OW 9703   6.131   2.834   0.418
 2935SOL    HW1 9704   6.118   2.817   0.516
 2935SOL    HW2 9705   6.041   2.846   0.374
 2936SOL     OW 9706   3.503   5.753   1.707
 2936SOL    HW1 9707   3.461   5.842   1.685
 2936SOL    HW2 9708   3.599   5.754   1.680
 2937SOL     OW 9709   5.041   4.442   0.482
 2937SOL    HW1 9710   4.991   4.508   0.539
 2937SOL    HW2 9711   4.980   4.367   0.458
 2938SOL     OW 9712   4.450   5.590   6.965
 2938SOL    HW1 9713   4.473   5.503   7.009
 2938SOL    HW2 9714   4.472   5.585   6.868
 2939SOL     OW 9715   1.392   1.055   3.389
 2939SOL    HW1 9716   1.441   0.971   3.367
 2939SOL    HW2 9717   1.457   1.121   3.428
 2940SOL     OW 9718   5.928   5.467   6.013
 2940SOL    HW1 9719   5.848   5.506   6.057
 2940SOL    HW2 9720   5.904   5.380   5.970
 2941SOL     OW 9721   1.304   3.270   4.604
 2941SOL    HW1 9722   1.352   3.186   4.575
 2941SOL    HW2 9723   1.255   3.308   4.526
 2942SOL     OW 9724   3.104   2.709   1.166
 2942SOL    HW1 9725   3.092   2.648   1.244
 2942SOL    HW2 9726   3.187   2.683   1.116
 2943SOL     OW 9727   4.944   4.723   2.870
 2943SOL    HW1 9728   4.855   4.722   2.826
 2943SOL    HW2 9729   4.933   4.708   2.968
 2944SOL     OW 9730   3.034   5.433   4.910
 2944SOL    HW1 9731   3.126   5.397   4.927
 2944SOL    HW2 9732   3.001   5.480   4.992
 2945SOL     OW 9733   3.640   4.170   4.036
 2945SOL    HW1 9734   3.588   4.168   4.122
 2945SOL    HW2 9735   3.737   4.161   4.057
 2946SOL     OW 9736   0.595   4.983   6.699
 2946SOL    HW1 9737   0.627   4.998   6.605
 2946SOL    HW2 9738   0.500   5.013   6.707
 2947SOL     OW 9739   0.261   3.413   0.494
 2947SOL    HW1 9740   0.317   3.485   0.533
 2947SOL    HW2 9741   0.201   3.451   0.423
 2948SOL     OW 9742   0.619   4.796   5.590
 2948SOL    HW1 9743   0.529   4.805   5.632
 2948SOL    HW2 9744   0.659   4.708   5.614
 2949SOL     OW 9745   2.928   4.895   1.011
 2949SOL    HW1 9746   2.978   4.836   0.947
 2949SOL    HW2 9747   2.893   4.975   0.962
 2950SOL     OW 9748   5.575   3.647   4.577
 2950SOL    HW1 9749   5.572   3.646   4.677
 2950SOL    HW2 9750   5.661   3.607   4.546
 2951SOL     OW 9751   5.857   1.374   0.960
 2951SOL    HW1 9752   5.789   1.410   0.896
 2951SOL    HW2 9753   5.898   1.450   1.011
 2952SOL     OW 9754   1.062   5.660   5.047
 2952SOL    HW1 9755   1.027   5.709   4.967
 2952SOL    HW2 9756   1.027   5.566   5.046
 2953SOL     OW 9757   5.125   3.812   3.101
 2953SOL    HW1 9758   5.143   3.857   3.014
 2953SOL    HW2 9759   5.106   3.715   3.085
 2954SOL     OW 9760   0.527   5.970   2.465
 2954SOL    HW1 9761   0.465   6.041   2.430
 2954SOL    HW2 9762   0.481   5.919   2.537
 2955SOL     OW 9763   1.039   3.884   1.565
 2955SOL    HW1 9764   1.056   3.842   1.654
 2955SOL    HW2 9765   0.943   3.912   1.559
 2956SOL     OW 9766   5.433   6.592   3.200
 2956SOL    HW1 9767   5.408   6.652   3.276
 2956SOL    HW2 9768   5.369   6.515   3.195
 2957SOL     OW 9769   6.084   2.904   2.517
 2957SOL    HW1 9770   6.070   2.958   2.434
 2957SOL    HW2 9771   6.170   2.932   2.561
 2958SOL     OW 9772   2.141   4.512   4.592
 2958SOL    HW1 9773   2.236   4.481   4.587
 2958SOL    HW2 9774   2.137   4.603   4.634
 2959SOL     OW 9775   5.075   4.382   0.818
 2959SOL    HW1 9776   5.002   4.405   0.753
 2959SOL    HW2 9777   5.164   4.393   0.773
 2960SOL     OW 9778   4.051   0.175   6.167
 2960SOL    HW1 9779   4.034   0.214   6.257
 2960SOL    HW2 9780   3.981   0.208   6.103
 2961SOL     OW 9781   4.954   3.299   3.072
 2961SOL    HW1 9782   5.050   3.281   3.051
 2961SOL    HW2 9783   4.946   3.381   3.128
 2962SOL     OW 9784   4.230   0.673   3.279
 2962SOL    HW1 9785   4.174   0.710   3.352
 2962SOL    HW2 9786   4.199   0.581   3.256
 2963SOL     OW 9787   2.185   0.288   6.908
 2963SOL    HW1 9788   2.169   0.337   6.822
 2963SOL    HW2 9789   2.146   0.339   6.984
 2964SOL     OW 9790   0.803   0.134   2.652
 2964SOL    HW1 9791   0.826   0.045   2.612
 2964SOL    HW2 9792   0.867   0.202   2.618
 2965SOL     OW 9793   6.336   0.968   4.593
 2965SOL    HW1 9794   6.281   1.043   4.558
 2965SOL    HW2 9795   6.397   0.934   4.521
 2966SOL     OW 9796   6.520   5.824   4.205
 2966SOL    HW1 9797   6.565   5.753   4.259
 2966SOL    HW2 9798   6.529   5.912   4.252
 2967SOL     OW 9799   5.711   0.906   4.676
 2967SOL    HW1 9800   5.695   0.908   4.577
 2967SOL    HW2 9801   5.769   0.828   4.699
 2968SOL     OW 9802   0.607   3.443   6.261
 2968SOL    HW1 9803   0.568   3.512   6.322
 2968SOL    HW2 9804   0.536   3.412   6.197
 2969SOL     OW 9805   5.468   1.154   4.523
 2969SOL    HW1 9806   5.465   1.057   4.547
 2969SOL    HW2 9807   5.515   1.205   4.595
 2970SOL     OW 9808   1.586   4.452   6.033
 2970SOL    HW1 9809   1.613   4.404   6.116
 2970SOL    HW2 9810   1.531   4.532   6.058
 2971SOL     OW 9811   5.564   4.373   6.712
 2971SOL    HW1 9812   5.541   4.433   6.635
 2971SOL    HW2 9813   5.486   4.368   6.774
 2972SOL     OW 9814   6.040   4.319   6.340
 2972SOL    HW1 9815   6.067   4.223   6.333
 2972SOL    HW2 9816   5.963   4.327   6.404
 2973SOL     OW 9817   5.574   1.018   3.929
 2973SOL    HW1 9818   5.514   0.994   4.006
 2973SOL    HW2 9819   5.520   1.021   3.845
 2974SOL     OW 9820   0.637   4.290   3.040
 2974SOL    HW1 9821   0.555   4.343   3.060
 2974SOL    HW2 9822   0.703   4.348   2.993
 2975SOL     OW 9823   6.421   2.605   5.081
 2975SOL    HW1 9824   6.327   2.597   5.114
 2975SOL    HW2 9825   6.444   2.702   5.069
 2976SOL     OW 9826   4.111   2.223   3.081
 2976SOL    HW1 9827   4.060   2.187   3.159
 2976SOL    HW2 9828   4.189   2.276   3.113
 2977SOL     OW 9829   2.221   6.994   3.215
 2977SOL    HW1 9830   2.189   6.935   3.141
 2977SOL    HW2 9831   2.317   7.018   3.200
 2978SOL     OW 9832   4.677   4.498   0.199
 2978SOL    HW1 9833   4.753   4.555   0.167
 2978SOL    HW2 9834   4.693   4.472   0.294
 2979SOL     OW 9835   4.607   1.058   4.240
 2979SOL    HW1 9836   4.610   1.131   4.309
 2979SOL    HW2 9837   4.694   1.055   4.190
 2980SOL     OW 9838   2.003   6.868   3.740
 2980SOL    HW1 9839   2.043   6.790   3.693
 2980SOL    HW2 9840   1.970   6.934   3.673
 2981SOL     OW 9841   2.159   0.881   6.120
 2981SOL    HW1 9842   2.252   0.897   6.154
 2981SOL    HW2 9843   2.095   0.876   6.197
 2982SOL     OW 9844   3.844   5.268   3.208
 2982SOL    HW1 9845   3.844   5.360   3.171
 2982SOL    HW2 9846   3.752   5.230   3.207
 2983SOL     OW 9847   1.130   1.934   3.337
 2983SOL    HW1 9848   1.172   1.902   3.252
 2983SOL    HW2 9849   1.196   1.988   3.388
 2984SOL     OW 9850   5.479   5.686   1.213
 2984SOL    HW1 9851   5.432   5.771   1.235
 2984SOL    HW2 9852   5.474   5.669   1.114
 2985SOL     OW 9853   1.328   2.616   6.013
 2985SOL    HW1 9854   1.411   2.611   6.070
 2985SOL    HW2 9855   1.353   2.643   5.920
 2986SOL     OW 9856   3.550   3.974   5.622
 2986SOL    HW1 9857   3.540   3.916   5.704
 2986SOL    HW2 9858   3.464   3.974   5.571
 2987SOL     OW 9859   5.811   0.867   4.419
 2987SOL    HW1 9860   5.899   0.832   4.386
 2987SOL    HW2 9861   5.817   0.966   4.430
 2988SOL     OW 9862   0.876   6.182   2.857
 2988SOL    HW1 9863   0.974   6.171   2.867
 2988SOL    HW2 9864   0.842   6.120   2.786
 2989SOL     OW 9865   6.839   6.251   6.671
 2989SOL    HW1 9866   6.864   6.340   6.634
 2989SOL    HW2 9867   6.897   6.180   6.630
 2990SOL     OW 9868   4.452   1.958   4.339
 2990SOL    HW1 9869   4.528   1.997   4.391
 2990SOL    HW2 9870   4.419   2.026   4.272
 2991SOL     OW 9871   6.319   4.179   5.789
 2991SOL    HW1 9872   6.261   4.260   5.779
 2991SOL    HW2 9873   6.396   4.201   5.849
 2992SOL     OW 9874   2.848   4.918   5.365
 2992SOL    HW1 9875   2.914   4.985   5.330
 2992SOL    HW2 9876   2.798   4.878   5.288
 2993SOL     OW 9877   0.661   5.241   1.440
 2993SOL    HW1 9878   0.648   5.180   1.518
 2993SOL    HW2 9879   0.640   5.193   1.356
 2994SOL     OW 9880   3.786   6.509   0.047
 2994SOL    HW1 9881   3.772   6.410   0.056
 2994SOL    HW2 9882   3.764   6.554   0.133
 2995SOL     OW 9883   2.072   2.774   6.635
 2995SOL    HW1 9884   2.171   2.786   6.635
 2995SOL    HW2 9885   2.044   2.729   6.719
 2996SOL     OW 9886   2.376   0.310   3.920
 2996SOL    HW1 9887   2.381   0.351   3.829
 2996SOL    HW2 9888   2.334   0.220   3.914
 2997SOL     OW 9889   6.040   0.978   2.334
 2997SOL    HW1 9890   5.961   1.028   2.299
 2997SOL    HW2 9891   6.016   0.882   2.345
 2998SOL     OW 9892   4.539   0.159   4.327
 2998SOL    HW1 9893   4.538   0.239   4.266
 2998SOL    HW2 9894   4.554   0.076   4.273
 2999SOL     OW 9895   2.829   4.846   4.535
 2999SOL    HW1 9896   2.788   4.907   4.602
 2999SOL    HW2 9897   2.828   4.752   4.570
 3000SOL     OW 9898   2.215   3.331   6.814
 3000SOL    HW1 9899   2.154   3.382   6.875
 3000SOL    HW2 9900   2.215   3.374   6.724
 3001SOL     OW 9901   5.199   6.439   6.309
 3001SOL    HW1 9902   5.130   6.507   6.335
 3001SOL    HW2 9903   5.202   6.431   6.209
 3002SOL     OW 9904   3.974   0.688   6.339
 3002SOL    HW1 9905   3.985   0.623   6.414
 3002SOL    HW2 9906   4.064   0.719   6.308
 3003SOL     OW 9907   2.595   6.742   6.957
 3003SOL    HW1 9908   2.597   6.788   6.868
 3003SOL    HW2 9909   2.503   6.707   6.974
 3004SOL     OW 9910   1.483   5.010   3.210
 3004SOL    HW1 9911   1.578   5.035   3.193
 3004SOL    HW2 9912   1.460   5.029   3.305
 3005SOL     OW 9913   3.332   2.746   6.596
 3005SOL    HW1 9914   3.316   2.843   6.613
 3005SOL    HW2 9915   3.430   2.727   6.594
 3006SOL     OW 9916   5.212   2.123   5.995
 3006SOL    HW1 9917   5.209   2.026   5.968
 3006SOL    HW2 9918   5.243   2.178   5.918
 3007SOL     OW 9919   5.974   5.583   0.904
 3007SOL    HW1 9920   5.973   5.660   0.840
 3007SOL    HW2 9921   5.941   5.613   0.993
 3008SOL     OW 9922   3.689   1.522   6.858
 3008SOL    HW1 9923   3.641   1.500   6.774
 3008SOL    HW2 9924   3.652   1.467   6.933
 3009SOL     OW 9925   0.867   0.879   2.906
 3009SOL    HW1 9926   0.907   0.836   2.987
 3009SOL    HW2 9927   0.934   0.879   2.831
 3010SOL     OW 9928   3.203   5.924   3.182
 3010SOL    HW1 9929   3.263   5.947   3.106
 3010SOL    HW2 9930   3.197   6.001   3.246
 3011SOL     OW 9931   5.210   1.294   1.355
 3011SOL    HW1 9932   5.117   1.319   1.381
 3011SOL    HW2 9933   5.212   1.198   1.326
 3012SOL     OW 9934   1.204   3.762   5.133
 3012SOL    HW1 9935   1.226   3.668   5.110
 3012SOL    HW2 9936   1.253   3.789   5.216
 3013SOL     OW 9937   5.619   5.615   4.584
 3013SOL    HW1 9938   5.577   5.694   4.628
 3013SOL    HW2 9939   5.617   5.627   4.485
 3014SOL     OW 9940   4.716   2.385   5.078
 3014SOL    HW1 9941   4.677   2.308   5.027
 3014SOL    HW2 9942   4.647   2.455   5.091
 3015SOL     OW 9943   3.246   2.446   6.845
 3015SOL    HW1 9944   3.235   2.535   6.888
 3015SOL    HW2 9945   3.323   2.448   6.782
 3016SOL     OW 9946   2.717   6.178   4.484
 3016SOL    HW1 9947   2.813   6.167   4.509
 3016SOL    HW2 9948   2.696   6.118   4.407
 3017SOL     OW 9949   0.222   5.444   2.081
 3017SOL    HW1 9950   0.226   5.436   1.982
 3017SOL    HW2 9951   0.313   5.466   2.116
 3018SOL     OW 9952   2.748   6.393   6.214
 3018SOL    HW1 9953   2.748   6.293   6.208
 3018SOL    HW2 9954   2.740   6.421   6.309
 3019SOL     OW 9955   1.283   0.255   6.881
 3019SOL    HW1 9956   1.368   0.223   6.839
 3019SOL    HW2 9957   1.207   0.197   6.852
 3020SOL     OW 9958   3.900   3.143   2.000
 3020SOL    HW1 9959   3.979   3.138   1.938
 3020SOL    HW2 9960   3.840   3.064   1.984
 3021SOL     OW 9961   3.262   0.296   6.741
 3021SOL    HW1 9962   3.191   0.366   6.754
 3021SOL    HW2 9963   3.271   0.242   6.825
 3022SOL     OW 9964   3.777   4.992   4.518
 3022SOL    HW1 9965   3.800   5.012   4.423
 3022SOL    HW2 9966   3.679   4.979   4.527
 3023SOL     OW 9967   4.317   0.331   2.769
 3023SOL    HW1 9968   4.393   0.267   2.783
 3023SOL    HW2 9969   4.338   0.418   2.813
 3024SOL     OW 9970   4.065   6.314   5.517
 3024SOL    HW1 9971   4.096   6.408   5.533
 3024SOL    HW2 9972   4.093   6.256   5.594
 3025SOL     OW 9973   3.483   1.229   0.682
 3025SOL    HW1 9974   3.529   1.291   0.619
 3025SOL    HW2 9975   3.445   1.151   0.631
 3026SOL     OW 9976   1.504   1.090   0.571
 3026SOL    HW1 9977   1.493   1.068   0.474
 3026SOL    HW2 9978   1.506   1.005   0.624
 3027SOL     OW 9979   4.265   0.568   2.889
 3027SOL    HW1 9980   4.314   0.641   2.937
 3027SOL    HW2 9981   4.181   0.547   2.939
 3028SOL     OW 9982   1.183   4.741   5.506
 3028SOL    HW1 9983   1.234   4.675   5.561
 3028SOL    HW2 9984   1.243   4.780   5.435
 3029SOL     OW 9985   7.006   3.133   4.908
 3029SOL    HW1 9986   0.009   3.223   4.872
 3029SOL    HW2 9987   6.914   3.138   4.946
 3030SOL     OW 9988   0.694   3.156   5.965
 3030SOL    HW1 9989   0.694   3.060   5.992
 3030SOL    HW2 9990   0.786   3.193   5.970
 3031SOL     OW 9991   0.274   2.861   0.453
 3031SOL    HW1 9992   0.195   2.920   0.436
 3031SOL    HW2 9993   0.346   2.913   0.497
 3032SOL     OW 9994   3.918   6.284   1.299
 3032SOL    HW1 9995   3.833   6.319   1.339
 3032SOL    HW2 9996   3.955   6.352   1.235
 3033SOL     OW 9997   6.783   1.958   1.700
 3033SOL    HW1 9998   6.751   1.890   1.633
 3033SOL    HW2 9999   6.849   2.019   1.656
 3034SOL     OW10000   1.442   5.863   3.087
 3034SOL    HW110001   1.365   5.804   3.114
 3034SOL    HW210002   1.415   5.959   3.098
 3035SOL     OW10003   6.787   3.106   0.109
 3035SOL    HW110004   6.692   3.125   0.087
 3035SOL    HW210005   6.798   3.104   0.209
 3036SOL     OW10006   1.378   2.323   6.329
 3036SOL    HW110007   1.451   2.292   6.390
 3036SOL    HW210008   1.418   2.376   6.254
 3037SOL     OW10009   6.853   6.186   5.114
 3037SOL    HW110010   6.908   6.156   5.035
 3037SOL    HW210011   6.766   6.223   5.081
 3038SOL     OW10012   5.757   6.038   6.007
 3038SOL    HW110013   5.783   6.128   5.973
 3038SOL    HW210014   5.688   6.048   6.078
 3039SOL     OW10015   6.586   3.844   1.426
 3039SOL    HW110016   6.511   3.859   1.491
 3039SOL    HW210017   6.551   3.853   1.333
 3040SOL     OW10018   3.770   3.352   6.077
 3040SOL    HW110019   3.737   3.258   6.064
 3040SOL    HW210020   3.693   3.411   6.103
 3041SOL     OW10021   2.004   3.209   4.286
 3041SOL    HW110022   1.942   3.130   4.285
 3041SOL    HW210023   2.066   3.202   4.364
 3042SOL     OW10024   4.983   6.413   2.088
 3042SOL    HW110025   5.010   6.329   2.040
 3042SOL    HW210026   5.042   6.488   2.058
 3043SOL     OW10027   0.883   5.656   1.722
 3043SOL    HW110028   0.815   5.730   1.717
 3043SOL    HW210029   0.928   5.647   1.633
 3044SOL     OW10030   3.127   3.568   5.920
 3044SOL    HW110031   3.065   3.495   5.950
 3044SOL    HW210032   3.091   3.657   5.950
 3045SOL     OW10033   4.978   0.676   2.802
 3045SOL    HW110034   4.968   0.773   2.822
 3045SOL    HW210035   5.076   0.653   2.798
 3046SOL     OW10036   2.435   1.245   6.562
 3046SOL    HW110037   2.460   1.169   6.623
 3046SOL    HW210038   2.376   1.211   6.489
 3047SOL     OW10039   5.791   0.417   2.446
 3047SOL    HW110040   5.834   0.507   2.443
 3047SOL    HW210041   5.784   0.380   2.353
 3048SOL     OW10042   4.217   2.656   1.433
 3048SOL    HW110043   4.202   2.602   1.350
 3048SOL    HW210044   4.159   2.622   1.507
 3049SOL     OW10045   0.885   0.080   1.980
 3049SOL    HW110046   0.835   0.096   2.066
 3049SOL    HW210047   0.852   0.143   1.910
 3050SOL     OW10048   2.831   0.871   2.494
 3050SOL    HW110049   2.791   0.962   2.489
 3050SOL    HW210050   2.805   0.819   2.412
 3051SOL     OW10051   1.948   4.110   0.044
 3051SOL    HW110052   2.028   4.145   7.018
 3051SOL    HW210053   1.865   4.155   0.010
 3052SOL     OW10054   5.664   0.420   2.195
 3052SOL    HW110055   5.718   0.336   2.196
 3052SOL    HW210056   5.574   0.400   2.156
 3053SOL     OW10057   0.173   1.932   6.729
 3053SOL    HW110058   0.214   1.841   6.731
 3053SOL    HW210059   0.115   1.943   6.810
 3054SOL     OW10060   6.567   1.761   1.049
 3054SOL    HW110061   6.500   1.829   1.021
 3054SOL    HW210062   6.658   1.802   1.049
 3055SOL     OW10063   4.985   6.672   4.011
 3055SOL    HW110064   5.010   6.646   4.104
 3055SOL    HW210065   5.057   6.645   3.947
 3056SOL     OW10066   5.871   1.153   5.097
 3056SOL    HW110067   5.801   1.191   5.157
 3056SOL    HW210068   5.830   1.134   5.007
 3057SOL     OW10069   3.783   5.897   3.417
 3057SOL    HW110070   3.860   5.943   3.462
 3057SOL    HW210071   3.803   5.800   3.406
 3058SOL     OW10072   6.824   5.671   0.860
 3058SOL    HW110073   6.866   5.662   0.951
 3058SOL    HW210074   6.751   5.739   0.864
 3059SOL     OW10075   2.588   2.133   4.236
 3059SOL    HW110076   2.549   2.200   4.173
 3059SOL    HW210077   2.529   2.052   4.239
 3060SOL     OW10078   0.377   5.197   0.567
 3060SOL    HW110079   0.419   5.240   0.488
 3060SOL    HW210080   0.392   5.255   0.648
 3061SOL     OW10081   6.402   0.133   5.719
 3061SOL    HW110082   6.320   0.189   5.730
 3061SOL    HW210083   6.421   0.121   5.621
 3062SOL     OW10084   1.429   6.362   0.124
 3062SOL    HW110085   1.491   6.397   0.195
 3062SOL    HW210086   1.479   6.352   0.038
 3063SOL     OW10087   2.742   5.533   1.632
 3063SOL    HW110088   2.651   5.520   1.590
 3063SOL    HW210089   2.803   5.461   1.598
 3064SOL     OW10090   5.962   4.128   3.029
 3064SOL    HW110091   5.886   4.167   2.976
 3064SOL    HW210092   6.020   4.203   3.062
 3065SOL     OW10093   2.370   0.843   0.158
 3065SOL    HW110094   2.439   0.898   0.205
 3065SOL    HW210095   2.330   0.896   0.084
 3066SOL     OW10096   5.660   5.031   0.751
 3066SOL    HW110097   5.594   5.061   0.820
 3066SOL    HW210098   5.626   4.947   0.707
 3067SOL     OW10099   3.687   1.693   5.437
 3067SOL    HW110100   3.709   1.789   5.423
 3067SOL    HW210101   3.725   1.639   5.362
 3068SOL     OW10102   6.459   6.444   1.825
 3068SOL    HW110103   6.500   6.497   1.751
 3068SOL    HW210104   6.360   6.450   1.820
 3069SOL     OW10105   6.634   6.475   2.010
 3069SOL    HW110106   6.554   6.464   1.951
 3069SOL    HW210107   6.604   6.514   2.098
 3070SOL     OW10108   1.483   1.201   1.331
 3070SOL    HW110109   1.485   1.191   1.231
 3070SOL    HW210110   1.449   1.117   1.372
 3071SOL     OW10111   6.573   6.210   2.801
 3071SOL    HW110112   6.634   6.250   2.732
 3071SOL    HW210113   6.603   6.239   2.892
 3072SOL     OW10114   1.772   6.921   6.770
 3072SOL    HW110115   1.739   6.958   6.683
 3072SOL    HW210116   1.782   6.996   6.836
 3073SOL     OW10117   6.310   2.742   4.526
 3073SOL    HW110118   6.348   2.725   4.617
 3073SOL    HW210119   6.351   2.824   4.487
 3074SOL     OW10120   6.018   3.351   1.237
 3074SOL    HW110121   6.006   3.261   1.197
 3074SOL    HW210122   6.012   3.345   1.336
 3075SOL     OW10123   2.528   5.846   2.089
 3075SOL    HW110124   2.609   5.801   2.126
 3075SOL    HW210125   2.503   5.803   2.003
 3076SOL     OW10126   6.540   0.408   4.089
 3076SOL    HW110127   6.532   0.339   4.161
 3076SOL    HW210128   6.628   0.455   4.099
 3077SOL     OW10129   4.839   5.870   2.244
 3077SOL    HW110130   4.892   5.847   2.163
 3077SOL    HW210131   4.784   5.791   2.272
 3078SOL     OW10132   1.130   3.233   2.356
 3078SOL    HW110133   1.229   3.232   2.341
 3078SOL    HW210134   1.094   3.323   2.334
 3079SOL     OW10135   2.107   2.242   4.021
 3079SOL    HW110136   2.109   2.152   3.978
 3079SOL    HW210137   2.198   2.283   4.019
 3080SOL     OW10138   4.896   3.666   3.878
 3080SOL    HW110139   4.966   3.689   3.810
 3080SOL    HW210140   4.845   3.748   3.903
 3081SOL     OW10141   0.402   2.430   6.077
 3081SOL    HW110142   0.492   2.391   6.096
 3081SOL    HW210143   0.332   2.359   6.087
 3082SOL     OW10144   2.906   6.779   4.215
 3082SOL    HW110145   2.877   6.732   4.298
 3082SOL    HW210146   2.846   6.753   4.139
 3083SOL     OW10147   3.903   6.164   3.585
 3083SOL    HW110148   3.873   6.250   3.544
 3083SOL    HW210149   3.988   6.180   3.637
 3084SOL     OW10150   5.534   3.923   4.554
 3084SOL    HW110151   5.611   3.942   4.615
 3084SOL    HW210152   5.521   3.824   4.545
 3085SOL     OW10153   6.647   4.629   1.709
 3085SOL    HW110154   6.630   4.619   1.807
 3085SOL    HW210155   6.742   4.657   1.694
 3086SOL     OW10156   4.001   1.902   1.711
 3086SOL    HW110157   3.953   1.971   1.765
 3086SOL    HW210158   3.935   1.837   1.673
 3087SOL     OW10159   0.320   5.640   3.882
 3087SOL    HW110160   0.259   5.656   3.959
 3087SOL    HW210161   0.351   5.544   3.884
 3088SOL     OW10162   1.937   4.248   5.485
 3088SOL    HW110163   1.858   4.308   5.472
 3088SOL    HW210164   2.019   4.303   5.498
 3089SOL     OW10165   1.132   3.242   0.154
 3089SOL    HW110166   1.135   3.273   0.058
 3089SOL    HW210167   1.179   3.309   0.212
 3090SOL     OW10168   1.572   2.216   2.134
 3090SOL    HW110169   1.534   2.235   2.043
 3090SOL    HW210170   1.669   2.237   2.135
 3091SOL     OW10171   1.778   1.057   1.169
 3091SOL    HW110172   1.848   1.012   1.114
 3091SOL    HW210173   1.821   1.123   1.231
 3092SOL     OW10174   4.979   6.827   0.588
 3092SOL    HW110175   4.905   6.868   0.534
 3092SOL    HW210176   5.050   6.896   0.604
 3093SOL     OW10177   4.903   6.070   5.652
 3093SOL    HW110178   4.981   6.132   5.640
 3093SOL    HW210179   4.822   6.111   5.611
 3094SOL     OW10180   2.833   6.620   4.415
 3094SOL    HW110181   2.751   6.566   4.434
 3094SOL    HW210182   2.911   6.559   4.403
 3095SOL     OW10183   2.033   5.492   5.832
 3095SOL    HW110184   1.954   5.475   5.891
 3095SOL    HW210185   2.021   5.580   5.786
 3096SOL     OW10186   1.833   6.380   4.836
 3096SOL    HW110187   1.761   6.312   4.849
 3096SOL    HW210188   1.913   6.336   4.794
 3097SOL     OW10189   6.607   2.343   0.553
 3097SOL    HW110190   6.636   2.284   0.478
 3097SOL    HW210191   6.679   2.346   0.623
 3098SOL     OW10192   2.893   3.021   0.970
 3098SOL    HW110193   2.990   3.004   0.988
 3098SOL    HW210194   2.852   3.066   1.049
 3099SOL     OW10195   0.699   6.707   2.774
 3099SOL    HW110196   0.697   6.632   2.841
 3099SOL    HW210197   0.769   6.773   2.800
 3100SOL     OW10198   6.636   6.962   5.002
 3100SOL    HW110199   6.706   6.934   4.936
 3100SOL    HW210200   6.546   6.958   4.957
 3101SOL     OW10201   4.815   6.806   6.380
 3101SOL    HW110202   4.777   6.828   6.470
 3101SOL    HW210203   4.741   6.790   6.315
 3102SOL     OW10204   0.307   4.555   2.521
 3102SOL    HW110205   0.208   4.567   2.516
 3102SOL    HW210206   0.353   4.637   2.487
 3103SOL     OW10207   4.273   0.349   2.484
 3103SOL    HW110208   4.181   0.349   2.447
 3103SOL    HW210209   4.270   0.354   2.583
 3104SOL     OW10210   5.340   6.453   5.216
 3104SOL    HW110211   5.403   6.514   5.264
 3104SOL    HW210212   5.388   6.368   5.192
 3105SOL     OW10213   6.104   4.398   2.129
 3105SOL    HW110214   6.070   4.313   2.169
 3105SOL    HW210215   6.070   4.408   2.036
 3106SOL     OW10216   6.192   1.881   2.823
 3106SOL    HW110217   6.158   1.788   2.824
 3106SOL    HW210218   6.139   1.936   2.759
 3107SOL     OW10219   4.044   0.964   4.409
 3107SOL    HW110220   4.143   0.974   4.407
 3107SOL    HW210221   4.017   0.910   4.489
 3108SOL     OW10222   0.870   0.028   4.171
 3108SOL    HW110223   0.786   0.046   4.221
 3108SOL    HW210224   0.938   7.011   4.233
 3109SOL     OW10225   5.274   0.026   2.907
 3109SOL    HW110226   5.353   0.019   2.847
 3109SOL    HW210227   5.249   6.957   2.940
 3110SOL     OW10228   1.808   2.177   3.111
 3110SOL    HW110229   1.846   2.206   3.199
 3110SOL    HW210230   1.865   2.106   3.072
 3111SOL     OW10231   5.718   6.306   3.599
 3111SOL    HW110232   5.762   6.222   3.631
 3111SOL    HW210233   5.788   6.372   3.571
 3112SOL     OW10234   4.741   2.403   6.391
 3112SOL    HW110235   4.701   2.312   6.381
 3112SOL    HW210236   4.670   2.468   6.417
 3113SOL     OW10237   2.017   6.206   3.818
 3113SOL    HW110238   1.941   6.147   3.791
 3113SOL    HW210239   2.085   6.207   3.745
 3114SOL     OW10240   4.116   1.993   0.647
 3114SOL    HW110241   4.109   2.008   0.549
 3114SOL    HW210242   4.046   2.047   0.694
 3115SOL     OW10243   4.138   3.424   6.514
 3115SOL    HW110244   4.086   3.375   6.444
 3115SOL    HW210245   4.093   3.414   6.602
 3116SOL     OW10246   0.265   2.736   0.181
 3116SOL    HW110247   0.277   2.794   0.261
 3116SOL    HW210248   0.236   2.644   0.210
 3117SOL     OW10249   4.183   3.484   5.214
 3117SOL    HW110250   4.126   3.487   5.132
 3117SOL    HW210251   4.130   3.511   5.293
 3118SOL     OW10252   0.151   4.617   1.582
 3118SOL    HW110253   0.182   4.654   1.495
 3118SOL    HW210254   0.193   4.528   1.597
 3119SOL     OW10255   1.653   3.707   5.935
 3119SOL    HW110256   1.576   3.735   5.992
 3119SOL    HW210257   1.697   3.788   5.896
 3120SOL     OW10258   3.211   6.729   4.778
 3120SOL    HW110259   3.159   6.644   4.772
 3120SOL    HW210260   3.208   6.762   4.872
 3121SOL     OW10261   6.681   1.561   3.546
 3121SOL    HW110262   6.621   1.494   3.591
 3121SOL    HW210263   6.639   1.591   3.461
 3122SOL     OW10264   3.090   6.818   6.071
 3122SOL    HW110265   3.054   6.908   6.049
 3122SOL    HW210266   3.054   6.750   6.007
 3123SOL     OW10267   4.235   1.589   4.112
 3123SOL    HW110268   4.235   1.502   4.162
 3123SOL    HW210269   4.277   1.575   4.022
 3124SOL     OW10270   4.137   6.595   4.447
 3124SOL    HW110271   4.063   6.652   4.410
 3124SOL    HW210272   4.120   6.577   4.544
 3125SOL     OW10273   6.624   1.946   5.177
 3125SOL    HW110274   6.642   2.010   5.251
 3125SOL    HW210275   6.674   1.862   5.192
 3126SOL     OW10276   4.298   4.939   6.545
 3126SOL    HW110277   4.321   4.848   6.513
 3126SOL    HW210278   4.284   4.938   6.645
 3127SOL     OW10279   1.103   3.674   3.716
 3127SOL    HW110280   1.120   3.586   3.761
 3127SOL    HW210281   1.179   3.695   3.654
 3128SOL     OW10282   2.185   0.706   6.949
 3128SOL    HW110283   2.259   0.643   6.974
 3128SOL    HW210284   2.223   0.797   6.936
 3129SOL     OW10285   0.534   4.204   6.289
 3129SOL    HW110286   0.451   4.253   6.315
 3129SOL    HW210287   0.578   4.168   6.371
 3130SOL     OW10288   1.933   4.388   1.266
 3130SOL    HW110289   1.906   4.292   1.260
 3130SOL    HW210290   2.028   4.397   1.239
 3131SOL     OW10291   6.926   2.814   1.201
 3131SOL    HW110292   6.902   2.754   1.125
 3131SOL    HW210293   6.933   2.908   1.169
 3132SOL     OW10294   4.709   5.665   5.605
 3132SOL    HW110295   4.715   5.704   5.696
 3132SOL    HW210296   4.729   5.735   5.537
 3133SOL     OW10297   3.508   2.138   4.072
 3133SOL    HW110298   3.470   2.138   4.165
 3133SOL    HW210299   3.448   2.190   4.011
 3134SOL     OW10300   5.027   4.494   1.114
 3134SOL    HW110301   5.049   4.457   1.024
 3134SOL    HW210302   5.110   4.501   1.169
 3135SOL     OW10303   5.498   0.438   5.282
 3135SOL    HW110304   5.425   0.380   5.318
 3135SOL    HW210305   5.572   0.380   5.246
 3136SOL     OW10306   5.417   0.631   1.060
 3136SOL    HW110307   5.354   0.649   1.135
 3136SOL    HW210308   5.366   0.626   0.974
 3137SOL     OW10309   6.014   0.686   2.885
 3137SOL    HW110310   5.970   0.600   2.858
 3137SOL    HW210311   5.969   0.762   2.837
 3138SOL     OW10312   6.178   3.478   3.947
 3138SOL    HW110313   6.158   3.428   4.032
 3138SOL    HW210314   6.273   3.460   3.920
 3139SOL     OW10315   4.817   6.478   0.487
 3139SOL    HW110316   4.749   6.489   0.560
 3139SOL    HW210317   4.908   6.470   0.526
 3140SOL     OW10318   6.208   0.121   6.494
 3140SOL    HW110319   6.275   0.157   6.559
 3140SOL    HW210320   6.242   0.036   6.455
 3141SOL     OW10321   6.858   6.513   6.359
 3141SOL    HW110322   6.834   6.519   6.262
 3141SOL    HW210323   6.917   6.590   6.383
 3142SOL     OW10324   3.811   6.837   1.588
 3142SOL    HW110325   3.779   6.808   1.498
 3142SOL    HW210326   3.862   6.762   1.631
 3143SOL     OW10327   6.897   1.635   6.457
 3143SOL    HW110328   6.979   1.685   6.486
 3143SOL    HW210329   6.878   1.657   6.361
 3144SOL     OW10330   4.234   4.515   1.475
 3144SOL    HW110331   4.252   4.431   1.424
 3144SOL    HW210332   4.225   4.494   1.572
 3145SOL     OW10333   1.461   5.562   1.646
 3145SOL    HW110334   1.469   5.474   1.692
 3145SOL    HW210335   1.377   5.608   1.675
 3146SOL     OW10336   1.485   0.186   2.675
 3146SOL    HW110337   1.537   0.242   2.739
 3146SOL    HW210338   1.543   0.110   2.643
 3147SOL     OW10339   2.979   4.743   0.414
 3147SOL    HW110340   3.051   4.708   0.354
 3147SOL    HW210341   2.989   4.703   0.505
 3148SOL     OW10342   5.126   6.027   4.515
 3148SOL    HW110343   5.096   5.934   4.536
 3148SOL    HW210344   5.047   6.088   4.516
 3149SOL     OW10345   2.382   1.498   6.080
 3149SOL    HW110346   2.325   1.580   6.066
 3149SOL    HW210347   2.447   1.516   6.154
 3150SOL     OW10348   6.652   6.324   3.969
 3150SOL    HW110349   6.655   6.225   3.953
 3150SOL    HW210350   6.572   6.346   4.025
 3151SOL     OW10351   4.195   1.622   6.210
 3151SOL    HW110352   4.273   1.602   6.269
 3151SOL    HW210353   4.213   1.590   6.117
 3152SOL     OW10354   1.356   6.112   0.310
 3152SOL    HW110355   1.308   6.199   0.326
 3152SOL    HW210356   1.296   6.036   0.334
 3153SOL     OW10357   6.485   4.715   2.473
 3153SOL    HW110358   6.467   4.665   2.558
 3153SOL    HW210359   6.513   4.650   2.402
 3154SOL     OW10360   6.803   1.048   6.785
 3154SOL    HW110361   6.727   1.110   6.767
 3154SOL    HW210362   6.777   0.982   6.857
 3155SOL     OW10363   6.505   4.273   1.241
 3155SOL    HW110364   6.441   4.320   1.181
 3155SOL    HW210365   6.534   4.335   1.314
 3156SOL     OW10366   3.239   3.482   3.339
 3156SOL    HW110367   3.277   3.459   3.250
 3156SOL    HW210368   3.142   3.457   3.342
 3157SOL     OW10369   2.258   2.985   4.792
 3157SOL    HW110370   2.277   3.007   4.888
 3157SOL    HW210371   2.339   2.946   4.750
 3158SOL     OW10372   4.194   0.029   2.372
 3158SOL    HW110373   4.108   7.001   2.383
 3158SOL    HW210374   4.251   0.013   2.453
 3159SOL     OW10375   5.451   1.514   0.004
 3159SOL    HW110376   5.401   1.545   0.086
 3159SOL    HW210377   5.494   1.426   0.023
 3160SOL     OW10378   0.554   6.063   5.077
 3160SOL    HW110379   0.454   6.059   5.085
 3160SOL    HW210380   0.594   6.076   5.167
 3161SOL     OW10381   1.640   2.203   3.845
 3161SOL    HW110382   1.605   2.210   3.939
 3161SOL    HW210383   1.574   2.153   3.789
 3162SOL     OW10384   1.116   6.682   1.640
 3162SOL    HW110385   1.073   6.773   1.637
 3162SOL    HW210386   1.048   6.614   1.666
 3163SOL     OW10387   3.413   1.898   6.216
 3163SOL    HW110388   3.391   1.937   6.127
 3163SOL    HW210389   3.479   1.957   6.262
 3164SOL     OW10390   4.524   4.497   1.485
 3164SOL    HW110391   4.440   4.551   1.487
 3164SOL    HW210392   4.504   4.406   1.448
 3165SOL     OW10393   0.904   6.104   1.063
 3165SOL    HW110394   0.854   6.019   1.075
 3165SOL    HW210395   0.965   6.118   1.141
 3166SOL     OW10396   4.532   1.133   5.884
 3166SOL    HW110397   4.482   1.205   5.931
 3166SOL    HW210398   4.512   1.045   5.927
 3167SOL     OW10399   6.763   3.965   1.616
 3167SOL    HW110400   6.720   3.920   1.537
 3167SOL    HW210401   6.845   4.014   1.585
 3168SOL     OW10402   4.961   2.708   6.444
 3168SOL    HW110403   5.029   2.750   6.504
 3168SOL    HW210404   4.999   2.625   6.403
 3169SOL     OW10405   1.617   3.292   4.561
 3169SOL    HW110406   1.582   3.327   4.474
 3169SOL    HW210407   1.561   3.327   4.636
 3170SOL     OW10408   4.138   0.628   1.371
 3170SOL    HW110409   4.105   0.716   1.405
 3170SOL    HW210410   4.168   0.572   1.449
 3171SOL     OW10411   0.604   6.537   1.204
 3171SOL    HW110412   0.632   6.446   1.175
 3171SOL    HW210413   0.605   6.542   1.304
 3172SOL     OW10414   0.348   5.089   6.032
 3172SOL    HW110415   0.418   5.094   5.960
 3172SOL    HW210416   0.319   4.994   6.043
 3173SOL     OW10417   2.829   2.149   0.926
 3173SOL    HW110418   2.830   2.082   1.000
 3173SOL    HW210419   2.819   2.241   0.965
 3174SOL     OW10420   2.755   3.063   6.285
 3174SOL    HW110421   2.821   3.008   6.234
 3174SOL    HW210422   2.674   3.078   6.228
 3175SOL     OW10423   0.433   6.859   0.305
 3175SOL    HW110424   0.501   6.862   0.232
 3175SOL    HW210425   0.468   6.804   0.381
 3176SOL     OW10426   2.051   5.043   5.361
 3176SOL    HW110427   2.084   5.136   5.373
 3176SOL    HW210428   2.050   5.019   5.264
 3177SOL     OW10429   4.769   4.586   4.650
 3177SOL    HW110430   4.672   4.566   4.652
 3177SOL    HW210431   4.818   4.525   4.713
 3178SOL     OW10432   6.729   2.018   0.756
 3178SOL    HW110433   6.810   1.981   0.800
 3178SOL    HW210434   6.718   1.978   0.665
 3179SOL     OW10435   1.734   2.762   2.116
 3179SOL    HW110436   1.709   2.854   2.088
 3179SOL    HW210437   1.823   2.764   2.161
 3180SOL     OW10438   4.520   0.805   6.788
 3180SOL    HW110439   4.502   0.712   6.758
 3180SOL    HW210440   4.608   0.836   6.751
 3181SOL     OW10441   1.194   1.103   3.007
 3181SOL    HW110442   1.151   1.052   3.081
 3181SOL    HW210443   1.189   1.051   2.922
 3182SOL     OW10444   1.933   1.566   4.978
 3182SOL    HW110445   1.917   1.621   5.060
 3182SOL    HW210446   1.857   1.503   4.965
 3183SOL     OW10447   4.323   3.913   1.352
 3183SOL    HW110448   4.398   3.860   1.392
 3183SOL    HW210449   4.247   3.917   1.417
 3184SOL     OW10450   1.219   2.586   3.067
 3184SOL    HW110451   1.167   2.617   3.147
 3184SOL    HW210452   1.313   2.619   3.074
 3185SOL     OW10453   5.942   6.690   6.753
 3185SOL    HW110454   5.978   6.720   6.841
 3185SOL    HW210455   6.018   6.664   6.693
 3186SOL     OW10456   3.887   1.792   2.602
 3186SOL    HW110457   3.900   1.764   2.506
 3186SOL    HW210458   3.892   1.891   2.609
 3187SOL     OW10459   4.755   4.072   0.675
 3187SOL    HW110460   4.762   4.128   0.593
 3187SOL    HW210461   4.843   4.027   0.692
 3188SOL     OW10462   3.769   6.422   5.234
 3188SOL    HW110463   3.791   6.513   5.201
 3188SOL    HW210464   3.752   6.426   5.333
 3189SOL     OW10465   1.908   1.151   1.774
 3189SOL    HW110466   1.900   1.250   1.786
 3189SOL    HW210467   1.933   1.132   1.679
 3190SOL     OW10468   0.289   5.911   1.514
 3190SOL    HW110469   0.345   5.982   1.557
 3190SOL    HW210470   0.292   5.827   1.569
 3191SOL     OW10471   4.570   6.284   0.573
 3191SOL    HW110472   4.576   6.380   0.599
 3191SOL    HW210473   4.522   6.233   0.645
 3192SOL     OW10474   7.017   2.403   1.351
 3192SOL    HW110475   0.037   2.322   1.312
 3192SOL    HW210476   6.955   2.443   1.284
 3193SOL     OW10477   4.190   1.551   5.958
 3193SOL    HW110478   4.092   1.549   5.939
 3193SOL    HW210479   4.241   1.553   5.872
 3194SOL     OW10480   0.817   3.643   5.800
 3194SOL    HW110481   0.881   3.580   5.844
 3194SOL    HW210482   0.751   3.675   5.867
 3195SOL     OW10483   2.204   2.485   3.217
 3195SOL    HW110484   2.284   2.426   3.219
 3195SOL    HW210485   2.132   2.442   3.162
 3196SOL     OW10486   7.011   0.675   5.221
 3196SOL    HW110487   6.927   0.711   5.262
 3196SOL    HW210488   6.987   0.607   5.151
 3197SOL     OW10489   1.876   6.246   3.378
 3197SOL    HW110490   1.952   6.234   3.314
 3197SOL    HW210491   1.824   6.161   3.385
 3198SOL     OW10492   6.662   2.085   5.902
 3198SOL    HW110493   6.630   2.140   5.980
 3198SOL    HW210494   6.676   1.991   5.932
 3199SOL     OW10495   4.723   2.749   1.813
 3199SOL    HW110496   4.739   2.754   1.715
 3199SOL    HW210497   4.673   2.830   1.843
 3200SOL     OW10498   6.968   2.461   2.144
 3200SOL    HW110499   6.982   2.524   2.221
 3200SOL    HW210500   6.975   2.367   2.177
 3201SOL     OW10501   5.294   4.902   4.641
 3201SOL    HW110502   5.301   4.855   4.729
 3201SOL    HW210503   5.198   4.919   4.620
 3202SOL     OW10504   1.729   4.678   1.908
 3202SOL    HW110505   1.700   4.683   2.004
 3202SOL    HW210506   1.654   4.644   1.852
 3203SOL     OW10507   5.957   2.270   6.991
 3203SOL    HW110508   5.996   2.344   0.023
 3203SOL    HW210509   5.861   2.291   6.972
 3204SOL     OW10510   4.914   6.394   1.556
 3204SOL    HW110511   4.956   6.400   1.466
 3204SOL    HW210512   4.943   6.472   1.612
 3205SOL     OW10513   0.462   3.571   6.467
 3205SOL    HW110514   0.461   3.491   6.527
 3205SOL    HW210515   0.373   3.617   6.470
 3206SOL     OW10516   6.851   6.645   6.111
 3206SOL    HW110517   6.856   6.554   6.071
 3206SOL    HW210518   6.825   6.711   6.040
 3207SOL     OW10519   0.259   1.426   5.893
 3207SOL    HW110520   0.189   1.479   5.941
 3207SOL    HW210521   0.234   1.329   5.892
 3208SOL     OW10522   4.699   6.205   5.504
 3208SOL    HW110523   4.682   6.154   5.420
 3208SOL    HW210524   4.711   6.302   5.482
 3209SOL     OW10525   3.434   5.201   3.438
 3209SOL    HW110526   3.338   5.222   3.421
 3209SOL    HW210527   3.455   5.217   3.534
 3210SOL     OW10528   0.957   3.779   2.228
 3210SOL    HW110529   0.874   3.835   2.224
 3210SOL    HW210530   0.933   3.683   2.218
 3211SOL     OW10531   2.500   3.276   1.052
 3211SOL    HW110532   2.492   3.291   0.954
 3211SOL    HW210533   2.415   3.302   1.097
 3212SOL     OW10534   3.583   1.393   0.049
 3212SOL    HW110535   3.486   1.392   0.072
 3212SOL    HW210536   3.634   1.435   0.123
 3213SOL     OW10537   6.119   6.190   2.555
 3213SOL    HW110538   6.209   6.198   2.512
 3213SOL    HW210539   6.063   6.269   2.529
 3214SOL     OW10540   5.098   5.242   0.302
 3214SOL    HW110541   5.116   5.183   0.223
 3214SOL    HW210542   5.111   5.190   0.386
 3215SOL     OW10543   0.370   3.034   1.025
 3215SOL    HW110544   0.360   2.998   1.118
 3215SOL    HW210545   0.425   2.971   0.970
 3216SOL     OW10546   5.358   5.515   1.816
 3216SOL    HW110547   5.380   5.460   1.736
 3216SOL    HW210548   5.311   5.459   1.884
 3217SOL     OW10549   0.544   5.586   2.556
 3217SOL    HW110550   0.595   5.623   2.478
 3217SOL    HW210551   0.606   5.536   2.617
 3218SOL     OW10552   3.696   6.342   3.432
 3218SOL    HW110553   3.755   6.313   3.356
 3218SOL    HW210554   3.683   6.441   3.427
 3219SOL     OW10555   6.851   1.738   3.265
 3219SOL    HW110556   6.926   1.783   3.216
 3219SOL    HW210557   6.806   1.804   3.325
 3220SOL     OW10558   6.375   6.008   5.936
 3220SOL    HW110559   6.347   6.101   5.912
 3220SOL    HW210560   6.352   5.990   6.031
 3221SOL     OW10561   3.464   0.381   2.122
 3221SOL    HW110562   3.475   0.369   2.221
 3221SOL    HW210563   3.378   0.427   2.103
 3222SOL     OW10564   4.269   1.710   3.588
 3222SOL    HW110565   4.186   1.693   3.642
 3222SOL    HW210566   4.327   1.775   3.636
 3223SOL     OW10567   1.922   5.048   6.754
 3223SOL    HW110568   1.825   5.062   6.773
 3223SOL    HW210569   1.969   5.015   6.837
 3224SOL     OW10570   3.915   4.994   6.404
 3224SOL    HW110571   3.819   5.008   6.378
 3224SOL    HW210572   3.953   5.079   6.439
 3225SOL     OW10573   4.485   2.871   5.263
 3225SOL    HW110574   4.554   2.896   5.195
 3225SOL    HW210575   4.529   2.859   5.352
 3226SOL     OW10576   1.223   1.602   4.530
 3226SOL    HW110577   1.129   1.569   4.521
 3226SOL    HW210578   1.273   1.542   4.592
 3227SOL     OW10579   3.075   2.329   6.226
 3227SOL    HW110580   3.038   2.409   6.272
 3227SOL    HW210581   3.034   2.246   6.265
 3228SOL     OW10582   5.698   3.313   3.484
 3228SOL    HW110583   5.604   3.347   3.473
 3228SOL    HW210584   5.751   3.380   3.536
 3229SOL     OW10585   3.445   1.781   5.452
 3229SOL    HW110586   3.399   1.718   5.514
 3229SOL    HW210587   3.543   1.759   5.449
 3230SOL     OW10588   0.890   3.085   3.892
 3230SOL    HW110589   0.895   3.119   3.798
 3230SOL    HW210590   0.962   3.018   3.907
 3231SOL     OW10591   2.972   6.797   2.169
 3231SOL    HW110592   3.003   6.744   2.248
 3231SOL    HW210593   2.883   6.838   2.189
 3232SOL     OW10594   4.168   4.868   4.090
 3232SOL    HW110595   4.192   4.779   4.129
 3232SOL    HW210596   4.075   4.865   4.054
 3233SOL     OW10597   2.088   3.136   1.273
 3233SOL    HW110598   2.129   3.212   1.223
 3233SOL    HW210599   2.011   3.099   1.220
 3234SOL     OW10600   0.153   2.216   0.311
 3234SOL    HW110601   0.114   2.306   0.329
 3234SOL    HW210602   0.212   2.221   0.230
 3235SOL     OW10603   4.553   6.689   1.106
 3235SOL    HW110604   4.549   6.768   1.168
 3235SOL    HW210605   4.559   6.605   1.160
 3236SOL     OW10606   1.476   3.212   0.971
 3236SOL    HW110607   1.386   3.167   0.975
 3236SOL    HW210608   1.471   3.292   0.912
 3237SOL     OW10609   5.612   1.708   4.116
 3237SOL    HW110610   5.627   1.633   4.181
 3237SOL    HW210611   5.603   1.671   4.023
 3238SOL     OW10612   0.027   4.607   0.250
 3238SOL    HW110613   0.101   4.624   0.185
 3238SOL    HW210614   6.962   4.629   0.208
 3239SOL     OW10615   5.660   1.883   0.487
 3239SOL    HW110616   5.631   1.961   0.431
 3239SOL    HW210617   5.736   1.836   0.441
 3240SOL     OW10618   0.708   6.236   4.851
 3240SOL    HW110619   0.638   6.201   4.913
 3240SOL    HW210620   0.754   6.314   4.894
 3241SOL     OW10621   5.057   1.238   4.321
 3241SOL    HW110622   5.042   1.148   4.361
 3241SOL    HW210623   5.136   1.281   4.363
 3242SOL     OW10624   3.139   4.729   1.438
 3242SOL    HW110625   3.087   4.678   1.369
 3242SOL    HW210626   3.227   4.684   1.453
 3243SOL     OW10627   6.179   5.029   0.132
 3243SOL    HW110628   6.250   5.002   0.068
 3243SOL    HW210629   6.102   4.965   0.126
 3244SOL     OW10630   5.022   5.835   0.134
 3244SOL    HW110631   5.093   5.883   0.185
 3244SOL    HW210632   4.932   5.862   0.167
 3245SOL     OW10633   5.112   2.297   5.727
 3245SOL    HW110634   5.076   2.362   5.660
 3245SOL    HW210635   5.139   2.213   5.681
 3246SOL     OW10636   6.460   0.903   2.959
 3246SOL    HW110637   6.363   0.878   2.953
 3246SOL    HW210638   6.468   0.989   3.009
 3247SOL     OW10639   6.482   5.147   3.814
 3247SOL    HW110640   6.481   5.247   3.815
 3247SOL    HW210641   6.462   5.115   3.721
 3248SOL     OW10642   6.100   3.316   1.727
 3248SOL    HW110643   6.162   3.311   1.648
 3248SOL    HW210644   6.153   3.341   1.808
 3249SOL     OW10645   3.740   4.260   5.569
 3249SOL    HW110646   3.762   4.298   5.659
 3249SOL    HW210647   3.687   4.177   5.580
 3250SOL     OW10648   5.863   0.790   2.529
 3250SOL    HW110649   5.771   0.792   2.490
 3250SOL    HW210650   5.869   0.856   2.604
 3251SOL     OW10651   3.990   1.164   2.836
 3251SOL    HW110652   3.896   1.180   2.807
 3251SOL    HW210653   4.052   1.217   2.779
 3252SOL     OW10654   2.740   1.104   2.432
 3252SOL    HW110655   2.665   1.159   2.467
 3252SOL    HW210656   2.771   1.141   2.344
 3253SOL     OW10657   5.040   3.499   2.618
 3253SOL    HW110658   4.999   3.438   2.686
 3253SOL    HW210659   5.139   3.491   2.622
 3254SOL     OW10660   4.071   5.222   5.246
 3254SOL    HW110661   4.032   5.291   5.184
 3254SOL    HW210662   3.998   5.174   5.293
 3255SOL     OW10663   4.409   6.016   1.633
 3255SOL    HW110664   4.310   6.018   1.646
 3255SOL    HW210665   4.446   6.108   1.640
 3256SOL     OW10666   5.580   0.051   6.762
 3256SOL    HW110667   5.619   0.077   6.673
 3256SOL    HW210668   5.486   0.083   6.767
 3257SOL     OW10669   1.344   1.770   1.427
 3257SOL    HW110670   1.386   1.721   1.503
 3257SOL    HW210671   1.268   1.716   1.391
 3258SOL     OW10672   4.050   5.211   2.171
 3258SOL    HW110673   4.038   5.299   2.218
 3258SOL    HW210674   3.983   5.146   2.206
 3259SOL     OW10675   4.829   6.199   4.038
 3259SOL    HW110676   4.765   6.160   4.105
 3259SOL    HW210677   4.906   6.137   4.025
 3260SOL     OW10678   2.186   1.650   1.857
 3260SOL    HW110679   2.184   1.744   1.822
 3260SOL    HW210680   2.120   1.642   1.932
 3261SOL     OW10681   4.536   5.788   0.207
 3261SOL    HW110682   4.444   5.801   0.169
 3261SOL    HW210683   4.530   5.779   0.306
 3262SOL     OW10684   3.266   2.089   2.448
 3262SOL    HW110685   3.264   2.063   2.351
 3262SOL    HW210686   3.328   2.027   2.497
 3263SOL     OW10687   4.750   0.321   3.734
 3263SOL    HW110688   4.691   0.260   3.788
 3263SOL    HW210689   4.834   0.272   3.710
 3264SOL     OW10690   1.021   4.758   1.035
 3264SOL    HW110691   0.991   4.721   0.947
 3264SOL    HW210692   0.962   4.723   1.108
 3265SOL     OW10693   4.287   2.091   5.826
 3265SOL    HW110694   4.292   1.991   5.828
 3265SOL    HW210695   4.331   2.129   5.907
 3266SOL     OW10696   1.339   2.482   0.515
 3266SOL    HW110697   1.414   2.422   0.543
 3266SOL    HW210698   1.355   2.574   0.550
 3267SOL     OW10699   3.380   2.080   0.515
 3267SOL    HW110700   3.332   2.093   0.602
 3267SOL    HW210701   3.447   2.007   0.525
 3268SOL     OW10702   1.079   3.738   6.456
 3268SOL    HW110703   1.017   3.727   6.378
 3268SOL    HW210704   1.157   3.676   6.444
 3269SOL     OW10705   4.445   5.234   1.809
 3269SOL    HW110706   4.414   5.311   1.755
 3269SOL    HW210707   4.545   5.229   1.808
 3270SOL     OW10708   1.490   4.692   4.798
 3270SOL    HW110709   1.520   4.614   4.743
 3270SOL    HW210710   1.569   4.739   4.836
 3271SOL     OW10711   5.680   3.307   2.628
 3271SOL    HW110712   5.722   3.224   2.665
 3271SOL    HW210713   5.584   3.289   2.609
 3272SOL     OW10714   3.202   4.307   0.558
 3272SOL    HW110715   3.220   4.219   0.602
 3272SOL    HW210716   3.116   4.345   0.591
 3273SOL     OW10717   1.222   6.722   2.150
 3273SOL    HW110718   1.141   6.779   2.165
 3273SOL    HW210719   1.206   6.631   2.189
 3274SOL     OW10720   3.940   2.003   0.150
 3274SOL    HW110721   3.978   2.012   0.242
 3274SOL    HW210722   3.842   1.985   0.156
 3275SOL     OW10723   1.313   0.810   6.684
 3275SOL    HW110724   1.401   0.851   6.710
 3275SOL    HW210725   1.311   0.715   6.716
 3276SOL     OW10726   3.205   5.381   6.968
 3276SOL    HW110727   3.263   5.319   7.021
 3276SOL    HW210728   3.255   5.466   6.950
 3277SOL     OW10729   5.506   6.712   6.663
 3277SOL    HW110730   5.471   6.714   6.569
 3277SOL    HW210731   5.590   6.765   6.668
 3278SOL     OW10732   6.335   1.377   5.737
 3278SOL    HW110733   6.362   1.402   5.830
 3278SOL    HW210734   6.383   1.293   5.711
 3279SOL     OW10735   0.567   0.846   1.104
 3279SOL    HW110736   0.564   0.758   1.057
 3279SOL    HW210737   0.474   0.876   1.127
 3280SOL     OW10738   3.288   5.180   6.035
 3280SOL    HW110739   3.302   5.261   6.093
 3280SOL    HW210740   3.314   5.202   5.941
 3281SOL     OW10741   1.715   5.691   0.901
 3281SOL    HW110742   1.635   5.712   0.845
 3281SOL    HW210743   1.743   5.773   0.952
 3282SOL     OW10744   2.454   5.073   4.200
 3282SOL    HW110745   2.538   5.118   4.230
 3282SOL    HW210746   2.466   4.974   4.205
 3283SOL     OW10747   2.799   1.129   2.142
 3283SOL    HW110748   2.832   1.037   2.162
 3283SOL    HW210749   2.851   1.168   2.066
 3284SOL     OW10750   6.169   6.507   6.656
 3284SOL    HW110751   6.117   6.445   6.598
 3284SOL    HW210752   6.259   6.523   6.615
 3285SOL     OW10753   6.126   2.573   3.519
 3285SOL    HW110754   6.097   2.593   3.613
 3285SOL    HW210755   6.153   2.658   3.473
 3286SOL     OW10756   4.057   3.321   3.712
 3286SOL    HW110757   3.962   3.323   3.680
 3286SOL    HW210758   4.062   3.271   3.799
 3287SOL     OW10759   1.198   5.921   0.429
 3287SOL    HW110760   1.123   5.860   0.404
 3287SOL    HW210761   1.195   5.939   0.527
 3288SOL     OW10762   0.796   4.786   6.761
 3288SOL    HW110763   0.722   4.851   6.752
 3288SOL    HW210764   0.764   4.695   6.734
 3289SOL     OW10765   2.029   6.930   5.713
 3289SOL    HW110766   1.947   6.901   5.762
 3289SOL    HW210767   2.003   6.969   5.625
 3290SOL     OW10768   0.501   6.923   1.974
 3290SOL    HW110769   0.466   6.974   1.896
 3290SOL    HW210770   0.549   6.842   1.943
 3291SOL     OW10771   1.332   6.242   6.599
 3291SOL    HW110772   1.429   6.253   6.619
 3291SOL    HW210773   1.294   6.330   6.569
 3292SOL     OW10774   0.267   1.573   0.039
 3292SOL    HW110775   0.349   1.545   0.090
 3292SOL    HW210776   0.189   1.517   0.069
 3293SOL     OW10777   6.181   3.183   2.781
 3293SOL    HW110778   6.207   3.187   2.685
 3293SOL    HW210779   6.263   3.174   2.837
 3294SOL     OW10780   0.251   0.655   6.302
 3294SOL    HW110781   0.237   0.689   6.209
 3294SOL    HW210782   0.164   0.620   6.337
 3295SOL     OW10783   1.737   2.569   1.598
 3295SOL    HW110784   1.649   2.523   1.586
 3295SOL    HW210785   1.785   2.571   1.510
 3296SOL     OW10786   2.253   6.155   1.490
 3296SOL    HW110787   2.230   6.090   1.417
 3296SOL    HW210788   2.316   6.225   1.455
 3297SOL     OW10789   2.679   0.598   4.930
 3297SOL    HW110790   2.729   0.513   4.912
 3297SOL    HW210791   2.675   0.614   5.029
 3298SOL     OW10792   6.029   2.535   3.772
 3298SOL    HW110793   5.947   2.573   3.729
 3298SOL    HW210794   6.035   2.568   3.867
 3299SOL     OW10795   2.314   6.757   3.678
 3299SOL    HW110796   2.225   6.718   3.655
 3299SOL    HW210797   2.333   6.741   3.775
 3300SOL     OW10798   0.078   0.735   5.663
 3300SOL    HW110799   0.106   0.812   5.721
 3300SOL    HW210800   7.002   0.737   5.650
 3301SOL     OW10801   2.087   3.991   3.314
 3301SOL    HW110802   2.039   3.905   3.297
 3301SOL    HW210803   2.093   4.008   3.412
 3302SOL     OW10804   1.314   6.331   4.377
 3302SOL    HW110805   1.414   6.325   4.384
 3302SOL    HW210806   1.290   6.397   4.306
 3303SOL     OW10807   3.643   3.374   1.254
 3303SOL    HW110808   3.591   3.289   1.262
 3303SOL    HW210809   3.673   3.386   1.160
 3304SOL     OW10810   1.432   5.083   3.465
 3304SOL    HW110811   1.528   5.084   3.495
 3304SOL    HW210812   1.372   5.100   3.543
 3305SOL     OW10813   2.411   2.309   3.200
 3305SOL    HW110814   2.495   2.295   3.253
 3305SOL    HW210815   2.432   2.302   3.103
 3306SOL     OW10816   2.652   5.182   3.772
 3306SOL    HW110817   2.592   5.102   3.776
 3306SOL    HW210818   2.735   5.159   3.722
 3307SOL     OW10819   0.583   5.380   6.554
 3307SOL    HW110820   0.638   5.324   6.491
 3307SOL    HW210821   0.498   5.332   6.575
 3308SOL     OW10822   4.684   5.810   6.934
 3308SOL    HW110823   4.626   5.771   7.006
 3308SOL    HW210824   4.709   5.904   6.958
 3309SOL     OW10825   0.797   5.475   2.415
 3309SOL    HW110826   0.784   5.572   2.391
 3309SOL    HW210827   0.841   5.428   2.339
 3310SOL     OW10828   0.091   4.259   4.532
 3310SOL    HW110829   0.115   4.323   4.459
 3310SOL    HW210830   0.003   4.217   4.511
 3311SOL     OW10831   2.815   4.812   1.450
 3311SOL    HW110832   2.788   4.833   1.545
 3311SOL    HW210833   2.914   4.804   1.445
 3312SOL     OW10834   3.114   4.534   6.190
 3312SOL    HW110835   3.062   4.608   6.234
 3312SOL    HW210836   3.206   4.567   6.168
 3313SOL     OW10837   0.165   5.325   2.545
 3313SOL    HW110838   0.121   5.317   2.456
 3313SOL    HW210839   0.248   5.268   2.547
 3314SOL     OW10840   1.730   2.268   4.868
 3314SOL    HW110841   1.711   2.361   4.836
 3314SOL    HW210842   1.666   2.244   4.940
 3315SOL     OW10843   6.227   2.914   4.195
 3315SOL    HW110844   6.265   2.963   4.273
 3315SOL    HW210845   6.298   2.897   4.127
 3316SOL     OW10846   3.452   1.600   5.898
 3316SOL    HW110847   3.495   1.689   5.912
 3316SOL    HW210848   3.365   1.596   5.948
 3317SOL     OW10849   4.960   2.909   1.906
 3317SOL    HW110850   4.867   2.943   1.920
 3317SOL    HW210851   4.964   2.812   1.930
 3318SOL     OW10852   2.922   0.356   0.042
 3318SOL    HW110853   2.938   0.425   0.111
 3318SOL    HW210854   2.953   0.267   0.075
 3319SOL     OW10855   5.928   6.992   3.809
 3319SOL    HW110856   5.916   7.019   3.904
 3319SOL    HW210857   5.842   6.957   3.773
 3320SOL     OW10858   5.258   1.290   5.725
 3320SOL    HW110859   5.226   1.378   5.760
 3320SOL    HW210860   5.190   1.219   5.746
 3321SOL     OW10861   3.451   2.455   1.683
 3321SOL    HW110862   3.494   2.453   1.593
 3321SOL    HW210863   3.510   2.408   1.749
 3322SOL     OW10864   5.056   2.530   1.947
 3322SOL    HW110865   5.029   2.436   1.929
 3322SOL    HW210866   5.047   2.550   2.045
 3323SOL     OW10867   1.782   3.972   6.833
 3323SOL    HW110868   1.789   4.071   6.843
 3323SOL    HW210869   1.813   3.927   6.916
 3324SOL     OW10870   1.043   3.787   6.715
 3324SOL    HW110871   1.066   3.757   6.623
 3324SOL    HW210872   0.946   3.771   6.732
 3325SOL     OW10873   2.315   3.344   6.490
 3325SOL    HW110874   2.233   3.394   6.514
 3325SOL    HW210875   2.291   3.249   6.469
 3326SOL     OW10876   5.081   1.645   1.768
 3326SOL    HW110877   5.013   1.595   1.822
 3326SOL    HW210878   5.056   1.742   1.766
 3327SOL     OW10879   2.673   5.992   1.154
 3327SOL    HW110880   2.711   6.074   1.112
 3327SOL    HW210881   2.658   6.009   1.252
 3328SOL     OW10882   4.328   1.599   2.784
 3328SOL    HW110883   4.245   1.654   2.793
 3328SOL    HW210884   4.386   1.612   2.864
 3329SOL     OW10885   4.673   0.075   5.189
 3329SOL    HW110886   4.639   0.024   5.110
 3329SOL    HW210887   4.679   0.173   5.166
 3330SOL     OW10888   5.397   6.148   2.129
 3330SOL    HW110889   5.495   6.169   2.128
 3330SOL    HW210890   5.357   6.181   2.215
 3331SOL     OW10891   1.495   2.849   2.628
 3331SOL    HW110892   1.445   2.798   2.699
 3331SOL    HW210893   1.503   2.791   2.547
 3332SOL     OW10894   6.920   4.287   6.804
 3332SOL    HW110895   6.987   4.352   6.841
 3332SOL    HW210896   6.828   4.323   6.819
 3333SOL     OW10897   2.521   3.342   6.984
 3333SOL    HW110898   2.527   3.249   7.020
 3333SOL    HW210899   2.512   3.338   6.884
 3334SOL     OW10900   2.085   3.322   2.145
 3334SOL    HW110901   2.152   3.377   2.095
 3334SOL    HW210902   2.083   3.230   2.107
 3335SOL     OW10903   5.082   6.182   6.326
 3335SOL    HW110904   5.125   6.266   6.360
 3335SOL    HW210905   5.010   6.205   6.261
 3336SOL     OW10906   2.100   0.040   4.155
 3336SOL    HW110907   2.006   0.070   4.135
 3336SOL    HW210908   2.098   6.997   4.230
 3337SOL     OW10909   2.827   3.831   1.282
 3337SOL    HW110910   2.811   3.928   1.302
 3337SOL    HW210911   2.919   3.818   1.246
 3338SOL     OW10912   0.246   2.394   1.823
 3338SOL    HW110913   0.225   2.438   1.911
 3338SOL    HW210914   0.346   2.383   1.815
 3339SOL     OW10915   1.673   0.080   6.562
 3339SOL    HW110916   1.574   0.094   6.567
 3339SOL    HW210917   1.717   0.165   6.535
 3340SOL     OW10918   3.967   1.201   4.300
 3340SOL    HW110919   3.917   1.259   4.364
 3340SOL    HW210920   3.967   1.107   4.334
 3341SOL     OW10921   2.129   4.408   3.867
 3341SOL    HW110922   2.129   4.486   3.930
 3341SOL    HW210923   2.223   4.386   3.841
 3342SOL     OW10924   0.925   0.508   2.804
 3342SOL    HW110925   0.841   0.546   2.766
 3342SOL    HW210926   0.997   0.511   2.735
 3343SOL     OW10927   5.441   5.063   6.390
 3343SOL    HW110928   5.371   5.026   6.329
 3343SOL    HW210929   5.496   4.988   6.427
 3344SOL     OW10930   6.139   3.081   3.911
 3344SOL    HW110931   6.061   3.020   3.925
 3344SOL    HW210932   6.143   3.148   3.985
 3345SOL     OW10933   0.758   4.038   5.947
 3345SOL    HW110934   0.818   3.984   5.888
 3345SOL    HW210935   0.663   4.011   5.932
 3346SOL     OW10936   1.553   0.916   6.740
 3346SOL    HW110937   1.546   0.908   6.839
 3346SOL    HW210938   1.646   0.941   6.715
 3347SOL     OW10939   1.148   2.606   6.194
 3347SOL    HW110940   1.201   2.594   6.110
 3347SOL    HW210941   1.197   2.667   6.256
 3348SOL     OW10942   4.037   3.468   5.000
 3348SOL    HW110943   4.093   3.465   4.917
 3348SOL    HW210944   3.987   3.382   5.010
 3349SOL     OW10945   2.067   4.801   3.071
 3349SOL    HW110946   2.159   4.835   3.055
 3349SOL    HW210947   2.071   4.704   3.097
 3350SOL     OW10948   0.304   2.613   6.240
 3350SOL    HW110949   0.209   2.639   6.221
 3350SOL    HW210950   0.329   2.536   6.182
 3351SOL     OW10951   4.666   1.104   2.032
 3351SOL    HW110952   4.638   1.156   1.952
 3351SOL    HW210953   4.705   1.166   2.101
 3352SOL     OW10954   5.654   2.404   1.294
 3352SOL    HW110955   5.580   2.438   1.352
 3352SOL    HW210956   5.650   2.304   1.290
 3353SOL     OW10957   2.272   5.847   0.858
 3353SOL    HW110958   2.189   5.824   0.908
 3353SOL    HW210959   2.319   5.921   0.907
 3354SOL     OW10960   4.258   2.738   5.383
 3354SOL    HW110961   4.220   2.660   5.332
 3354SOL    HW210962   4.313   2.794   5.321
 3355SOL     OW10963   2.245   1.259   6.083
 3355SOL    HW110964   2.294   1.347   6.075
 3355SOL    HW210965   2.246   1.213   5.994
 3356SOL     OW10966   1.483   5.890   5.949
 3356SOL    HW110967   1.501   5.967   6.010
 3356SOL    HW210968   1.402   5.840   5.981
 3357SOL     OW10969   3.551   3.194   1.680
 3357SOL    HW110970   3.574   3.116   1.622
 3357SOL    HW210971   3.611   3.194   1.760
 3358SOL     OW10972   5.143   1.367   3.398
 3358SOL    HW110973   5.090   1.355   3.482
 3358SOL    HW210974   5.095   1.430   3.337
 3359SOL     OW10975   6.711   5.994   3.267
 3359SOL    HW110976   6.616   5.976   3.293
 3359SOL    HW210977   6.722   5.976   3.170
 3360SOL     OW10978   0.893   2.235   6.209
 3360SOL    HW110979   0.982   2.256   6.166
 3360SOL    HW210980   0.900   2.150   6.260
 3361SOL     OW10981   0.846   6.404   5.039
 3361SOL    HW110982   0.874   6.400   5.135
 3361SOL    HW210983   0.860   6.496   5.004
 3362SOL     OW10984   3.892   1.503   2.868
 3362SOL    HW110985   3.815   1.479   2.809
 3362SOL    HW210986   3.932   1.589   2.837
 3363SOL     OW10987   6.939   2.696   1.622
 3363SOL    HW110988   0.003   2.654   1.598
 3363SOL    HW210989   6.897   2.647   1.698
 3364SOL     OW10990   2.319   4.822   2.801
 3364SOL    HW110991   2.394   4.875   2.759
 3364SOL    HW210992   2.326   4.828   2.900
 3365SOL     OW10993   0.311   2.985   4.734
 3365SOL    HW110994   0.336   2.908   4.675
 3365SOL    HW210995   0.241   3.040   4.690
 3366SOL     OW10996   6.094   5.051   3.818
 3366SOL    HW110997   6.008   5.038   3.869
 3366SOL    HW210998   6.152   4.970   3.830
 3367SOL     OW10999   3.002   3.205   2.774
 3367SOL    HW111000   2.941   3.269   2.727
 3367SOL    HW211001   3.076   3.257   2.818
 3368SOL     OW11002   0.904   5.454   6.420
 3368SOL    HW111003   0.950   5.384   6.476
 3368SOL    HW211004   0.815   5.419   6.391
 3369SOL     OW11005   4.539   1.491   1.653
 3369SOL    HW111006   4.603   1.414   1.644
 3369SOL    HW211007   4.455   1.471   1.602
 3370SOL     OW11008   5.816   6.248   1.914
 3370SOL    HW111009   5.899   6.194   1.904
 3370SOL    HW211010   5.753   6.227   1.839
 3371SOL     OW11011   2.168   3.415   1.658
 3371SOL    HW111012   2.220   3.402   1.742
 3371SOL    HW211013   2.177   3.509   1.627
 3372SOL     OW11014   0.635   2.001   6.664
 3372SOL    HW111015   0.672   2.091   6.642
 3372SOL    HW211016   0.544   1.992   6.625
 3373SOL     OW11017   0.020   2.506   3.969
 3373SOL    HW111018   0.033   2.575   3.898
 3373SOL    HW211019   6.969   2.445   3.942
 3374SOL     OW11020   1.151   0.423   3.758
 3374SOL    HW111021   1.051   0.425   3.756
 3374SOL    HW211022   1.187   0.467   3.676
 3375SOL     OW11023   0.011   4.428   0.790
 3375SOL    HW111024   6.961   4.360   0.786
 3375SOL    HW211025   6.994   4.518   0.807
 3376SOL     OW11026   3.484   2.987   4.764
 3376SOL    HW111027   3.386   2.972   4.760
 3376SOL    HW211028   3.523   2.938   4.842
 3377SOL     OW11029   6.275   5.302   5.365
 3377SOL    HW111030   6.210   5.330   5.294
 3377SOL    HW211031   6.368   5.307   5.329
 3378SOL     OW11032   1.222   6.453   6.454
 3378SOL    HW111033   1.229   6.386   6.380
 3378SOL    HW211034   1.125   6.466   6.478
 3379SOL     OW11035   0.830   2.656   4.773
 3379SOL    HW111036   0.810   2.754   4.779
 3379SOL    HW211037   0.857   2.632   4.680
 3380SOL     OW11038   4.437   5.586   5.641
 3380SOL    HW111039   4.531   5.598   5.608
 3380SOL    HW211040   4.422   5.645   5.720
 3381SOL     OW11041   6.766   2.743   1.427
 3381SOL    HW111042   6.814   2.780   1.348
 3381SOL    HW211043   6.831   2.723   1.500
 3382SOL     OW11044   0.537   3.019   0.548
 3382SOL    HW111045   0.621   3.032   0.601
 3382SOL    HW211046   0.557   3.029   0.451
 3383SOL     OW11047   3.330   5.003   0.816
 3383SOL    HW111048   3.371   5.091   0.839
 3383SOL    HW211049   3.246   5.018   0.764
 3384SOL     OW11050   2.379   3.545   0.605
 3384SOL    HW111051   2.472   3.579   0.591
 3384SOL    HW211052   2.346   3.502   0.521
 3385SOL     OW11053   6.415   3.245   4.464
 3385SOL    HW111054   6.504   3.286   4.485
 3385SOL    HW211055   6.348   3.318   4.449
 3386SOL     OW11056   6.214   4.552   6.679
 3386SOL    HW111057   6.202   4.631   6.739
 3386SOL    HW211058   6.166   4.473   6.718
 3387SOL     OW11059   4.887   0.231   2.900
 3387SOL    HW111060   4.856   0.146   2.943
 3387SOL    HW211061   4.808   0.281   2.865
 3388SOL     OW11062   5.214   3.923   2.849
 3388SOL    HW111063   5.272   3.870   2.786
 3388SOL    HW211064   5.272   3.970   2.915
 3389SOL     OW11065   6.496   5.792   6.173
 3389SOL    HW111066   6.415   5.851   6.173
 3389SOL    HW211067   6.567   5.833   6.116
 3390SOL     OW11068   4.497   6.535   6.552
 3390SOL    HW111069   4.475   6.442   6.526
 3390SOL    HW211070   4.413   6.589   6.560
 3391SOL     OW11071   5.014   2.434   3.173
 3391SOL    HW111072   4.915   2.433   3.189
 3391SOL    HW211073   5.039   2.355   3.116
 3392SOL     OW11074   3.078   0.277   4.789
 3392SOL    HW111075   3.032   0.188   4.785
 3392SOL    HW211076   3.036   0.340   4.724
 3393SOL     OW11077   6.093   6.188   0.959
 3393SOL    HW111078   6.017   6.147   1.011
 3393SOL    HW211079   6.146   6.247   1.019
 3394SOL     OW11080   4.294   4.164   0.670
 3394SOL    HW111081   4.287   4.264   0.663
 3394SOL    HW211082   4.335   4.128   0.586
 3395SOL     OW11083   5.317   1.837   2.991
 3395SOL    HW111084   5.306   1.917   3.050
 3395SOL    HW211085   5.228   1.795   2.975
 3396SOL     OW11086   5.589   1.533   3.900
 3396SOL    HW111087   5.534   1.468   3.848
 3396SOL    HW211088   5.610   1.613   3.844
 3397SOL     OW11089   3.323   5.366   6.233
 3397SOL    HW111090   3.243   5.412   6.272
 3397SOL    HW211091   3.391   5.435   6.207
 3398SOL     OW11092   0.882   7.001   5.171
 3398SOL    HW111093   0.826   6.962   5.244
 3398SOL    HW211094   0.830   0.047   5.121
 3399SOL     OW11095   5.975   5.125   2.978
 3399SOL    HW111096   5.988   5.133   3.077
 3399SOL    HW211097   5.884   5.157   2.954
 3400SOL     OW11098   5.877   3.522   6.960
 3400SOL    HW111099   5.958   3.575   6.987
 3400SOL    HW211100   5.839   3.560   6.876
 3401SOL     OW11101   6.463   3.969   6.820
 3401SOL    HW111102   6.492   4.060   6.850
 3401SOL    HW211103   6.544   3.914   6.797
 3402SOL     OW11104   6.189   5.328   0.105
 3402SOL    HW111105   6.109   5.387   0.094
 3402SOL    HW211106   6.160   5.233   0.105
 3403SOL     OW11107   4.969   5.359   6.557
 3403SOL    HW111108   5.009   5.449   6.540
 3403SOL    HW211109   5.005   5.293   6.491
 3404SOL     OW11110   4.911   2.868   6.772
 3404SOL    HW111111   4.962   2.901   6.851
 3404SOL    HW211112   4.967   2.802   6.722
 3405SOL     OW11113   6.064   4.590   6.461
 3405SOL    HW111114   6.058   4.494   6.435
 3405SOL    HW211115   6.142   4.603   6.523
 3406SOL     OW11116   1.477   3.687   2.140
 3406SOL    HW111117   1.464   3.773   2.090
 3406SOL    HW211118   1.575   3.671   2.153
 3407SOL     OW11119   2.361   4.456   0.348
 3407SOL    HW111120   2.322   4.488   0.434
 3407SOL    HW211121   2.441   4.510   0.325
 3408SOL     OW11122   4.969   3.142   4.958
 3408SOL    HW111123   4.899   3.160   5.026
 3408SOL    HW211124   5.010   3.052   4.974
 3409SOL     OW11125   3.715   5.887   0.718
 3409SOL    HW111126   3.621   5.898   0.750
 3409SOL    HW211127   3.778   5.928   0.785
 3410SOL     OW11128   5.823   6.603   2.311
 3410SOL    HW111129   5.724   6.609   2.303
 3410SOL    HW211130   5.865   6.613   2.221
 3411SOL     OW11131   0.940   2.777   0.682
 3411SOL    HW111132   0.877   2.777   0.760
 3411SOL    HW211133   1.011   2.708   0.697
 3412SOL     OW11134   5.110   3.743   1.017
 3412SOL    HW111135   5.030   3.746   1.077
 3412SOL    HW211136   5.161   3.659   1.032
 3413SOL     OW11137   6.249   2.215   6.770
 3413SOL    HW111138   6.157   2.189   6.740
 3413SOL    HW211139   6.311   2.137   6.759
 3414SOL     OW11140   3.188   2.185   5.548
 3414SOL    HW111141   3.191   2.094   5.504
 3414SOL    HW211142   3.096   2.224   5.536
 3415SOL     OW11143   2.616   2.463   4.090
 3415SOL    HW111144   2.682   2.532   4.059
 3415SOL    HW211145   2.599   2.474   4.188
 3416SOL     OW11146   6.007   0.429   6.787
 3416SOL    HW111147   5.983   0.353   6.849
 3416SOL    HW211148   5.940   0.433   6.713
 3417SOL     OW11149   6.817   6.953   3.331
 3417SOL    HW111150   6.868   6.979   3.250
 3417SOL    HW211151   6.793   6.856   3.326
 3418SOL     OW11152   3.927   5.763   3.716
 3418SOL    HW111153   3.970   5.786   3.628
 3418SOL    HW211154   3.875   5.842   3.749
 3419SOL     OW11155   3.880   5.635   6.212
 3419SOL    HW111156   3.856   5.551   6.164
 3419SOL    HW211157   3.814   5.706   6.190
 3420SOL     OW11158   5.196   3.649   4.259
 3420SOL    HW111159   5.154   3.730   4.218
 3420SOL    HW211160   5.130   3.573   4.257
 3421SOL     OW11161   5.680   1.896   3.247
 3421SOL    HW111162   5.599   1.845   3.276
 3421SOL    HW211163   5.731   1.842   3.180
 3422SOL     OW11164   2.512   0.735   0.555
 3422SOL    HW111165   2.464   0.654   0.589
 3422SOL    HW211166   2.586   0.759   0.618
 3423SOL     OW11167   0.497   4.074   5.881
 3423SOL    HW111168   0.399   4.079   5.901
 3423SOL    HW211169   0.541   4.158   5.910
 3424SOL     OW11170   2.907   0.594   1.251
 3424SOL    HW111171   2.935   0.515   1.197
 3424SOL    HW211172   2.988   0.638   1.290
 3425SOL     OW11173   4.756   4.185   1.911
 3425SOL    HW111174   4.699   4.238   1.973
 3425SOL    HW211175   4.697   4.131   1.851
 3426SOL     OW11176   5.020   2.715   0.724
 3426SOL    HW111177   4.998   2.715   0.626
 3426SOL    HW211178   4.939   2.688   0.776
 3427SOL     OW11179   0.705   2.344   2.248
 3427SOL    HW111180   0.700   2.269   2.182
 3427SOL    HW211181   0.733   2.428   2.202
 3428SOL     OW11182   4.188   4.450   6.835
 3428SOL    HW111183   4.188   4.495   6.746
 3428SOL    HW211184   4.232   4.510   6.902
 3429SOL     OW11185   0.764   1.003   0.997
 3429SOL    HW111186   0.809   0.979   0.911
 3429SOL    HW211187   0.677   0.954   1.004
 3430SOL     OW11188   2.256   5.318   5.851
 3430SOL    HW111189   2.191   5.391   5.833
 3430SOL    HW211190   2.319   5.346   5.924
 3431SOL     OW11191   1.507   6.120   1.699
 3431SOL    HW111192   1.521   6.178   1.619
 3431SOL    HW211193   1.582   6.133   1.764
 3432SOL     OW11194   2.493   4.825   6.868
 3432SOL    HW111195   2.511   4.852   6.774
 3432SOL    HW211196   2.546   4.743   6.890
 3433SOL     OW11197   1.810   1.459   5.838
 3433SOL    HW111198   1.797   1.531   5.906
 3433SOL    HW211199   1.821   1.371   5.884
 3434SOL     OW11200   3.708   2.161   1.347
 3434SOL    HW111201   3.635   2.129   1.287
 3434SOL    HW211202   3.669   2.193   1.434
 3435SOL     OW11203   2.698   1.140   0.394
 3435SOL    HW111204   2.711   1.059   0.451
 3435SOL    HW211205   2.614   1.130   0.341
 3436SOL     OW11206   3.385   5.873   0.435
 3436SOL    HW111207   3.375   5.945   0.502
 3436SOL    HW211208   3.464   5.892   0.376
 3437SOL     OW11209   2.367   6.576   5.703
 3437SOL    HW111210   2.463   6.555   5.722
 3437SOL    HW211211   2.309   6.530   5.771
 3438SOL     OW11212   0.802   3.829   1.313
 3438SOL    HW111213   0.810   3.912   1.368
 3438SOL    HW211214   0.808   3.749   1.372
 3439SOL     OW11215   3.145   6.109   4.144
 3439SOL    HW111216   3.113   6.025   4.099
 3439SOL    HW211217   3.233   6.092   4.187
 3440SOL     OW11218   4.098   3.413   2.946
 3440SOL    HW111219   4.145   3.423   3.034
 3440SOL    HW211220   4.067   3.503   2.914
 3441SOL     OW11221   0.434   5.812   6.577
 3441SOL    HW111222   0.340   5.778   6.576
 3441SOL    HW211223   0.493   5.748   6.529
 3442SOL     OW11224   2.673   3.590   0.893
 3442SOL    HW111225   2.682   3.502   0.940
 3442SOL    HW211226   2.595   3.640   0.930
 3443SOL     OW11227   3.398   6.113   2.110
 3443SOL    HW111228   3.303   6.142   2.101
 3443SOL    HW211229   3.427   6.069   2.025
 3444SOL     OW11230   5.246   5.559   1.096
 3444SOL    HW111231   5.233   5.504   1.178
 3444SOL    HW211232   5.165   5.553   1.038
 3445SOL     OW11233   6.792   5.530   3.534
 3445SOL    HW111234   6.810   5.628   3.528
 3445SOL    HW211235   6.770   5.506   3.629
 3446SOL     OW11236   5.786   0.716   1.584
 3446SOL    HW111237   5.823   0.631   1.621
 3446SOL    HW211238   5.688   0.704   1.565
 3447SOL     OW11239   4.906   0.311   0.583
 3447SOL    HW111240   4.991   0.301   0.531
 3447SOL    HW211241   4.920   0.281   0.677
 3448SOL     OW11242   3.336   6.710   6.184
 3448SOL    HW111243   3.254   6.748   6.141
 3448SOL    HW211244   3.354   6.618   6.147
 3449SOL     OW11245   6.055   5.187   4.679
 3449SOL    HW111246   6.067   5.211   4.776
 3449SOL    HW211247   5.978   5.238   4.642
 3450SOL     OW11248   1.615   1.235   6.478
 3450SOL    HW111249   1.617   1.150   6.530
 3450SOL    HW211250   1.599   1.214   6.381
 3451SOL     OW11251   1.665   5.859   0.037
 3451SOL    HW111252   1.643   5.906   0.123
 3451SOL    HW211253   1.685   5.927   6.989
 3452SOL     OW11254   5.843   0.284   6.131
 3452SOL    HW111255   5.836   0.301   6.229
 3452SOL    HW211256   5.794   0.200   6.108
 3453SOL     OW11257   5.749   5.582   6.162
 3453SOL    HW111258   5.702   5.669   6.152
 3453SOL    HW211259   5.784   5.573   6.255
 3454SOL     OW11260   1.488   3.968   4.848
 3454SOL    HW111261   1.490   3.876   4.809
 3454SOL    HW211262   1.401   3.983   4.893
 3455SOL     OW11263   2.680   1.176   4.701
 3455SOL    HW111264   2.706   1.118   4.778
 3455SOL    HW211265   2.583   1.200   4.709
 3456SOL     OW11266   4.480   4.854   1.963
 3456SOL    HW111267   4.568   4.807   1.971
 3456SOL    HW211268   4.439   4.833   1.874
 3457SOL     OW11269   4.112   5.325   4.737
 3457SOL    HW111270   4.132   5.422   4.752
 3457SOL    HW211271   4.014   5.314   4.719
 3458SOL     OW11272   4.637   1.622   2.312
 3458SOL    HW111273   4.582   1.645   2.232
 3458SOL    HW211274   4.594   1.660   2.394
 3459SOL     OW11275   5.093   1.973   3.158
 3459SOL    HW111276   5.016   1.916   3.131
 3459SOL    HW211277   5.087   1.994   3.256
 3460SOL     OW11278   3.025   2.151   5.818
 3460SOL    HW111279   3.019   2.249   5.836
 3460SOL    HW211280   3.090   2.134   5.744
 3461SOL     OW11281   5.747   4.202   6.812
 3461SOL    HW111282   5.663   4.246   6.783
 3461SOL    HW211283   5.771   4.233   6.904
 3462SOL     OW11284   0.669   3.954   5.123
 3462SOL    HW111285   0.621   3.945   5.210
 3462SOL    HW211286   0.604   3.941   5.048
 3463SOL     OW11287   0.655   4.237   1.003
 3463SOL    HW111288   0.587   4.293   0.956
 3463SOL    HW211289   0.637   4.141   0.984
 3464SOL     OW11290   0.601   4.582   6.324
 3464SOL    HW111291   0.657   4.519   6.379
 3464SOL    HW211292   0.660   4.653   6.285
 3465SOL     OW11293   2.481   2.416   2.154
 3465SOL    HW111294   2.528   2.328   2.162
 3465SOL    HW211295   2.531   2.476   2.092
 3466SOL     OW11296   0.091   5.528   5.923
 3466SOL    HW111297   0.109   5.617   5.879
 3466SOL    HW211298   0.173   5.497   5.970
 3467SOL     OW11299   1.450   2.301   6.833
 3467SOL    HW111300   1.489   2.382   6.789
 3467SOL    HW211301   1.469   2.305   6.932
 3468SOL     OW11302   3.718   5.440   2.874
 3468SOL    HW111303   3.623   5.434   2.903
 3468SOL    HW211304   3.767   5.357   2.901
 3469SOL     OW11305   6.225   1.381   4.035
 3469SOL    HW111306   6.274   1.469   4.035
 3469SOL    HW211307   6.144   1.389   3.977
 3470SOL     OW11308   6.973   4.867   1.118
 3470SOL    HW111309   6.943   4.814   1.197
 3470SOL    HW211310   0.042   4.902   1.135
 3471SOL     OW11311   4.034   5.156   4.914
 3471SOL    HW111312   4.077   5.215   4.845
 3471SOL    HW211313   3.964   5.100   4.870
 3472SOL     OW11314   2.515   0.778   3.761
 3472SOL    HW111315   2.423   0.813   3.739
 3472SOL    HW211316   2.583   0.848   3.742
 3473SOL     OW11317   5.674   1.438   5.903
 3473SOL    HW111318   5.717   1.527   5.919
 3473SOL    HW211319   5.739   1.377   5.858
 3474SOL     OW11320   2.980   5.115   1.847
 3474SOL    HW111321   2.896   5.170   1.855
 3474SOL    HW211322   3.003   5.077   1.936
 3475SOL     OW11323   1.148   6.778   4.904
 3475SOL    HW111324   1.151   6.694   4.851
 3475SOL    HW211325   1.237   6.823   4.903
 3476SOL     OW11326   3.483   1.087   4.257
 3476SOL    HW111327   3.567   1.058   4.211
 3476SOL    HW211328   3.407   1.033   4.223
 3477SOL     OW11329   2.976   5.625   2.002
 3477SOL    HW111330   2.993   5.542   1.949
 3477SOL    HW211331   3.057   5.646   2.057
 3478SOL     OW11332   2.908   6.258   5.728
 3478SOL    HW111333   2.876   6.169   5.695
 3478SOL    HW211334   2.887   6.328   5.660
 3479SOL     OW11335   0.501   0.213   3.096
 3479SOL    HW111336   0.555   0.190   3.177
 3479SOL    HW211337   0.556   0.197   3.014
 3480SOL     OW11338   6.761   1.073   4.760
 3480SOL    HW111339   6.838   1.013   4.738
 3480SOL    HW211340   6.679   1.018   4.774
 3481SOL     OW11341   4.640   6.881   6.579
 3481SOL    HW111342   4.570   6.953   6.582
 3481SOL    HW211343   4.618   6.811   6.647
 3482SOL     OW11344   5.461   1.351   1.197
 3482SOL    HW111345   5.380   1.307   1.234
 3482SOL    HW211346   5.497   1.297   1.121
 3483SOL     OW11347   3.188   0.430   0.993
 3483SOL    HW111348   3.199   0.528   0.974
 3483SOL    HW211349   3.187   0.380   0.906
 3484SOL     OW11350   2.978   3.124   1.976
 3484SOL    HW111351   2.909   3.191   1.948
 3484SOL    HW211352   2.986   3.124   2.076
 3485SOL     OW11353   1.407   0.952   4.987
 3485SOL    HW111354   1.358   0.965   4.901
 3485SOL    HW211355   1.441   0.858   4.991
 3486SOL     OW11356   3.412   1.825   2.102
 3486SOL    HW111357   3.468   1.851   2.181
 3486SOL    HW211358   3.434   1.731   2.075
 3487SOL     OW11359   5.788   2.211   6.275
 3487SOL    HW111360   5.764   2.233   6.370
 3487SOL    HW211361   5.794   2.295   6.222
 3488SOL     OW11362   5.890   3.150   4.096
 3488SOL    HW111363   5.898   3.065   4.042
 3488SOL    HW211364   5.797   3.159   4.131
 3489SOL     OW11365   2.903   0.032   0.525
 3489SOL    HW111366   2.906   0.070   0.433
 3489SOL    HW211367   2.807   0.018   0.552
 3490SOL     OW11368   4.481   4.339   0.115
 3490SOL    HW111369   4.556   4.378   0.169
 3490SOL    HW211370   4.398   4.336   0.170
 3491SOL     OW11371   6.801   2.811   5.545
 3491SOL    HW111372   6.872   2.749   5.513
 3491SOL    HW211373   6.740   2.764   5.609
 3492SOL     OW11374   0.595   5.774   0.762
 3492SOL    HW111375   0.646   5.810   0.685
 3492SOL    HW211376   0.619   5.678   0.777
 3493SOL     OW11377   6.644   5.080   6.630
 3493SOL    HW111378   6.630   5.081   6.729
 3493SOL    HW211379   6.704   5.157   6.604
 3494SOL     OW11380   4.258   0.260   0.622
 3494SOL    HW111381   4.355   0.239   0.610
 3494SOL    HW211382   4.236   0.264   0.720
 3495SOL     OW11383   4.472   4.848   2.260
 3495SOL    HW111384   4.546   4.820   2.199
 3495SOL    HW211385   4.389   4.797   2.236
 3496SOL     OW11386   1.061   2.959   1.233
 3496SOL    HW111387   1.118   3.011   1.296
 3496SOL    HW211388   1.107   2.874   1.208
 3497SOL     OW11389   4.004   0.553   3.008
 3497SOL    HW111390   3.906   0.536   3.001
 3497SOL    HW211391   4.045   0.488   3.072
 3498SOL     OW11392   2.772   2.364   1.118
 3498SOL    HW111393   2.848   2.368   1.182
 3498SOL    HW211394   2.775   2.444   1.058
 3499SOL     OW11395   5.293   2.978   4.513
 3499SOL    HW111396   5.346   3.056   4.480
 3499SOL    HW211397   5.348   2.928   4.580
 3500SOL     OW11398   6.968   4.088   5.884
 3500SOL    HW111399   6.982   4.013   5.819
 3500SOL    HW211400   6.913   4.159   5.841
 3501SOL     OW11401   0.627   5.344   4.590
 3501SOL    HW111402   0.671   5.256   4.610
 3501SOL    HW211403   0.554   5.330   4.523
 3502SOL     OW11404   6.716   2.212   2.154
 3502SOL    HW111405   6.616   2.200   2.148
 3502SOL    HW211406   6.759   2.164   2.078
 3503SOL     OW11407   5.429   5.503   5.264
 3503SOL    HW111408   5.428   5.422   5.204
 3503SOL    HW211409   5.366   5.489   5.340
 3504SOL     OW11410   2.608   2.841   1.250
 3504SOL    HW111411   2.666   2.849   1.330
 3504SOL    HW211412   2.539   2.914   1.251
 3505SOL     OW11413   5.862   5.086   5.328
 3505SOL    HW111414   5.950   5.099   5.373
 3505SOL    HW211415   5.816   5.174   5.317
 3506SOL     OW11416   3.908   5.926   4.528
 3506SOL    HW111417   3.869   5.943   4.618
 3506SOL    HW211418   4.007   5.915   4.535
 3507SOL     OW11419   1.808   1.044   6.668
 3507SOL    HW111420   1.881   0.990   6.710
 3507SOL    HW211421   1.840   1.137   6.653
 3508SOL     OW11422   4.587   2.191   6.344
 3508SOL    HW111423   4.577   2.092   6.335
 3508SOL    HW211424   4.503   2.230   6.382
 3509SOL     OW11425   5.505   5.562   6.476
 3509SOL    HW111426   5.448   5.528   6.401
 3509SOL    HW211427   5.446   5.597   6.549
 3510SOL     OW11428   1.881   2.304   1.631
 3510SOL    HW111429   1.966   2.350   1.657
 3510SOL    HW211430   1.803   2.352   1.671
 3511SOL     OW11431   1.625   3.762   6.787
 3511SOL    HW111432   1.535   3.798   6.763
 3511SOL    HW211433   1.691   3.837   6.794
 3512SOL     OW11434   0.873   4.342   0.911
 3512SOL    HW111435   0.856   4.418   0.848
 3512SOL    HW211436   0.786   4.301   0.938
 3513SOL     OW11437   5.979   3.905   0.669
 3513SOL    HW111438   6.049   3.939   0.731
 3513SOL    HW211439   5.894   3.889   0.719
 3514SOL     OW11440   0.964   0.629   1.935
 3514SOL    HW111441   1.024   0.600   2.010
 3514SOL    HW211442   0.869   0.607   1.958
 3515SOL     OW11443   3.720   6.056   2.350
 3515SOL    HW111444   3.653   6.044   2.424
 3515SOL    HW211445   3.779   6.134   2.371
 3516SOL     OW11446   3.585   1.139   1.638
 3516SOL    HW111447   3.623   1.224   1.673
 3516SOL    HW211448   3.553   1.153   1.544
 3517SOL     OW11449   0.610   1.341   0.017
 3517SOL    HW111450   0.543   1.369   0.086
 3517SOL    HW211451   0.565   1.283   6.972
 3518SOL     OW11452   4.609   4.017   5.397
 3518SOL    HW111453   4.705   4.039   5.379
 3518SOL    HW211454   4.597   3.997   5.494
 3519SOL     OW11455   1.632   0.580   6.658
 3519SOL    HW111456   1.576   0.572   6.741
 3519SOL    HW211457   1.598   0.517   6.589
 3520SOL     OW11458   3.691   4.265   1.451
 3520SOL    HW111459   3.756   4.283   1.378
 3520SOL    HW211460   3.730   4.293   1.538
 3521SOL     OW11461   5.933   3.049   1.443
 3521SOL    HW111462   5.999   3.000   1.384
 3521SOL    HW211463   5.856   3.079   1.387
 3522SOL     OW11464   3.048   5.244   2.154
 3522SOL    HW111465   3.098   5.328   2.135
 3522SOL    HW211466   3.109   5.166   2.141
 3523SOL     OW11467   3.260   4.728   5.606
 3523SOL    HW111468   3.208   4.813   5.610
 3523SOL    HW211469   3.213   4.657   5.659
 3524SOL     OW11470   2.705   0.639   1.455
 3524SOL    HW111471   2.717   0.734   1.486
 3524SOL    HW211472   2.768   0.621   1.379
 3525SOL     OW11473   0.724   3.472   1.948
 3525SOL    HW111474   0.663   3.475   1.869
 3525SOL    HW211475   0.799   3.407   1.930
 3526SOL     OW11476   1.211   0.508   4.200
 3526SOL    HW111477   1.279   0.484   4.131
 3526SOL    HW211478   1.218   0.606   4.222
 3527SOL     OW11479   5.122   2.557   5.593
 3527SOL    HW111480   5.211   2.554   5.549
 3527SOL    HW211481   5.124   2.623   5.668
 3528SOL     OW11482   1.175   6.464   3.604
 3528SOL    HW111483   1.142   6.411   3.526
 3528SOL    HW211484   1.153   6.560   3.590
 3529SOL     OW11485   3.662   0.077   5.778
 3529SOL    HW111486   3.628   0.167   5.805
 3529SOL    HW211487   3.586   0.014   5.767
 3530SOL     OW11488   1.914   5.381   2.619
 3530SOL    HW111489   1.974   5.434   2.559
 3530SOL    HW211490   1.960   5.296   2.645
 3531SOL     OW11491   5.104   3.731   0.507
 3531SOL    HW111492   5.121   3.704   0.601
 3531SOL    HW211493   5.114   3.830   0.498
 3532SOL     OW11494   3.504   0.738   0.283
 3532SOL    HW111495   3.409   0.708   0.288
 3532SOL    HW211496   3.528   0.788   0.367
 3533SOL     OW11497   1.529   2.059   3.381
 3533SOL    HW111498   1.551   1.986   3.316
 3533SOL    HW211499   1.609   2.118   3.393
 3534SOL     OW11500   5.739   1.585   5.581
 3534SOL    HW111501   5.675   1.588   5.658
 3534SOL    HW211502   5.690   1.610   5.497
 3535SOL     OW11503   0.191   5.855   0.738
 3535SOL    HW111504   0.250   5.818   0.810
 3535SOL    HW211505   0.124   5.785   0.712
 3536SOL     OW11506   1.924   3.738   3.303
 3536SOL    HW111507   1.865   3.680   3.248
 3536SOL    HW211508   1.874   3.768   3.385
 3537SOL     OW11509   2.152   4.364   0.676
 3537SOL    HW111510   2.125   4.458   0.696
 3537SOL    HW211511   2.099   4.301   0.734
 3538SOL     OW11512   3.102   1.150   3.686
 3538SOL    HW111513   3.084   1.158   3.588
 3538SOL    HW211514   3.044   1.078   3.724
 3539SOL     OW11515   6.140   3.359   5.636
 3539SOL    HW111516   6.212   3.424   5.662
 3539SOL    HW211517   6.057   3.410   5.613
 3540SOL     OW11518   2.085   2.664   6.365
 3540SOL    HW111519   2.071   2.746   6.420
 3540SOL    HW211520   2.085   2.583   6.425
 3541SOL     OW11521   2.603   3.267   0.333
 3541SOL    HW111522   2.645   3.292   0.420
 3541SOL    HW211523   2.511   3.231   0.350
 3542SOL     OW11524   5.592   2.451   0.369
 3542SOL    HW111525   5.673   2.466   0.427
 3542SOL    HW211526   5.609   2.487   0.278
 3543SOL     OW11527   1.487   3.428   3.039
 3543SOL    HW111528   1.533   3.512   3.011
 3543SOL    HW211529   1.389   3.445   3.046
 3544SOL     OW11530   2.538   4.461   6.849
 3544SOL    HW111531   2.571   4.379   6.801
 3544SOL    HW211532   2.524   4.439   6.946
 3545SOL     OW11533   3.600   4.844   0.704
 3545SOL    HW111534   3.606   4.864   0.801
 3545SOL    HW211535   3.580   4.928   0.653
 3546SOL     OW11536   6.050   4.695   3.423
 3546SOL    HW111537   5.956   4.713   3.397
 3546SOL    HW211538   6.105   4.778   3.414
 3547SOL     OW11539   6.537   4.013   5.021
 3547SOL    HW111540   6.493   4.053   5.102
 3547SOL    HW211541   6.496   3.923   5.003
 3548SOL     OW11542   5.597   0.653   5.483
 3548SOL    HW111543   5.565   0.602   5.403
 3548SOL    HW211544   5.608   0.591   5.561
 3549SOL     OW11545   1.822   5.154   6.472
 3549SOL    HW111546   1.858   5.136   6.564
 3549SOL    HW211547   1.782   5.070   6.435
 3550SOL     OW11548   5.719   2.815   5.231
 3550SOL    HW111549   5.666   2.899   5.222
 3550SOL    HW211550   5.699   2.754   5.154
 3551SOL     OW11551   3.476   1.677   5.110
 3551SOL    HW111552   3.498   1.745   5.180
 3551SOL    HW211553   3.377   1.667   5.103
 3552SOL     OW11554   6.142   5.387   2.518
 3552SOL    HW111555   6.068   5.427   2.572
 3552SOL    HW211556   6.103   5.335   2.442
 3553SOL     OW11557   3.403   5.876   6.423
 3553SOL    HW111558   3.330   5.945   6.429
 3553SOL    HW211559   3.424   5.842   6.515
 3554SOL     OW11560   4.127   3.864   0.629
 3554SOL    HW111561   4.072   3.830   0.553
 3554SOL    HW211562   4.090   3.952   0.660
 3555SOL     OW11563   1.814   2.460   4.368
 3555SOL    HW111564   1.718   2.440   4.387
 3555SOL    HW211565   1.835   2.434   4.274
 3556SOL     OW11566   3.780   1.482   4.776
 3556SOL    HW111567   3.688   1.503   4.811
 3556SOL    HW211568   3.810   1.556   4.716
 3557SOL     OW11569   0.890   0.768   3.176
 3557SOL    HW111570   0.802   0.727   3.202
 3557SOL    HW211571   0.893   0.863   3.206
 3558SOL     OW11572   2.762   5.066   0.888
 3558SOL    HW111573   2.742   5.152   0.935
 3558SOL    HW211574   2.704   4.993   0.926
 3559SOL     OW11575   2.221   6.899   4.600
 3559SOL    HW111576   2.159   6.881   4.677
 3559SOL    HW211577   2.270   6.985   4.615
 3560SOL     OW11578   2.162   4.592   3.486
 3560SOL    HW111579   2.068   4.597   3.518
 3560SOL    HW211580   2.209   4.515   3.530
 3561SOL     OW11581   5.324   4.808   5.968
 3561SOL    HW111582   5.274   4.880   5.920
 3561SOL    HW211583   5.407   4.845   6.008
 3562SOL     OW11584   3.483   2.134   4.594
 3562SOL    HW111585   3.446   2.092   4.677
 3562SOL    HW211586   3.469   2.233   4.597
 3563SOL     OW11587   5.786   2.423   6.112
 3563SOL    HW111588   5.693   2.387   6.105
 3563SOL    HW211589   5.812   2.464   6.024
 3564SOL     OW11590   0.406   5.308   2.819
 3564SOL    HW111591   0.388   5.259   2.733
 3564SOL    HW211592   0.360   5.397   2.816
 3565SOL     OW11593   3.547   4.863   2.648
 3565SOL    HW111594   3.610   4.873   2.726
 3565SOL    HW211595   3.487   4.942   2.643
 3566SOL     OW11596   6.512   1.084   5.789
 3566SOL    HW111597   6.466   1.066   5.702
 3566SOL    HW211598   6.462   1.039   5.863
 3567SOL     OW11599   0.032   2.669   6.183
 3567SOL    HW111600   0.033   2.624   6.094
 3567SOL    HW211601   7.009   2.758   6.175
 3568SOL     OW11602   6.175   4.161   5.522
 3568SOL    HW111603   6.095   4.137   5.577
 3568SOL    HW211604   6.254   4.174   5.581
 3569SOL     OW11605   2.941   1.772   5.124
 3569SOL    HW111606   2.856   1.776   5.072
 3569SOL    HW211607   2.987   1.861   5.122
 3570SOL     OW11608   5.069   0.508   6.335
 3570SOL    HW111609   4.979   0.543   6.309
 3570SOL    HW211610   5.136   0.531   6.264
 3571SOL     OW11611   0.715   5.668   0.040
 3571SOL    HW111612   0.620   5.664   0.068
 3571SOL    HW211613   0.744   5.764   0.031
 3572SOL     OW11614   5.390   3.958   3.660
 3572SOL    HW111615   5.487   3.984   3.662
 3572SOL    HW211616   5.370   3.907   3.577
 3573SOL     OW11617   0.423   4.728   4.095
 3573SOL    HW111618   0.353   4.798   4.080
 3573SOL    HW211619   0.434   4.712   4.193
 3574SOL     OW11620   0.265   4.648   0.127
 3574SOL    HW111621   0.346   4.644   0.069
 3574SOL    HW211622   0.282   4.706   0.206
 3575SOL     OW11623   5.553   4.585   3.248
 3575SOL    HW111624   5.582   4.588   3.152
 3575SOL    HW211625   5.492   4.663   3.266
 3576SOL     OW11626   2.115   1.558   5.903
 3576SOL    HW111627   2.024   1.562   5.945
 3576SOL    HW211628   2.127   1.469   5.859
 3577SOL     OW11629   1.293   3.322   5.939
 3577SOL    HW111630   1.297   3.416   5.972
 3577SOL    HW211631   1.350   3.313   5.857
 3578SOL     OW11632   3.924   3.015   0.259
 3578SOL    HW111633   3.971   2.955   0.324
 3578SOL    HW211634   3.978   3.022   0.175
 3579SOL     OW11635   0.361   4.190   4.587
 3579SOL    HW111636   0.405   4.213   4.500
 3579SOL    HW211637   0.264   4.215   4.582
 3580SOL     OW11638   5.955   1.516   1.197
 3580SOL    HW111639   6.029   1.482   1.255
 3580SOL    HW211640   5.871   1.521   1.250
 3581SOL     OW11641   5.976   0.115   4.065
 3581SOL    HW111642   6.004   0.026   4.101
 3581SOL    HW211643   6.054   0.178   4.067
 3582SOL     OW11644   0.604   1.637   6.047
 3582SOL    HW111645   0.572   1.545   6.070
 3582SOL    HW211646   0.618   1.644   5.948
 3583SOL     OW11647   0.700   3.692   6.481
 3583SOL    HW111648   0.712   3.708   6.579
 3583SOL    HW211649   0.611   3.650   6.464
 3584SOL     OW11650   5.855   6.006   6.296
 3584SOL    HW111651   5.916   5.950   6.239
 3584SOL    HW211652   5.778   5.950   6.325
 3585SOL     OW11653   3.720   5.321   5.122
 3585SOL    HW111654   3.748   5.359   5.034
 3585SOL    HW211655   3.623   5.297   5.119
 3586SOL     OW11656   6.840   1.908   5.374
 3586SOL    HW111657   6.791   1.940   5.455
 3586SOL    HW211658   6.792   1.829   5.336
 3587SOL     OW11659   2.327   4.959   0.207
 3587SOL    HW111660   2.232   4.949   0.237
 3587SOL    HW211661   2.329   5.010   0.121
 3588SOL     OW11662   0.797   2.788   5.076
 3588SOL    HW111663   0.837   2.699   5.097
 3588SOL    HW211664   0.705   2.793   5.115
 3589SOL     OW11665   3.678   1.735   3.980
 3589SOL    HW111666   3.767   1.777   3.998
 3589SOL    HW211667   3.618   1.804   3.939
 3590SOL     OW11668   0.196   3.712   5.978
 3590SOL    HW111669   0.208   3.794   6.035
 3590SOL    HW211670   0.102   3.710   5.943
 3591SOL     OW11671   4.816   3.284   6.285
 3591SOL    HW111672   4.853   3.362   6.335
 3591SOL    HW211673   4.749   3.316   6.218
 3592SOL     OW11674   5.925   3.859   3.011
 3592SOL    HW111675   5.841   3.847   2.957
 3592SOL    HW211676   5.948   3.956   3.017
 3593SOL     OW11677   2.157   5.760   4.798
 3593SOL    HW111678   2.113   5.777   4.886
 3593SOL    HW211679   2.250   5.726   4.813
 3594SOL     OW11680   3.911   0.472   2.513
 3594SOL    HW111681   3.960   0.467   2.426
 3594SOL    HW211682   3.948   0.547   2.567
 3595SOL     OW11683   2.409   5.695   6.376
 3595SOL    HW111684   2.432   5.655   6.465
 3595SOL    HW211685   2.317   5.735   6.380
 3596SOL     OW11686   6.463   2.127   2.979
 3596SOL    HW111687   6.526   2.143   2.903
 3596SOL    HW211688   6.447   2.213   3.029
 3597SOL     OW11689   2.662   6.453   4.751
 3597SOL    HW111690   2.619   6.513   4.684
 3597SOL    HW211691   2.744   6.413   4.712
 3598SOL     OW11692   1.209   6.585   6.182
 3598SOL    HW111693   1.240   6.492   6.203
 3598SOL    HW211694   1.288   6.644   6.165
 3599SOL     OW11695   0.675   2.106   5.416
 3599SOL    HW111696   0.664   2.205   5.425
 3599SOL    HW211697   0.618   2.060   5.484
 3600SOL     OW11698   1.115   3.009   0.551
 3600SOL    HW111699   1.075   2.928   0.594
 3600SOL    HW211700   1.104   3.004   0.452
 3601SOL     OW11701   6.899   4.167   0.269
 3601SOL    HW111702   6.874   4.133   0.360
 3601SOL    HW211703   6.985   4.217   0.275
 3602SOL     OW11704   1.367   1.564   1.099
 3602SOL    HW111705   1.277   1.543   1.061
 3602SOL    HW211706   1.368   1.542   1.197
 3603SOL     OW11707   3.513   6.328   4.331
 3603SOL    HW111708   3.598   6.275   4.336
 3603SOL    HW211709   3.519   6.393   4.255
 3604SOL     OW11710   6.587   4.960   4.304
 3604SOL    HW111711   6.535   5.015   4.238
 3604SOL    HW211712   6.598   5.013   4.388
 3605SOL     OW11713   5.249   4.349   5.401
 3605SOL    HW111714   5.182   4.401   5.348
 3605SOL    HW211715   5.317   4.310   5.338
 3606SOL     OW11716   6.789   5.460   5.318
 3606SOL    HW111717   6.826   5.465   5.411
 3606SOL    HW211718   6.831   5.384   5.270
 3607SOL     OW11719   5.142   6.442   0.927
 3607SOL    HW111720   5.234   6.480   0.926
 3607SOL    HW211721   5.142   6.356   0.977
 3608SOL     OW11722   6.403   1.804   1.892
 3608SOL    HW111723   6.478   1.858   1.930
 3608SOL    HW211724   6.441   1.726   1.843
 3609SOL     OW11725   0.271   0.547   3.759
 3609SOL    HW111726   0.189   0.489   3.762
 3609SOL    HW211727   0.247   0.640   3.785
 3610SOL     OW11728   0.830   0.626   5.721
 3610SOL    HW111729   0.744   0.675   5.729
 3610SOL    HW211730   0.812   0.528   5.716
 3611SOL     OW11731   3.840   5.865   5.608
 3611SOL    HW111732   3.876   5.800   5.541
 3611SOL    HW211733   3.759   5.826   5.651
 3612SOL     OW11734   6.195   0.627   5.934
 3612SOL    HW111735   6.289   0.658   5.944
 3612SOL    HW211736   6.153   0.618   6.024
 3613SOL     OW11737   5.383   5.504   1.400
 3613SOL    HW111738   5.398   5.414   1.360
 3613SOL    HW211739   5.426   5.574   1.342
 3614SOL     OW11740   3.320   3.084   2.822
 3614SOL    HW111741   3.376   3.007   2.852
 3614SOL    HW211742   3.224   3.066   2.845
 3615SOL     OW11743   5.335   6.057   6.866
 3615SOL    HW111744   5.367   6.083   6.957
 3615SOL    HW211745   5.335   6.138   6.806
 3616SOL     OW11746   6.906   1.670   6.174
 3616SOL    HW111747   6.898   1.606   6.097
 3616SOL    HW211748   6.948   1.755   6.142
 3617SOL     OW11749   4.992   1.029   6.897
 3617SOL    HW111750   4.893   1.038   6.904
 3617SOL    HW211751   5.031   1.111   6.856
 3618SOL     OW11752   2.178   1.977   4.890
 3618SOL    HW111753   2.107   1.941   4.950
 3618SOL    HW211754   2.267   1.968   4.935
 3619SOL     OW11755   6.355   3.018   3.745
 3619SOL    HW111756   6.295   3.047   3.819
 3619SOL    HW211757   6.314   3.042   3.657
 3620SOL     OW11758   6.140   5.900   5.811
 3620SOL    HW111759   6.231   5.915   5.849
 3620SOL    HW211760   6.117   5.803   5.818
 3621SOL     OW11761   2.893   2.463   5.798
 3621SOL    HW111762   2.798   2.438   5.818
 3621SOL    HW211763   2.925   2.411   5.719
 3622SOL     OW11764   1.863   2.502   3.478
 3622SOL    HW111765   1.809   2.517   3.561
 3622SOL    HW211766   1.944   2.561   3.480
 3623SOL     OW11767   5.879   6.071   3.683
 3623SOL    HW111768   5.960   6.102   3.634
 3623SOL    HW211769   5.853   5.980   3.650
 3624SOL     OW11770   1.494   0.214   2.334
 3624SOL    HW111771   1.530   0.134   2.287
 3624SOL    HW211772   1.465   0.189   2.426
 3625SOL     OW11773   5.848   3.277   6.827
 3625SOL    HW111774   5.926   3.214   6.831
 3625SOL    HW211775   5.869   3.358   6.882
 3626SOL     OW11776   1.540   3.659   5.206
 3626SOL    HW111777   1.603   3.621   5.274
 3626SOL    HW211778   1.465   3.706   5.253
 3627SOL     OW11779   3.668   2.849   3.552
 3627SOL    HW111780   3.654   2.754   3.581
 3627SOL    HW211781   3.756   2.882   3.587
 3628SOL     OW11782   1.686   6.859   1.377
 3628SOL    HW111783   1.722   6.767   1.370
 3628SOL    HW211784   1.625   6.865   1.457
 3629SOL     OW11785   5.995   2.159   4.375
 3629SOL    HW111786   5.989   2.060   4.386
 3629SOL    HW211787   6.077   2.194   4.419
 3630SOL     OW11788   5.062   2.748   3.246
 3630SOL    HW111789   5.117   2.762   3.328
 3630SOL    HW211790   5.090   2.663   3.201
 3631SOL     OW11791   2.099   0.064   3.875
 3631SOL    HW111792   2.035   0.002   3.829
 3631SOL    HW211793   2.081   0.064   3.973
 3632SOL     OW11794   4.951   0.064   0.379
 3632SOL    HW111795   4.876   7.022   0.376
 3632SOL    HW211796   5.004   0.050   0.462
 3633SOL     OW11797   3.065   1.783   5.599
 3633SOL    HW111798   3.070   1.829   5.511
 3633SOL    HW211799   2.977   1.737   5.608
 3634SOL     OW11800   0.904   5.438   4.604
 3634SOL    HW111801   0.943   5.531   4.606
 3634SOL    HW211802   0.818   5.437   4.654
 3635SOL     OW11803   2.638   6.907   6.398
 3635SOL    HW111804   2.710   6.944   6.339
 3635SOL    HW211805   2.558   6.968   6.395
 3636SOL     OW11806   0.621   5.655   6.480
 3636SOL    HW111807   0.708   5.690   6.516
 3636SOL    HW211808   0.617   5.556   6.494
 3637SOL     OW11809   6.338   2.192   0.884
 3637SOL    HW111810   6.258   2.227   0.836
 3637SOL    HW211811   6.362   2.253   0.959
 3638SOL     OW11812   7.014   4.776   4.318
 3638SOL    HW111813   6.980   4.867   4.343
 3638SOL    HW211814   0.008   4.723   4.401
 3639SOL     OW11815   3.678   3.974   1.508
 3639SOL    HW111816   3.667   4.047   1.575
 3639SOL    HW211817   3.734   4.007   1.431
 3640SOL     OW11818   3.809   0.744   6.942
 3640SOL    HW111819   3.752   0.729   6.861
 3640SOL    HW211820   3.894   0.692   6.933
 3641SOL     OW11821   4.739   2.737   3.984
 3641SOL    HW111822   4.671   2.672   3.949
 3641SOL    HW211823   4.753   2.809   3.916
 3642SOL     OW11824   5.214   1.190   0.281
 3642SOL    HW111825   5.277   1.250   0.331
 3642SOL    HW211826   5.240   1.095   0.297
 3643SOL     OW11827   3.423   5.890   4.820
 3643SOL    HW111828   3.473   5.945   4.887
 3643SOL    HW211829   3.466   5.801   4.810
 3644SOL     OW11830   6.500   1.357   1.567
 3644SOL    HW111831   6.409   1.318   1.556
 3644SOL    HW211832   6.563   1.286   1.599
 3645SOL     OW11833   6.865   1.877   3.743
 3645SOL    HW111834   6.847   1.975   3.731
 3645SOL    HW211835   6.876   1.857   3.841
 3646SOL     OW11836   6.678   3.814   6.735
 3646SOL    HW111837   6.728   3.824   6.649
 3646SOL    HW211838   6.622   3.731   6.731
 3647SOL     OW11839   1.994   3.236   0.069
 3647SOL    HW111840   2.010   3.164   0.002
 3647SOL    HW211841   1.994   3.196   0.161
 3648SOL     OW11842   3.073   4.827   2.881
 3648SOL    HW111843   3.014   4.802   2.803
 3648SOL    HW211844   3.168   4.828   2.851
 3649SOL     OW11845   5.129   3.108   1.834
 3649SOL    HW111846   5.064   3.043   1.873
 3649SOL    HW211847   5.099   3.135   1.743
 3650SOL     OW11848   0.658   4.677   0.441
 3650SOL    HW111849   0.661   4.659   0.343
 3650SOL    HW211850   0.563   4.674   0.472
 3651SOL     OW11851   0.374   0.010   3.848
 3651SOL    HW111852   0.441   0.039   3.779
 3651SOL    HW211853   0.419   0.004   3.937
 3652SOL     OW11854   6.194   6.262   2.869
 3652SOL    HW111855   6.168   6.218   2.783
 3652SOL    HW211856   6.123   6.246   2.937
 3653SOL     OW11857   0.334   1.454   4.332
 3653SOL    HW111858   0.271   1.508   4.388
 3653SOL    HW211859   0.375   1.513   4.262
 3654SOL     OW11860   2.760   5.624   0.458
 3654SOL    HW111861   2.660   5.623   0.466
 3654SOL    HW211862   2.786   5.608   0.363
 3655SOL     OW11863   2.408   0.224   3.437
 3655SOL    HW111864   2.384   0.291   3.507
 3655SOL    HW211865   2.369   0.135   3.462
 3656SOL     OW11866   0.741   3.388   2.201
 3656SOL    HW111867   0.739   3.420   2.106
 3656SOL    HW211868   0.689   3.451   2.258
 3657SOL     OW11869   5.241   4.927   6.202
 3657SOL    HW111870   5.169   4.887   6.259
 3657SOL    HW211871   5.252   4.873   6.119
 3658SOL     OW11872   2.222   6.437   4.300
 3658SOL    HW111873   2.155   6.438   4.225
 3658SOL    HW211874   2.258   6.528   4.314
 3659SOL     OW11875   2.327   3.349   5.814
 3659SOL    HW111876   2.420   3.378   5.839
 3659SOL    HW211877   2.302   3.390   5.727
 3660SOL     OW11878   4.643   0.633   2.766
 3660SOL    HW111879   4.603   0.666   2.852
 3660SOL    HW211880   4.722   0.690   2.743
 3661SOL     OW11881   4.614   1.727   5.950
 3661SOL    HW111882   4.683   1.738   6.021
 3661SOL    HW211883   4.608   1.812   5.896
 3662SOL     OW11884   4.244   0.401   3.746
 3662SOL    HW111885   4.240   0.478   3.809
 3662SOL    HW211886   4.152   0.378   3.714
 3663SOL     OW11887   1.691   1.873   0.120
 3663SOL    HW111888   1.621   1.924   0.170
 3663SOL    HW211889   1.773   1.930   0.108
 3664SOL     OW11890   4.910   1.882   1.808
 3664SOL    HW111891   4.952   1.973   1.808
 3664SOL    HW211892   4.857   1.869   1.892
 3665SOL     OW11893   1.975   6.446   5.299
 3665SOL    HW111894   1.987   6.462   5.201
 3665SOL    HW211895   2.004   6.353   5.321
 3666SOL     OW11896   1.614   3.664   3.013
 3666SOL    HW111897   1.583   3.759   3.026
 3666SOL    HW211898   1.651   3.629   3.099
 3667SOL     OW11899   0.091   0.843   0.974
 3667SOL    HW111900   0.102   0.745   0.958
 3667SOL    HW211901   7.019   0.870   0.959
 3668SOL     OW11902   1.496   1.155   2.343
 3668SOL    HW111903   1.449   1.228   2.292
 3668SOL    HW211904   1.556   1.105   2.280
 3669SOL     OW11905   5.870   1.396   3.428
 3669SOL    HW111906   5.836   1.334   3.499
 3669SOL    HW211907   5.869   1.490   3.462
 3670SOL     OW11908   2.002   4.410   0.413
 3670SOL    HW111909   2.033   4.394   0.507
 3670SOL    HW211910   2.019   4.328   0.358
 3671SOL     OW11911   5.835   0.381   3.745
 3671SOL    HW111912   5.818   0.356   3.840
 3671SOL    HW211913   5.914   0.332   3.711
 3672SOL     OW11914   5.557   2.232   1.872
 3672SOL    HW111915   5.484   2.165   1.885
 3672SOL    HW211916   5.611   2.238   1.956
 3673SOL     OW11917   4.221   0.405   6.450
 3673SOL    HW111918   4.290   0.334   6.440
 3673SOL    HW211919   4.189   0.407   6.545
 3674SOL     OW11920   0.332   6.804   5.096
 3674SOL    HW111921   0.266   6.816   5.022
 3674SOL    HW211922   0.300   6.732   5.157
 3675SOL     OW11923   1.277   3.424   4.824
 3675SOL    HW111924   1.368   3.443   4.862
 3675SOL    HW211925   1.287   3.374   4.739
 3676SOL     OW11926   5.141   4.597   4.466
 3676SOL    HW111927   5.087   4.652   4.531
 3676SOL    HW211928   5.143   4.502   4.496
 3677SOL     OW11929   2.138   6.427   3.278
 3677SOL    HW111930   2.097   6.356   3.222
 3677SOL    HW211931   2.097   6.516   3.255
 3678SOL     OW11932   0.272   3.258   4.293
 3678SOL    HW111933   0.282   3.343   4.344
 3678SOL    HW211934   0.257   3.278   4.196
 3679SOL     OW11935   1.682   0.429   3.121
 3679SOL    HW111936   1.781   0.428   3.109
 3679SOL    HW211937   1.641   0.492   3.054
 3680SOL     OW11938   5.623   2.191   3.065
 3680SOL    HW111939   5.666   2.262   3.009
 3680SOL    HW211940   5.672   2.185   3.152
 3681SOL     OW11941   0.599   0.659   5.084
 3681SOL    HW111942   0.679   0.684   5.139
 3681SOL    HW211943   0.547   0.589   5.131
 3682SOL     OW11944   5.511   2.467   6.660
 3682SOL    HW111945   5.427   2.453   6.713
 3682SOL    HW211946   5.487   2.503   6.570
 3683SOL     OW11947   0.077   6.696   3.170
 3683SOL    HW111948   7.011   6.734   3.195
 3683SOL    HW211949   0.127   6.669   3.252
 3684SOL     OW11950   1.485   4.770   6.858
 3684SOL    HW111951   1.444   4.841   6.915
 3684SOL    HW211952   1.417   4.738   6.791
 3685SOL     OW11953   6.596   6.249   6.143
 3685SOL    HW111954   6.514   6.303   6.125
 3685SOL    HW211955   6.675   6.293   6.101
 3686SOL     OW11956   5.611   6.622   2.988
 3686SOL    HW111957   5.550   6.617   3.068
 3686SOL    HW211958   5.560   6.661   2.911
 3687SOL     OW11959   4.107   5.942   5.275
 3687SOL    HW111960   4.015   5.935   5.237
 3687SOL    HW211961   4.138   6.037   5.271
 3688SOL     OW11962   6.878   2.954   6.530
 3688SOL    HW111963   6.873   3.028   6.463
 3688SOL    HW211964   6.793   2.902   6.528
 3689SOL     OW11965   1.954   0.959   6.914
 3689SOL    HW111966   1.910   0.907   6.987
 3689SOL    HW211967   1.927   1.055   6.920
 3690SOL     OW11968   4.972   6.780   0.107
 3690SOL    HW111969   4.985   6.749   0.201
 3690SOL    HW211970   5.009   6.713   0.043
 3691SOL     OW11971   2.906   2.568   6.873
 3691SOL    HW111972   2.830   2.605   6.926
 3691SOL    HW211973   2.964   2.643   6.841
 3692SOL     OW11974   0.772   5.906   5.093
 3692SOL    HW111975   0.694   5.965   5.075
 3692SOL    HW211976   0.850   5.961   5.124
 3693SOL     OW11977   1.911   2.931   2.886
 3693SOL    HW111978   1.815   2.907   2.904
 3693SOL    HW211979   1.916   2.986   2.802
 3694SOL     OW11980   1.228   5.204   2.711
 3694SOL    HW111981   1.150   5.192   2.773
 3694SOL    HW211982   1.261   5.115   2.682
 3695SOL     OW11983   6.738   2.884   2.311
 3695SOL    HW111984   6.703   2.806   2.364
 3695SOL    HW211985   6.814   2.926   2.361
 3696SOL     OW11986   2.971   5.613   5.159
 3696SOL    HW111987   3.048   5.667   5.123
 3696SOL    HW211988   2.955   5.640   5.254
 3697SOL     OW11989   0.209   6.486   3.401
 3697SOL    HW111990   0.231   6.583   3.400
 3697SOL    HW211991   0.292   6.433   3.382
 3698SOL     OW11992   2.058   0.161   4.609
 3698SOL    HW111993   2.056   0.179   4.510
 3698SOL    HW211994   1.979   0.105   4.634
 3699SOL     OW11995   0.310   3.358   3.482
 3699SOL    HW111996   0.346   3.450   3.498
 3699SOL    HW211997   0.300   3.342   3.384
 3700SOL     OW11998   0.216   0.343   4.641
 3700SOL    HW111999   0.267   0.366   4.724
 3700SOL    HW212000   0.125   0.384   4.645
 3701SOL     OW12001   1.229   0.503   3.500
 3701SOL    HW112002   1.251   0.599   3.484
 3701SOL    HW212003   1.145   0.479   3.451
 3702SOL     OW12004   6.146   6.227   2.200
 3702SOL    HW112005   6.116   6.165   2.272
 3702SOL    HW212006   6.222   6.187   2.150
 3703SOL     OW12007   4.165   2.038   6.464
 3703SOL    HW112008   4.190   1.998   6.375
 3703SOL    HW212009   4.069   2.019   6.484
 3704SOL     OW12010   3.483   1.179   1.399
 3704SOL    HW112011   3.400   1.209   1.446
 3704SOL    HW212012   3.464   1.094   1.350
 3705SOL     OW12013   4.759   5.845   3.750
 3705SOL    HW112014   4.795   5.780   3.817
 3705SOL    HW212015   4.682   5.803   3.702
 3706SOL     OW12016   1.603   3.933   5.100
 3706SOL    HW112017   1.550   3.848   5.109
 3706SOL    HW212018   1.603   3.963   5.005
 3707SOL     OW12019   5.570   4.182   5.632
 3707SOL    HW112020   5.597   4.198   5.727
 3707SOL    HW212021   5.481   4.137   5.630
 3708SOL     OW12022   6.769   1.015   6.370
 3708SOL    HW112023   6.745   1.105   6.334
 3708SOL    HW212024   6.720   0.944   6.319
 3709SOL     OW12025   3.836   0.825   0.760
 3709SOL    HW112026   3.850   0.911   0.711
 3709SOL    HW212027   3.872   0.834   0.853
 3710SOL     OW12028   6.975   5.754   6.796
 3710SOL    HW112029   0.019   5.754   6.722
 3710SOL    HW212030   6.884   5.771   6.759
 3711SOL     OW12031   0.514   0.033   2.588
 3711SOL    HW112032   0.521   6.958   2.568
 3711SOL    HW212033   0.455   0.046   2.668
 3712SOL     OW12034   0.166   6.242   6.900
 3712SOL    HW112035   0.242   6.280   6.847
 3712SOL    HW212036   0.201   6.168   6.959
 3713SOL     OW12037   1.884   5.833   4.917
 3713SOL    HW112038   1.888   5.873   4.826
 3713SOL    HW212039   1.794   5.793   4.933
 3714SOL     OW12040   4.376   5.495   4.925
 3714SOL    HW112041   4.400   5.555   5.001
 3714SOL    HW212042   4.389   5.400   4.952
 3715SOL     OW12043   5.705   3.797   2.844
 3715SOL    HW112044   5.696   3.870   2.777
 3715SOL    HW212045   5.702   3.708   2.798
 3716SOL     OW12046   6.128   6.840   5.453
 3716SOL    HW112047   6.107   6.933   5.484
 3716SOL    HW212048   6.075   6.774   5.507
 3717SOL     OW12049   5.475   5.575   6.039
 3717SOL    HW112050   5.394   5.603   5.988
 3717SOL    HW212051   5.509   5.651   6.094
 3718SOL     OW12052   1.911   0.659   0.033
 3718SOL    HW112053   1.878   0.752   0.045
 3718SOL    HW212054   1.990   0.658   6.995
 3719SOL     OW12055   5.616   4.736   0.972
 3719SOL    HW112056   5.690   4.669   0.961
 3719SOL    HW212057   5.610   4.792   0.889
 3720SOL     OW12058   6.315   1.932   5.748
 3720SOL    HW112059   6.413   1.913   5.754
 3720SOL    HW212060   6.268   1.858   5.701
 3721SOL     OW12061   5.092   4.293   1.514
 3721SOL    HW112062   5.017   4.293   1.581
 3721SOL    HW212063   5.055   4.311   1.423
 3722SOL     OW12064   6.469   6.467   1.267
 3722SOL    HW112065   6.484   6.566   1.270
 3722SOL    HW212066   6.521   6.429   1.190
 3723SOL     OW12067   6.567   6.006   1.965
 3723SOL    HW112068   6.649   5.971   1.918
 3723SOL    HW212069   6.577   5.992   2.063
 3724SOL     OW12070   1.989   4.727   6.092
 3724SOL    HW112071   2.050   4.678   6.154
 3724SOL    HW212072   1.942   4.661   6.033
 3725SOL     OW12073   5.914   5.336   0.990
 3725SOL    HW112074   5.935   5.427   0.954
 3725SOL    HW212075   5.980   5.270   0.955
 3726SOL     OW12076   6.417   4.994   0.673
 3726SOL    HW112077   6.492   5.017   0.735
 3726SOL    HW212078   6.365   5.076   0.651
 3727SOL     OW12079   6.963   1.716   5.881
 3727SOL    HW112080   6.919   1.790   5.932
 3727SOL    HW212081   6.939   1.725   5.784
 3728SOL     OW12082   0.954   4.166   0.003
 3728SOL    HW112083   0.974   4.072   7.002
 3728SOL    HW212084   0.991   4.228   6.957
 3729SOL     OW12085   0.904   2.091   3.348
 3729SOL    HW112086   0.962   2.012   3.325
 3729SOL    HW212087   0.829   2.096   3.282
 3730SOL     OW12088   2.726   5.224   6.721
 3730SOL    HW112089   2.817   5.257   6.695
 3730SOL    HW212090   2.734   5.133   6.762
 3731SOL     OW12091   5.004   0.382   1.003
 3731SOL    HW112092   5.011   0.410   1.099
 3731SOL    HW212093   5.004   0.463   0.945
 3732SOL     OW12094   1.758   2.258   6.240
 3732SOL    HW112095   1.819   2.271   6.319
 3732SOL    HW212096   1.740   2.161   6.227
 3733SOL     OW12097   1.364   3.456   2.068
 3733SOL    HW112098   1.388   3.553   2.074
 3733SOL    HW212099   1.282   3.445   2.012
 3734SOL     OW12100   4.543   0.860   2.090
 3734SOL    HW112101   4.535   0.836   2.186
 3734SOL    HW212102   4.585   0.950   2.082
 3735SOL     OW12103   2.259   0.554   3.610
 3735SOL    HW112104   2.185   0.583   3.671
 3735SOL    HW212105   2.308   0.635   3.578
 3736SOL     OW12106   6.615   1.905   0.526
 3736SOL    HW112107   6.613   1.942   0.433
 3736SOL    HW212108   6.523   1.875   0.551
 3737SOL     OW12109   4.765   0.321   3.264
 3737SOL    HW112110   4.706   0.385   3.215
 3737SOL    HW212111   4.861   0.336   3.237
 3738SOL     OW12112   0.179   5.825   2.054
 3738SOL    HW112113   0.248   5.828   2.127
 3738SOL    HW212114   0.102   5.884   2.079
 3739SOL     OW12115   2.497   4.820   1.615
 3739SOL    HW112116   2.496   4.738   1.559
 3739SOL    HW212117   2.439   4.806   1.696
 3740SOL     OW12118   5.664   0.150   0.652
 3740SOL    HW112119   5.606   0.096   0.592
 3740SOL    HW212120   5.610   0.225   0.691
 3741SOL     OW12121   4.992   3.122   1.321
 3741SOL    HW112122   4.957   3.141   1.229
 3741SOL    HW212123   4.963   3.030   1.349
 3742SOL     OW12124   2.495   2.079   6.553
 3742SOL    HW112125   2.467   2.105   6.460
 3742SOL    HW212126   2.583   2.122   6.575
 3743SOL     OW12127   5.124   3.101   0.850
 3743SOL    HW112128   5.214   3.140   0.867
 3743SOL    HW212129   5.091   3.130   0.760
 3744SOL     OW12130   0.484   6.229   2.768
 3744SOL    HW112131   0.486   6.256   2.864
 3744SOL    HW212132   0.549   6.155   2.753
 3745SOL     OW12133   4.023   5.078   1.932
 3745SOL    HW112134   4.072   5.132   2.001
 3745SOL    HW212135   4.011   4.985   1.966
 3746SOL     OW12136   5.501   1.561   2.735
 3746SOL    HW112137   5.521   1.594   2.828
 3746SOL    HW212138   5.419   1.605   2.701
 3747SOL     OW12139   2.905   0.054   5.421
 3747SOL    HW112140   2.827   0.048   5.358
 3747SOL    HW212141   2.957   0.137   5.401
 3748SOL     OW12142   5.818   0.261   1.834
 3748SOL    HW112143   5.745   0.235   1.771
 3748SOL    HW212144   5.823   0.360   1.841
 3749SOL     OW12145   1.991   6.656   3.950
 3749SOL    HW112146   2.084   6.624   3.933
 3749SOL    HW212147   1.981   6.750   3.919
 3750SOL     OW12148   1.310   3.636   0.678
 3750SOL    HW112149   1.334   3.670   0.769
 3750SOL    HW212150   1.268   3.546   0.686
 3751SOL     OW12151   6.578   3.506   2.021
 3751SOL    HW112152   6.549   3.566   1.947
 3751SOL    HW212153   6.678   3.507   2.028
 3752SOL     OW12154   5.398   0.458   6.759
 3752SOL    HW112155   5.442   0.393   6.697
 3752SOL    HW212156   5.380   0.544   6.711
 3753SOL     OW12157   6.240   0.690   5.420
 3753SOL    HW112158   6.192   0.684   5.332
 3753SOL    HW212159   6.177   0.665   5.494
 3754SOL     OW12160   2.102   0.012   1.307
 3754SOL    HW112161   2.166   0.010   1.230
 3754SOL    HW212162   2.148   6.999   1.388
 3755SOL     OW12163   4.745   5.637   4.952
 3755SOL    HW112164   4.658   5.653   4.999
 3755SOL    HW212165   4.775   5.721   4.906
 3756SOL     OW12166   3.108   5.488   6.360
 3756SOL    HW112167   3.080   5.518   6.451
 3756SOL    HW212168   3.039   5.427   6.322
 3757SOL     OW12169   6.006   5.259   2.333
 3757SOL    HW112170   5.912   5.284   2.354
 3757SOL    HW212171   6.008   5.185   2.266
 3758SOL     OW12172   2.255   1.220   4.187
 3758SOL    HW112173   2.182   1.265   4.137
 3758SOL    HW212174   2.314   1.288   4.230
 3759SOL     OW12175   3.859   6.886   5.947
 3759SOL    HW112176   3.846   6.930   6.036
 3759SOL    HW212177   3.798   6.927   5.880
 3760SOL     OW12178   0.601   1.891   4.390
 3760SOL    HW112179   0.675   1.873   4.326
 3760SOL    HW212180   0.527   1.938   4.343
 3761SOL     OW12181   6.416   1.130   5.531
 3761SOL    HW112182   6.320   1.128   5.502
 3761SOL    HW212183   6.469   1.186   5.467
 3762SOL     OW12184   1.351   4.343   1.255
 3762SOL    HW112185   1.332   4.311   1.162
 3762SOL    HW212186   1.270   4.330   1.312
 3763SOL     OW12187   0.276   3.713   0.126
 3763SOL    HW112188   0.238   3.732   0.035
 3763SOL    HW212189   0.348   3.779   0.146
 3764SOL     OW12190   1.680   0.051   2.155
 3764SOL    HW112191   1.764   0.021   2.110
 3764SOL    HW212192   1.675   0.012   2.246
 3765SOL     OW12193   6.019   1.169   1.111
 3765SOL    HW112194   5.980   1.253   1.074
 3765SOL    HW212195   5.955   1.130   1.178
 3766SOL     OW12196   1.756   2.641   3.967
 3766SOL    HW112197   1.797   2.558   4.004
 3766SOL    HW212198   1.721   2.697   4.042
 3767SOL     OW12199   3.093   4.741   6.653
 3767SOL    HW112200   3.050   4.779   6.571
 3767SOL    HW212201   3.069   4.798   6.732
 3768SOL     OW12202   0.679   0.044   4.444
 3768SOL    HW112203   0.720   0.105   4.512
 3768SOL    HW212204   0.629   0.098   4.377
 3769SOL     OW12205   5.968   5.565   5.062
 3769SOL    HW112206   5.877   5.527   5.076
 3769SOL    HW212207   5.986   5.574   4.963
 3770SOL     OW12208   1.342   0.550   6.815
 3770SOL    HW112209   1.284   0.552   6.897
 3770SOL    HW212210   1.396   0.466   6.815
 3771SOL     OW12211   5.359   4.341   6.917
 3771SOL    HW112212   5.401   4.366   7.004
 3771SOL    HW212213   5.297   4.264   6.930
 3772SOL     OW12214   0.900   0.420   0.215
 3772SOL    HW112215   0.988   0.419   0.262
 3772SOL    HW212216   0.881   0.329   0.178
 3773SOL     OW12217   6.214   3.333   5.262
 3773SOL    HW112218   6.242   3.318   5.167
 3773SOL    HW212219   6.121   3.296   5.275
 3774SOL     OW12220   5.830   5.542   1.778
 3774SOL    HW112221   5.730   5.547   1.777
 3774SOL    HW212222   5.868   5.634   1.777
 3775SOL     OW12223   4.582   5.165   2.854
 3775SOL    HW112224   4.501   5.224   2.864
 3775SOL    HW212225   4.607   5.158   2.757
 3776SOL     OW12226   3.541   2.312   6.642
 3776SOL    HW112227   3.629   2.359   6.633
 3776SOL    HW212228   3.507   2.287   6.552
 3777SOL     OW12229   2.695   5.341   3.366
 3777SOL    HW112230   2.711   5.242   3.371
 3777SOL    HW212231   2.702   5.380   3.458
 3778SOL     OW12232   2.337   5.811   3.335
 3778SOL    HW112233   2.316   5.715   3.357
 3778SOL    HW212234   2.432   5.817   3.305
 3779SOL     OW12235   0.613   4.589   1.083
 3779SOL    HW112236   0.625   4.688   1.077
 3779SOL    HW212237   0.516   4.568   1.093
 3780SOL     OW12238   6.341   4.059   4.782
 3780SOL    HW112239   6.378   3.996   4.850
 3780SOL    HW212240   6.241   4.053   4.782
 3781SOL     OW12241   0.614   0.095   3.680
 3781SOL    HW112242   0.675   0.062   3.608
 3781SOL    HW212243   0.662   0.163   3.735
 3782SOL     OW12244   3.644   0.024   2.668
 3782SOL    HW112245   3.613   6.961   2.707
 3782SOL    HW212246   3.619   0.100   2.728
 3783SOL     OW12247   6.159   5.143   4.269
 3783SOL    HW112248   6.179   5.213   4.338
 3783SOL    HW212249   6.125   5.187   4.186
 3784SOL     OW12250   5.203   3.188   2.740
 3784SOL    HW112251   5.230   3.220   2.831
 3784SOL    HW212252   5.123   3.240   2.710
 3785SOL     OW12253   1.495   3.134   4.907
 3785SOL    HW112254   1.541   3.166   4.989
 3785SOL    HW212255   1.553   3.149   4.827
 3786SOL     OW12256   2.210   3.956   3.077
 3786SOL    HW112257   2.188   3.862   3.049
 3786SOL    HW212258   2.165   3.977   3.164
 3787SOL     OW12259   5.601   0.929   1.839
 3787SOL    HW112260   5.590   1.007   1.901
 3787SOL    HW212261   5.528   0.931   1.771
 3788SOL     OW12262   6.822   4.452   4.769
 3788SOL    HW112263   6.785   4.520   4.834
 3788SOL    HW212264   6.839   4.496   4.681
 3789SOL     OW12265   6.992   3.855   3.774
 3789SOL    HW112266   6.958   3.785   3.711
 3789SOL    HW212267   0.068   3.846   3.782
 3790SOL     OW12268   0.757   4.808   6.015
 3790SOL    HW112269   0.781   4.712   6.026
 3790SOL    HW212270   0.745   4.850   6.106
 3791SOL     OW12271   4.811   1.758   6.124
 3791SOL    HW112272   4.815   1.704   6.209
 3791SOL    HW212273   4.834   1.853   6.144
 3792SOL     OW12274   1.406   1.822   3.724
 3792SOL    HW112275   1.410   1.793   3.628
 3792SOL    HW212276   1.370   1.748   3.780
 3793SOL     OW12277   4.624   6.336   1.739
 3793SOL    HW112278   4.669   6.378   1.818
 3793SOL    HW212279   4.600   6.408   1.672
 3794SOL     OW12280   2.943   2.886   1.586
 3794SOL    HW112281   2.982   2.811   1.638
 3794SOL    HW212282   2.845   2.894   1.607
 3795SOL     OW12283   4.682   5.713   1.276
 3795SOL    HW112284   4.602   5.708   1.336
 3795SOL    HW212285   4.684   5.802   1.231
 3796SOL     OW12286   4.320   2.141   2.372
 3796SOL    HW112287   4.249   2.073   2.354
 3796SOL    HW212288   4.318   2.212   2.302
 3797SOL     OW12289   0.452   3.588   3.169
 3797SOL    HW112290   0.441   3.643   3.087
 3797SOL    HW212291   0.455   3.648   3.249
 3798SOL     OW12292   2.386   6.124   2.796
 3798SOL    HW112293   2.480   6.136   2.762
 3798SOL    HW212294   2.364   6.197   2.860
 3799SOL     OW12295   6.658   2.877   3.775
 3799SOL    HW112296   6.561   2.873   3.798
 3799SOL    HW212297   6.710   2.820   3.840
 3800SOL     OW12298   5.572   1.677   3.614
 3800SOL    HW112299   5.668   1.672   3.638
 3800SOL    HW212300   5.562   1.717   3.522
 3801SOL     OW12301   5.837   6.516   1.848
 3801SOL    HW112302   5.821   6.423   1.879
 3801SOL    HW212303   5.801   6.528   1.755
 3802SOL     OW12304   1.113   1.529   1.638
 3802SOL    HW112305   1.032   1.470   1.641
 3802SOL    HW212306   1.180   1.490   1.575
 3803SOL     OW12307   4.071   3.667   3.184
 3803SOL    HW112308   4.041   3.714   3.268
 3803SOL    HW212309   4.073   3.733   3.109
 3804SOL     OW12310   4.112   1.346   3.907
 3804SOL    HW112311   4.197   1.301   3.932
 3804SOL    HW212312   4.059   1.368   3.989
 3805SOL     OW12313   1.861   3.132   1.879
 3805SOL    HW112314   1.900   3.224   1.882
 3805SOL    HW212315   1.913   3.076   1.814
 3806SOL     OW12316   3.165   3.580   5.585
 3806SOL    HW112317   3.124   3.498   5.544
 3806SOL    HW212318   3.230   3.553   5.655
 3807SOL     OW12319   2.295   5.447   3.098
 3807SOL    HW112320   2.300   5.415   3.192
 3807SOL    HW212321   2.339   5.537   3.091
 3808SOL     OW12322   4.113   1.005   0.336
 3808SOL    HW112323   4.207   1.000   0.305
 3808SOL    HW212324   4.053   0.962   0.268
 3809SOL     OW12325   5.622   3.100   1.469
 3809SOL    HW112326   5.693   3.107   1.539
 3809SOL    HW212327   5.545   3.159   1.493
 3810SOL     OW12328   5.822   2.663   3.659
 3810SOL    HW112329   5.795   2.753   3.695
 3810SOL    HW212330   5.751   2.630   3.596
 3811SOL     OW12331   0.054   6.645   4.724
 3811SOL    HW112332   0.032   6.690   4.638
 3811SOL    HW212333   0.092   6.554   4.705
 3812SOL     OW12334   3.935   4.854   5.695
 3812SOL    HW112335   3.908   4.950   5.694
 3812SOL    HW212336   3.897   4.808   5.614
 3813SOL     OW12337   5.858   3.969   0.151
 3813SOL    HW112338   5.893   3.935   0.064
 3813SOL    HW212339   5.758   3.977   0.145
 3814SOL     OW12340   6.497   0.316   5.129
 3814SOL    HW112341   6.498   0.340   5.226
 3814SOL    HW212342   6.591   0.315   5.094
 3815SOL     OW12343   3.954   2.157   0.777
 3815SOL    HW112344   3.987   2.131   0.868
 3815SOL    HW212345   3.933   2.255   0.777
 3816SOL     OW12346   0.823   5.003   6.484
 3816SOL    HW112347   0.886   5.077   6.462
 3816SOL    HW212348   0.873   4.930   6.531
 3817SOL     OW12349   4.985   3.423   2.135
 3817SOL    HW112350   5.079   3.424   2.099
 3817SOL    HW212351   4.966   3.510   2.180
 3818SOL     OW12352   6.554   1.253   0.338
 3818SOL    HW112353   6.607   1.227   0.257
 3818SOL    HW212354   6.582   1.344   0.368
 3819SOL     OW12355   5.935   5.295   2.685
 3819SOL    HW112356   5.858   5.235   2.666
 3819SOL    HW212357   6.015   5.239   2.710
 3820SOL     OW12358   5.375   6.632   4.570
 3820SOL    HW112359   5.403   6.669   4.658
 3820SOL    HW212360   5.326   6.545   4.585
 3821SOL     OW12361   1.434   0.639   1.676
 3821SOL    HW112362   1.348   0.688   1.693
 3821SOL    HW212363   1.423   0.543   1.704
 3822SOL     OW12364   2.107   6.142   0.537
 3822SOL    HW112365   2.033   6.081   0.509
 3822SOL    HW212366   2.068   6.227   0.572
 3823SOL     OW12367   3.760   3.822   6.494
 3823SOL    HW112368   3.796   3.913   6.513
 3823SOL    HW212369   3.676   3.830   6.439
 3824SOL     OW12370   0.541   2.394   0.629
 3824SOL    HW112371   0.585   2.325   0.572
 3824SOL    HW212372   0.606   2.432   0.694
 3825SOL     OW12373   0.467   4.635   6.972
 3825SOL    HW112374   0.424   4.672   6.889
 3825SOL    HW212375   0.513   4.550   6.950
 3826SOL     OW12376   0.496   3.566   0.829
 3826SOL    HW112377   0.446   3.508   0.765
 3826SOL    HW212378   0.469   3.544   0.922
 3827SOL     OW12379   1.070   0.820   1.545
 3827SOL    HW112380   1.045   0.741   1.490
 3827SOL    HW212381   1.084   0.899   1.486
 3828SOL     OW12382   3.396   3.537   3.669
 3828SOL    HW112383   3.476   3.480   3.651
 3828SOL    HW212384   3.398   3.569   3.764
 3829SOL     OW12385   0.651   4.285   2.451
 3829SOL    HW112386   0.729   4.246   2.499
 3829SOL    HW212387   0.670   4.288   2.353
 3830SOL     OW12388   1.063   1.147   5.339
 3830SOL    HW112389   1.110   1.073   5.291
 3830SOL    HW212390   1.072   1.134   5.438
 3831SOL     OW12391   4.574   1.806   2.567
 3831SOL    HW112392   4.476   1.790   2.560
 3831SOL    HW212393   4.602   1.875   2.500
 3832SOL     OW12394   6.868   0.764   3.002
 3832SOL    HW112395   6.855   0.766   2.903
 3832SOL    HW212396   6.939   0.698   3.026
 3833SOL     OW12397   0.410   6.081   6.485
 3833SOL    HW112398   0.335   6.117   6.540
 3833SOL    HW212399   0.433   5.989   6.515
 3834SOL     OW12400   3.416   4.198   0.750
 3834SOL    HW112401   3.467   4.250   0.681
 3834SOL    HW212402   3.400   4.105   0.716
 3835SOL     OW12403   4.180   5.870   4.541
 3835SOL    HW112404   4.222   5.874   4.631
 3835SOL    HW212405   4.245   5.901   4.472
 3836SOL     OW12406   6.887   4.935   6.053
 3836SOL    HW112407   6.815   4.993   6.091
 3836SOL    HW212408   6.932   4.984   5.977
 3837SOL     OW12409   4.715   4.454   6.215
 3837SOL    HW112410   4.811   4.439   6.239
 3837SOL    HW212411   4.683   4.380   6.155
 3838SOL     OW12412   0.631   3.025   3.967
 3838SOL    HW112413   0.728   3.047   3.956
 3838SOL    HW212414   0.603   2.963   3.894
 3839SOL     OW12415   5.709   1.967   2.909
 3839SOL    HW112416   5.676   2.040   2.969
 3839SOL    HW212417   5.681   1.878   2.946
 3840SOL     OW12418   2.873   1.459   6.506
 3840SOL    HW112419   2.801   1.525   6.480
 3840SOL    HW212420   2.841   1.367   6.486
 3841SOL     OW12421   0.145   3.367   4.619
 3841SOL    HW112422   0.205   3.411   4.553
 3841SOL    HW212423   0.157   3.267   4.614
 3842SOL     OW12424   1.563   2.380   2.346
 3842SOL    HW112425   1.556   2.306   2.279
 3842SOL    HW212426   1.546   2.467   2.300
 3843SOL     OW12427   5.658   3.945   2.622
 3843SOL    HW112428   5.628   4.032   2.662
 3843SOL    HW212429   5.626   3.939   2.528
 3844SOL     OW12430   1.249   2.562   5.019
 3844SOL    HW112431   1.238   2.468   5.051
 3844SOL    HW212432   1.160   2.607   5.018
 3845SOL     OW12433   3.194   4.542   5.872
 3845SOL    HW112434   3.149   4.496   5.948
 3845SOL    HW212435   3.263   4.605   5.907
 3846SOL     OW12436   0.511   4.579   3.366
 3846SOL    HW112437   0.491   4.574   3.464
 3846SOL    HW212438   0.607   4.558   3.350
 3847SOL     OW12439   5.028   2.875   4.517
 3847SOL    HW112440   5.039   2.792   4.572
 3847SOL    HW212441   5.109   2.888   4.461
 3848SOL     OW12442   4.732   4.485   2.796
 3848SOL    HW112443   4.709   4.445   2.708
 3848SOL    HW212444   4.652   4.484   2.856
 3849SOL     OW12445   1.158   1.844   5.708
 3849SOL    HW112446   1.066   1.812   5.732
 3849SOL    HW212447   1.204   1.774   5.654
 3850SOL     OW12448   2.566   3.534   1.663
 3850SOL    HW112449   2.490   3.534   1.728
 3850SOL    HW212450   2.647   3.495   1.707
 3851SOL     OW12451   0.946   4.215   3.196
 3851SOL    HW112452   0.933   4.215   3.295
 3851SOL    HW212453   0.871   4.264   3.153
 3852SOL     OW12454   4.087   6.405   3.964
 3852SOL    HW112455   4.067   6.393   4.061
 3852SOL    HW212456   4.003   6.422   3.913
 3853SOL     OW12457   0.864   4.335   3.785
 3853SOL    HW112458   0.859   4.248   3.834
 3853SOL    HW212459   0.777   4.383   3.794
 3854SOL     OW12460   1.320   2.206   2.783
 3854SOL    HW112461   1.232   2.159   2.789
 3854SOL    HW212462   1.325   2.277   2.853
 3855SOL     OW12463   4.775   6.476   6.474
 3855SOL    HW112464   4.687   6.522   6.461
 3855SOL    HW212465   4.846   6.523   6.422
 3856SOL     OW12466   6.771   0.544   6.014
 3856SOL    HW112467   6.778   0.534   5.915
 3856SOL    HW212468   6.687   0.501   6.047
 3857SOL     OW12469   1.105   6.118   6.518
 3857SOL    HW112470   1.187   6.174   6.528
 3857SOL    HW212471   1.072   6.090   6.608
 3858SOL     OW12472   2.466   1.077   5.730
 3858SOL    HW112473   2.564   1.063   5.719
 3858SOL    HW212474   2.450   1.136   5.810
 3859SOL     OW12475   5.383   1.347   1.557
 3859SOL    HW112476   5.321   1.324   1.483
 3859SOL    HW212477   5.331   1.383   1.635
 3860SOL     OW12478   2.106   1.477   3.895
 3860SOL    HW112479   2.048   1.491   3.815
 3860SOL    HW212480   2.067   1.405   3.952
 3861SOL     OW12481   4.431   5.203   3.419
 3861SOL    HW112482   4.335   5.217   3.396
 3861SOL    HW212483   4.459   5.269   3.489
 3862SOL     OW12484   0.311   0.403   4.871
 3862SOL    HW112485   0.259   0.383   4.953
 3862SOL    HW212486   0.345   0.497   4.875
 3863SOL     OW12487   5.744   2.375   6.795
 3863SOL    HW112488   5.676   2.426   6.742
 3863SOL    HW212489   5.835   2.411   6.774
 3864SOL     OW12490   2.228   0.675   5.928
 3864SOL    HW112491   2.202   0.728   6.008
 3864SOL    HW212492   2.172   0.703   5.850
 3865SOL     OW12493   4.044   1.056   0.819
 3865SOL    HW112494   3.999   0.979   0.863
 3865SOL    HW212495   4.000   1.074   0.731
 3866SOL     OW12496   4.011   0.049   0.620
 3866SOL    HW112497   3.927   0.037   0.566
 3866SOL    HW212498   4.030   0.147   0.631
 3867SOL     OW12499   0.954   5.507   4.115
 3867SOL    HW112500   0.945   5.598   4.074
 3867SOL    HW212501   1.048   5.492   4.143
 3868SOL     OW12502   2.592   6.495   0.397
 3868SOL    HW112503   2.591   6.583   0.446
 3868SOL    HW212504   2.685   6.478   0.363
 3869SOL     OW12505   6.246   3.877   4.190
 3869SOL    HW112506   6.242   3.873   4.090
 3869SOL    HW212507   6.264   3.971   4.220
 3870SOL     OW12508   6.123   6.468   6.923
 3870SOL    HW112509   6.051   6.530   6.954
 3870SOL    HW212510   6.134   6.477   6.824
 3871SOL     OW12511   4.007   0.838   3.133
 3871SOL    HW112512   3.948   0.762   3.107
 3871SOL    HW212513   4.004   0.851   3.232
 3872SOL     OW12514   3.706   2.903   4.227
 3872SOL    HW112515   3.652   2.821   4.207
 3872SOL    HW212516   3.646   2.983   4.229
 3873SOL     OW12517   6.771   3.109   0.823
 3873SOL    HW112518   6.818   3.033   0.778
 3873SOL    HW212519   6.678   3.117   0.787
 3874SOL     OW12520   4.549   6.183   6.927
 3874SOL    HW112521   4.648   6.183   6.939
 3874SOL    HW212522   4.518   6.274   6.900
 3875SOL     OW12523   2.190   3.111   2.489
 3875SOL    HW112524   2.269   3.172   2.490
 3875SOL    HW212525   2.187   3.062   2.402
 3876SOL     OW12526   4.029   5.687   1.259
 3876SOL    HW112527   4.000   5.594   1.235
 3876SOL    HW212528   4.113   5.682   1.313
 3877SOL     OW12529   5.549   2.947   0.645
 3877SOL    HW112530   5.456   2.915   0.660
 3877SOL    HW212531   5.606   2.871   0.612
 3878SOL     OW12532   3.249   0.215   4.985
 3878SOL    HW112533   3.207   0.231   4.896
 3878SOL    HW212534   3.267   0.117   4.997
 3879SOL     OW12535   5.703   5.425   1.190
 3879SOL    HW112536   5.777   5.403   1.127
 3879SOL    HW212537   5.619   5.382   1.159
 3880SOL     OW12538   5.714   4.826   4.607
 3880SOL    HW112539   5.723   4.740   4.556
 3880SOL    HW212540   5.652   4.812   4.685
 3881SOL     OW12541   1.190   3.521   1.699
 3881SOL    HW112542   1.121   3.586   1.731
 3881SOL    HW212543   1.152   3.428   1.702
 3882SOL     OW12544   1.507   0.867   5.672
 3882SOL    HW112545   1.506   0.767   5.684
 3882SOL    HW212546   1.588   0.893   5.620
 3883SOL     OW12547   4.364   0.774   3.045
 3883SOL    HW112548   4.454   0.814   3.058
 3883SOL    HW212549   4.317   0.767   3.133
 3884SOL     OW12550   0.172   5.926   3.028
 3884SOL    HW112551   0.242   5.997   3.041
 3884SOL    HW212552   0.157   5.879   3.115
 3885SOL     OW12553   6.248   6.951   2.585
 3885SOL    HW112554   6.189   0.004   2.611
 3885SOL    HW212555   6.335   6.986   2.549
 3886SOL     OW12556   5.998   5.945   4.792
 3886SOL    HW112557   5.952   5.984   4.713
 3886SOL    HW212558   6.093   5.922   4.767
 3887SOL     OW12559   0.609   0.579   6.709
 3887SOL    HW112560   0.634   0.668   6.670
 3887SOL    HW212561   0.509   0.571   6.711
 3888SOL     OW12562   6.472   0.702   5.000
 3888SOL    HW112563   6.460   0.610   4.962
 3888SOL    HW212564   6.455   0.770   4.929
 3889SOL     OW12565   0.667   3.657   0.046
 3889SOL    HW112566   0.698   3.644   0.140
 3889SOL    HW212567   0.574   3.621   0.037
 3890SOL     OW12568   5.301   5.630   3.049
 3890SOL    HW112569   5.307   5.730   3.054
 3890SOL    HW212570   5.316   5.600   2.955
 3891SOL     OW12571   5.912   4.519   4.708
 3891SOL    HW112572   5.844   4.471   4.652
 3891SOL    HW212573   5.874   4.536   4.799
 3892SOL     OW12574   0.132   2.164   1.691
 3892SOL    HW112575   0.220   2.143   1.648
 3892SOL    HW212576   0.141   2.248   1.745
 3893SOL     OW12577   4.653   4.264   0.853
 3893SOL    HW112578   4.687   4.177   0.818
 3893SOL    HW212579   4.567   4.248   0.902
 3894SOL     OW12580   3.424   1.561   1.461
 3894SOL    HW112581   3.340   1.529   1.418
 3894SOL    HW212582   3.435   1.659   1.442
 3895SOL     OW12583   1.598   0.777   5.297
 3895SOL    HW112584   1.553   0.731   5.374
 3895SOL    HW212585   1.561   0.743   5.211
 3896SOL     OW12586   7.013   0.628   6.414
 3896SOL    HW112587   6.940   0.682   6.374
 3896SOL    HW212588   0.019   0.669   6.501
 3897SOL     OW12589   3.497   5.135   3.036
 3897SOL    HW112590   3.505   5.192   3.118
 3897SOL    HW212591   3.500   5.038   3.062
 3898SOL     OW12592   3.553   3.466   4.973
 3898SOL    HW112593   3.462   3.440   4.943
 3898SOL    HW212594   3.551   3.557   5.012
 3899SOL     OW12595   5.818   6.826   4.930
 3899SOL    HW112596   5.900   6.770   4.943
 3899SOL    HW212597   5.763   6.824   5.014
 3900SOL     OW12598   4.829   3.133   3.802
 3900SOL    HW112599   4.770   3.052   3.797
 3900SOL    HW212600   4.839   3.173   3.712
 3901SOL     OW12601   2.935   0.471   6.062
 3901SOL    HW112602   2.848   0.456   6.016
 3901SOL    HW212603   2.943   0.568   6.086
 3902SOL     OW12604   5.520   3.737   2.168
 3902SOL    HW112605   5.569   3.823   2.155
 3902SOL    HW212606   5.427   3.745   2.133
 3903SOL     OW12607   4.044   5.885   0.237
 3903SOL    HW112608   3.957   5.845   0.207
 3903SOL    HW212609   4.119   5.840   0.190
 3904SOL     OW12610   2.211   0.817   5.191
 3904SOL    HW112611   2.155   0.888   5.232
 3904SOL    HW212612   2.305   0.824   5.225
 3905SOL     OW12613   6.856   0.115   6.010
 3905SOL    HW112614   6.845   0.173   5.930
 3905SOL    HW212615   6.849   0.171   6.093
 3906SOL     OW12616   3.813   5.115   5.273
 3906SOL    HW112617   3.813   5.024   5.231
 3906SOL    HW212618   3.774   5.181   5.209
 3907SOL     OW12619   5.390   0.189   5.150
 3907SOL    HW112620   5.385   0.155   5.244
 3907SOL    HW212621   5.486   0.193   5.121
 3908SOL     OW12622   0.851   1.308   0.424
 3908SOL    HW112623   0.927   1.270   0.371
 3908SOL    HW212624   0.800   1.373   0.368
 3909SOL     OW12625   0.336   5.091   5.537
 3909SOL    HW112626   0.334   5.055   5.443
 3909SOL    HW212627   0.266   5.160   5.547
 3910SOL     OW12628   3.342   3.898   1.894
 3910SOL    HW112629   3.336   3.956   1.975
 3910SOL    HW212630   3.345   3.802   1.922
 3911SOL     OW12631   4.364   1.361   0.351
 3911SOL    HW112632   4.409   1.329   0.268
 3911SOL    HW212633   4.291   1.298   0.376
 3912SOL     OW12634   3.868   0.267   6.000
 3912SOL    HW112635   3.774   0.262   6.034
 3912SOL    HW212636   3.872   0.328   5.921
 3913SOL     OW12637   2.317   6.066   6.252
 3913SOL    HW112638   2.271   6.153   6.234
 3913SOL    HW212639   2.391   6.053   6.186
 3914SOL     OW12640   4.075   1.178   1.158
 3914SOL    HW112641   4.136   1.177   1.079
 3914SOL    HW212642   4.128   1.194   1.241
 3915SOL     OW12643   3.589   6.310   2.077
 3915SOL    HW112644   3.611   6.358   2.162
 3915SOL    HW212645   3.514   6.246   2.093
 3916SOL     OW12646   1.540   6.120   3.598
 3916SOL    HW112647   1.577   6.119   3.504
 3916SOL    HW212648   1.467   6.052   3.605
 3917SOL     OW12649   1.225   4.895   6.583
 3917SOL    HW112650   1.263   4.954   6.511
 3917SOL    HW212651   1.243   4.799   6.559
 3918SOL     OW12652   4.907   0.231   2.392
 3918SOL    HW112653   4.850   0.312   2.382
 3918SOL    HW212654   4.849   0.152   2.413
 3919SOL     OW12655   2.625   5.835   6.789
 3919SOL    HW112656   2.608   5.920   6.738
 3919SOL    HW212657   2.707   5.847   6.845
 3920SOL     OW12658   2.497   2.737   6.469
 3920SOL    HW112659   2.439   2.773   6.542
 3920SOL    HW212660   2.593   2.760   6.488
 3921SOL     OW12661   6.973   2.881   0.760
 3921SOL    HW112662   0.008   2.938   0.818
 3921SOL    HW212663   6.973   2.916   0.667
 3922SOL     OW12664   6.008   4.516   1.164
 3922SOL    HW112665   6.050   4.530   1.074
 3922SOL    HW212666   6.067   4.458   1.220
 3923SOL     OW12667   6.617   1.989   6.923
 3923SOL    HW112668   6.606   2.080   6.964
 3923SOL    HW212669   6.674   1.932   6.982
 3924SOL     OW12670   0.149   5.809   3.274
 3924SOL    HW112671   0.102   5.797   3.361
 3924SOL    HW212672   0.247   5.820   3.291
 3925SOL     OW12673   3.729   4.373   1.193
 3925SOL    HW112674   3.779   4.307   1.136
 3925SOL    HW212675   3.733   4.463   1.150
 3926SOL     OW12676   6.513   5.564   2.760
 3926SOL    HW112677   6.564   5.582   2.844
 3926SOL    HW212678   6.512   5.646   2.703
 3927SOL     OW12679   6.735   3.974   3.730
 3927SOL    HW112680   6.826   3.941   3.709
 3927SOL    HW212681   6.696   4.020   3.650
 3928SOL     OW12682   2.411   5.429   5.441
 3928SOL    HW112683   2.457   5.376   5.512
 3928SOL    HW212684   2.478   5.457   5.372
 3929SOL     OW12685   0.465   1.637   5.517
 3929SOL    HW112686   0.462   1.549   5.564
 3929SOL    HW212687   0.546   1.641   5.458
 3930SOL     OW12688   1.975   1.771   4.295
 3930SOL    HW112689   1.905   1.816   4.350
 3930SOL    HW212690   2.037   1.841   4.257
 3931SOL     OW12691   1.490   2.039   2.649
 3931SOL    HW112692   1.441   2.105   2.705
 3931SOL    HW212693   1.588   2.046   2.667
 3932SOL     OW12694   1.712   3.775   2.625
 3932SOL    HW112695   1.761   3.738   2.704
 3932SOL    HW212696   1.672   3.863   2.650
 3933SOL     OW12697   2.175   6.906   6.619
 3933SOL    HW112698   2.128   6.925   6.706
 3933SOL    HW212699   2.261   6.955   6.616
 3934SOL     OW12700   0.288   0.933   1.155
 3934SOL    HW112701   0.262   0.904   1.247
 3934SOL    HW212702   0.225   0.893   1.088
 3935SOL     OW12703   1.954   6.702   6.539
 3935SOL    HW112704   1.897   6.783   6.538
 3935SOL    HW212705   2.043   6.724   6.580
 3936SOL     OW12706   0.283   4.735   5.174
 3936SOL    HW112707   0.335   4.804   5.224
 3936SOL    HW212708   0.345   4.665   5.139
 3937SOL     OW12709   7.017   0.639   2.201
 3937SOL    HW112710   6.936   0.598   2.243
 3937SOL    HW212711   7.017   0.738   2.220
 3938SOL     OW12712   6.830   2.434   3.781
 3938SOL    HW112713   6.755   2.500   3.783
 3938SOL    HW212714   6.886   2.450   3.699
 3939SOL     OW12715   3.097   1.614   2.010
 3939SOL    HW112716   3.027   1.618   1.939
 3939SOL    HW212717   3.070   1.673   2.087
 3940SOL     OW12718   4.390   5.348   2.220
 3940SOL    HW112719   4.374   5.403   2.138
 3940SOL    HW212720   4.350   5.257   2.208
 3941SOL     OW12721   4.897   1.381   6.280
 3941SOL    HW112722   4.960   1.458   6.296
 3941SOL    HW212723   4.884   1.331   6.365
 3942SOL     OW12724   0.298   0.286   5.624
 3942SOL    HW112725   0.284   0.209   5.685
 3942SOL    HW212726   0.364   0.350   5.664
 3943SOL     OW12727   0.718   3.734   2.891
 3943SOL    HW112728   0.784   3.679   2.941
 3943SOL    HW212729   0.748   3.744   2.796
 3944SOL     OW12730   5.970   3.818   5.519
 3944SOL    HW112731   6.006   3.796   5.428
 3944SOL    HW212732   5.883   3.769   5.532
 3945SOL     OW12733   0.839   2.140   1.998
 3945SOL    HW112734   0.918   2.103   2.047
 3945SOL    HW212735   0.758   2.084   2.017
 3946SOL     OW12736   6.261   4.935   5.935
 3946SOL    HW112737   6.231   4.948   5.840
 3946SOL    HW212738   6.359   4.917   5.938
 3947SOL     OW12739   6.021   5.142   1.552
 3947SOL    HW112740   6.045   5.052   1.589
 3947SOL    HW212741   5.956   5.130   1.477
 3948SOL     OW12742   0.915   4.966   1.610
 3948SOL    HW112743   0.972   4.991   1.688
 3948SOL    HW212744   0.851   4.894   1.637
 3949SOL     OW12745   5.770   0.679   3.281
 3949SOL    HW112746   5.858   0.725   3.273
 3949SOL    HW212747   5.727   0.675   3.190
 3950SOL     OW12748   2.912   3.879   1.800
 3950SOL    HW112749   2.934   3.854   1.894
 3950SOL    HW212750   2.928   3.800   1.740
 3951SOL     OW12751   0.310   0.074   0.445
 3951SOL    HW112752   0.362   0.110   0.522
 3951SOL    HW212753   0.363   0.004   0.397
 3952SOL     OW12754   6.887   4.266   3.897
 3952SOL    HW112755   6.933   4.212   3.968
 3952SOL    HW212756   6.788   4.261   3.910
 3953SOL     OW12757   3.750   4.617   1.026
 3953SOL    HW112758   3.679   4.621   0.955
 3953SOL    HW212759   3.803   4.701   1.025
 3954SOL     OW12760   5.708   5.312   5.318
 3954SOL    HW112761   5.663   5.313   5.229
 3954SOL    HW212762   5.733   5.405   5.344
 3955SOL     OW12763   3.518   6.461   6.254
 3955SOL    HW112764   3.583   6.521   6.300
 3955SOL    HW212765   3.510   6.375   6.305
 3956SOL     OW12766   0.413   1.454   2.797
 3956SOL    HW112767   0.393   1.497   2.884
 3956SOL    HW212768   0.463   1.369   2.812
 3957SOL     OW12769   4.922   6.535   3.665
 3957SOL    HW112770   4.825   6.540   3.688
 3957SOL    HW212771   4.964   6.459   3.713
 3958SOL     OW12772   5.548   0.196   6.163
 3958SOL    HW112773   5.459   0.154   6.146
 3958SOL    HW212774   5.538   0.295   6.166
 3959SOL     OW12775   3.929   6.519   1.160
 3959SOL    HW112776   3.856   6.577   1.123
 3959SOL    HW212777   4.016   6.567   1.154
 3960SOL     OW12778   4.729   1.536   6.805
 3960SOL    HW112779   4.704   1.607   6.739
 3960SOL    HW212780   4.825   1.548   6.831
 3961SOL     OW12781   5.313   2.403   2.039
 3961SOL    HW112782   5.316   2.392   1.940
 3961SOL    HW212783   5.341   2.496   2.063
 3962SOL     OW12784   2.028   4.747   0.110
 3962SOL    HW112785   2.114   4.723   0.064
 3962SOL    HW212786   1.986   4.663   0.145
 3963SOL     OW12787   4.657   4.459   4.120
 3963SOL    HW112788   4.607   4.536   4.158
 3963SOL    HW212789   4.600   4.412   4.053
 3964SOL     OW12790   4.722   4.824   3.669
 3964SOL    HW112791   4.657   4.898   3.686
 3964SOL    HW212792   4.709   4.752   3.736
 3965SOL     OW12793   4.253   2.745   6.033
 3965SOL    HW112794   4.248   2.681   6.109
 3965SOL    HW212795   4.160   2.773   6.007
 3966SOL     OW12796   5.582   5.700   0.514
 3966SOL    HW112797   5.525   5.739   0.442
 3966SOL    HW212798   5.644   5.770   0.549
 3967SOL     OW12799   1.220   4.337   2.473
 3967SOL    HW112800   1.190   4.298   2.559
 3967SOL    HW212801   1.264   4.425   2.489
 3968SOL     OW12802   6.088   0.184   1.033
 3968SOL    HW112803   5.995   0.218   1.020
 3968SOL    HW212804   6.128   0.160   0.944
 3969SOL     OW12805   1.424   3.725   2.589
 3969SOL    HW112806   1.518   3.698   2.572
 3969SOL    HW212807   1.385   3.666   2.660
 3970SOL     OW12808   5.860   5.414   3.867
 3970SOL    HW112809   5.931   5.454   3.810
 3970SOL    HW212810   5.795   5.364   3.809
 3971SOL     OW12811   2.540   5.230   1.788
 3971SOL    HW112812   2.455   5.181   1.807
 3971SOL    HW212813   2.562   5.221   1.691
 3972SOL     OW12814   1.464   5.235   0.770
 3972SOL    HW112815   1.426   5.199   0.685
 3972SOL    HW212816   1.535   5.172   0.804
 3973SOL     OW12817   1.055   4.423   5.938
 3973SOL    HW112818   1.143   4.411   5.985
 3973SOL    HW212819   1.070   4.421   5.839
 3974SOL     OW12820   1.111   0.650   4.671
 3974SOL    HW112821   1.098   0.626   4.767
 3974SOL    HW212822   1.023   0.649   4.624
 3975SOL     OW12823   5.264   0.102   6.013
 3975SOL    HW112824   5.184   0.160   5.999
 3975SOL    HW212825   5.257   0.021   5.956
 3976SOL     OW12826   1.417   5.117   1.171
 3976SOL    HW112827   1.410   5.182   1.095
 3976SOL    HW212828   1.465   5.035   1.140
 3977SOL     OW12829   3.079   4.137   5.749
 3977SOL    HW112830   3.122   4.225   5.727
 3977SOL    HW212831   3.100   4.112   5.843
 3978SOL     OW12832   5.401   6.566   4.862
 3978SOL    HW112833   5.488   6.529   4.829
 3978SOL    HW212834   5.335   6.492   4.872
 3979SOL     OW12835   2.794   5.958   1.879
 3979SOL    HW112836   2.720   6.022   1.900
 3979SOL    HW212837   2.756   5.876   1.836
 3980SOL     OW12838   0.291   5.798   6.265
 3980SOL    HW112839   0.222   5.740   6.221
 3980SOL    HW212840   0.248   5.883   6.297
 3981SOL     OW12841   1.783   1.956   6.557
 3981SOL    HW112842   1.876   1.929   6.532
 3981SOL    HW212843   1.728   1.875   6.575
 3982SOL     OW12844   2.386   0.470   4.138
 3982SOL    HW112845   2.378   0.563   4.100
 3982SOL    HW212846   2.372   0.403   4.066
 3983SOL     OW12847   4.456   5.199   4.017
 3983SOL    HW112848   4.514   5.249   3.952
 3983SOL    HW212849   4.514   5.152   4.084
 3984SOL     OW12850   1.013   0.563   3.061
 3984SOL    HW112851   0.959   0.626   3.117
 3984SOL    HW212852   0.962   0.539   2.979
 3985SOL     OW12853   3.718   4.713   6.339
 3985SOL    HW112854   3.801   4.685   6.293
 3985SOL    HW212855   3.697   4.808   6.316
 3986SOL     OW12856   6.317   2.218   2.750
 3986SOL    HW112857   6.311   2.195   2.847
 3986SOL    HW212858   6.346   2.137   2.699
 3987SOL     OW12859   2.993   5.254   4.052
 3987SOL    HW112860   3.050   5.224   4.128
 3987SOL    HW212861   3.037   5.331   4.006
 3988SOL     OW12862   4.016   3.837   6.592
 3988SOL    HW112863   3.923   3.824   6.559
 3988SOL    HW212864   4.017   3.911   6.660
 3989SOL     OW12865   6.712   1.573   0.101
 3989SOL    HW112866   6.616   1.603   0.097
 3989SOL    HW212867   6.754   1.586   0.011
 3990SOL     OW12868   5.685   2.360   2.856
 3990SOL    HW112869   5.630   2.344   2.774
 3990SOL    HW212870   5.695   2.458   2.871
 3991SOL     OW12871   5.792   1.758   1.935
 3991SOL    HW112872   5.816   1.843   1.982
 3991SOL    HW212873   5.714   1.716   1.981
 3992SOL     OW12874   3.473   2.389   0.174
 3992SOL    HW112875   3.429   2.310   0.218
 3992SOL    HW212876   3.508   2.362   0.085
 3993SOL     OW12877   0.345   2.532   3.318
 3993SOL    HW112878   0.412   2.459   3.309
 3993SOL    HW212879   0.370   2.609   3.260
 3994SOL     OW12880   0.670   1.309   6.207
 3994SOL    HW112881   0.592   1.336   6.152
 3994SOL    HW212882   0.664   1.350   6.298
 3995SOL     OW12883   1.707   3.986   4.334
 3995SOL    HW112884   1.745   4.025   4.250
 3995SOL    HW212885   1.614   4.019   4.346
 3996SOL     OW12886   0.876   1.207   4.431
 3996SOL    HW112887   0.844   1.158   4.350
 3996SOL    HW212888   0.962   1.254   4.410
 3997SOL     OW12889   5.250   2.229   3.434
 3997SOL    HW112890   5.151   2.212   3.431
 3997SOL    HW212891   5.295   2.169   3.367
 3998SOL     OW12892   3.874   1.097   2.548
 3998SOL    HW112893   3.848   1.163   2.477
 3998SOL    HW212894   3.808   1.101   2.623
 3999SOL     OW12895   5.632   3.281   3.833
 3999SOL    HW112896   5.599   3.340   3.760
 3999SOL    HW212897   5.672   3.336   3.906
 4000SOL     OW12898   2.750   5.073   3.031
 4000SOL    HW112899   2.778   5.004   3.099
 4000SOL    HW212900   2.719   5.155   3.078
 4001SOL     OW12901   2.359   1.968   4.238
 4001SOL    HW112902   2.389   1.873   4.246
 4001SOL    HW212903   2.265   1.970   4.203
 4002SOL     OW12904   2.743   2.675   0.412
 4002SOL    HW112905   2.809   2.624   0.467
 4002SOL    HW212906   2.714   2.756   0.462
 4003SOL     OW12907   2.952   5.991   4.806
 4003SOL    HW112908   2.993   6.065   4.752
 4003SOL    HW212909   2.852   6.003   4.809
 4004SOL     OW12910   5.720   2.246   3.980
 4004SOL    HW112911   5.702   2.155   4.017
 4004SOL    HW212912   5.647   2.272   3.917
 4005SOL     OW12913   5.480   5.962   0.794
 4005SOL    HW112914   5.462   5.877   0.844
 4005SOL    HW212915   5.562   5.951   0.738
 4006SOL     OW12916   3.826   5.147   2.793
 4006SOL    HW112917   3.882   5.207   2.736
 4006SOL    HW212918   3.886   5.096   2.855
 4007SOL     OW12919   0.953   2.854   1.887
 4007SOL    HW112920   0.888   2.802   1.943
 4007SOL    HW212921   0.987   2.796   1.813
 4008SOL     OW12922   3.400   2.146   4.340
 4008SOL    HW112923   3.423   2.127   4.435
 4008SOL    HW212924   3.315   2.100   4.316
 4009SOL     OW12925   4.801   3.400   0.295
 4009SOL    HW112926   4.723   3.401   0.232
 4009SOL    HW212927   4.853   3.485   0.285
 4010SOL     OW12928   2.295   3.061   1.803
 4010SOL    HW112929   2.289   2.991   1.732
 4010SOL    HW212930   2.369   3.125   1.782
 4011SOL     OW12931   0.435   0.590   1.773
 4011SOL    HW112932   0.410   0.616   1.866
 4011SOL    HW212933   0.530   0.561   1.771
 4012SOL     OW12934   4.344   5.455   1.711
 4012SOL    HW112935   4.321   5.508   1.792
 4012SOL    HW212936   4.264   5.404   1.680
 4013SOL     OW12937   3.175   6.865   0.216
 4013SOL    HW112938   3.248   6.926   0.247
 4013SOL    HW212939   3.173   6.784   0.274
 4014SOL     OW12940   3.883   6.065   3.221
 4014SOL    HW112941   3.972   6.040   3.259
 4014SOL    HW212942   3.810   6.024   3.276
 4015SOL     OW12943   4.579   5.386   6.387
 4015SOL    HW112944   4.639   5.348   6.457
 4015SOL    HW212945   4.627   5.461   6.340
 4016SOL     OW12946   1.983   5.996   6.787
 4016SOL    HW112947   1.982   6.018   6.884
 4016SOL    HW212948   1.982   5.896   6.775
 4017SOL     OW12949   0.233   6.250   0.957
 4017SOL    HW112950   0.315   6.206   0.995
 4017SOL    HW212951   0.200   6.197   0.880
 4018SOL     OW12952   4.984   6.261   2.908
 4018SOL    HW112953   4.890   6.235   2.884
 4018SOL    HW212954   4.986   6.357   2.934
 4019SOL     OW12955   5.684   3.581   2.671
 4019SOL    HW112956   5.677   3.482   2.686
 4019SOL    HW212957   5.650   3.604   2.580
 4020SOL     OW12958   5.601   2.439   5.820
 4020SOL    HW112959   5.609   2.533   5.785
 4020SOL    HW212960   5.523   2.394   5.774
 4021SOL     OW12961   3.104   3.087   5.924
 4021SOL    HW112962   3.035   3.101   5.853
 4021SOL    HW212963   3.112   2.990   5.944
 4022SOL     OW12964   4.112   0.407   0.432
 4022SOL    HW112965   4.086   0.487   0.487
 4022SOL    HW212966   4.177   0.352   0.484
 4023SOL     OW12967   6.464   1.577   5.323
 4023SOL    HW112968   6.422   1.594   5.234
 4023SOL    HW212969   6.393   1.547   5.388
 4024SOL     OW12970   3.324   5.492   4.124
 4024SOL    HW112971   3.306   5.456   4.216
 4024SOL    HW212972   3.394   5.563   4.129
 4025SOL     OW12973   0.934   6.410   4.440
 4025SOL    HW112974   0.913   6.376   4.348
 4025SOL    HW212975   0.957   6.332   4.499
 4026SOL     OW12976   6.336   5.959   4.051
 4026SOL    HW112977   6.268   5.976   4.122
 4026SOL    HW212978   6.390   5.879   4.076
 4027SOL     OW12979   3.593   4.157   2.136
 4027SOL    HW112980   3.633   4.185   2.049
 4027SOL    HW212981   3.496   4.136   2.123
 4028SOL     OW12982   1.327   2.156   4.178
 4028SOL    HW112983   1.319   2.077   4.117
 4028SOL    HW212984   1.357   2.124   4.269
 4029SOL     OW12985   2.176   4.170   6.877
 4029SOL    HW112986   2.161   4.140   6.783
 4029SOL    HW212987   2.240   4.246   6.879
 4030SOL     OW12988   1.584   1.989   6.263
 4030SOL    HW112989   1.517   2.046   6.214
 4030SOL    HW212990   1.576   1.894   6.232
 4031SOL     OW12991   4.591   5.893   2.859
 4031SOL    HW112992   4.584   5.817   2.794
 4031SOL    HW212993   4.675   5.945   2.839
 4032SOL     OW12994   5.922   0.398   2.864
 4032SOL    HW112995   5.860   0.398   2.942
 4032SOL    HW212996   5.879   0.351   2.787
 4033SOL     OW12997   2.981   3.483   3.156
 4033SOL    HW112998   3.005   3.527   3.069
 4033SOL    HW212999   2.969   3.385   3.143
 4034SOL     OW13000   6.084   1.738   5.108
 4034SOL    HW113001   6.001   1.792   5.105
 4034SOL    HW213002   6.062   1.642   5.090
 4035SOL     OW13003   6.615   3.292   1.134
 4035SOL    HW113004   6.631   3.206   1.086
 4035SOL    HW213005   6.613   3.275   1.232
 4036SOL     OW13006   5.669   6.990   2.779
 4036SOL    HW113007   5.699   7.022   2.869
 4036SOL    HW213008   5.697   0.032   2.709
 4037SOL     OW13009   1.797   1.791   0.788
 4037SOL    HW113010   1.817   1.746   0.875
 4037SOL    HW213011   1.881   1.827   0.748
 4038SOL     OW13012   5.076   4.666   1.746
 4038SOL    HW113013   5.112   4.680   1.653
 4038SOL    HW213014   4.977   4.651   1.741
 4039SOL     OW13015   5.186   5.242   1.189
 4039SOL    HW113016   5.126   5.291   1.251
 4039SOL    HW213017   5.221   5.159   1.234
 4040SOL     OW13018   2.924   6.779   6.897
 4040SOL    HW113019   3.020   6.753   6.894
 4040SOL    HW213020   2.868   6.703   6.864
 4041SOL     OW13021   1.727   5.859   1.707
 4041SOL    HW113022   1.706   5.796   1.782
 4041SOL    HW213023   1.699   5.951   1.733
 4042SOL     OW13024   6.331   4.384   3.014
 4042SOL    HW113025   6.307   4.313   2.949
 4042SOL    HW213026   6.270   4.463   3.001
 4043SOL     OW13027   5.369   2.349   4.705
 4043SOL    HW113028   5.308   2.386   4.635
 4043SOL    HW213029   5.336   2.259   4.735
 4044SOL     OW13030   4.819   0.602   4.403
 4044SOL    HW113031   4.790   0.665   4.475
 4044SOL    HW213032   4.856   0.654   4.326
 4045SOL     OW13033   2.794   4.578   6.334
 4045SOL    HW113034   2.827   4.515   6.404
 4045SOL    HW213035   2.725   4.532   6.278
 4046SOL     OW13036   0.570   2.009   3.840
 4046SOL    HW113037   0.565   2.106   3.816
 4046SOL    HW213038   0.645   1.966   3.789
 4047SOL     OW13039   2.735   2.576   0.951
 4047SOL    HW113040   2.667   2.521   0.904
 4047SOL    HW213041   2.722   2.672   0.929
 4048SOL     OW13042   5.661   1.392   1.554
 4048SOL    HW113043   5.563   1.387   1.573
 4048SOL    HW213044   5.682   1.336   1.474
 4049SOL     OW13045   5.982   6.409   6.428
 4049SOL    HW113046   5.995   6.318   6.467
 4049SOL    HW213047   5.975   6.402   6.329
 4050SOL     OW13048   1.980   6.379   0.512
 4050SOL    HW113049   1.943   6.455   0.458
 4050SOL    HW213050   1.915   6.354   0.584
 4051SOL     OW13051   3.760   3.237   0.316
 4051SOL    HW113052   3.805   3.148   0.326
 4051SOL    HW213053   3.661   3.226   0.319
 4052SOL     OW13054   1.176   0.505   1.530
 4052SOL    HW113055   1.220   0.551   1.453
 4052SOL    HW213056   1.196   0.407   1.526
 4053SOL     OW13057   3.370   5.095   4.030
 4053SOL    HW113058   3.286   5.042   4.023
 4053SOL    HW213059   3.397   5.127   3.939
 4054SOL     OW13060   1.790   2.512   1.291
 4054SOL    HW113061   1.694   2.539   1.300
 4054SOL    HW213062   1.828   2.550   1.207
 4055SOL     OW13063   3.279   3.131   5.390
 4055SOL    HW113064   3.291   3.195   5.314
 4055SOL    HW213065   3.295   3.038   5.358
 4056SOL     OW13066   4.293   3.098   6.870
 4056SOL    HW113067   4.379   3.048   6.858
 4056SOL    HW213068   4.221   3.053   6.817
 4057SOL     OW13069   4.945   2.944   0.237
 4057SOL    HW113070   4.978   3.029   0.197
 4057SOL    HW213071   4.960   2.945   0.336
 4058SOL     OW13072   1.172   1.622   4.106
 4058SOL    HW113073   1.207   1.678   4.181
 4058SOL    HW213074   1.082   1.586   4.130
 4059SOL     OW13075   1.849   2.614   3.013
 4059SOL    HW113076   1.939   2.658   3.009
 4059SOL    HW213077   1.814   2.620   3.107
 4060SOL     OW13078   4.482   5.034   5.516
 4060SOL    HW113079   4.468   5.056   5.613
 4060SOL    HW213080   4.418   4.962   5.488
 4061SOL     OW13081   3.392   4.717   1.672
 4061SOL    HW113082   3.458   4.702   1.746
 4061SOL    HW213083   3.402   4.645   1.604
 4062SOL     OW13084   3.768   1.690   3.218
 4062SOL    HW113085   3.708   1.762   3.185
 4062SOL    HW213086   3.747   1.669   3.313
 4063SOL     OW13087   4.785   6.875   5.334
 4063SOL    HW113088   4.851   6.850   5.263
 4063SOL    HW213089   4.728   6.950   5.302
 4064SOL     OW13090   2.127   6.634   2.900
 4064SOL    HW113091   2.097   6.605   2.991
 4064SOL    HW213092   2.094   6.568   2.832
 4065SOL     OW13093   1.586   6.509   0.320
 4065SOL    HW113094   1.543   6.579   0.376
 4065SOL    HW213095   1.611   6.430   0.378
 4066SOL     OW13096   5.198   4.860   2.328
 4066SOL    HW113097   5.289   4.861   2.370
 4066SOL    HW213098   5.132   4.823   2.392
 4067SOL     OW13099   6.027   2.941   2.879
 4067SOL    HW113100   6.022   2.857   2.825
 4067SOL    HW213101   6.064   3.015   2.823
 4068SOL     OW13102   4.646   0.198   4.568
 4068SOL    HW113103   4.600   0.165   4.485
 4068SOL    HW213104   4.629   0.133   4.643
 4069SOL     OW13105   4.265   3.746   6.720
 4069SOL    HW113106   4.180   3.751   6.668
 4069SOL    HW213107   4.316   3.665   6.693
 4070SOL     OW13108   1.823   3.666   2.838
 4070SOL    HW113109   1.799   3.711   2.924
 4070SOL    HW213110   1.758   3.592   2.821
 4071SOL     OW13111   1.488   1.181   5.162
 4071SOL    HW113112   1.428   1.135   5.096
 4071SOL    HW213113   1.485   1.133   5.249
 4072SOL     OW13114   1.557   6.662   4.285
 4072SOL    HW113115   1.501   6.617   4.216
 4072SOL    HW213116   1.636   6.705   4.241
 4073SOL     OW13117   2.534   5.620   5.954
 4073SOL    HW113118   2.622   5.609   5.908
 4073SOL    HW213119   2.510   5.536   6.001
 4074SOL     OW13120   1.219   2.832   2.135
 4074SOL    HW113121   1.217   2.792   2.043
 4074SOL    HW213122   1.253   2.763   2.200
 4075SOL     OW13123   4.743   2.357   2.918
 4075SOL    HW113124   4.669   2.423   2.906
 4075SOL    HW213125   4.808   2.365   2.842
 4076SOL     OW13126   2.504   3.717   5.708
 4076SOL    HW113127   2.521   3.634   5.655
 4076SOL    HW213128   2.411   3.749   5.692
 4077SOL     OW13129   2.991   6.368   0.605
 4077SOL    HW113130   3.070   6.359   0.664
 4077SOL    HW213131   2.995   6.298   0.533
 4078SOL     OW13132   6.967   5.445   1.860
 4078SOL    HW113133   6.932   5.417   1.949
 4078SOL    HW213134   6.909   5.408   1.788
 4079SOL     OW13135   1.589   0.883   3.266
 4079SOL    HW113136   1.612   0.959   3.205
 4079SOL    HW213137   1.670   0.855   3.317
 4080SOL     OW13138   2.648   2.871   6.846
 4080SOL    HW113139   2.602   2.827   6.768
 4080SOL    HW213140   2.736   2.907   6.816
 4081SOL     OW13141   1.594   1.043   4.554
 4081SOL    HW113142   1.588   0.986   4.472
 4081SOL    HW213143   1.616   1.137   4.528
 4082SOL     OW13144   1.657   2.003   6.834
 4082SOL    HW113145   1.691   2.083   6.883
 4082SOL    HW213146   1.718   1.984   6.756
 4083SOL     OW13147   5.824   4.021   3.430
 4083SOL    HW113148   5.922   4.002   3.423
 4083SOL    HW213149   5.798   4.087   3.360
 4084SOL     OW13150   4.820   2.975   3.041
 4084SOL    HW113151   4.898   3.035   3.054
 4084SOL    HW213152   4.792   2.975   2.945
 4085SOL     OW13153   2.802   5.080   1.346
 4085SOL    HW113154   2.842   5.090   1.255
 4085SOL    HW213155   2.808   4.985   1.375
 4086SOL     OW13156   0.421   4.763   0.525
 4086SOL    HW113157   0.460   4.847   0.487
 4086SOL    HW213158   0.370   4.785   0.608
 4087SOL     OW13159   2.448   1.432   2.272
 4087SOL    HW113160   2.502   1.349   2.282
 4087SOL    HW213161   2.425   1.468   2.362
 4088SOL     OW13162   6.134   1.217   5.534
 4088SOL    HW113163   6.122   1.156   5.612
 4088SOL    HW213164   6.080   1.300   5.547
 4089SOL     OW13165   0.186   5.858   4.190
 4089SOL    HW113166   0.209   5.955   4.183
 4089SOL    HW213167   0.199   5.827   4.284
 4090SOL     OW13168   1.724   5.993   5.363
 4090SOL    HW113169   1.801   6.055   5.376
 4090SOL    HW213170   1.661   6.001   5.440
 4091SOL     OW13171   1.216   5.030   0.155
 4091SOL    HW113172   1.159   4.962   0.202
 4091SOL    HW213173   1.203   5.119   0.199
 4092SOL     OW13174   5.076   2.738   3.939
 4092SOL    HW113175   5.099   2.811   3.875
 4092SOL    HW213176   5.019   2.670   3.893
 4093SOL     OW13177   5.617   6.469   1.645
 4093SOL    HW113178   5.620   6.370   1.656
 4093SOL    HW213179   5.533   6.505   1.683
 4094SOL     OW13180   0.902   4.571   0.074
 4094SOL    HW113181   0.881   4.508   0.149
 4094SOL    HW213182   0.925   4.518   7.015
 4095SOL     OW13183   0.859   2.965   0.138
 4095SOL    HW113184   0.947   2.952   0.184
 4095SOL    HW213185   0.839   3.062   0.128
 4096SOL     OW13186   2.274   0.774   6.642
 4096SOL    HW113187   2.337   0.738   6.712
 4096SOL    HW213188   2.273   0.712   6.564
 4097SOL     OW13189   5.833   4.250   5.477
 4097SOL    HW113190   5.754   4.221   5.531
 4097SOL    HW213191   5.908   4.278   5.537
 4098SOL     OW13192   2.194   2.914   1.413
 4098SOL    HW113193   2.159   2.997   1.369
 4098SOL    HW213194   2.163   2.834   1.362
 4099SOL     OW13195   3.511   5.047   0.259
 4099SOL    HW113196   3.567   5.097   0.326
 4099SOL    HW213197   3.547   4.955   0.248
 4100SOL     OW13198   1.388   0.833   3.989
 4100SOL    HW113199   1.372   0.910   4.051
 4100SOL    HW213200   1.302   0.808   3.945
 4101SOL     OW13201   0.055   1.383   6.257
 4101SOL    HW113202   6.993   1.358   6.211
 4101SOL    HW213203   0.114   1.303   6.266
 4102SOL     OW13204   2.066   0.992   0.809
 4102SOL    HW113205   2.074   0.897   0.779
 4102SOL    HW213206   1.987   1.034   0.765
 4103SOL     OW13207   0.209   7.007   1.993
 4103SOL    HW113208   0.287   6.972   2.044
 4103SOL    HW213209   0.159   6.930   1.952
 4104SOL     OW13210   0.297   4.884   3.688
 4104SOL    HW113211   0.222   4.907   3.751
 4104SOL    HW213212   0.347   4.805   3.723
 4105SOL     OW13213   5.108   1.206   2.050
 4105SOL    HW113214   5.051   1.124   2.042
 4105SOL    HW213215   5.152   1.207   2.140
 4106SOL     OW13216   0.474   2.246   3.586
 4106SOL    HW113217   0.486   2.292   3.674
 4106SOL    HW213218   0.550   2.184   3.570
 4107SOL     OW13219   0.546   6.226   6.830
 4107SOL    HW113220   0.560   6.130   6.807
 4107SOL    HW213221   0.490   6.269   6.760
 4108SOL     OW13222   0.071   5.829   4.646
 4108SOL    HW113223   0.021   5.754   4.602
 4108SOL    HW213224   0.041   5.837   4.741
 4109SOL     OW13225   5.386   6.666   4.172
 4109SOL    HW113226   5.288   6.668   4.187
 4109SOL    HW213227   5.410   6.732   4.100
 4110SOL     OW13228   3.837   3.565   6.484
 4110SOL    HW113229   3.905   3.578   6.556
 4110SOL    HW213230   3.792   3.652   6.463
 4111SOL     OW13231   6.135   4.984   6.617
 4111SOL    HW113232   6.040   4.978   6.586
 4111SOL    HW213233   6.167   5.079   6.608
 4112SOL     OW13234   4.960   6.920   4.677
 4112SOL    HW113235   4.988   6.994   4.616
 4112SOL    HW213236   4.961   6.952   4.772
 4113SOL     OW13237   4.707   5.564   4.508
 4113SOL    HW113238   4.638   5.566   4.580
 4113SOL    HW213239   4.664   5.583   4.420
 4114SOL     OW13240   6.062   1.580   3.022
 4114SOL    HW113241   6.027   1.494   3.061
 4114SOL    HW213242   6.162   1.583   3.035
 4115SOL     OW13243   2.605   4.963   3.407
 4115SOL    HW113244   2.578   4.870   3.429
 4115SOL    HW213245   2.705   4.971   3.408
 4116SOL     OW13246   4.424   2.529   3.447
 4116SOL    HW113247   4.510   2.580   3.439
 4116SOL    HW213248   4.348   2.589   3.425
 4117SOL     OW13249   1.589   2.338   3.146
 4117SOL    HW113250   1.504   2.296   3.179
 4117SOL    HW213251   1.658   2.266   3.133
 4118SOL     OW13252   5.683   6.765   6.031
 4118SOL    HW113253   5.761   6.745   5.971
 4118SOL    HW213254   5.698   6.723   6.120
 4119SOL     OW13255   3.052   1.138   3.419
 4119SOL    HW113256   2.973   1.084   3.392
 4119SOL    HW213257   3.094   1.179   3.337
 4120SOL     OW13258   3.728   1.178   6.311
 4120SOL    HW113259   3.796   1.237   6.355
 4120SOL    HW213260   3.638   1.219   6.318
 4121SOL     OW13261   6.506   0.038   2.509
 4121SOL    HW113262   6.583   0.032   2.445
 4121SOL    HW213263   6.530   7.014   2.594
 4122SOL     OW13264   1.628   6.976   5.085
 4122SOL    HW113265   1.582   6.989   5.173
 4122SOL    HW213266   1.635   0.041   5.037
 4123SOL     OW13267   3.901   4.884   4.013
 4123SOL    HW113268   3.892   4.895   3.914
 4123SOL    HW213269   3.810   4.888   4.055
 4124SOL     OW13270   6.857   6.576   0.959
 4124SOL    HW113271   6.849   6.637   0.881
 4124SOL    HW213272   6.895   6.627   1.037
 4125SOL     OW13273   4.475   2.384   2.536
 4125SOL    HW113274   4.542   2.457   2.521
 4125SOL    HW213275   4.427   2.364   2.451
 4126SOL     OW13276   2.074   3.415   2.605
 4126SOL    HW113277   1.980   3.384   2.589
 4126SOL    HW213278   2.123   3.347   2.660
 4127SOL     OW13279   5.163   2.599   5.243
 4127SOL    HW113280   5.201   2.597   5.150
 4127SOL    HW213281   5.066   2.577   5.241
 4128SOL     OW13282   0.850   3.224   1.517
 4128SOL    HW113283   0.950   3.233   1.525
 4128SOL    HW213284   0.828   3.171   1.435
 4129SOL     OW13285   3.645   1.437   0.621
 4129SOL    HW113286   3.718   1.415   0.686
 4129SOL    HW213287   3.587   1.510   0.658
 4130SOL     OW13288   6.240   2.167   0.380
 4130SOL    HW113289   6.253   2.071   0.404
 4130SOL    HW213290   6.147   2.180   0.345
 4131SOL     OW13291   6.726   1.530   2.851
 4131SOL    HW113292   6.716   1.453   2.788
 4131SOL    HW213293   6.815   1.574   2.836
 4132SOL     OW13294   5.539   4.194   4.513
 4132SOL    HW113295   5.536   4.216   4.610
 4132SOL    HW213296   5.531   4.095   4.500
 4133SOL     OW13297   4.279   6.618   1.574
 4133SOL    HW113298   4.328   6.700   1.544
 4133SOL    HW213299   4.212   6.644   1.644
 4134SOL     OW13300   2.210   3.672   0.763
 4134SOL    HW113301   2.287   3.643   0.706
 4134SOL    HW213302   2.169   3.593   0.808
 4135SOL     OW13303   0.214   2.493   2.639
 4135SOL    HW113304   0.212   2.476   2.738
 4135SOL    HW213305   0.190   2.408   2.591
 4136SOL     OW13306   1.190   3.816   2.060
 4136SOL    HW113307   1.144   3.905   2.057
 4136SOL    HW213308   1.142   3.757   2.124
 4137SOL     OW13309   1.382   3.181   6.607
 4137SOL    HW113310   1.458   3.121   6.585
 4137SOL    HW213311   1.336   3.210   6.523
 4138SOL     OW13312   3.855   5.116   1.530
 4138SOL    HW113313   3.770   5.081   1.569
 4138SOL    HW213314   3.924   5.123   1.603
 4139SOL     OW13315   1.191   1.603   3.582
 4139SOL    HW113316   1.188   1.572   3.487
 4139SOL    HW213317   1.275   1.570   3.625
 4140SOL     OW13318   3.194   1.973   4.250
 4140SOL    HW113319   3.255   1.919   4.192
 4140SOL    HW213320   3.149   1.913   4.316
 4141SOL     OW13321   5.260   6.790   0.988
 4141SOL    HW113322   5.303   6.872   0.950
 4141SOL    HW213323   5.325   6.714   0.984
 4142SOL     OW13324   5.969   3.851   1.262
 4142SOL    HW113325   5.919   3.883   1.342
 4142SOL    HW213326   6.063   3.886   1.265
 4143SOL     OW13327   5.548   2.901   0.340
 4143SOL    HW113328   5.499   2.936   0.420
 4143SOL    HW213329   5.610   2.972   0.306
 4144SOL     OW13330   4.724   1.329   6.993
 4144SOL    HW113331   4.725   1.234   6.964
 4144SOL    HW213332   4.744   1.388   6.914
 4145SOL     OW13333   0.802   6.320   0.146
 4145SOL    HW113334   0.713   6.290   0.179
 4145SOL    HW213335   0.808   6.419   0.150
 4146SOL     OW13336   6.676   0.877   3.444
 4146SOL    HW113337   6.773   0.902   3.450
 4146SOL    HW213338   6.655   0.850   3.350
 4147SOL     OW13339   4.950   4.307   6.281
 4147SOL    HW113340   5.001   4.224   6.259
 4147SOL    HW213341   5.003   4.363   6.345
 4148SOL     OW13342   3.085   0.703   5.705
 4148SOL    HW113343   3.099   0.739   5.797
 4148SOL    HW213344   3.163   0.646   5.679
 4149SOL     OW13345   0.166   3.475   1.629
 4149SOL    HW113346   0.195   3.481   1.533
 4149SOL    HW213347   0.214   3.401   1.674
 4150SOL     OW13348   0.017   1.883   5.139
 4150SOL    HW113349   0.022   1.786   5.162
 4150SOL    HW213350   0.035   1.895   5.042
 4151SOL     OW13351   2.488   6.508   6.115
 4151SOL    HW113352   2.564   6.444   6.122
 4151SOL    HW213353   2.492   6.574   6.190
 4152SOL     OW13354   3.792   5.704   1.687
 4152SOL    HW113355   3.880   5.749   1.677
 4152SOL    HW213356   3.801   5.607   1.663
 4153SOL     OW13357   6.460   5.062   1.593
 4153SOL    HW113358   6.403   5.117   1.532
 4153SOL    HW213359   6.493   5.118   1.669
 4154SOL     OW13360   0.185   6.041   3.914
 4154SOL    HW113361   0.228   6.056   4.004
 4154SOL    HW213362   0.086   6.034   3.926
 4155SOL     OW13363   0.283   1.795   0.894
 4155SOL    HW113364   0.183   1.791   0.894
 4155SOL    HW213365   0.320   1.704   0.875
 4156SOL     OW13366   6.645   5.671   4.944
 4156SOL    HW113367   6.552   5.685   4.979
 4156SOL    HW213368   6.710   5.715   5.006
 4157SOL     OW13369   5.299   6.273   3.349
 4157SOL    HW113370   5.230   6.301   3.282
 4157SOL    HW213371   5.337   6.354   3.394
 4158SOL     OW13372   1.141   2.815   2.480
 4158SOL    HW113373   1.174   2.732   2.434
 4158SOL    HW213374   1.137   2.890   2.414
 4159SOL     OW13375   2.135   2.314   3.634
 4159SOL    HW113376   2.138   2.326   3.535
 4159SOL    HW213377   2.040   2.298   3.663
 4160SOL     OW13378   5.993   6.783   0.065
 4160SOL    HW113379   6.059   6.833   0.009
 4160SOL    HW213380   5.924   6.846   0.100
 4161SOL     OW13381   1.762   2.005   1.892
 4161SOL    HW113382   1.741   2.103   1.893
 4161SOL    HW213383   1.770   1.972   1.986
 4162SOL     OW13384   6.235   5.751   0.636
 4162SOL    HW113385   6.261   5.702   0.719
 4162SOL    HW213386   6.232   5.849   0.655
 4163SOL     OW13387   6.182   1.454   3.323
 4163SOL    HW113388   6.090   1.487   3.347
 4163SOL    HW213389   6.176   1.396   3.242
 4164SOL     OW13390   1.235   0.014   5.117
 4164SOL    HW113391   1.277   6.970   5.055
 4164SOL    HW213392   1.136   0.012   5.105
 4165SOL     OW13393   5.104   0.526   5.472
 4165SOL    HW113394   5.186   0.584   5.472
 4165SOL    HW213395   5.024   0.581   5.495
 4166SOL     OW13396   4.989   1.258   1.632
 4166SOL    HW113397   5.030   1.295   1.549
 4166SOL    HW213398   4.998   1.158   1.631
 4167SOL     OW13399   3.418   5.056   6.823
 4167SOL    HW113400   3.391   4.966   6.789
 4167SOL    HW213401   3.455   5.111   6.748
 4168SOL     OW13402   6.815   3.979   1.295
 4168SOL    HW113403   6.738   3.927   1.332
 4168SOL    HW213404   6.900   3.939   1.328
 4169SOL     OW13405   5.882   4.328   4.985
 4169SOL    HW113406   5.978   4.303   4.971
 4169SOL    HW213407   5.858   4.315   5.081
 4170SOL     OW13408   4.853   3.058   5.255
 4170SOL    HW113409   4.909   2.987   5.298
 4170SOL    HW213410   4.807   3.111   5.326
 4171SOL     OW13411   6.618   5.173   1.259
 4171SOL    HW113412   6.599   5.081   1.294
 4171SOL    HW213413   6.695   5.169   1.195
 4172SOL     OW13414   2.309   2.481   0.401
 4172SOL    HW113415   2.363   2.544   0.345
 4172SOL    HW213416   2.336   2.387   0.380
 4173SOL     OW13417   5.549   3.602   4.856
 4173SOL    HW113418   5.449   3.600   4.855
 4173SOL    HW213419   5.580   3.662   4.931
 4174SOL     OW13420   4.889   1.492   2.231
 4174SOL    HW113421   4.971   1.544   2.256
 4174SOL    HW213422   4.809   1.552   2.234
 4175SOL     OW13423   1.890   4.656   4.634
 4175SOL    HW113424   1.950   4.703   4.699
 4175SOL    HW213425   1.894   4.557   4.651
 4176SOL     OW13426   4.188   6.843   1.244
 4176SOL    HW113427   4.266   6.889   1.286
 4176SOL    HW213428   4.217   6.755   1.208
 4177SOL     OW13429   5.697   4.846   5.066
 4177SOL    HW113430   5.774   4.787   5.088
 4177SOL    HW213431   5.612   4.795   5.072
 4178SOL     OW13432   4.343   0.142   3.835
 4178SOL    HW113433   4.270   0.076   3.853
 4178SOL    HW213434   4.303   0.232   3.817
 4179SOL     OW13435   5.298   4.101   3.354
 4179SOL    HW113436   5.395   4.079   3.359
 4179SOL    HW213437   5.281   4.154   3.271
 4180SOL     OW13438   4.612   2.276   0.514
 4180SOL    HW113439   4.666   2.334   0.453
 4180SOL    HW213440   4.641   2.181   0.503
 4181SOL     OW13441   4.421   0.524   0.315
 4181SOL    HW113442   4.390   0.430   0.327
 4181SOL    HW213443   4.382   0.563   0.232
 4182SOL     OW13444   0.449   5.178   3.332
 4182SOL    HW113445   0.429   5.104   3.267
 4182SOL    HW213446   0.416   5.152   3.423
 4183SOL     OW13447   2.627   1.822   0.920
 4183SOL    HW113448   2.538   1.817   0.966
 4183SOL    HW213449   2.657   1.730   0.895
 4184SOL     OW13450   3.416   6.968   2.471
 4184SOL    HW113451   3.471   6.933   2.547
 4184SOL    HW213452   3.476   6.993   2.395
 4185SOL     OW13453   0.937   4.526   3.235
 4185SOL    HW113454   1.003   4.484   3.173
 4185SOL    HW213455   0.927   4.623   3.212
 4186SOL     OW13456   2.037   4.986   6.992
 4186SOL    HW113457   2.116   4.964   6.935
 4186SOL    HW213458   2.016   4.908   0.028
 4187SOL     OW13459   2.304   2.998   5.457
 4187SOL    HW113460   2.387   2.976   5.407
 4187SOL    HW213461   2.319   2.984   5.555
 4188SOL     OW13462   5.480   0.712   5.177
 4188SOL    HW113463   5.473   0.619   5.214
 4188SOL    HW213464   5.502   0.707   5.080
 4189SOL     OW13465   3.315   4.887   4.322
 4189SOL    HW113466   3.342   4.791   4.332
 4189SOL    HW213467   3.250   4.896   4.247
 4190SOL     OW13468   0.862   0.526   1.415
 4190SOL    HW113469   0.774   0.573   1.418
 4190SOL    HW213470   0.915   0.548   1.497
 4191SOL     OW13471   5.013   4.697   4.686
 4191SOL    HW113472   5.007   4.794   4.663
 4191SOL    HW213473   4.922   4.656   4.682
 4192SOL     OW13474   0.587   1.675   3.137
 4192SOL    HW113475   0.596   1.713   3.045
 4192SOL    HW213476   0.598   1.748   3.204
 4193SOL     OW13477   5.905   0.367   0.876
 4193SOL    HW113478   5.916   0.320   0.788
 4193SOL    HW213479   5.977   0.435   0.887
 4194SOL     OW13480   4.848   0.335   4.413
 4194SOL    HW113481   4.750   0.324   4.433
 4194SOL    HW213482   4.871   0.432   4.414
 4195SOL     OW13483   4.147   5.324   1.577
 4195SOL    HW113484   4.170   5.310   1.480
 4195SOL    HW213485   4.108   5.239   1.614
 4196SOL     OW13486   6.265   2.801   2.984
 4196SOL    HW113487   6.336   2.804   2.914
 4196SOL    HW213488   6.200   2.876   2.969
 4197SOL     OW13489   4.782   5.384   5.638
 4197SOL    HW113490   4.749   5.479   5.633
 4197SOL    HW213491   4.771   5.340   5.549
 4198SOL     OW13492   6.116   1.906   0.723
 4198SOL    HW113493   6.198   1.849   0.714
 4198SOL    HW213494   6.142   2.002   0.708
 4199SOL     OW13495   1.061   2.639   5.646
 4199SOL    HW113496   1.041   2.615   5.741
 4199SOL    HW213497   0.982   2.686   5.606
 4200SOL     OW13498   3.059   0.297   6.257
 4200SOL    HW113499   3.018   0.213   6.222
 4200SOL    HW213500   3.064   0.365   6.184
 4201SOL     OW13501   5.716   6.910   3.630
 4201SOL    HW113502   5.696   7.002   3.663
 4201SOL    HW213503   5.776   6.915   3.550
 4202SOL     OW13504   3.081   5.658   6.131
 4202SOL    HW113505   3.109   5.642   6.226
 4202SOL    HW213506   2.990   5.700   6.130
 4203SOL     OW13507   4.678   3.999   0.278
 4203SOL    HW113508   4.641   4.004   0.185
 4203SOL    HW213509   4.670   4.088   0.323
 4204SOL     OW13510   4.124   3.654   4.170
 4204SOL    HW113511   4.220   3.680   4.179
 4204SOL    HW213512   4.104   3.633   4.074
 4205SOL     OW13513   4.472   6.229   4.420
 4205SOL    HW113514   4.563   6.256   4.389
 4205SOL    HW213515   4.469   6.130   4.432
 4206SOL     OW13516   6.090   1.288   5.256
 4206SOL    HW113517   6.183   1.323   5.249
 4206SOL    HW213518   6.078   1.241   5.344
 4207SOL     OW13519   2.255   2.123   1.972
 4207SOL    HW113520   2.350   2.149   1.954
 4207SOL    HW213521   2.203   2.205   1.998
 4208SOL     OW13522   6.985   3.783   5.201
 4208SOL    HW113523   0.047   3.835   5.209
 4208SOL    HW213524   6.912   3.843   5.167
 4209SOL     OW13525   6.726   6.603   3.957
 4209SOL    HW113526   6.708   6.506   3.937
 4209SOL    HW213527   6.813   6.610   4.007
 4210SOL     OW13528   3.812   3.563   2.402
 4210SOL    HW113529   3.899   3.609   2.422
 4210SOL    HW213530   3.812   3.473   2.445
 4211SOL     OW13531   3.804   0.867   5.834
 4211SOL    HW113532   3.852   0.809   5.768
 4211SOL    HW213533   3.831   0.842   5.927
 4212SOL     OW13534   6.025   2.416   2.544
 4212SOL    HW113535   6.017   2.405   2.643
 4212SOL    HW213536   5.970   2.346   2.498
 4213SOL     OW13537   2.624   0.312   2.306
 4213SOL    HW113538   2.532   0.310   2.345
 4213SOL    HW213539   2.622   0.359   2.218
 4214SOL     OW13540   0.729   5.605   5.547
 4214SOL    HW113541   0.767   5.572   5.461
 4214SOL    HW213542   0.775   5.689   5.574
 4215SOL     OW13543   4.413   6.884   6.112
 4215SOL    HW113544   4.323   6.893   6.154
 4215SOL    HW213545   4.402   6.857   6.016
 4216SOL     OW13546   1.798   0.735   3.404
 4216SOL    HW113547   1.822   0.828   3.433
 4216SOL    HW213548   1.881   0.680   3.396
 4217SOL     OW13549   1.202   0.762   3.141
 4217SOL    HW113550   1.133   0.699   3.104
 4217SOL    HW213551   1.292   0.736   3.107
 4218SOL     OW13552   3.081   1.024   1.601
 4218SOL    HW113553   3.150   0.988   1.538
 4218SOL    HW213554   3.119   1.023   1.694
 4219SOL     OW13555   4.078   5.761   4.094
 4219SOL    HW113556   4.087   5.849   4.047
 4219SOL    HW213557   4.017   5.701   4.041
 4220SOL     OW13558   6.986   3.232   3.474
 4220SOL    HW113559   6.887   3.223   3.466
 4220SOL    HW213560   7.014   3.320   3.435
 4221SOL     OW13561   6.170   5.222   6.275
 4221SOL    HW113562   6.147   5.130   6.307
 4221SOL    HW213563   6.203   5.216   6.180
 4222SOL     OW13564   0.273   1.700   1.851
 4222SOL    HW113565   0.304   1.617   1.897
 4222SOL    HW213566   0.289   1.779   1.911
 4223SOL     OW13567   3.497   3.351   0.137
 4223SOL    HW113568   3.441   3.368   0.219
 4223SOL    HW213569   3.546   3.435   0.113
 4224SOL     OW13570   5.388   4.930   3.928
 4224SOL    HW113571   5.372   4.996   4.001
 4224SOL    HW213572   5.322   4.855   3.936
 4225SOL     OW13573   2.384   2.662   5.157
 4225SOL    HW113574   2.380   2.761   5.139
 4225SOL    HW213575   2.476   2.637   5.186
 4226SOL     OW13576   0.583   6.795   2.457
 4226SOL    HW113577   0.543   6.806   2.366
 4226SOL    HW213578   0.522   6.739   2.514
 4227SOL     OW13579   3.591   5.291   1.629
 4227SOL    HW113580   3.521   5.357   1.655
 4227SOL    HW213581   3.677   5.340   1.610
 4228SOL     OW13582   1.282   5.519   5.187
 4228SOL    HW113583   1.204   5.569   5.147
 4228SOL    HW213584   1.288   5.429   5.144
 4229SOL     OW13585   4.704   5.973   6.031
 4229SOL    HW113586   4.659   6.009   6.113
 4229SOL    HW213587   4.789   6.025   6.015
 4230SOL     OW13588   0.772   5.832   2.685
 4230SOL    HW113589   0.871   5.848   2.687
 4230SOL    HW213590   0.725   5.919   2.666
 4231SOL     OW13591   5.468   6.831   5.818
 4231SOL    HW113592   5.378   6.846   5.859
 4231SOL    HW213593   5.532   6.802   5.888
 4232SOL     OW13594   0.336   4.857   3.402
 4232SOL    HW113595   0.291   4.860   3.491
 4232SOL    HW213596   0.355   4.762   3.377
 4233SOL     OW13597   5.947   0.220   5.839
 4233SOL    HW113598   5.872   0.285   5.855
 4233SOL    HW213599   6.031   0.271   5.820
 4234SOL     OW13600   2.444   5.663   4.856
 4234SOL    HW113601   2.415   5.568   4.848
 4234SOL    HW213602   2.474   5.681   4.950
 4235SOL     OW13603   5.419   4.160   6.091
 4235SOL    HW113604   5.457   4.211   6.167
 4235SOL    HW213605   5.404   4.065   6.118
 4236SOL     OW13606   6.609   3.687   1.823
 4236SOL    HW113607   6.531   3.741   1.791
 4236SOL    HW213608   6.667   3.663   1.745
 4237SOL     OW13609   5.456   5.535   3.307
 4237SOL    HW113610   5.448   5.571   3.214
 4237SOL    HW213611   5.369   5.546   3.355
 4238SOL     OW13612   1.987   6.433   2.486
 4238SOL    HW113613   1.950   6.502   2.423
 4238SOL    HW213614   2.020   6.355   2.434
 4239SOL     OW13615   5.144   0.963   2.453
 4239SOL    HW113616   5.152   0.881   2.396
 4239SOL    HW213617   5.049   0.978   2.477
 4240SOL     OW13618   2.237   5.858   0.355
 4240SOL    HW113619   2.262   5.901   0.268
 4240SOL    HW213620   2.309   5.876   0.422
 4241SOL     OW13621   6.114   0.963   0.059
 4241SOL    HW113622   6.074   0.872   0.048
 4241SOL    HW213623   6.208   0.963   0.024
 4242SOL     OW13624   3.321   1.779   4.108
 4242SOL    HW113625   3.282   1.687   4.116
 4242SOL    HW213626   3.421   1.774   4.109
 4243SOL     OW13627   6.506   2.994   2.452
 4243SOL    HW113628   6.467   3.083   2.427
 4243SOL    HW213629   6.549   2.954   2.371
 4244SOL     OW13630   4.248   4.403   1.734
 4244SOL    HW113631   4.302   4.320   1.748
 4244SOL    HW213632   4.296   4.482   1.772
 4245SOL     OW13633   6.527   1.088   6.512
 4245SOL    HW113634   6.621   1.057   6.501
 4245SOL    HW213635   6.499   1.139   6.431
 4246SOL     OW13636   0.006   4.088   3.129
 4246SOL    HW113637   6.999   4.013   3.070
 4246SOL    HW213638   6.960   4.106   3.199
 4247SOL     OW13639   2.483   6.406   3.683
 4247SOL    HW113640   2.405   6.434   3.628
 4247SOL    HW213641   2.566   6.408   3.627
 4248SOL     OW13642   3.576   1.515   3.605
 4248SOL    HW113643   3.642   1.586   3.578
 4248SOL    HW213644   3.619   1.425   3.595
 4249SOL     OW13645   6.128   2.984   4.646
 4249SOL    HW113646   6.119   3.029   4.557
 4249SOL    HW213647   6.137   2.886   4.633
 4250SOL     OW13648   6.520   4.565   2.720
 4250SOL    HW113649   6.587   4.536   2.651
 4250SOL    HW213650   6.565   4.621   2.789
 4251SOL     OW13651   5.759   4.703   1.470
 4251SOL    HW113652   5.788   4.607   1.464
 4251SOL    HW213653   5.665   4.707   1.502
 4252SOL     OW13654   5.189   6.183   5.735
 4252SOL    HW113655   5.279   6.226   5.724
 4252SOL    HW213656   5.187   6.130   5.819
 4253SOL     OW13657   3.774   6.438   0.687
 4253SOL    HW113658   3.841   6.439   0.761
 4253SOL    HW213659   3.685   6.466   0.722
 4254SOL     OW13660   0.503   2.532   2.306
 4254SOL    HW113661   0.546   2.450   2.269
 4254SOL    HW213662   0.557   2.567   2.383
 4255SOL     OW13663   6.081   3.925   3.446
 4255SOL    HW113664   6.170   3.957   3.479
 4255SOL    HW213665   6.088   3.899   3.350
 4256SOL     OW13666   2.347   6.671   0.005
 4256SOL    HW113667   2.350   6.591   0.066
 4256SOL    HW213668   2.283   6.739   0.042
 4257SOL     OW13669   2.778   0.557   4.284
 4257SOL    HW113670   2.725   0.514   4.357
 4257SOL    HW213671   2.767   0.506   4.199
 4258SOL     OW13672   5.056   6.458   0.626
 4258SOL    HW113673   5.142   6.500   0.655
 4258SOL    HW213674   5.019   6.404   0.702
 4259SOL     OW13675   2.801   1.108   0.735
 4259SOL    HW113676   2.888   1.062   0.717
 4259SOL    HW213677   2.816   1.188   0.793
 4260SOL     OW13678   5.162   0.296   0.433
 4260SOL    HW113679   5.223   0.315   0.510
 4260SOL    HW213680   5.210   0.241   0.365
 4261SOL     OW13681   2.164   6.883   1.757
 4261SOL    HW113682   2.083   6.933   1.790
 4261SOL    HW213683   2.204   6.931   1.680
 4262SOL     OW13684   0.618   4.748   5.287
 4262SOL    HW113685   0.651   4.772   5.379
 4262SOL    HW213686   0.692   4.763   5.221
 4263SOL     OW13687   2.396   6.658   3.404
 4263SOL    HW113688   2.304   6.619   3.417
 4263SOL    HW213689   2.441   6.666   3.492
 4264SOL     OW13690   0.134   2.754   3.016
 4264SOL    HW113691   0.085   2.677   3.059
 4264SOL    HW213692   0.098   2.769   2.925
 4265SOL     OW13693   5.273   1.511   0.704
 4265SOL    HW113694   5.280   1.586   0.769
 4265SOL    HW213695   5.316   1.429   0.743
 4266SOL     OW13696   1.777   5.277   0.310
 4266SOL    HW113697   1.874   5.289   0.328
 4266SOL    HW213698   1.743   5.353   0.255
 4267SOL     OW13699   2.084   3.337   4.703
 4267SOL    HW113700   2.116   3.360   4.611
 4267SOL    HW213701   1.998   3.285   4.697
 4268SOL     OW13702   1.229   6.032   6.280
 4268SOL    HW113703   1.320   6.028   6.323
 4268SOL    HW213704   1.160   6.055   6.349
 4269SOL     OW13705   2.230   0.649   1.882
 4269SOL    HW113706   2.302   0.671   1.949
 4269SOL    HW213707   2.259   0.680   1.792
 4270SOL     OW13708   4.106   3.608   3.885
 4270SOL    HW113709   4.119   3.510   3.900
 4270SOL    HW213710   4.071   3.624   3.793
 4271SOL     OW13711   0.051   0.922   6.749
 4271SOL    HW113712   6.989   0.947   6.796
 4271SOL    HW213713   0.127   0.971   6.791
 4272SOL     OW13714   6.393   2.975   4.422
 4272SOL    HW113715   6.477   2.974   4.368
 4272SOL    HW213716   6.387   3.062   4.471
 4273SOL     OW13717   4.428   6.617   4.906
 4273SOL    HW113718   4.446   6.526   4.943
 4273SOL    HW213719   4.490   6.635   4.830
 4274SOL     OW13720   1.144   6.400   1.819
 4274SOL    HW113721   1.174   6.332   1.752
 4274SOL    HW213722   1.222   6.432   1.872
 4275SOL     OW13723   6.403   0.596   3.932
 4275SOL    HW113724   6.452   0.525   3.984
 4275SOL    HW213725   6.307   0.569   3.921
 4276SOL     OW13726   1.924   5.248   3.124
 4276SOL    HW113727   2.015   5.237   3.085
 4276SOL    HW213728   1.873   5.314   3.069
 4277SOL     OW13729   6.455   4.505   4.506
 4277SOL    HW113730   6.378   4.510   4.442
 4277SOL    HW213731   6.421   4.505   4.600
 4278SOL     OW13732   6.992   0.398   4.337
 4278SOL    HW113733   6.932   0.334   4.386
 4278SOL    HW213734   6.959   0.409   4.244
 4279SOL     OW13735   3.346   0.726   4.345
 4279SOL    HW113736   3.394   0.642   4.370
 4279SOL    HW213737   3.248   0.707   4.336
 4280SOL     OW13738   4.752   0.114   6.391
 4280SOL    HW113739   4.757   0.016   6.410
 4280SOL    HW213740   4.787   0.164   6.470
 4281SOL     OW13741   0.677   5.030   3.792
 4281SOL    HW113742   0.589   5.077   3.788
 4281SOL    HW213743   0.678   4.956   3.725
 4282SOL     OW13744   3.295   4.281   6.245
 4282SOL    HW113745   3.355   4.230   6.184
 4282SOL    HW213746   3.266   4.366   6.200
 4283SOL     OW13747   1.637   0.887   3.660
 4283SOL    HW113748   1.686   0.947   3.596
 4283SOL    HW213749   1.640   0.793   3.627
 4284SOL     OW13750   4.340   4.659   1.767
 4284SOL    HW113751   4.243   4.670   1.748
 4284SOL    HW213752   4.391   4.732   1.721
 4285SOL     OW13753   0.606   0.755   6.089
 4285SOL    HW113754   0.580   0.666   6.127
 4285SOL    HW213755   0.678   0.796   6.144
 4286SOL     OW13756   4.730   5.754   5.863
 4286SOL    HW113757   4.767   5.675   5.912
 4286SOL    HW213758   4.702   5.824   5.928
 4287SOL     OW13759   5.364   2.418   6.257
 4287SOL    HW113760   5.420   2.468   6.323
 4287SOL    HW213761   5.421   2.392   6.179
 4288SOL     OW13762   0.990   6.003   3.575
 4288SOL    HW113763   0.943   6.091   3.566
 4288SOL    HW213764   0.925   5.929   3.560
 4289SOL     OW13765   6.765   3.015   0.360
 4289SOL    HW113766   6.778   2.919   0.337
 4289SOL    HW213767   6.709   3.023   0.443
 4290SOL     OW13768   1.593   6.918   2.663
 4290SOL    HW113769   1.502   6.883   2.685
 4290SOL    HW213770   1.659   6.884   2.729
 4291SOL     OW13771   4.050   3.535   1.475
 4291SOL    HW113772   4.136   3.506   1.518
 4291SOL    HW213773   4.069   3.562   1.380
 4292SOL     OW13774   6.472   4.211   6.955
 4292SOL    HW113775   6.536   4.180   0.003
 4292SOL    HW213776   6.393   4.255   6.998
 4293SOL     OW13777   2.034   3.152   0.319
 4293SOL    HW113778   2.097   3.174   0.393
 4293SOL    HW213779   1.964   3.089   0.353
 4294SOL     OW13780   2.760   2.713   6.608
 4294SOL    HW113781   2.824   2.784   6.577
 4294SOL    HW213782   2.807   2.626   6.615
 4295SOL     OW13783   4.061   5.291   3.912
 4295SOL    HW113784   4.137   5.298   3.977
 4295SOL    HW213785   4.080   5.218   3.847
 4296SOL     OW13786   4.024   0.660   0.598
 4296SOL    HW113787   4.104   0.708   0.563
 4296SOL    HW213788   4.000   0.698   0.688
 4297SOL     OW13789   5.104   0.755   6.856
 4297SOL    HW113790   5.171   0.730   6.927
 4297SOL    HW213791   5.088   0.854   6.860
 4298SOL     OW13792   3.483   5.809   0.836
 4298SOL    HW113793   3.411   5.758   0.788
 4298SOL    HW213794   3.487   5.779   0.931
 4299SOL     OW13795   1.226   2.586   6.766
 4299SOL    HW113796   1.150   2.593   6.830
 4299SOL    HW213797   1.193   2.551   6.678
 4300SOL     OW13798   4.370   0.262   0.334
 4300SOL    HW113799   4.287   0.241   0.385
 4300SOL    HW213800   4.409   0.177   0.298
 4301SOL     OW13801   3.685   1.768   1.400
 4301SOL    HW113802   3.645   1.834   1.464
 4301SOL    HW213803   3.749   1.708   1.450
 4302SOL     OW13804   1.543   6.421   6.045
 4302SOL    HW113805   1.526   6.514   6.077
 4302SOL    HW213806   1.550   6.420   5.945
 4303SOL     OW13807   6.930   5.004   4.481
 4303SOL    HW113808   6.866   4.944   4.528
 4303SOL    HW213809   6.883   5.087   4.451
 4304SOL     OW13810   3.051   3.961   2.993
 4304SOL    HW113811   3.107   3.970   2.911
 4304SOL    HW213812   3.003   3.874   2.991
 4305SOL     OW13813   6.350   0.544   4.561
 4305SOL    HW113814   6.327   0.545   4.464
 4305SOL    HW213815   6.449   0.537   4.572
 4306SOL     OW13816   6.006   3.844   6.678
 4306SOL    HW113817   6.023   3.762   6.624
 4306SOL    HW213818   5.913   3.877   6.660
 4307SOL     OW13819   3.958   4.079   6.264
 4307SOL    HW113820   3.939   3.986   6.232
 4307SOL    HW213821   3.922   4.090   6.357
 4308SOL     OW13822   5.976   5.337   6.859
 4308SOL    HW113823   5.981   5.248   6.903
 4308SOL    HW213824   5.982   5.325   6.759
 4309SOL     OW13825   0.816   1.500   0.173
 4309SOL    HW113826   0.792   1.596   0.155
 4309SOL    HW213827   0.784   1.444   0.097
 4310SOL     OW13828   1.591   2.885   2.931
 4310SOL    HW113829   1.619   2.864   2.837
 4310SOL    HW213830   1.569   2.982   2.938
 4311SOL     OW13831   2.121   6.210   3.107
 4311SOL    HW113832   2.130   6.127   3.162
 4311SOL    HW213833   2.099   6.185   3.012
 4312SOL     OW13834   1.318   4.728   1.057
 4312SOL    HW113835   1.374   4.762   0.981
 4312SOL    HW213836   1.223   4.755   1.043
 4313SOL     OW13837   4.728   1.592   1.925
 4313SOL    HW113838   4.805   1.536   1.896
 4313SOL    HW213839   4.760   1.665   1.986
 4314SOL     OW13840   5.912   0.927   3.940
 4314SOL    HW113841   5.909   0.942   4.039
 4314SOL    HW213842   5.849   0.853   3.916
 4315SOL     OW13843   2.800   0.063   2.060
 4315SOL    HW113844   2.712   0.024   2.089
 4315SOL    HW213845   2.846   0.104   2.138
 4316SOL     OW13846   5.069   0.313   1.789
 4316SOL    HW113847   5.078   0.231   1.845
 4316SOL    HW213848   4.981   0.311   1.741
 4317SOL     OW13849   4.484   1.544   4.710
 4317SOL    HW113850   4.542   1.474   4.751
 4317SOL    HW213851   4.488   1.627   4.765
 4318SOL     OW13852   0.543   3.842   4.532
 4318SOL    HW113853   0.634   3.882   4.518
 4318SOL    HW213854   0.512   3.862   4.624
 4319SOL     OW13855   2.092   2.514   0.835
 4319SOL    HW113856   2.148   2.526   0.753
 4319SOL    HW213857   2.124   2.434   0.886
 4320SOL     OW13858   6.284   5.977   1.650
 4320SOL    HW113859   6.196   6.025   1.639
 4320SOL    HW213860   6.356   6.044   1.664
 4321SOL     OW13861   6.856   6.915   5.621
 4321SOL    HW113862   6.897   6.831   5.657
 4321SOL    HW213863   6.758   6.915   5.641
 4322SOL     OW13864   6.593   2.521   6.628
 4322SOL    HW113865   6.690   2.543   6.622
 4322SOL    HW213866   6.544   2.599   6.669
 4323SOL     OW13867   4.821   3.915   0.946
 4323SOL    HW113868   4.752   3.890   0.878
 4323SOL    HW213869   4.818   3.850   1.022
 4324SOL     OW13870   5.584   4.308   6.286
 4324SOL    HW113871   5.612   4.319   6.381
 4324SOL    HW213872   5.662   4.277   6.231
 4325SOL     OW13873   2.574   1.526   1.544
 4325SOL    HW113874   2.666   1.489   1.541
 4325SOL    HW213875   2.578   1.625   1.559
 4326SOL     OW13876   4.905   4.611   5.083
 4326SOL    HW113877   4.914   4.568   4.993
 4326SOL    HW213878   4.873   4.705   5.072
 4327SOL     OW13879   5.802   5.730   2.037
 4327SOL    HW113880   5.859   5.764   1.962
 4327SOL    HW213881   5.786   5.803   2.103
 4328SOL     OW13882   4.538   3.679   5.559
 4328SOL    HW113883   4.470   3.713   5.495
 4328SOL    HW213884   4.577   3.594   5.524
 4329SOL     OW13885   4.344   1.226   6.089
 4329SOL    HW113886   4.326   1.174   6.172
 4329SOL    HW213887   4.265   1.283   6.067
 4330SOL     OW13888   2.500   0.110   4.931
 4330SOL    HW113889   2.418   0.117   4.875
 4330SOL    HW213890   2.505   0.188   4.994
 4331SOL     OW13891   5.320   2.564   1.140
 4331SOL    HW113892   5.345   2.471   1.112
 4331SOL    HW213893   5.229   2.562   1.183
 4332SOL     OW13894   5.182   4.342   2.268
 4332SOL    HW113895   5.222   4.397   2.341
 4332SOL    HW213896   5.159   4.251   2.303
 4333SOL     OW13897   3.843   0.186   5.302
 4333SOL    HW113898   3.908   0.146   5.238
 4333SOL    HW213899   3.865   0.156   5.395
 4334SOL     OW13900   1.910   2.739   2.553
 4334SOL    HW113901   1.929   2.820   2.609
 4334SOL    HW213902   1.996   2.696   2.527
 4335SOL     OW13903   3.697   3.620   2.678
 4335SOL    HW113904   3.618   3.561   2.698
 4335SOL    HW213905   3.726   3.605   2.584
 4336SOL     OW13906   1.966   6.735   6.843
 4336SOL    HW113907   1.899   6.808   6.825
 4336SOL    HW213908   1.923   6.646   6.829
 4337SOL     OW13909   0.243   4.565   0.890
 4337SOL    HW113910   0.172   4.496   0.874
 4337SOL    HW213911   0.229   4.642   0.828
 4338SOL     OW13912   5.624   5.723   5.117
 4338SOL    HW113913   5.600   5.649   5.180
 4338SOL    HW213914   5.723   5.734   5.115
 4339SOL     OW13915   5.454   3.324   5.152
 4339SOL    HW113916   5.370   3.371   5.181
 4339SOL    HW213917   5.453   3.230   5.186
 4340SOL     OW13918   6.363   3.331   1.252
 4340SOL    HW113919   6.447   3.335   1.198
 4340SOL    HW213920   6.299   3.399   1.218
 4341SOL     OW13921   0.787   5.698   2.049
 4341SOL    HW113922   0.826   5.606   2.044
 4341SOL    HW213923   0.848   5.763   2.004
 4342SOL     OW13924   5.874   3.511   4.279
 4342SOL    HW113925   5.926   3.584   4.235
 4342SOL    HW213926   5.780   3.511   4.244
 4343SOL     OW13927   2.577   5.873   5.697
 4343SOL    HW113928   2.624   5.832   5.776
 4343SOL    HW213929   2.555   5.801   5.630
 4344SOL     OW13930   1.269   5.001   2.491
 4344SOL    HW113931   1.187   5.059   2.487
 4344SOL    HW213932   1.337   5.035   2.427
 4345SOL     OW13933   2.818   3.206   5.247
 4345SOL    HW113934   2.824   3.184   5.344
 4345SOL    HW213935   2.736   3.164   5.208
 4346SOL     OW13936   1.922   2.785   2.289
 4346SOL    HW113937   2.003   2.843   2.298
 4346SOL    HW213938   1.886   2.764   2.380
 4347SOL     OW13939   6.196   6.851   3.107
 4347SOL    HW113940   6.244   6.886   3.187
 4347SOL    HW213941   6.134   6.777   3.134
 4348SOL     OW13942   6.957   4.334   2.770
 4348SOL    HW113943   0.004   4.309   2.836
 4348SOL    HW213944   6.914   4.252   2.733
 4349SOL     OW13945   0.010   1.627   2.755
 4349SOL    HW113946   0.047   1.648   2.664
 4349SOL    HW213947   0.002   1.712   2.807
 4350SOL     OW13948   5.230   1.514   4.259
 4350SOL    HW113949   5.276   1.448   4.318
 4350SOL    HW213950   5.285   1.597   4.253
 4351SOL     OW13951   2.339   5.827   1.322
 4351SOL    HW113952   2.313   5.916   1.283
 4351SOL    HW213953   2.426   5.798   1.283
 4352SOL     OW13954   0.440   3.068   2.639
 4352SOL    HW113955   0.451   3.156   2.593
 4352SOL    HW213956   0.474   2.995   2.580
 4353SOL     OW13957   3.498   3.689   6.892
 4353SOL    HW113958   3.520   3.629   6.815
 4353SOL    HW213959   3.426   3.753   6.865
 4354SOL     OW13960   2.410   0.141   5.608
 4354SOL    HW113961   2.484   0.201   5.581
 4354SOL    HW213962   2.355   0.117   5.528
 4355SOL     OW13963   2.934   0.156   2.295
 4355SOL    HW113964   3.033   0.143   2.295
 4355SOL    HW213965   2.910   0.231   2.357
 4356SOL     OW13966   5.289   4.353   0.656
 4356SOL    HW113967   5.284   4.333   0.558
 4356SOL    HW213968   5.307   4.268   0.707
 4357SOL     OW13969   6.677   0.697   0.136
 4357SOL    HW113970   6.743   0.703   0.212
 4357SOL    HW213971   6.589   0.734   0.164
 4358SOL     OW13972   0.505   6.419   7.014
 4358SOL    HW113973   0.527   6.341   6.955
 4358SOL    HW213974   0.503   6.389   0.086
 4359SOL     OW13975   2.183   2.141   6.493
 4359SOL    HW113976   2.195   2.121   6.590
 4359SOL    HW213977   2.221   2.067   6.438
 4360SOL     OW13978   1.344   2.094   3.768
 4360SOL    HW113979   1.354   1.995   3.780
 4360SOL    HW213980   1.264   2.126   3.818
 4361SOL     OW13981   2.425   3.028   1.134
 4361SOL    HW113982   2.467   3.106   1.088
 4361SOL    HW213983   2.374   2.973   1.068
 4362SOL     OW13984   5.925   5.438   3.179
 4362SOL    HW113985   5.916   5.424   3.080
 4362SOL    HW213986   6.022   5.448   3.202
 4363SOL     OW13987   4.948   2.656   0.436
 4363SOL    HW113988   4.879   2.629   0.369
 4363SOL    HW213989   4.956   2.756   0.437
 4364SOL     OW13990   3.328   4.040   4.916
 4364SOL    HW113991   3.417   4.084   4.900
 4364SOL    HW213992   3.276   4.094   4.982
 4365SOL     OW13993   2.247   1.596   1.579
 4365SOL    HW113994   2.341   1.596   1.547
 4365SOL    HW213995   2.246   1.594   1.679
 4366SOL     OW13996   6.805   6.895   0.002
 4366SOL    HW113997   6.708   6.914   0.016
 4366SOL    HW213998   6.839   6.836   0.075
 4367SOL     OW13999   2.418   4.506   4.823
 4367SOL    HW114000   2.512   4.534   4.802
 4367SOL    HW214001   2.357   4.585   4.815
 4368SOL     OW14002   3.851   4.085   1.275
 4368SOL    HW114003   3.833   4.143   1.195
 4368SOL    HW214004   3.947   4.058   1.275
 4369SOL     OW14005   4.194   5.217   3.225
 4369SOL    HW114006   4.208   5.168   3.139
 4369SOL    HW214007   4.159   5.309   3.206
 4370SOL     OW14008   4.473   5.129   2.588
 4370SOL    HW114009   4.455   5.031   2.597
 4370SOL    HW214010   4.555   5.142   2.532
 4371SOL     OW14011   1.241   2.231   1.487
 4371SOL    HW114012   1.337   2.255   1.477
 4371SOL    HW214013   1.233   2.138   1.522
 4372SOL     OW14014   3.476   1.632   2.696
 4372SOL    HW114015   3.571   1.604   2.682
 4372SOL    HW214016   3.448   1.610   2.789
 4373SOL     OW14017   6.867   2.349   6.320
 4373SOL    HW114018   6.923   2.428   6.345
 4373SOL    HW214019   6.821   2.367   6.234
 4374SOL     OW14020   1.505   2.002   2.298
 4374SOL    HW114021   1.584   1.978   2.354
 4374SOL    HW214022   1.531   2.073   2.232
 4375SOL     OW14023   4.307   0.012   3.115
 4375SOL    HW114024   4.221   0.062   3.108
 4375SOL    HW214025   4.371   0.063   3.173
 4376SOL     OW14026   0.017   6.282   1.115
 4376SOL    HW114027   6.957   6.320   1.074
 4376SOL    HW214028   0.093   6.292   1.051
 4377SOL     OW14029   5.447   4.305   1.057
 4377SOL    HW114030   5.361   4.277   1.101
 4377SOL    HW214031   5.430   4.385   1.000
 4378SOL     OW14032   2.285   2.017   2.996
 4378SOL    HW114033   2.379   2.023   3.028
 4378SOL    HW214034   2.282   2.028   2.897
 4379SOL     OW14035   2.246   1.654   2.348
 4379SOL    HW114036   2.239   1.734   2.407
 4379SOL    HW214037   2.250   1.571   2.404
 4380SOL     OW14038   1.234   7.007   2.266
 4380SOL    HW114039   1.296   6.954   2.208
 4380SOL    HW214040   1.216   6.957   2.351
 4381SOL     OW14041   0.477   5.565   5.137
 4381SOL    HW114042   0.433   5.523   5.217
 4381SOL    HW214043   0.542   5.634   5.168
 4382SOL     OW14044   0.434   3.505   5.258
 4382SOL    HW114045   0.407   3.599   5.279
 4382SOL    HW214046   0.396   3.479   5.169
 4383SOL     OW14047   1.029   2.895   6.619
 4383SOL    HW114048   0.970   2.956   6.567
 4383SOL    HW214049   1.080   2.948   6.687
 4384SOL     OW14050   5.488   0.501   4.764
 4384SOL    HW114051   5.451   0.415   4.729
 4384SOL    HW214052   5.588   0.497   4.764
 4385SOL     OW14053   5.914   2.559   5.093
 4385SOL    HW114054   5.874   2.511   5.172
 4385SOL    HW214055   5.847   2.624   5.056
 4386SOL     OW14056   1.786   3.900   5.767
 4386SOL    HW114057   1.833   3.922   5.682
 4386SOL    HW214058   1.729   3.978   5.795
 4387SOL     OW14059   6.932   2.125   1.562
 4387SOL    HW114060   7.014   2.147   1.614
 4387SOL    HW214061   6.867   2.201   1.567
 4388SOL     OW14062   4.413   2.625   5.866
 4388SOL    HW114063   4.354   2.684   5.920
 4388SOL    HW214064   4.389   2.633   5.769
 4389SOL     OW14065   6.249   3.018   1.525
 4389SOL    HW114066   6.163   2.999   1.572
 4389SOL    HW214067   6.275   3.114   1.540
 4390SOL     OW14068   3.930   0.017   1.378
 4390SOL    HW114069   3.901   6.951   1.345
 4390SOL    HW214070   3.984   0.006   1.462
 4391SOL     OW14071   2.139   5.763   7.015
 4391SOL    HW114072   2.121   5.711   6.931
 4391SOL    HW214073   2.217   5.824   7.000
 4392SOL     OW14074   6.603   3.258   5.341
 4392SOL    HW114075   6.673   3.212   5.396
 4392SOL    HW214076   6.645   3.295   5.258
 4393SOL     OW14077   6.295   0.912   2.269
 4393SOL    HW114078   6.354   0.991   2.284
 4393SOL    HW214079   6.200   0.937   2.287
 4394SOL     OW14080   6.601   5.516   2.301
 4394SOL    HW114081   6.623   5.611   2.321
 4394SOL    HW214082   6.502   5.507   2.290
 4395SOL     OW14083   1.970   0.048   1.818
 4395SOL    HW114084   1.952   0.135   1.863
 4395SOL    HW214085   1.920   0.043   1.732
 4396SOL     OW14086   2.348   1.825   4.535
 4396SOL    HW114087   2.384   1.788   4.620
 4396SOL    HW214088   2.395   1.784   4.458
 4397SOL     OW14089   1.492   2.413   4.327
 4397SOL    HW114090   1.431   2.358   4.382
 4397SOL    HW214091   1.481   2.510   4.351
 4398SOL     OW14092   0.884   3.893   5.462
 4398SOL    HW114093   0.914   3.879   5.368
 4398SOL    HW214094   0.810   3.961   5.464
 4399SOL     OW14095   3.160   6.973   2.536
 4399SOL    HW114096   3.145   6.909   2.612
 4399SOL    HW214097   3.258   6.983   2.520
 4400SOL     OW14098   2.377   6.288   5.566
 4400SOL    HW114099   2.378   6.387   5.575
 4400SOL    HW214100   2.404   6.247   5.653
 4401SOL     OW14101   2.744   6.794   5.576
 4401SOL    HW114102   2.711   6.747   5.494
 4401SOL    HW214103   2.684   6.871   5.596
 4402SOL     OW14104   1.863   1.172   2.518
 4402SOL    HW114105   1.827   1.215   2.601
 4402SOL    HW214106   1.845   1.074   2.520
 4403SOL     OW14107   0.792   0.958   0.454
 4403SOL    HW114108   0.786   0.859   0.445
 4403SOL    HW214109   0.700   0.997   0.460
 4404SOL     OW14110   1.628   5.785   5.749
 4404SOL    HW114111   1.599   5.839   5.828
 4404SOL    HW214112   1.637   5.689   5.776
 4405SOL     OW14113   1.913   4.124   2.006
 4405SOL    HW114114   1.922   4.153   2.101
 4405SOL    HW214115   1.894   4.026   2.003
 4406SOL     OW14116   0.832   2.712   0.987
 4406SOL    HW114117   0.929   2.688   0.990
 4406SOL    HW214118   0.822   2.811   0.990
 4407SOL     OW14119   6.710   5.519   0.658
 4407SOL    HW114120   6.622   5.509   0.703
 4407SOL    HW214121   6.778   5.550   0.725
 4408SOL     OW14122   2.702   0.030   1.149
 4408SOL    HW114123   2.667   0.048   1.241
 4408SOL    HW214124   2.647   6.982   1.106
 4409SOL     OW14125   4.275   1.445   2.219
 4409SOL    HW114126   4.285   1.507   2.297
 4409SOL    HW214127   4.355   1.385   2.214
 4410SOL     OW14128   1.128   4.729   0.079
 4410SOL    HW114129   1.058   4.658   0.090
 4410SOL    HW214130   1.084   4.816   0.057
 4411SOL     OW14131   3.636   4.254   5.320
 4411SOL    HW114132   3.676   4.242   5.411
 4411SOL    HW214133   3.694   4.209   5.252
 4412SOL     OW14134   4.573   5.891   3.987
 4412SOL    HW114135   4.646   5.904   3.920
 4412SOL    HW214136   4.584   5.957   4.062
 4413SOL     OW14137   5.773   4.347   4.521
 4413SOL    HW114138   5.691   4.291   4.509
 4413SOL    HW214139   5.840   4.297   4.576
 4414SOL     OW14140   3.445   5.665   1.300
 4414SOL    HW114141   3.376   5.666   1.373
 4414SOL    HW214142   3.531   5.631   1.337
 4415SOL     OW14143   5.191   2.524   0.407
 4415SOL    HW114144   5.172   2.578   0.325
 4415SOL    HW214145   5.127   2.549   0.479
 4416SOL     OW14146   3.868   1.909   4.034
 4416SOL    HW114147   3.909   1.910   4.125
 4416SOL    HW214148   3.850   2.003   4.004
 4417SOL     OW14149   5.491   3.819   4.024
 4417SOL    HW114150   5.451   3.745   4.078
 4417SOL    HW214151   5.546   3.877   4.084
 4418SOL     OW14152   6.069   1.960   2.203
 4418SOL    HW114153   5.975   1.972   2.169
 4418SOL    HW214154   6.130   2.022   2.155
 4419SOL     OW14155   5.998   0.051   6.152
 4419SOL    HW114156   5.981   0.148   6.141
 4419SOL    HW214157   5.911   0.001   6.154
 4420SOL     OW14158   4.004   1.490   2.291
 4420SOL    HW114159   3.948   1.407   2.287
 4420SOL    HW214160   4.089   1.476   2.240
 4421SOL     OW14161   1.570   1.607   4.726
 4421SOL    HW114162   1.566   1.687   4.786
 4421SOL    HW214163   1.571   1.524   4.782
 4422SOL     OW14164   1.339   4.055   7.010
 4422SOL    HW114165   1.360   4.115   0.065
 4422SOL    HW214166   1.277   4.103   6.948
 4423SOL     OW14167   6.953   3.527   5.295
 4423SOL    HW114168   6.974   3.531   5.393
 4423SOL    HW214169   6.971   3.616   5.254
 4424SOL     OW14170   5.414   0.444   4.373
 4424SOL    HW114171   5.455   0.364   4.416
 4424SOL    HW214172   5.468   0.525   4.395
 4425SOL     OW14173   2.700   4.437   0.510
 4425SOL    HW114174   2.673   4.502   0.439
 4425SOL    HW214175   2.675   4.344   0.482
 4426SOL     OW14176   0.818   1.061   4.200
 4426SOL    HW114177   0.885   1.057   4.125
 4426SOL    HW214178   0.840   0.990   4.268
 4427SOL     OW14179   6.498   6.096   2.294
 4427SOL    HW114180   6.578   6.149   2.268
 4427SOL    HW214181   6.463   6.130   2.381
 4428SOL     OW14182   4.139   0.937   3.497
 4428SOL    HW114183   4.150   1.026   3.453
 4428SOL    HW214184   4.220   0.881   3.480
 4429SOL     OW14185   3.270   0.111   1.942
 4429SOL    HW114186   3.322   0.063   1.871
 4429SOL    HW214187   3.207   0.048   1.986
 4430SOL     OW14188   4.775   4.848   5.280
 4430SOL    HW114189   4.800   4.889   5.368
 4430SOL    HW214190   4.788   4.915   5.207
 4431SOL     OW14191   2.886   1.307   3.158
 4431SOL    HW114192   2.815   1.252   3.201
 4431SOL    HW214193   2.883   1.400   3.195
 4432SOL     OW14194   2.592   3.393   5.856
 4432SOL    HW114195   2.608   3.489   5.880
 4432SOL    HW214196   2.633   3.374   5.767
 4433SOL     OW14197   5.746   1.818   4.360
 4433SOL    HW114198   5.776   1.832   4.454
 4433SOL    HW214199   5.813   1.762   4.312
 4434SOL     OW14200   5.765   1.202   2.554
 4434SOL    HW114201   5.850   1.188   2.503
 4434SOL    HW214202   5.766   1.292   2.597
 4435SOL     OW14203   4.470   3.976   1.110
 4435SOL    HW114204   4.421   3.951   1.194
 4435SOL    HW214205   4.522   3.897   1.078
 4436SOL     OW14206   4.483   0.664   1.608
 4436SOL    HW114207   4.414   0.616   1.663
 4436SOL    HW214208   4.478   0.632   1.513
 4437SOL     OW14209   0.910   3.070   2.469
 4437SOL    HW114210   0.905   3.102   2.564
 4437SOL    HW214211   0.997   3.099   2.429
 4438SOL     OW14212   4.881   0.185   6.640
 4438SOL    HW114213   4.977   0.191   6.612
 4438SOL    HW214214   4.875   0.185   6.740
 4439SOL     OW14215   6.995   4.111   1.483
 4439SOL    HW114216   6.969   4.204   1.508
 4439SOL    HW214217   7.003   4.104   1.384
 4440SOL     OW14218   2.860   4.383   0.802
 4440SOL    HW114219   2.889   4.387   0.898
 4440SOL    HW214220   2.903   4.304   0.758
 4441SOL     OW14221   0.961   1.676   2.055
 4441SOL    HW114222   0.863   1.682   2.072
 4441SOL    HW214223   0.978   1.680   1.956
 4442SOL     OW14224   1.944   5.100   4.121
 4442SOL    HW114225   1.849   5.122   4.100
 4442SOL    HW214226   1.962   5.004   4.100
 4443SOL     OW14227   1.625   3.520   5.723
 4443SOL    HW114228   1.614   3.583   5.800
 4443SOL    HW214229   1.564   3.546   5.648
 4444SOL     OW14230   3.521   3.982   6.414
 4444SOL    HW114231   3.525   3.994   6.315
 4444SOL    HW214232   3.598   4.030   6.456
 4445SOL     OW14233   1.829   6.468   6.957
 4445SOL    HW114234   1.782   6.523   0.003
 4445SOL    HW214235   1.769   6.457   6.878
 4446SOL     OW14236   4.929   1.845   1.263
 4446SOL    HW114237   4.985   1.766   1.238
 4446SOL    HW214238   4.988   1.917   1.298
 4447SOL     OW14239   5.275   4.534   6.005
 4447SOL    HW114240   5.186   4.488   6.000
 4447SOL    HW214241   5.266   4.629   5.974
 4448SOL     OW14242   2.274   5.015   1.449
 4448SOL    HW114243   2.197   4.971   1.494
 4448SOL    HW214244   2.352   5.018   1.512
 4449SOL     OW14245   5.183   1.218   6.214
 4449SOL    HW114246   5.200   1.183   6.306
 4449SOL    HW214247   5.134   1.149   6.161
 4450SOL     OW14248   3.799   2.451   6.010
 4450SOL    HW114249   3.838   2.434   5.920
 4450SOL    HW214250   3.721   2.391   6.024
 4451SOL     OW14251   5.373   4.608   3.834
 4451SOL    HW114252   5.364   4.697   3.879
 4451SOL    HW214253   5.306   4.544   3.871
 4452SOL     OW14254   5.918   5.854   4.272
 4452SOL    HW114255   5.928   5.778   4.336
 4452SOL    HW214256   5.892   5.819   4.182
 4453SOL     OW14257   1.477   2.426   1.635
 4453SOL    HW114258   1.490   2.332   1.605
 4453SOL    HW214259   1.455   2.484   1.557
 4454SOL     OW14260   1.588   1.537   0.126
 4454SOL    HW114261   1.512   1.573   0.071
 4454SOL    HW214262   1.607   1.600   0.201
 4455SOL     OW14263   5.227   5.637   5.747
 4455SOL    HW114264   5.233   5.539   5.764
 4455SOL    HW214265   5.141   5.657   5.699
 4456SOL     OW14266   2.386   6.333   3.047
 4456SOL    HW114267   2.293   6.305   3.070
 4456SOL    HW214268   2.406   6.420   3.093
 4457SOL     OW14269   3.395   1.518   3.024
 4457SOL    HW114270   3.472   1.456   3.008
 4457SOL    HW214271   3.366   1.512   3.119
 4458SOL     OW14272   2.330   2.959   0.577
 4458SOL    HW114273   2.318   2.896   0.500
 4458SOL    HW214274   2.275   3.041   0.562
 4459SOL     OW14275   4.042   2.002   4.669
 4459SOL    HW114276   3.992   2.032   4.588
 4459SOL    HW214277   4.083   2.081   4.714
 4460SOL     OW14278   1.407   3.084   0.141
 4460SOL    HW114279   1.410   3.104   0.239
 4460SOL    HW214280   1.380   3.166   0.091
 4461SOL     OW14281   1.954   0.880   1.036
 4461SOL    HW114282   2.013   0.810   1.075
 4461SOL    HW214283   2.004   0.932   0.967
 4462SOL     OW14284   6.559   4.628   1.954
 4462SOL    HW114285   6.473   4.580   1.938
 4462SOL    HW214286   6.573   4.640   2.053
 4463SOL     OW14287   4.747   0.734   0.564
 4463SOL    HW114288   4.807   0.812   0.585
 4463SOL    HW214289   4.766   0.660   0.629
 4464SOL     OW14290   6.947   5.647   0.321
 4464SOL    HW114291   6.889   5.688   0.392
 4464SOL    HW214292   6.904   5.659   0.232
 4465SOL     OW14293   3.960   5.037   1.295
 4465SOL    HW114294   3.915   5.075   1.376
 4465SOL    HW214295   3.911   4.954   1.267
 4466SOL     OW14296   1.205   1.854   3.088
 4466SOL    HW114297   1.243   1.945   3.070
 4466SOL    HW214298   1.262   1.785   3.043
 4467SOL     OW14299   1.581   5.780   3.315
 4467SOL    HW114300   1.633   5.696   3.325
 4467SOL    HW214301   1.539   5.783   3.224
 4468SOL     OW14302   1.442   4.133   0.412
 4468SOL    HW114303   1.533   4.110   0.376
 4468SOL    HW214304   1.444   4.130   0.512
 4469SOL     OW14305   3.326   0.748   1.586
 4469SOL    HW114306   3.296   0.731   1.680
 4469SOL    HW214307   3.425   0.758   1.585
 4470SOL     OW14308   0.668   1.946   2.116
 4470SOL    HW114309   0.676   1.850   2.142
 4470SOL    HW214310   0.601   1.992   2.175
 4471SOL     OW14311   0.963   2.356   6.750
 4471SOL    HW114312   0.863   2.350   6.751
 4471SOL    HW214313   0.995   2.355   6.655
 4472SOL     OW14314   0.570   2.779   1.922
 4472SOL    HW114315   0.582   2.833   2.005
 4472SOL    HW214316   0.594   2.834   1.842
 4473SOL     OW14317   5.652   3.092   4.228
 4473SOL    HW114318   5.602   3.122   4.309
 4473SOL    HW214319   5.590   3.089   4.150
 4474SOL     OW14320   2.540   6.877   2.567
 4474SOL    HW114321   2.619   6.821   2.592
 4474SOL    HW214322   2.527   6.949   2.635
 4475SOL     OW14323   1.112   4.108   2.004
 4475SOL    HW114324   1.119   4.124   1.905
 4475SOL    HW214325   1.146   4.188   2.053
 4476SOL     OW14326   5.947   0.889   3.181
 4476SOL    HW114327   6.032   0.923   3.141
 4476SOL    HW214328   5.871   0.944   3.148
 4477SOL     OW14329   1.474   0.625   5.464
 4477SOL    HW114330   1.377   0.615   5.485
 4477SOL    HW214331   1.514   0.534   5.450
 4478SOL     OW14332   3.199   0.185   2.269
 4478SOL    HW114333   3.209   0.170   2.171
 4478SOL    HW214334   3.279   0.150   2.317
 4479SOL     OW14335   0.571   2.267   1.362
 4479SOL    HW114336   0.615   2.344   1.407
 4479SOL    HW214337   0.617   2.182   1.389
 4480SOL     OW14338   0.273   4.305   4.962
 4480SOL    HW114339   0.182   4.312   4.921
 4480SOL    HW214340   0.322   4.227   4.923
 4481SOL     OW14341   2.908   5.268   4.748
 4481SOL    HW114342   2.948   5.332   4.814
 4481SOL    HW214343   2.872   5.318   4.670
 4482SOL     OW14344   1.803   2.802   4.949
 4482SOL    HW114345   1.740   2.828   4.875
 4482SOL    HW214346   1.896   2.830   4.925
 4483SOL     OW14347   6.660   2.474   2.225
 4483SOL    HW114348   6.667   2.492   2.324
 4483SOL    HW214349   6.716   2.394   2.202
 4484SOL     OW14350   3.417   2.105   6.768
 4484SOL    HW114351   3.443   2.174   6.699
 4484SOL    HW214352   3.444   2.138   6.859
 4485SOL     OW14353   5.811   2.572   4.500
 4485SOL    HW114354   5.863   2.652   4.528
 4485SOL    HW214355   5.842   2.492   4.552
 4486SOL     OW14356   6.327   5.689   5.340
 4486SOL    HW114357   6.335   5.775   5.391
 4486SOL    HW214358   6.274   5.623   5.394
 4487SOL     OW14359   3.147   2.633   6.346
 4487SOL    HW114360   3.181   2.572   6.418
 4487SOL    HW214361   3.197   2.720   6.350
 4488SOL     OW14362   0.827   3.623   5.510
 4488SOL    HW114363   0.840   3.722   5.523
 4488SOL    HW214364   0.834   3.578   5.599
 4489SOL     OW14365   5.344   5.429   4.921
 4489SOL    HW114366   5.272   5.445   4.853
 4489SOL    HW214367   5.433   5.451   4.881
 4490SOL     OW14368   5.317   1.777   1.852
 4490SOL    HW114369   5.369   1.773   1.766
 4490SOL    HW214370   5.244   1.709   1.850
 4491SOL     OW14371   0.048   3.527   3.589
 4491SOL    HW114372   0.078   3.435   3.615
 4491SOL    HW214373   0.084   3.593   3.655
 4492SOL     OW14374   5.824   4.463   2.364
 4492SOL    HW114375   5.808   4.415   2.278
 4492SOL    HW214376   5.922   4.470   2.382
 4493SOL     OW14377   4.947   5.691   4.515
 4493SOL    HW114378   4.962   5.719   4.610
 4493SOL    HW214379   4.851   5.668   4.502
 4494SOL     OW14380   0.430   1.101   6.488
 4494SOL    HW114381   0.472   1.061   6.407
 4494SOL    HW214382   0.488   1.174   6.523
 4495SOL     OW14383   4.090   7.006   3.814
 4495SOL    HW114384   4.040   6.920   3.820
 4495SOL    HW214385   4.041   0.054   3.865
 4496SOL     OW14386   5.704   6.294   0.960
 4496SOL    HW114387   5.617   6.254   0.929
 4496SOL    HW214388   5.760   6.315   0.880
 4497SOL     OW14389   4.199   2.116   6.747
 4497SOL    HW114390   4.195   2.042   6.679
 4497SOL    HW214391   4.185   2.077   6.838
 4498SOL     OW14392   0.144   3.737   6.904
 4498SOL    HW114393   0.126   3.651   6.857
 4498SOL    HW214394   0.059   3.790   6.911
 4499SOL     OW14395   6.078   3.350   3.712
 4499SOL    HW114396   5.998   3.404   3.686
 4499SOL    HW214397   6.099   3.365   3.808
 4500SOL     OW14398   3.316   3.301   5.149
 4500SOL    HW114399   3.409   3.265   5.137
 4500SOL    HW214400   3.286   3.344   5.064
 4501SOL     OW14401   6.890   3.829   3.027
 4501SOL    HW114402   6.836   3.887   3.088
 4501SOL    HW214403   6.829   3.782   2.963
 4502SOL     OW14404   0.765   2.727   0.189
 4502SOL    HW114405   0.776   2.826   0.179
 4502SOL    HW214406   0.775   2.683   0.100
 4503SOL     OW14407   3.575   0.048   1.372
 4503SOL    HW114408   3.630   6.987   1.365
 4503SOL    HW214409   3.508   0.050   1.298
 4504SOL     OW14410   0.605   0.565   4.597
 4504SOL    HW114411   0.572   0.659   4.593
 4504SOL    HW214412   0.586   0.519   4.511
 4505SOL     OW14413   6.086   5.000   1.879
 4505SOL    HW114414   6.018   4.947   1.829
 4505SOL    HW214415   6.178   4.973   1.850
 4506SOL     OW14416   4.799   2.759   3.190
 4506SOL    HW114417   4.894   2.747   3.220
 4506SOL    HW214418   4.789   2.848   3.146
 4507SOL     OW14419   6.443   4.350   3.655
 4507SOL    HW114420   6.504   4.322   3.581
 4507SOL    HW214421   6.485   4.423   3.708
 4508SOL     OW14422   1.600   4.924   6.671
 4508SOL    HW114423   1.570   5.019   6.674
 4508SOL    HW214424   1.580   4.879   6.758
 4509SOL     OW14425   4.728   2.373   3.212
 4509SOL    HW114426   4.739   2.339   3.119
 4509SOL    HW214427   4.646   2.431   3.217
 4510SOL     OW14428   4.309   2.124   4.143
 4510SOL    HW114429   4.346   2.176   4.067
 4510SOL    HW214430   4.209   2.118   4.135
 4511SOL     OW14431   6.035   3.619   6.516
 4511SOL    HW114432   5.984   3.534   6.527
 4511SOL    HW214433   5.983   3.682   6.458
 4512SOL     OW14434   3.086   0.855   5.937
 4512SOL    HW114435   3.142   0.848   6.019
 4512SOL    HW214436   3.062   0.951   5.921
 4513SOL     OW14437   0.491   4.710   5.976
 4513SOL    HW114438   0.585   4.744   5.970
 4513SOL    HW214439   0.486   4.619   5.936
 4514SOL     OW14440   3.146   2.829   6.003
 4514SOL    HW114441   3.227   2.810   5.947
 4514SOL    HW214442   3.090   2.747   6.011
 4515SOL     OW14443   6.092   1.795   5.390
 4515SOL    HW114444   6.054   1.771   5.301
 4515SOL    HW214445   6.173   1.853   5.377
 4516SOL     OW14446   2.200   7.018   0.359
 4516SOL    HW114447   2.270   6.983   0.296
 4516SOL    HW214448   2.131   6.947   0.373
 4517SOL     OW14449   4.458   6.423   6.843
 4517SOL    HW114450   4.518   6.501   6.825
 4517SOL    HW214451   4.394   6.411   6.767
 4518SOL     OW14452   0.116   0.044   2.315
 4518SOL    HW114453   0.105   0.142   2.331
 4518SOL    HW214454   0.133   0.028   2.218
 4519SOL     OW14455   5.456   6.975   0.831
 4519SOL    HW114456   5.441   0.045   0.797
 4519SOL    HW214457   5.511   6.924   0.765
 4520SOL     OW14458   3.860   6.341   6.287
 4520SOL    HW114459   3.819   6.250   6.290
 4520SOL    HW214460   3.855   6.377   6.194
 4521SOL     OW14461   5.846   2.220   5.498
 4521SOL    HW114462   5.782   2.175   5.561
 4521SOL    HW214463   5.939   2.192   5.521
 4522SOL     OW14464   5.574   5.288   3.415
 4522SOL    HW114465   5.533   5.258   3.501
 4522SOL    HW214466   5.541   5.380   3.392
 4523SOL     OW14467   1.204   4.490   0.222
 4523SOL    HW114468   1.209   4.571   0.164
 4523SOL    HW214469   1.245   4.412   0.175
 4524SOL     OW14470   6.268   3.349   2.132
 4524SOL    HW114471   6.340   3.300   2.181
 4524SOL    HW214472   6.295   3.363   2.037
 4525SOL     OW14473   4.277   2.646   5.628
 4525SOL    HW114474   4.186   2.641   5.668
 4525SOL    HW214475   4.274   2.701   5.545
 4526SOL     OW14476   7.017   0.352   6.426
 4526SOL    HW114477   0.007   0.449   6.405
 4526SOL    HW214478   0.078   0.314   6.464
 4527SOL     OW14479   6.695   0.467   2.706
 4527SOL    HW114480   6.690   0.430   2.614
 4527SOL    HW214481   6.763   0.541   2.709
 4528SOL     OW14482   4.936   0.475   6.575
 4528SOL    HW114483   4.983   0.468   6.487
 4528SOL    HW214484   4.904   0.385   6.603
 4529SOL     OW14485   1.779   0.734   4.959
 4529SOL    HW114486   1.714   0.810   4.954
 4529SOL    HW214487   1.832   0.742   5.044
 4530SOL     OW14488   2.375   5.710   3.843
 4530SOL    HW114489   2.382   5.610   3.835
 4530SOL    HW214490   2.410   5.739   3.932
 4531SOL     OW14491   0.651   3.085   5.437
 4531SOL    HW114492   0.732   3.108   5.384
 4531SOL    HW214493   0.588   3.163   5.438
 4532SOL     OW14494   6.688   1.826   2.358
 4532SOL    HW114495   6.761   1.831   2.290
 4532SOL    HW214496   6.674   1.731   2.385
 4533SOL     OW14497   1.968   1.170   2.896
 4533SOL    HW114498   2.022   1.254   2.891
 4533SOL    HW214499   1.893   1.175   2.830
 4534SOL     OW14500   5.558   4.027   5.394
 4534SOL    HW114501   5.506   3.948   5.426
 4534SOL    HW214502   5.569   4.092   5.469
 4535SOL     OW14503   3.570   0.655   2.280
 4535SOL    HW114504   3.482   0.693   2.250
 4535SOL    HW214505   3.588   0.685   2.374
 4536SOL     OW14506   3.947   1.699   4.941
 4536SOL    HW114507   3.959   1.600   4.943
 4536SOL    HW214508   3.970   1.737   5.030
 4537SOL     OW14509   4.186   3.293   1.056
 4537SOL    HW114510   4.146   3.248   1.137
 4537SOL    HW214511   4.145   3.383   1.044
 4538SOL     OW14512   2.627   0.564   2.092
 4538SOL    HW114513   2.619   0.571   1.992
 4538SOL    HW214514   2.540   0.591   2.134
 4539SOL     OW14515   3.448   5.636   5.176
 4539SOL    HW114516   3.498   5.666   5.256
 4539SOL    HW214517   3.425   5.539   5.186
 4540SOL     OW14518   2.509   2.231   0.024
 4540SOL    HW114519   2.550   2.217   6.957
 4540SOL    HW214520   2.428   2.290   0.014
 4541SOL     OW14521   5.430   1.812   6.371
 4541SOL    HW114522   5.451   1.728   6.421
 4541SOL    HW214523   5.333   1.811   6.344
 4542SOL     OW14524   0.117   2.557   1.518
 4542SOL    HW114525   0.192   2.507   1.561
 4542SOL    HW214526   0.069   2.495   1.455
 4543SOL     OW14527   5.308   2.263   0.705
 4543SOL    HW114528   5.325   2.263   0.606
 4543SOL    HW214529   5.242   2.334   0.728
 4544SOL     OW14530   3.260   6.012   6.778
 4544SOL    HW114531   3.256   5.959   6.862
 4544SOL    HW214532   3.250   6.110   6.799
 4545SOL     OW14533   6.072   3.122   4.435
 4545SOL    HW114534   6.109   3.163   4.352
 4545SOL    HW214535   5.982   3.160   4.454
 4546SOL     OW14536   2.578   0.277   4.245
 4546SOL    HW114537   2.672   0.288   4.213
 4546SOL    HW214538   2.520   0.348   4.205
 4547SOL     OW14539   6.137   1.606   0.348
 4547SOL    HW114540   6.178   1.550   0.276
 4547SOL    HW214541   6.084   1.548   0.409
 4548SOL     OW14542   2.043   2.305   3.347
 4548SOL    HW114543   1.971   2.362   3.387
 4548SOL    HW214544   2.055   2.329   3.251
 4549SOL     OW14545   5.381   3.806   2.640
 4549SOL    HW114546   5.480   3.791   2.636
 4549SOL    HW214547   5.346   3.828   2.549
 4550SOL     OW14548   1.213   4.474   3.172
 4550SOL    HW114549   1.216   4.375   3.187
 4550SOL    HW214550   1.231   4.521   3.258
 4551SOL     OW14551   0.559   3.564   4.625
 4551SOL    HW114552   0.604   3.644   4.585
 4551SOL    HW214553   0.597   3.480   4.584
 4552SOL     OW14554   5.598   1.946   0.873
 4552SOL    HW114555   5.603   1.943   0.972
 4552SOL    HW214556   5.683   1.984   0.836
 4553SOL     OW14557   4.853   4.260   0.163
 4553SOL    HW114558   4.794   4.340   0.147
 4553SOL    HW214559   4.920   4.253   0.089
 4554SOL     OW14560   6.773   0.160   2.026
 4554SOL    HW114561   6.701   0.180   1.960
 4554SOL    HW214562   6.832   0.240   2.037
 4555SOL     OW14563   1.944   1.513   5.603
 4555SOL    HW114564   1.878   1.521   5.678
 4555SOL    HW214565   2.026   1.465   5.636
 4556SOL     OW14566   5.744   3.954   4.731
 4556SOL    HW114567   5.785   3.906   4.808
 4556SOL    HW214568   5.800   3.940   4.649
 4557SOL     OW14569   4.574   5.414   4.256
 4557SOL    HW114570   4.534   5.345   4.316
 4557SOL    HW214571   4.648   5.373   4.202
 4558SOL     OW14572   0.218   4.471   4.715
 4558SOL    HW114573   0.313   4.451   4.737
 4558SOL    HW214574   0.185   4.407   4.646
 4559SOL     OW14575   6.642   3.433   2.694
 4559SOL    HW114576   6.685   3.450   2.782
 4559SOL    HW214577   6.544   3.453   2.700
 4560SOL     OW14578   5.726   3.733   1.058
 4560SOL    HW114579   5.687   3.798   1.123
 4560SOL    HW214580   5.719   3.641   1.095
 4561SOL     OW14581   3.349   2.150   3.420
 4561SOL    HW114582   3.321   2.134   3.325
 4561SOL    HW214583   3.269   2.148   3.479
 4562SOL     OW14584   1.661   6.673   0.113
 4562SOL    HW114585   1.618   6.689   0.024
 4562SOL    HW214586   1.602   6.614   0.168
 4563SOL     OW14587   6.934   3.123   1.354
 4563SOL    HW114588   6.842   3.153   1.379
 4563SOL    HW214589   6.935   3.098   1.257
 4564SOL     OW14590   0.047   6.368   1.855
 4564SOL    HW114591   0.139   6.354   1.893
 4564SOL    HW214592   7.016   6.286   1.869
 4565SOL     OW14593   1.368   0.419   4.463
 4565SOL    HW114594   1.405   0.326   4.460
 4565SOL    HW214595   1.298   0.429   4.393
 4566SOL     OW14596   0.243   3.429   0.770
 4566SOL    HW114597   0.280   3.369   0.699
 4566SOL    HW214598   0.269   3.393   0.860
 4567SOL     OW14599   6.559   1.531   6.613
 4567SOL    HW114600   6.635   1.591   6.635
 4567SOL    HW214601   6.502   1.518   6.694
 4568SOL     OW14602   1.690   3.881   5.474
 4568SOL    HW114603   1.697   3.821   5.393
 4568SOL    HW214604   1.774   3.934   5.483
 4569SOL     OW14605   2.553   0.394   3.289
 4569SOL    HW114606   2.505   0.333   3.352
 4569SOL    HW214607   2.631   0.436   3.335
 4570SOL     OW14608   6.721   6.233   2.198
 4570SOL    HW114609   6.760   6.306   2.253
 4570SOL    HW214610   6.695   6.269   2.108
 4571SOL     OW14611   4.677   3.591   6.265
 4571SOL    HW114612   4.674   3.651   6.185
 4571SOL    HW214613   4.660   3.645   6.348
 4572SOL     OW14614   2.216   0.997   6.501
 4572SOL    HW114615   2.274   1.027   6.425
 4572SOL    HW214616   2.257   0.916   6.544
 4573SOL     OW14617   6.940   0.128   0.727
 4573SOL    HW114618   6.984   0.095   0.643
 4573SOL    HW214619   6.858   0.180   0.704
 4574SOL     OW14620   6.002   4.050   0.372
 4574SOL    HW114621   5.993   4.021   0.467
 4574SOL    HW214622   5.923   4.017   0.319
 4575SOL     OW14623   5.886   0.247   5.444
 4575SOL    HW114624   5.871   0.328   5.501
 4575SOL    HW214625   5.798   0.206   5.421
 4576SOL     OW14626   3.964   5.555   5.538
 4576SOL    HW114627   3.998   5.546   5.632
 4576SOL    HW214628   4.036   5.528   5.474
 4577SOL     OW14629   1.124   2.572   4.223
 4577SOL    HW114630   1.124   2.664   4.185
 4577SOL    HW214631   1.075   2.510   4.161
 4578SOL     OW14632   0.923   2.232   5.174
 4578SOL    HW114633   0.887   2.147   5.135
 4578SOL    HW214634   0.925   2.224   5.274
 4579SOL     OW14635   4.458   0.134   3.299
 4579SOL    HW114636   4.554   0.128   3.326
 4579SOL    HW214637   4.403   0.160   3.378
 4580SOL     OW14638   5.582   3.754   0.517
 4580SOL    HW114639   5.488   3.720   0.511
 4580SOL    HW214640   5.586   3.832   0.580
 4581SOL     OW14641   1.775   5.852   2.144
 4581SOL    HW114642   1.788   5.921   2.215
 4581SOL    HW214643   1.709   5.784   2.175
 4582SOL     OW14644   4.383   0.523   4.433
 4582SOL    HW114645   4.465   0.537   4.378
 4582SOL    HW214646   4.302   0.538   4.376
 4583SOL     OW14647   2.989   1.961   6.970
 4583SOL    HW114648   3.004   2.053   6.934
 4583SOL    HW214649   2.967   1.899   6.895
 4584SOL     OW14650   1.737   4.992   5.381
 4584SOL    HW114651   1.771   4.911   5.333
 4584SOL    HW214652   1.815   5.043   5.420
 4585SOL     OW14653   1.348   5.516   3.106
 4585SOL    HW114654   1.407   5.492   3.028
 4585SOL    HW214655   1.389   5.481   3.190
 4586SOL     OW14656   4.158   4.284   1.094
 4586SOL    HW114657   4.221   4.243   1.028
 4586SOL    HW214658   4.108   4.212   1.142
 4587SOL     OW14659   3.626   3.997   3.384
 4587SOL    HW114660   3.685   4.057   3.438
 4587SOL    HW214661   3.532   4.007   3.415
 4588SOL     OW14662   2.697   3.184   5.506
 4588SOL    HW114663   2.619   3.230   5.462
 4588SOL    HW214664   2.677   3.170   5.603
 4589SOL     OW14665   5.798   0.761   1.922
 4589SOL    HW114666   5.808   0.759   2.022
 4589SOL    HW214667   5.719   0.817   1.898
 4590SOL     OW14668   4.567   5.399   1.537
 4590SOL    HW114669   4.608   5.311   1.561
 4590SOL    HW214670   4.492   5.419   1.601
 4591SOL     OW14671   1.430   0.312   4.831
 4591SOL    HW114672   1.473   0.402   4.835
 4591SOL    HW214673   1.456   0.259   4.911
 4592SOL     OW14674   2.893   1.539   3.355
 4592SOL    HW114675   2.947   1.612   3.313
 4592SOL    HW214676   2.937   1.512   3.441
 4593SOL     OW14677   5.377   6.168   1.849
 4593SOL    HW114678   5.406   6.079   1.814
 4593SOL    HW214679   5.369   6.163   1.949
 4594SOL     OW14680   2.911   0.897   3.331
 4594SOL    HW114681   2.947   0.826   3.271
 4594SOL    HW214682   2.811   0.900   3.323
 4595SOL     OW14683   4.749   2.943   5.951
 4595SOL    HW114684   4.653   2.943   5.979
 4595SOL    HW214685   4.805   2.909   6.026
 4596SOL     OW14686   6.793   0.721   2.709
 4596SOL    HW114687   6.711   0.777   2.698
 4596SOL    HW214688   6.871   0.767   2.666
 4597SOL     OW14689   3.027   5.560   6.613
 4597SOL    HW114690   3.028   5.493   6.687
 4597SOL    HW214691   3.038   5.652   6.650
 4598SOL     OW14692   1.306   5.597   0.964
 4598SOL    HW114693   1.367   5.518   0.976
 4598SOL    HW214694   1.211   5.566   0.964
 4599SOL     OW14695   1.082   5.028   1.013
 4599SOL    HW114696   1.021   5.079   1.073
 4599SOL    HW214697   1.079   4.931   1.037
 4600SOL     OW14698   0.308   6.032   5.434
 4600SOL    HW114699   0.225   5.978   5.420
 4600SOL    HW214700   0.387   5.970   5.439
 4601SOL     OW14701   1.392   1.656   5.100
 4601SOL    HW114702   1.367   1.752   5.101
 4601SOL    HW214703   1.311   1.600   5.119
 4602SOL     OW14704   3.314   6.426   0.247
 4602SOL    HW114705   3.333   6.385   0.336
 4602SOL    HW214706   3.257   6.508   0.259
 4603SOL     OW14707   3.753   6.079   1.196
 4603SOL    HW114708   3.825   6.132   1.240
 4603SOL    HW214709   3.725   6.124   1.111
 4604SOL     OW14710   4.565   0.308   6.924
 4604SOL    HW114711   4.660   0.279   6.918
 4604SOL    HW214712   4.505   0.231   6.904
 4605SOL     OW14713   1.369   6.079   2.292
 4605SOL    HW114714   1.381   6.055   2.388
 4605SOL    HW214715   1.272   6.087   2.271
 4606SOL     OW14716   0.798   6.634   2.387
 4606SOL    HW114717   0.729   6.680   2.443
 4606SOL    HW214718   0.755   6.598   2.304
 4607SOL     OW14719   2.174   3.330   3.087
 4607SOL    HW114720   2.183   3.254   3.151
 4607SOL    HW214721   2.180   3.417   3.137
 4608SOL     OW14722   0.153   5.186   3.915
 4608SOL    HW114723   0.158   5.209   4.012
 4608SOL    HW214724   0.240   5.147   3.884
 4609SOL     OW14725   5.090   5.023   6.726
 4609SOL    HW114726   5.181   5.044   6.760
 4609SOL    HW214727   5.022   5.062   6.788
 4610SOL     OW14728   5.072   1.529   0.544
 4610SOL    HW114729   5.147   1.510   0.607
 4610SOL    HW214730   5.050   1.627   0.547
 4611SOL     OW14731   0.983   6.735   6.202
 4611SOL    HW114732   0.905   6.673   6.195
 4611SOL    HW214733   1.067   6.685   6.183
 4612SOL     OW14734   2.172   6.734   0.787
 4612SOL    HW114735   2.267   6.753   0.764
 4612SOL    HW214736   2.155   6.760   0.882
 4613SOL     OW14737   1.213   5.496   2.360
 4613SOL    HW114738   1.143   5.475   2.428
 4613SOL    HW214739   1.168   5.525   2.275
 4614SOL     OW14740   5.876   3.144   3.693
 4614SOL    HW114741   5.938   3.215   3.726
 4614SOL    HW214742   5.782   3.167   3.717
 4615SOL     OW14743   0.897   1.338   0.700
 4615SOL    HW114744   0.926   1.432   0.715
 4615SOL    HW214745   0.884   1.322   0.603
 4616SOL     OW14746   6.514   1.312   4.472
 4616SOL    HW114747   6.577   1.235   4.480
 4616SOL    HW214748   6.421   1.278   4.458
 4617SOL     OW14749   0.979   1.827   2.950
 4617SOL    HW114750   1.051   1.845   3.017
 4617SOL    HW214751   0.947   1.733   2.960
 4618SOL     OW14752   2.482   3.263   5.349
 4618SOL    HW114753   2.396   3.311   5.340
 4618SOL    HW214754   2.480   3.179   5.295
 4619SOL     OW14755   2.830   6.003   3.431
 4619SOL    HW114756   2.920   6.039   3.408
 4619SOL    HW214757   2.811   6.022   3.528
 4620SOL     OW14758   0.704   5.101   0.920
 4620SOL    HW114759   0.798   5.135   0.928
 4620SOL    HW214760   0.678   5.053   1.003
 4621SOL     OW14761   4.956   0.589   2.240
 4621SOL    HW114762   4.937   0.551   2.150
 4621SOL    HW214763   4.919   0.528   2.310
 4622SOL     OW14764   4.014   4.440   0.586
 4622SOL    HW114765   4.009   4.470   0.681
 4622SOL    HW214766   4.108   4.451   0.553
 4623SOL     OW14767   5.311   5.829   1.550
 4623SOL    HW114768   5.343   5.869   1.465
 4623SOL    HW214769   5.255   5.749   1.531
 4624SOL     OW14770   3.546   6.905   3.013
 4624SOL    HW114771   3.585   6.957   3.089
 4624SOL    HW214772   3.453   6.937   2.995
 4625SOL     OW14773   1.509   5.259   1.642
 4625SOL    HW114774   1.468   5.238   1.553
 4625SOL    HW214775   1.608   5.263   1.632
 4626SOL     OW14776   4.484   3.756   1.538
 4626SOL    HW114777   4.409   3.743   1.604
 4626SOL    HW214778   4.509   3.667   1.499
 4627SOL     OW14779   2.002   5.201   4.747
 4627SOL    HW114780   2.044   5.125   4.798
 4627SOL    HW214781   1.926   5.165   4.694
 4628SOL     OW14782   4.568   4.426   4.876
 4628SOL    HW114783   4.497   4.465   4.936
 4628SOL    HW214784   4.535   4.425   4.782
 4629SOL     OW14785   2.420   5.211   5.677
 4629SOL    HW114786   2.363   5.258   5.744
 4629SOL    HW214787   2.378   5.123   5.654
 4630SOL     OW14788   1.960   5.635   2.240
 4630SOL    HW114789   1.930   5.549   2.199
 4630SOL    HW214790   1.902   5.710   2.206
 4631SOL     OW14791   1.412   6.125   3.178
 4631SOL    HW114792   1.347   6.098   3.249
 4631SOL    HW214793   1.418   6.225   3.175
 4632SOL     OW14794   2.290   4.148   2.458
 4632SOL    HW114795   2.381   4.187   2.445
 4632SOL    HW214796   2.222   4.207   2.414
 4633SOL     OW14797   5.614   0.697   4.384
 4633SOL    HW114798   5.691   0.761   4.384
 4633SOL    HW214799   5.632   0.623   4.319
 4634SOL     OW14800   2.792   3.934   5.192
 4634SOL    HW114801   2.875   3.942   5.137
 4634SOL    HW214802   2.712   3.927   5.131
 4635SOL     OW14803   4.487   4.205   1.538
 4635SOL    HW114804   4.503   4.115   1.497
 4635SOL    HW214805   4.474   4.195   1.636
 4636SOL     OW14806   1.687   4.259   0.598
 4636SOL    HW114807   1.662   4.341   0.546
 4636SOL    HW214808   1.716   4.188   0.535
 4637SOL     OW14809   1.046   6.642   1.076
 4637SOL    HW114810   1.066   6.665   1.172
 4637SOL    HW214811   0.981   6.709   1.040
 4638SOL     OW14812   3.982   5.375   0.149
 4638SOL    HW114813   4.016   5.450   0.092
 4638SOL    HW214814   3.915   5.411   0.214
 4639SOL     OW14815   3.406   3.172   6.465
 4639SOL    HW114816   3.465   3.252   6.479
 4639SOL    HW214817   3.389   3.161   6.367
 4640SOL     OW14818   5.095   4.169   4.455
 4640SOL    HW114819   5.015   4.229   4.465
 4640SOL    HW214820   5.160   4.190   4.528
 4641SOL     OW14821   2.506   0.774   4.586
 4641SOL    HW114822   2.475   0.681   4.607
 4641SOL    HW214823   2.551   0.774   4.497
 4642SOL     OW14824   1.236   0.189   2.788
 4642SOL    HW114825   1.217   0.129   2.866
 4642SOL    HW214826   1.329   0.171   2.755
 4643SOL     OW14827   6.589   1.519   0.404
 4643SOL    HW114828   6.567   1.558   0.314
 4643SOL    HW214829   6.661   1.573   0.447
 4644SOL     OW14830   0.659   0.264   5.223
 4644SOL    HW114831   0.575   0.278   5.172
 4644SOL    HW214832   0.735   0.307   5.174
 4645SOL     OW14833   1.374   0.644   4.612
 4645SOL    HW114834   1.277   0.634   4.633
 4645SOL    HW214835   1.406   0.566   4.559
 4646SOL     OW14836   2.358   5.917   3.645
 4646SOL    HW114837   2.373   5.825   3.679
 4646SOL    HW214838   2.380   5.920   3.547
 4647SOL     OW14839   1.816   0.854   2.847
 4647SOL    HW114840   1.744   0.904   2.895
 4647SOL    HW214841   1.904   0.870   2.892
 4648SOL     OW14842   3.625   1.054   3.354
 4648SOL    HW114843   3.631   0.992   3.433
 4648SOL    HW214844   3.538   1.103   3.356
 4649SOL     OW14845   5.871   1.026   0.462
 4649SOL    HW114846   5.846   1.020   0.558
 4649SOL    HW214847   5.788   1.028   0.406
 4650SOL     OW14848   4.751   5.517   1.919
 4650SOL    HW114849   4.703   5.586   1.864
 4650SOL    HW214850   4.816   5.468   1.862
 4651SOL     OW14851   6.487   3.274   6.239
 4651SOL    HW114852   6.556   3.202   6.245
 4651SOL    HW214853   6.519   3.355   6.288
 4652SOL     OW14854   6.579   6.045   4.340
 4652SOL    HW114855   6.599   6.039   4.438
 4652SOL    HW214856   6.637   6.115   4.299
 4653SOL     OW14857   5.426   6.170   1.188
 4653SOL    HW114858   5.421   6.170   1.088
 4653SOL    HW214859   5.341   6.207   1.226
 4654SOL     OW14860   0.402   5.928   5.972
 4654SOL    HW114861   0.373   5.890   6.060
 4654SOL    HW214862   0.461   6.008   5.988
 4655SOL     OW14863   6.209   3.486   1.099
 4655SOL    HW114864   6.131   3.430   1.128
 4655SOL    HW214865   6.187   3.583   1.113
 4656SOL     OW14866   1.253   1.132   1.777
 4656SOL    HW114867   1.280   1.053   1.831
 4656SOL    HW214868   1.333   1.189   1.758
 4657SOL     OW14869   4.584   5.988   1.412
 4657SOL    HW114870   4.630   6.076   1.425
 4657SOL    HW214871   4.498   5.988   1.463
 4658SOL     OW14872   3.016   0.692   4.596
 4658SOL    HW114873   3.099   0.747   4.601
 4658SOL    HW214874   2.963   0.702   4.680
 4659SOL     OW14875   2.637   4.479   6.125
 4659SOL    HW114876   2.583   4.402   6.092
 4659SOL    HW214877   2.725   4.481   6.076
 4660SOL     OW14878   1.016   6.159   4.542
 4660SOL    HW114879   1.001   6.101   4.462
 4660SOL    HW214880   0.949   6.136   4.613
 4661SOL     OW14881   3.070   4.922   6.842
 4661SOL    HW114882   3.069   4.914   6.941
 4661SOL    HW214883   3.092   5.016   6.816
 4662SOL     OW14884   2.616   0.334   5.561
 4662SOL    HW114885   2.598   0.432   5.552
 4662SOL    HW214886   2.705   0.320   5.604
 4663SOL     OW14887   0.314   0.812   1.671
 4663SOL    HW114888   0.348   0.906   1.669
 4663SOL    HW214889   0.388   0.750   1.694
 4664SOL     OW14890   1.162   0.777   0.333
 4664SOL    HW114891   1.066   0.783   0.306
 4664SOL    HW214892   1.167   0.759   0.431
 4665SOL     OW14893   3.269   0.019   6.210
 4665SOL    HW114894   3.302   7.000   6.294
 4665SOL    HW214895   3.171   0.033   6.216
 4666SOL     OW14896   2.182   2.970   0.120
 4666SOL    HW114897   2.084   2.982   0.134
 4666SOL    HW214898   2.201   2.963   0.022
 4667SOL     OW14899   6.381   3.863   1.602
 4667SOL    HW114900   6.413   3.954   1.630
 4667SOL    HW214901   6.292   3.845   1.643
 4668SOL     OW14902   4.747   1.555   3.981
 4668SOL    HW114903   4.739   1.456   3.969
 4668SOL    HW214904   4.741   1.578   4.078
 4669SOL     OW14905   5.110   5.931   6.889
 4669SOL    HW114906   5.090   5.876   6.970
 4669SOL    HW214907   5.204   5.963   6.892
 4670SOL     OW14908   0.882   2.576   6.101
 4670SOL    HW114909   0.852   2.618   6.015
 4670SOL    HW214910   0.979   2.555   6.095
 4671SOL     OW14911   0.681   3.253   6.526
 4671SOL    HW114912   0.641   3.264   6.617
 4671SOL    HW214913   0.620   3.294   6.458
 4672SOL     OW14914   2.812   4.957   6.724
 4672SOL    HW114915   2.802   4.937   6.626
 4672SOL    HW214916   2.910   4.965   6.746
 4673SOL     OW14917   5.104   0.424   1.265
 4673SOL    HW114918   5.028   0.478   1.301
 4673SOL    HW214919   5.100   0.332   1.303
 4674SOL     OW14920   5.172   1.385   0.022
 4674SOL    HW114921   5.105   1.350   0.088
 4674SOL    HW214922   5.227   1.456   0.065
 4675SOL     OW14923   3.355   1.030   0.513
 4675SOL    HW114924   3.256   1.032   0.503
 4675SOL    HW214925   3.399   1.061   0.429
 4676SOL     OW14926   0.155   6.743   4.263
 4676SOL    HW114927   0.150   6.811   4.190
 4676SOL    HW214928   0.246   6.744   4.303
 4677SOL     OW14929   2.852   0.866   0.234
 4677SOL    HW114930   2.822   0.950   0.190
 4677SOL    HW214931   2.906   0.812   0.169
 4678SOL     OW14932   2.038   4.609   2.575
 4678SOL    HW114933   1.970   4.551   2.621
 4678SOL    HW214934   2.129   4.571   2.590
 4679SOL     OW14935   3.947   1.417   0.154
 4679SOL    HW114936   4.022   1.360   0.188
 4679SOL    HW214937   3.873   1.418   0.220
 4680SOL     OW14938   1.749   0.358   2.209
 4680SOL    HW114939   1.689   0.437   2.192
 4680SOL    HW214940   1.695   0.274   2.209
 4681SOL     OW14941   5.954   5.341   5.618
 4681SOL    HW114942   5.889   5.286   5.671
 4681SOL    HW214943   5.924   5.436   5.616
 4682SOL     OW14944   4.249   4.073   6.197
 4682SOL    HW114945   4.306   4.152   6.219
 4682SOL    HW214946   4.157   4.086   6.235
 4683SOL     OW14947   4.704   4.588   2.384
 4683SOL    HW114948   4.777   4.524   2.362
 4683SOL    HW214949   4.619   4.537   2.400
 4684SOL     OW14950   6.881   1.588   4.270
 4684SOL    HW114951   6.970   1.575   4.313
 4684SOL    HW214952   6.820   1.638   4.332
 4685SOL     OW14953   0.254   6.319   5.234
 4685SOL    HW114954   0.260   6.220   5.226
 4685SOL    HW214955   0.343   6.355   5.263
 4686SOL     OW14956   5.337   5.612   0.350
 4686SOL    HW114957   5.319   5.631   0.254
 4686SOL    HW214958   5.434   5.589   0.362
 4687SOL     OW14959   7.021   4.830   5.415
 4687SOL    HW114960   0.004   4.876   5.326
 4687SOL    HW214961   6.998   4.734   5.401
 4688SOL     OW14962   6.609   3.529   5.477
 4688SOL    HW114963   6.637   3.530   5.573
 4688SOL    HW214964   6.626   3.439   5.438
 4689SOL     OW14965   6.398   0.413   0.085
 4689SOL    HW114966   6.384   0.411   7.009
 4689SOL    HW214967   6.355   0.332   0.126
 4690SOL     OW14968   1.537   0.958   6.999
 4690SOL    HW114969   1.482   1.039   6.978
 4690SOL    HW214970   1.481   0.891   0.025
 4691SOL     OW14971   3.022   4.855   2.046
 4691SOL    HW114972   3.000   4.771   1.997
 4691SOL    HW214973   2.965   4.861   2.128
 4692SOL     OW14974   6.659   5.779   2.414
 4692SOL    HW114975   6.580   5.788   2.473
 4692SOL    HW214976   6.741   5.810   2.462
 4693SOL     OW14977   0.732   0.916   3.533
 4693SOL    HW114978   0.729   0.825   3.492
 4693SOL    HW214979   0.640   0.957   3.531
 4694SOL     OW14980   3.280   0.619   0.404
 4694SOL    HW114981   3.258   0.684   0.477
 4694SOL    HW214982   3.339   0.547   0.441
 4695SOL     OW14983   2.740   3.162   1.809
 4695SOL    HW114984   2.657   3.191   1.761
 4695SOL    HW214985   2.738   3.062   1.819
 4696SOL     OW14986   0.333   4.379   5.607
 4696SOL    HW114987   0.339   4.459   5.546
 4696SOL    HW214988   0.238   4.365   5.634
 4697SOL     OW14989   1.969   2.717   0.992
 4697SOL    HW114990   1.992   2.795   0.935
 4697SOL    HW214991   1.993   2.632   0.944
 4698SOL     OW14992   3.697   5.787   2.818
 4698SOL    HW114993   3.644   5.703   2.807
 4698SOL    HW214994   3.747   5.783   2.905
 4699SOL     OW14995   1.009   6.119   2.289
 4699SOL    HW114996   1.083   6.122   2.221
 4699SOL    HW214997   0.921   6.116   2.241
 4700SOL     OW14998   6.421   1.619   2.684
 4700SOL    HW114999   6.510   1.639   2.644
 4700SOL    HW215000   6.407   1.520   2.684
 4701SOL     OW15001   1.928   1.965   1.285
 4701SOL    HW115002   1.870   1.915   1.349
 4701SOL    HW215003   1.882   1.971   1.196
 4702SOL     OW15004   5.825   4.666   6.643
 4702SOL    HW115005   5.919   4.635   6.630
 4702SOL    HW215006   5.789   4.627   6.728
 4703SOL     OW15007   1.288   2.714   1.896
 4703SOL    HW115008   1.382   2.732   1.867
 4703SOL    HW215009   1.238   2.669   1.821
 4704SOL     OW15010   1.375   6.693   0.064
 4704SOL    HW115011   1.287   6.711   0.021
 4704SOL    HW215012   1.448   6.720   0.002
 4705SOL     OW15013   3.812   3.342   2.566
 4705SOL    HW115014   3.828   3.265   2.504
 4705SOL    HW215015   3.897   3.364   2.614
 4706SOL     OW15016   3.738   6.602   6.478
 4706SOL    HW115017   3.815   6.656   6.514
 4706SOL    HW215018   3.658   6.661   6.468
 4707SOL     OW15019   2.313   5.602   0.715
 4707SOL    HW115020   2.373   5.660   0.660
 4707SOL    HW215021   2.257   5.659   0.775
 4708SOL     OW15022   1.400   2.645   6.513
 4708SOL    HW115023   1.310   2.688   6.508
 4708SOL    HW215024   1.426   2.635   6.609
 4709SOL     OW15025   4.047   5.499   5.084
 4709SOL    HW115026   3.978   5.571   5.090
 4709SOL    HW215027   4.071   5.484   4.988
 4710SOL     OW15028   3.812   1.254   5.948
 4710SOL    HW115029   3.796   1.160   5.979
 4710SOL    HW215030   3.787   1.318   6.021
 4711SOL     OW15031   5.334   0.669   1.883
 4711SOL    HW115032   5.420   0.617   1.885
 4711SOL    HW215033   5.281   0.642   1.802
 4712SOL     OW15034   3.123   4.027   0.508
 4712SOL    HW115035   3.147   4.004   0.414
 4712SOL    HW215036   3.047   3.970   0.538
 4713SOL     OW15037   3.099   4.029   1.238
 4713SOL    HW115038   3.005   4.053   1.213
 4713SOL    HW215039   3.105   4.022   1.338
 4714SOL     OW15040   1.748   2.519   0.164
 4714SOL    HW115041   1.838   2.498   0.126
 4714SOL    HW215042   1.686   2.443   0.147
 4715SOL     OW15043   6.673   3.078   1.811
 4715SOL    HW115044   6.702   3.030   1.728
 4715SOL    HW215045   6.737   3.057   1.885
 4716SOL     OW15046   4.223   6.014   6.333
 4716SOL    HW115047   4.158   6.064   6.389
 4716SOL    HW215048   4.178   5.935   6.291
 4717SOL     OW15049   0.269   6.757   3.437
 4717SOL    HW115050   0.240   6.852   3.421
 4717SOL    HW215051   0.274   6.740   3.536
 4718SOL     OW15052   5.312   2.149   6.776
 4718SOL    HW115053   5.215   2.171   6.789
 4718SOL    HW215054   5.322   2.089   6.697
 4719SOL     OW15055   5.107   3.259   2.403
 4719SOL    HW115056   5.043   3.326   2.440
 4719SOL    HW215057   5.088   3.245   2.306
 4720SOL     OW15058   2.033   5.768   5.743
 4720SOL    HW115059   1.965   5.779   5.671
 4720SOL    HW215060   2.105   5.836   5.731
 4721SOL     OW15061   6.876   2.624   1.003
 4721SOL    HW115062   6.959   2.605   0.951
 4721SOL    HW215063   6.844   2.540   1.048
 4722SOL     OW15064   1.024   5.335   6.706
 4722SOL    HW115065   1.118   5.366   6.724
 4722SOL    HW215066   0.959   5.400   6.745
 4723SOL     OW15067   2.170   4.604   6.297
 4723SOL    HW115068   2.250   4.616   6.356
 4723SOL    HW215069   2.092   4.575   6.353
 4724SOL     OW15070   4.973   5.941   2.973
 4724SOL    HW115071   4.911   5.998   3.027
 4724SOL    HW215072   5.066   5.952   3.007
 4725SOL     OW15073   6.591   6.620   2.261
 4725SOL    HW115074   6.637   6.708   2.263
 4725SOL    HW215075   6.586   6.583   2.354
 4726SOL     OW15076   2.188   3.092   6.530
 4726SOL    HW115077   2.259   3.037   6.486
 4726SOL    HW215078   2.111   3.103   6.468
 4727SOL     OW15079   0.346   6.397   6.736
 4727SOL    HW115080   0.378   6.479   6.784
 4727SOL    HW215081   0.291   6.424   6.658
 4728SOL     OW15082   5.085   0.570   0.326
 4728SOL    HW115083   5.094   0.651   0.384
 4728SOL    HW215084   5.125   0.490   0.373
 4729SOL     OW15085   2.472   1.440   1.817
 4729SOL    HW115086   2.399   1.372   1.819
 4729SOL    HW215087   2.534   1.419   1.741
 4730SOL     OW15088   2.597   5.489   5.233
 4730SOL    HW115089   2.561   5.547   5.161
 4730SOL    HW215090   2.675   5.437   5.199
 4731SOL     OW15091   4.297   0.288   6.030
 4731SOL    HW115092   4.226   0.237   6.080
 4731SOL    HW215093   4.327   0.365   6.086
 4732SOL     OW15094   0.200   4.005   5.504
 4732SOL    HW115095   0.144   4.068   5.451
 4732SOL    HW215096   0.285   4.051   5.530
 4733SOL     OW15097   1.587   4.222   3.463
 4733SOL    HW115098   1.580   4.128   3.496
 4733SOL    HW215099   1.496   4.255   3.438
 4734SOL     OW15100   5.160   2.748   6.660
 4734SOL    HW115101   5.196   2.723   6.750
 4734SOL    HW215102   5.193   2.683   6.592
 4735SOL     OW15103   1.162   5.897   4.137
 4735SOL    HW115104   1.146   5.969   4.205
 4735SOL    HW215105   1.249   5.852   4.156
 4736SOL     OW15106   0.215   1.593   6.158
 4736SOL    HW115107   0.154   1.523   6.193
 4736SOL    HW215108   0.223   1.668   6.223
 4737SOL     OW15109   1.249   4.851   2.203
 4737SOL    HW115110   1.181   4.924   2.205
 4737SOL    HW215111   1.335   4.885   2.241
 4738SOL     OW15112   0.054   5.750   2.840
 4738SOL    HW115113   6.979   5.761   2.855
 4738SOL    HW215114   0.103   5.786   2.920
 4739SOL     OW15115   4.910   6.689   3.449
 4739SOL    HW115116   4.861   6.639   3.377
 4739SOL    HW215117   4.922   6.629   3.528
 4740SOL     OW15118   0.386   1.548   0.826
 4740SOL    HW115119   0.317   1.494   0.777
 4740SOL    HW215120   0.475   1.503   0.817
 4741SOL     OW15121   3.503   3.125   1.299
 4741SOL    HW115122   3.539   3.032   1.292
 4741SOL    HW215123   3.425   3.126   1.361
 4742SOL     OW15124   2.393   6.360   5.083
 4742SOL    HW115125   2.355   6.268   5.091
 4742SOL    HW215126   2.322   6.427   5.106
 4743SOL     OW15127   2.303   4.197   2.980
 4743SOL    HW115128   2.289   4.118   3.039
 4743SOL    HW215129   2.342   4.166   2.893
 4744SOL     OW15130   1.949   5.023   0.984
 4744SOL    HW115131   2.013   5.072   0.925
 4744SOL    HW215132   1.984   5.020   1.077
 4745SOL     OW15133   2.930   4.374   6.513
 4745SOL    HW115134   3.012   4.323   6.485
 4745SOL    HW215135   2.949   4.423   6.598
 4746SOL     OW15136   4.412   6.608   3.856
 4746SOL    HW115137   4.407   6.688   3.916
 4746SOL    HW215138   4.399   6.525   3.911
 4747SOL     OW15139   1.019   3.674   0.385
 4747SOL    HW115140   1.037   3.736   0.309
 4747SOL    HW215141   1.056   3.712   0.470
 4748SOL     OW15142   1.779   5.833   1.139
 4748SOL    HW115143   1.694   5.786   1.166
 4748SOL    HW215144   1.814   5.885   1.217
 4749SOL     OW15145   1.856   6.470   6.632
 4749SOL    HW115146   1.924   6.397   6.626
 4749SOL    HW215147   1.892   6.552   6.587
 4750SOL     OW15148   6.790   3.379   5.158
 4750SOL    HW115149   6.806   3.405   5.063
 4750SOL    HW215150   6.857   3.424   5.217
 4751SOL     OW15151   4.554   2.510   2.812
 4751SOL    HW115152   4.611   2.579   2.767
 4751SOL    HW215153   4.521   2.445   2.744
 4752SOL     OW15154   4.467   0.991   6.980
 4752SOL    HW115155   4.371   0.989   7.005
 4752SOL    HW215156   4.492   0.906   6.934
 4753SOL     OW15157   0.586   0.462   3.933
 4753SOL    HW115158   0.554   0.454   4.027
 4753SOL    HW215159   0.508   0.453   3.871
 4754SOL     OW15160   5.232   3.896   4.561
 4754SOL    HW115161   5.327   3.909   4.587
 4754SOL    HW215162   5.207   3.800   4.575
 4755SOL     OW15163   3.077   1.269   0.401
 4755SOL    HW115164   3.104   1.324   0.479
 4755SOL    HW215165   3.030   1.326   0.333
 4756SOL     OW15166   5.734   3.674   5.482
 4756SOL    HW115167   5.710   3.616   5.404
 4756SOL    HW215168   5.791   3.622   5.545
 4757SOL     OW15169   2.173   2.080   1.559
 4757SOL    HW115170   2.095   2.094   1.499
 4757SOL    HW215171   2.142   2.046   1.648
 4758SOL     OW15172   1.605   6.497   2.932
 4758SOL    HW115173   1.529   6.554   2.964
 4758SOL    HW215174   1.654   6.460   3.011
 4759SOL     OW15175   0.869   4.687   6.280
 4759SOL    HW115176   0.910   4.750   6.214
 4759SOL    HW215177   0.901   4.709   6.372
 4760SOL     OW15178   2.589   1.567   0.528
 4760SOL    HW115179   2.577   1.645   0.467
 4760SOL    HW215180   2.499   1.534   0.558
 4761SOL     OW15181   1.545   0.403   0.829
 4761SOL    HW115182   1.513   0.314   0.798
 4761SOL    HW215183   1.554   0.403   0.929
 4762SOL     OW15184   1.279   5.692   2.682
 4762SOL    HW115185   1.193   5.657   2.719
 4762SOL    HW215186   1.264   5.721   2.587
 4763SOL     OW15187   5.601   0.789   2.470
 4763SOL    HW115188   5.538   0.717   2.442
 4763SOL    HW215189   5.564   0.838   2.548
 4764SOL     OW15190   4.386   3.666   5.296
 4764SOL    HW115191   4.477   3.663   5.254
 4764SOL    HW215192   4.331   3.590   5.262
 4765SOL     OW15193   3.713   0.968   5.252
 4765SOL    HW115194   3.665   1.027   5.188
 4765SOL    HW215195   3.647   0.919   5.310
 4766SOL     OW15196   6.187   5.926   4.273
 4766SOL    HW115197   6.228   5.840   4.305
 4766SOL    HW215198   6.088   5.918   4.275
 4767SOL     OW15199   3.491   4.814   5.245
 4767SOL    HW115200   3.475   4.719   5.270
 4767SOL    HW215201   3.589   4.833   5.246
 4768SOL     OW15202   3.582   2.627   6.030
 4768SOL    HW115203   3.561   2.635   6.127
 4768SOL    HW215204   3.680   2.612   6.018
 4769SOL     OW15205   4.517   5.655   0.513
 4769SOL    HW115206   4.545   5.720   0.584
 4769SOL    HW215207   4.418   5.642   0.516
 4770SOL     OW15208   0.490   2.237   4.391
 4770SOL    HW115209   0.545   2.190   4.461
 4770SOL    HW215210   0.527   2.329   4.377
 4771SOL     OW15211   3.094   6.704   6.431
 4771SOL    HW115212   3.183   6.732   6.395
 4771SOL    HW215213   3.050   6.642   6.366
 4772SOL     OW15214   3.626   4.564   0.548
 4772SOL    HW115215   3.642   4.629   0.623
 4772SOL    HW215216   3.647   4.608   0.461
 4773SOL     OW15217   0.451   5.413   5.542
 4773SOL    HW115218   0.539   5.384   5.579
 4773SOL    HW215219   0.465   5.479   5.468
 4774SOL     OW15220   1.643   3.851   1.250
 4774SOL    HW115221   1.597   3.767   1.221
 4774SOL    HW215222   1.604   3.883   1.337
 4775SOL     OW15223   5.096   6.310   3.551
 4775SOL    HW115224   5.091   6.311   3.651
 4775SOL    HW215225   5.161   6.240   3.522
 4776SOL     OW15226   0.872   1.328   5.166
 4776SOL    HW115227   0.887   1.365   5.075
 4776SOL    HW215228   0.947   1.266   5.190
 4777SOL     OW15229   1.849   5.439   0.942
 4777SOL    HW115230   1.788   5.512   0.913
 4777SOL    HW215231   1.834   5.419   1.039
 4778SOL     OW15232   0.068   2.601   4.716
 4778SOL    HW115233   0.056   2.700   4.714
 4778SOL    HW215234   0.059   2.568   4.809
 4779SOL     OW15235   5.360   0.136   3.470
 4779SOL    HW115236   5.426   0.063   3.483
 4779SOL    HW215237   5.326   0.135   3.376
 4780SOL     OW15238   5.975   2.519   6.761
 4780SOL    HW115239   6.007   2.543   6.669
 4780SOL    HW215240   6.050   2.482   6.815
 4781SOL     OW15241   2.781   5.293   1.899
 4781SOL    HW115242   2.693   5.259   1.866
 4781SOL    HW215243   2.771   5.324   1.994
 4782SOL     OW15244   6.051   5.667   6.485
 4782SOL    HW115245   6.088   5.655   6.393
 4782SOL    HW215246   5.960   5.627   6.490
 4783SOL     OW15247   5.607   3.385   6.765
 4783SOL    HW115248   5.641   3.434   6.685
 4783SOL    HW215249   5.681   3.330   6.804
 4784SOL     OW15250   6.161   2.297   6.438
 4784SOL    HW115251   6.200   2.353   6.365
 4784SOL    HW215252   6.233   2.244   6.482
 4785SOL     OW15253   0.131   6.320   2.815
 4785SOL    HW115254   0.215   6.343   2.864
 4785SOL    HW215255   0.052   6.353   2.867
 4786SOL     OW15256   2.426   6.886   0.244
 4786SOL    HW115257   2.384   6.802   0.279
 4786SOL    HW215258   2.525   6.873   0.238
 4787SOL     OW15259   3.576   1.847   3.141
 4787SOL    HW115260   3.567   1.901   3.225
 4787SOL    HW215261   3.487   1.842   3.095
 4788SOL     OW15262   6.949   5.947   0.800
 4788SOL    HW115263   6.888   5.919   0.874
 4788SOL    HW215264   0.019   5.916   0.820
 4789SOL     OW15265   5.261   1.715   1.548
 4789SOL    HW115266   5.181   1.688   1.601
 4789SOL    HW215267   5.294   1.637   1.495
 4790SOL     OW15268   5.758   1.938   5.830
 4790SOL    HW115269   5.808   1.892   5.757
 4790SOL    HW215270   5.809   2.019   5.859
 4791SOL     OW15271   0.308   2.827   1.690
 4791SOL    HW115272   0.376   2.754   1.688
 4791SOL    HW215273   0.244   2.812   1.765
 4792SOL     OW15274   2.408   4.395   4.489
 4792SOL    HW115275   2.418   4.303   4.526
 4792SOL    HW215276   2.355   4.391   4.404
 4793SOL     OW15277   1.879   3.920   5.212
 4793SOL    HW115278   1.787   3.933   5.174
 4793SOL    HW215279   1.943   3.981   5.166
 4794SOL     OW15280   4.564   6.891   4.539
 4794SOL    HW115281   4.649   6.842   4.520
 4794SOL    HW215282   4.511   6.840   4.607
 4795SOL     OW15283   6.545   1.178   4.176
 4795SOL    HW115284   6.616   1.243   4.151
 4795SOL    HW215285   6.564   1.139   4.266
 4796SOL     OW15286   4.350   0.489   6.216
 4796SOL    HW115287   4.290   0.471   6.294
 4796SOL    HW215288   4.346   0.586   6.192
 4797SOL     OW15289   0.483   6.422   4.333
 4797SOL    HW115290   0.453   6.517   4.326
 4797SOL    HW215291   0.549   6.413   4.408
 4798SOL     OW15292   6.711   5.048   5.401
 4798SOL    HW115293   6.734   4.996   5.483
 4798SOL    HW215294   6.613   5.068   5.400
 4799SOL     OW15295   4.711   1.276   0.676
 4799SOL    HW115296   4.756   1.356   0.635
 4799SOL    HW215297   4.670   1.220   0.603
 4800SOL     OW15298   1.558   4.335   6.893
 4800SOL    HW115299   1.572   4.372   6.985
 4800SOL    HW215300   1.469   4.365   6.859
 4801SOL     OW15301   3.181   2.498   6.581
 4801SOL    HW115302   3.206   2.588   6.618
 4801SOL    HW215303   3.221   2.426   6.637
 4802SOL     OW15304   0.344   6.560   1.583
 4802SOL    HW115305   0.307   6.634   1.528
 4802SOL    HW215306   0.272   6.493   1.603
 4803SOL     OW15307   7.001   4.002   1.012
 4803SOL    HW115308   0.031   4.040   1.088
 4803SOL    HW215309   6.935   3.936   1.047
 4804SOL     OW15310   0.006   6.725   1.126
 4804SOL    HW115311   7.010   6.676   1.211
 4804SOL    HW215312   0.103   6.749   1.123
 4805SOL     OW15313   6.534   1.373   2.299
 4805SOL    HW115314   6.595   1.423   2.238
 4805SOL    HW215315   6.477   1.439   2.350
 4806SOL     OW15316   0.820   3.975   2.944
 4806SOL    HW115317   0.782   3.885   2.967
 4806SOL    HW215318   0.810   4.037   3.022
 4807SOL     OW15319   0.599   4.288   6.032
 4807SOL    HW115320   0.668   4.358   6.053
 4807SOL    HW215321   0.574   4.240   6.116
 4808SOL     OW15322   4.145   5.231   0.942
 4808SOL    HW115323   4.099   5.315   0.912
 4808SOL    HW215324   4.244   5.246   0.941
 4809SOL     OW15325   3.707   4.869   1.254
 4809SOL    HW115326   3.671   4.845   1.345
 4809SOL    HW215327   3.676   4.801   1.187
 4810SOL     OW15328   1.722   4.356   3.193
 4810SOL    HW115329   1.769   4.281   3.146
 4810SOL    HW215330   1.788   4.430   3.210
 4811SOL     OW15331   3.925   3.624   2.844
 4811SOL    HW115332   3.848   3.611   2.781
 4811SOL    HW215333   3.934   3.722   2.865
 4812SOL     OW15334   0.604   0.727   2.514
 4812SOL    HW115335   0.568   0.795   2.450
 4812SOL    HW215336   0.539   0.652   2.523
 4813SOL     OW15337   5.880   1.719   6.640
 4813SOL    HW115338   5.864   1.628   6.603
 4813SOL    HW215339   5.802   1.778   6.617
 4814SOL     OW15340   6.813   3.340   1.632
 4814SOL    HW115341   6.860   3.401   1.695
 4814SOL    HW215342   6.841   3.245   1.650
 4815SOL     OW15343   5.462   4.298   3.051
 4815SOL    HW115344   5.399   4.372   3.075
 4815SOL    HW215345   5.556   4.331   3.055
 4816SOL     OW15346   2.189   5.566   1.311
 4816SOL    HW115347   2.166   5.553   1.215
 4816SOL    HW215348   2.246   5.648   1.321
 4817SOL     OW15349   2.756   0.886   1.561
 4817SOL    HW115350   2.785   0.974   1.523
 4817SOL    HW215351   2.814   0.864   1.640
 4818SOL     OW15352   0.717   1.268   3.935
 4818SOL    HW115353   0.622   1.288   3.909
 4818SOL    HW215354   0.744   1.180   3.896
 4819SOL     OW15355   2.662   2.593   1.633
 4819SOL    HW115356   2.669   2.577   1.731
 4819SOL    HW215357   2.657   2.506   1.585
 4820SOL     OW15358   6.617   1.957   0.248
 4820SOL    HW115359   6.534   1.905   0.229
 4820SOL    HW215360   6.693   1.920   0.194
 4821SOL     OW15361   0.058   0.210   1.092
 4821SOL    HW115362   7.022   0.131   1.074
 4821SOL    HW215363   0.094   0.204   1.185
 4822SOL     OW15364   1.851   3.131   3.532
 4822SOL    HW115365   1.907   3.117   3.613
 4822SOL    HW215366   1.856   3.050   3.473
 4823SOL     OW15367   0.449   1.623   4.133
 4823SOL    HW115368   0.533   1.648   4.182
 4823SOL    HW215369   0.473   1.582   4.045
 4824SOL     OW15370   5.679   1.980   4.073
 4824SOL    HW115371   5.588   1.946   4.049
 4824SOL    HW215372   5.704   1.947   4.164
 4825SOL     OW15373   2.046   2.783   4.243
 4825SOL    HW115374   2.145   2.791   4.257
 4825SOL    HW215375   2.026   2.694   4.202
 4826SOL     OW15376   0.401   0.505   6.492
 4826SOL    HW115377   0.375   0.528   6.586
 4826SOL    HW215378   0.357   0.568   6.429
 4827SOL     OW15379   5.806   1.193   1.656
 4827SOL    HW115380   5.772   1.106   1.622
 4827SOL    HW215381   5.743   1.266   1.629
 4828SOL     OW15382   5.659   3.184   0.918
 4828SOL    HW115383   5.721   3.226   0.851
 4828SOL    HW215384   5.607   3.111   0.873
 4829SOL     OW15385   3.999   6.496   6.896
 4829SOL    HW115386   4.008   6.557   6.975
 4829SOL    HW215387   3.914   6.516   6.848
 4830SOL     OW15388   5.304   5.982   3.797
 4830SOL    HW115389   5.369   6.054   3.775
 4830SOL    HW215390   5.345   5.921   3.865
 4831SOL     OW15391   6.815   5.305   5.945
 4831SOL    HW115392   6.824   5.348   6.035
 4831SOL    HW215393   6.869   5.356   5.878
 4832SOL     OW15394   2.546   2.644   5.542
 4832SOL    HW115395   2.541   2.565   5.480
 4832SOL    HW215396   2.538   2.728   5.489
 4833SOL     OW15397   5.059   1.051   2.955
 4833SOL    HW115398   5.126   0.996   3.005
 4833SOL    HW215399   5.105   1.101   2.881
 4834SOL     OW15400   3.770   0.655   0.447
 4834SOL    HW115401   3.860   0.665   0.489
 4834SOL    HW215402   3.699   0.666   0.516
 4835SOL     OW15403   1.184   1.342   6.347
 4835SOL    HW115404   1.155   1.252   6.379
 4835SOL    HW215405   1.151   1.355   6.253
 4836SOL     OW15406   4.935   3.250   3.563
 4836SOL    HW115407   4.956   3.243   3.466
 4836SOL    HW215408   4.967   3.338   3.598
 4837SOL     OW15409   4.665   3.309   1.536
 4837SOL    HW115410   4.711   3.387   1.579
 4837SOL    HW215411   4.702   3.224   1.573
 4838SOL     OW15412   1.709   5.269   1.873
 4838SOL    HW115413   1.751   5.178   1.872
 4838SOL    HW215414   1.625   5.267   1.926
 4839SOL     OW15415   1.424   3.604   5.566
 4839SOL    HW115416   1.336   3.612   5.612
 4839SOL    HW215417   1.417   3.642   5.474
 4840SOL     OW15418   0.805   6.572   5.428
 4840SOL    HW115419   0.812   6.630   5.509
 4840SOL    HW215420   0.742   6.614   5.362
 4841SOL     OW15421   2.675   6.066   1.422
 4841SOL    HW115422   2.767   6.051   1.458
 4841SOL    HW215423   2.611   6.005   1.469
 4842SOL     OW15424   3.253   4.836   1.901
 4842SOL    HW115425   3.176   4.822   1.962
 4842SOL    HW215426   3.330   4.781   1.930
 4843SOL     OW15427   5.873   3.476   0.486
 4843SOL    HW115428   5.953   3.417   0.501
 4843SOL    HW215429   5.861   3.492   0.388
 4844SOL     OW15430   6.537   3.422   5.843
 4844SOL    HW115431   6.582   3.383   5.763
 4844SOL    HW215432   6.605   3.447   5.911
 4845SOL     OW15433   6.759   5.886   4.553
 4845SOL    HW115434   6.684   5.925   4.607
 4845SOL    HW215435   6.806   5.817   4.608
 4846SOL     OW15436   6.930   3.458   3.295
 4846SOL    HW115437   6.840   3.477   3.256
 4846SOL    HW215438   6.959   3.537   3.351
 4847SOL     OW15439   3.239   1.281   5.693
 4847SOL    HW115440   3.327   1.300   5.649
 4847SOL    HW215441   3.203   1.194   5.659
 4848SOL     OW15442   1.384   1.172   3.745
 4848SOL    HW115443   1.336   1.085   3.734
 4848SOL    HW215444   1.344   1.222   3.822
 4849SOL     OW15445   1.224   6.303   6.217
 4849SOL    HW115446   1.222   6.206   6.242
 4849SOL    HW215447   1.158   6.320   6.144
 4850SOL     OW15448   4.252   1.312   2.795
 4850SOL    HW115449   4.271   1.280   2.888
 4850SOL    HW215450   4.257   1.411   2.792
 4851SOL     OW15451   3.830   5.998   5.160
 4851SOL    HW115452   3.772   5.997   5.241
 4851SOL    HW215453   3.871   6.089   5.150
 4852SOL     OW15454   0.715   0.479   5.413
 4852SOL    HW115455   0.670   0.414   5.352
 4852SOL    HW215456   0.709   0.446   5.507
 4853SOL     OW15457   2.992   1.220   2.885
 4853SOL    HW115458   2.951   1.280   2.954
 4853SOL    HW215459   2.973   1.257   2.794
 4854SOL     OW15460   5.378   0.120   2.464
 4854SOL    HW115461   5.316   0.190   2.428
 4854SOL    HW215462   5.338   0.081   2.547
 4855SOL     OW15463   5.778   2.726   2.463
 4855SOL    HW115464   5.773   2.821   2.433
 4855SOL    HW215465   5.828   2.721   2.550
 4856SOL     OW15466   1.970   4.130   2.275
 4856SOL    HW115467   2.021   4.056   2.318
 4856SOL    HW215468   1.892   4.155   2.333
 4857SOL     OW15469   1.902   2.836   5.920
 4857SOL    HW115470   1.871   2.885   5.838
 4857SOL    HW215471   1.927   2.743   5.895
 4858SOL     OW15472   1.022   1.508   4.785
 4858SOL    HW115473   0.971   1.585   4.748
 4858SOL    HW215474   0.965   1.426   4.785
 4859SOL     OW15475   1.475   0.815   4.380
 4859SOL    HW115476   1.551   0.765   4.338
 4859SOL    HW215477   1.468   0.790   4.477
 4860SOL     OW15478   4.099   4.700   1.667
 4860SOL    HW115479   4.004   4.667   1.670
 4860SOL    HW215480   4.126   4.714   1.573
 4861SOL     OW15481   5.112   4.683   0.387
 4861SOL    HW115482   5.110   4.606   0.451
 4861SOL    HW215483   5.097   4.650   0.294
 4862SOL     OW15484   2.988   4.915   4.965
 4862SOL    HW115485   3.066   4.899   5.026
 4862SOL    HW215486   2.926   4.837   4.969
 4863SOL     OW15487   5.946   4.156   2.153
 4863SOL    HW115488   5.942   4.150   2.053
 4863SOL    HW215489   5.971   4.067   2.191
 4864SOL     OW15490   3.926   1.202   3.548
 4864SOL    HW115491   3.935   1.113   3.503
 4864SOL    HW215492   3.861   1.195   3.623
 4865SOL     OW15493   2.379   0.569   5.428
 4865SOL    HW115494   2.436   0.621   5.365
 4865SOL    HW215495   2.333   0.631   5.491
 4866SOL     OW15496   0.054   2.306   0.726
 4866SOL    HW115497   0.146   2.287   0.761
 4866SOL    HW215498   0.050   2.401   0.696
 4867SOL     OW15499   3.916   4.800   2.980
 4867SOL    HW115500   3.957   4.741   3.049
 4867SOL    HW215501   3.971   4.883   2.969
 4868SOL     OW15502   6.504   5.157   2.530
 4868SOL    HW115503   6.444   5.209   2.590
 4868SOL    HW215504   6.449   5.103   2.466
 4869SOL     OW15505   1.313   1.787   2.303
 4869SOL    HW115506   1.368   1.870   2.315
 4869SOL    HW215507   1.217   1.812   2.295
 4870SOL     OW15508   0.703   6.296   1.902
 4870SOL    HW115509   0.644   6.348   1.840
 4870SOL    HW215510   0.657   6.212   1.928
 4871SOL     OW15511   1.643   1.082   3.847
 4871SOL    HW115512   1.653   1.003   3.787
 4871SOL    HW215513   1.563   1.135   3.819
 4872SOL     OW15514   6.028   0.207   3.644
 4872SOL    HW115515   5.999   0.127   3.696
 4872SOL    HW215516   6.092   0.179   3.573
 4873SOL     OW15517   6.498   5.254   4.294
 4873SOL    HW115518   6.429   5.276   4.363
 4873SOL    HW215519   6.456   5.261   4.203
 4874SOL     OW15520   6.013   3.930   2.277
 4874SOL    HW115521   5.939   3.871   2.308
 4874SOL    HW215522   6.058   3.889   2.199
 4875SOL     OW15523   5.830   1.968   0.717
 4875SOL    HW115524   5.780   1.917   0.647
 4875SOL    HW215525   5.910   1.916   0.747
 4876SOL     OW15526   6.064   2.509   2.872
 4876SOL    HW115527   6.120   2.524   2.953
 4876SOL    HW215528   5.996   2.438   2.891
 4877SOL     OW15529   1.544   2.141   5.866
 4877SOL    HW115530   1.517   2.048   5.890
 4877SOL    HW215531   1.507   2.164   5.776
 4878SOL     OW15532   6.198   0.762   1.868
 4878SOL    HW115533   6.129   0.832   1.890
 4878SOL    HW215534   6.168   0.674   1.904
 4879SOL     OW15535   4.710   1.534   2.878
 4879SOL    HW115536   4.646   1.562   2.950
 4879SOL    HW215537   4.659   1.491   2.803
 4880SOL     OW15538   5.350   3.019   6.980
 4880SOL    HW115539   5.337   3.102   6.925
 4880SOL    HW215540   5.261   2.981   7.003
 4881SOL     OW15541   1.394   1.408   6.910
 4881SOL    HW115542   1.338   1.491   6.916
 4881SOL    HW215543   1.412   1.386   6.814
 4882SOL     OW15544   4.592   0.481   4.629
 4882SOL    HW115545   4.612   0.384   4.612
 4882SOL    HW215546   4.509   0.506   4.580
 4883SOL     OW15547   5.082   4.716   1.448
 4883SOL    HW115548   5.172   4.705   1.406
 4883SOL    HW215549   5.011   4.699   1.380
 4884SOL     OW15550   3.015   6.170   1.751
 4884SOL    HW115551   2.956   6.124   1.684
 4884SOL    HW215552   3.110   6.144   1.734
 4885SOL     OW15553   2.075   5.315   1.352
 4885SOL    HW115554   2.085   5.323   1.451
 4885SOL    HW215555   2.091   5.404   1.309
 4886SOL     OW15556   1.559   5.945   1.471
 4886SOL    HW115557   1.583   5.908   1.561
 4886SOL    HW215558   1.586   6.041   1.466
 4887SOL     OW15559   0.280   0.025   1.475
 4887SOL    HW115560   0.330   0.040   1.560
 4887SOL    HW215561   0.186   7.020   1.497
 4888SOL     OW15562   3.041   0.407   4.551
 4888SOL    HW115563   2.981   0.334   4.518
 4888SOL    HW215564   3.003   0.496   4.527
 4889SOL     OW15565   6.707   1.694   5.271
 4889SOL    HW115566   6.619   1.661   5.305
 4889SOL    HW215567   6.756   1.619   5.226
 4890SOL     OW15568   0.157   1.173   5.912
 4890SOL    HW115569   0.234   1.133   5.961
 4890SOL    HW215570   0.072   1.144   5.955
 4891SOL     OW15571   1.673   4.812   0.194
 4891SOL    HW115572   1.688   4.904   0.159
 4891SOL    HW215573   1.755   4.781   0.244
 4892SOL     OW15574   3.226   5.486   2.147
 4892SOL    HW115575   3.315   5.446   2.169
 4892SOL    HW215576   3.175   5.501   2.232
 4893SOL     OW15577   6.517   2.638   1.636
 4893SOL    HW115578   6.538   2.633   1.539
 4893SOL    HW215579   6.418   2.644   1.648
 4894SOL     OW15580   3.351   0.743   2.680
 4894SOL    HW115581   3.291   0.794   2.742
 4894SOL    HW215582   3.311   0.743   2.588
 4895SOL     OW15583   0.859   5.059   4.482
 4895SOL    HW115584   0.853   5.018   4.391
 4895SOL    HW215585   0.769   5.093   4.510
 4896SOL     OW15586   2.030   4.420   1.719
 4896SOL    HW115587   1.985   4.451   1.803
 4896SOL    HW215588   2.077   4.333   1.736
 4897SOL     OW15589   1.988   4.414   5.710
 4897SOL    HW115590   2.070   4.404   5.654
 4897SOL    HW215591   1.922   4.474   5.664
 4898SOL     OW15592   4.275   0.785   4.421
 4898SOL    HW115593   4.321   0.790   4.510
 4898SOL    HW215594   4.307   0.860   4.363
 4899SOL     OW15595   5.598   5.473   2.910
 4899SOL    HW115596   5.580   5.450   2.814
 4899SOL    HW215597   5.529   5.430   2.968
 4900SOL     OW15598   2.947   6.306   5.356
 4900SOL    HW115599   3.027   6.251   5.378
 4900SOL    HW215600   2.918   6.357   5.437
 4901SOL     OW15601   2.765   1.360   5.401
 4901SOL    HW115602   2.847   1.417   5.397
 4901SOL    HW215603   2.780   1.277   5.347
 4902SOL     OW15604   2.017   1.845   5.070
 4902SOL    HW115605   1.969   1.864   5.155
 4902SOL    HW215606   1.952   1.846   4.994
 4903SOL     OW15607   3.684   5.699   0.503
 4903SOL    HW115608   3.658   5.762   0.430
 4903SOL    HW215609   3.692   5.748   0.589
 4904SOL     OW15610   2.494   0.338   5.109
 4904SOL    HW115611   2.561   0.322   5.181
 4904SOL    HW215612   2.482   0.437   5.096
 4905SOL     OW15613   3.442   0.710   3.169
 4905SOL    HW115614   3.456   0.644   3.094
 4905SOL    HW215615   3.501   0.789   3.154
 4906SOL     OW15616   5.118   1.538   6.624
 4906SOL    HW115617   5.084   1.444   6.623
 4906SOL    HW215618   5.098   1.580   6.712
 4907SOL     OW15619   4.207   6.584   2.061
 4907SOL    HW115620   4.144   6.551   1.991
 4907SOL    HW215621   4.235   6.507   2.119
 4908SOL     OW15622   5.853   6.247   0.304
 4908SOL    HW115623   5.848   6.173   0.236
 4908SOL    HW215624   5.809   6.329   0.266
 4909SOL     OW15625   0.323   6.533   3.857
 4909SOL    HW115626   0.249   6.600   3.852
 4909SOL    HW215627   0.287   6.442   3.838
 4910SOL     OW15628   4.993   1.199   4.761
 4910SOL    HW115629   4.976   1.297   4.771
 4910SOL    HW215630   5.032   1.164   4.846
 4911SOL     OW15631   1.579   3.919   3.081
 4911SOL    HW115632   1.618   3.974   3.155
 4911SOL    HW215633   1.516   3.975   3.027
 4912SOL     OW15634   5.562   0.993   5.899
 4912SOL    HW115635   5.539   1.085   5.930
 4912SOL    HW215636   5.546   0.986   5.801
 4913SOL     OW15637   3.830   3.475   5.232
 4913SOL    HW115638   3.901   3.509   5.294
 4913SOL    HW215639   3.772   3.551   5.203
 4914SOL     OW15640   3.789   6.959   4.961
 4914SOL    HW115641   3.744   6.876   4.928
 4914SOL    HW215642   3.798   0.002   4.887
 4915SOL     OW15643   3.118   5.932   5.752
 4915SOL    HW115644   3.200   5.904   5.802
 4915SOL    HW215645   3.037   5.911   5.807
 4916SOL     OW15646   1.343   0.459   3.974
 4916SOL    HW115647   1.411   0.532   3.961
 4916SOL    HW215648   1.277   0.461   3.900
 4917SOL     OW15649   2.441   5.277   1.378
 4917SOL    HW115650   2.506   5.221   1.431
 4917SOL    HW215651   2.362   5.222   1.352
 4918SOL     OW15652   5.057   6.312   2.469
 4918SOL    HW115653   5.017   6.239   2.414
 4918SOL    HW215654   4.990   6.385   2.481
 4919SOL     OW15655   3.456   2.406   0.669
 4919SOL    HW115656   3.397   2.470   0.718
 4919SOL    HW215657   3.458   2.429   0.572
 4920SOL     OW15658   5.414   6.961   4.625
 4920SOL    HW115659   5.347   6.943   4.552
 4920SOL    HW215660   5.368   7.007   4.700
 4921SOL     OW15661   0.809   5.160   0.231
 4921SOL    HW115662   0.766   5.247   0.254
 4921SOL    HW215663   0.866   5.171   0.150
 4922SOL     OW15664   2.935   2.169   4.870
 4922SOL    HW115665   2.927   2.082   4.918
 4922SOL    HW215666   3.017   2.217   4.902
 4923SOL     OW15667   3.735   1.579   2.649
 4923SOL    HW115668   3.799   1.656   2.641
 4923SOL    HW215669   3.725   1.535   2.560
 4924SOL     OW15670   3.576   1.147   5.102
 4924SOL    HW115671   3.489   1.097   5.106
 4924SOL    HW215672   3.582   1.195   5.014
 4925SOL     OW15673   6.214   6.898   2.251
 4925SOL    HW115674   6.151   6.906   2.328
 4925SOL    HW215675   6.251   6.805   2.248
 4926SOL     OW15676   5.137   1.147   0.870
 4926SOL    HW115677   5.188   1.064   0.892
 4926SOL    HW215678   5.041   1.125   0.857
 4927SOL     OW15679   3.510   3.859   4.563
 4927SOL    HW115680   3.492   3.846   4.660
 4927SOL    HW215681   3.505   3.771   4.516
 4928SOL     OW15682   1.840   0.107   6.936
 4928SOL    HW115683   1.935   0.101   6.906
 4928SOL    HW215684   1.836   0.104   0.013
 4929SOL     OW15685   6.638   6.883   4.591
 4929SOL    HW115686   6.550   6.919   4.622
 4929SOL    HW215687   6.623   6.800   4.538
 4930SOL     OW15688   5.620   0.918   2.881
 4930SOL    HW115689   5.590   0.979   2.807
 4930SOL    HW215690   5.637   0.972   2.963
 4931SOL     OW15691   6.880   6.852   0.781
 4931SOL    HW115692   6.954   6.918   0.783
 4931SOL    HW215693   6.797   6.894   0.818
 4932SOL     OW15694   3.684   2.973   1.587
 4932SOL    HW115695   3.772   3.020   1.577
 4932SOL    HW215696   3.689   2.907   1.662
 4933SOL     OW15697   2.179   6.528   2.220
 4933SOL    HW115698   2.276   6.530   2.196
 4933SOL    HW215699   2.159   6.604   2.283
 4934SOL     OW15700   3.238   5.303   3.126
 4934SOL    HW115701   3.179   5.231   3.089
 4934SOL    HW215702   3.298   5.337   3.054
 4935SOL     OW15703   1.546   2.188   6.491
 4935SOL    HW115704   1.493   2.157   6.570
 4935SOL    HW215705   1.613   2.118   6.466
 4936SOL     OW15706   3.081   5.213   1.362
 4936SOL    HW115707   3.179   5.236   1.369
 4936SOL    HW215708   3.070   5.136   1.299
 4937SOL     OW15709   5.649   3.181   5.863
 4937SOL    HW115710   5.700   3.096   5.852
 4937SOL    HW215711   5.686   3.234   5.940
 4938SOL     OW15712   1.884   5.208   5.843
 4938SOL    HW115713   1.932   5.296   5.837
 4938SOL    HW215714   1.921   5.155   5.919
 4939SOL     OW15715   5.828   2.299   4.584
 4939SOL    HW115716   5.871   2.236   4.519
 4939SOL    HW215717   5.729   2.300   4.570
 4940SOL     OW15718   0.385   1.201   4.671
 4940SOL    HW115719   0.400   1.180   4.574
 4940SOL    HW215720   0.446   1.147   4.727
 4941SOL     OW15721   4.594   1.961   5.832
 4941SOL    HW115722   4.665   2.026   5.805
 4941SOL    HW215723   4.517   1.966   5.768
 4942SOL     OW15724   5.070   2.730   5.799
 4942SOL    HW115725   5.030   2.650   5.844
 4942SOL    HW215726   5.104   2.794   5.868
 4943SOL     OW15727   4.551   3.425   6.779
 4943SOL    HW115728   4.574   3.338   6.823
 4943SOL    HW215729   4.624   3.491   6.794
 4944SOL     OW15730   2.143   4.168   1.806
 4944SOL    HW115731   2.232   4.199   1.839
 4944SOL    HW215732   2.084   4.146   1.884
 4945SOL     OW15733   0.970   1.026   3.856
 4945SOL    HW115734   1.031   1.017   3.935
 4945SOL    HW215735   1.025   1.022   3.772
 4946SOL     OW15736   0.641   3.315   0.598
 4946SOL    HW115737   0.553   3.272   0.617
 4946SOL    HW215738   0.666   3.299   0.502
 4947SOL     OW15739   2.040   1.022   1.563
 4947SOL    HW115740   2.003   0.933   1.537
 4947SOL    HW215741   2.133   1.010   1.599
 4948SOL     OW15742   2.064   1.568   2.734
 4948SOL    HW115743   2.101   1.495   2.676
 4948SOL    HW215744   1.965   1.562   2.735
 4949SOL     OW15745   4.247   6.433   6.652
 4949SOL    HW115746   4.197   6.354   6.616
 4949SOL    HW215747   4.188   6.483   6.716
 4950SOL     OW15748   3.119   5.425   4.362
 4950SOL    HW115749   3.168   5.347   4.323
 4950SOL    HW215750   3.058   5.393   4.435
 4951SOL     OW15751   4.993   1.516   4.746
 4951SOL    HW115752   5.058   1.575   4.696
 4951SOL    HW215753   4.983   1.550   4.839
 4952SOL     OW15754   7.002   0.871   4.996
 4952SOL    HW115755   0.023   0.843   4.910
 4952SOL    HW215756   0.041   0.853   5.072
 4953SOL     OW15757   2.035   6.524   1.978
 4953SOL    HW115758   1.946   6.526   2.024
 4953SOL    HW215759   2.108   6.523   2.046
 4954SOL     OW15760   4.338   4.023   6.679
 4954SOL    HW115761   4.269   4.081   6.637
 4954SOL    HW215762   4.307   3.928   6.679
 4955SOL     OW15763   2.499   6.424   6.674
 4955SOL    HW115764   2.406   6.444   6.704
 4955SOL    HW215765   2.496   6.365   6.593
 4956SOL     OW15766   2.662   6.693   5.138
 4956SOL    HW115767   2.648   6.600   5.105
 4956SOL    HW215768   2.644   6.758   5.064
 4957SOL     OW15769   6.694   1.937   2.661
 4957SOL    HW115770   6.736   1.874   2.726
 4957SOL    HW215771   6.678   1.890   2.575
 4958SOL     OW15772   6.824   5.979   5.314
 4958SOL    HW115773   6.793   6.055   5.256
 4958SOL    HW215774   6.757   5.963   5.386
 4959SOL     OW15775   6.732   1.700   6.684
 4959SOL    HW115776   6.706   1.796   6.678
 4959SOL    HW215777   6.792   1.676   6.608
 4960SOL     OW15778   3.434   5.533   3.447
 4960SOL    HW115779   3.417   5.612   3.388
 4960SOL    HW215780   3.531   5.531   3.472
 4961SOL     OW15781   4.865   1.686   5.485
 4961SOL    HW115782   4.767   1.683   5.465
 4961SOL    HW215783   4.886   1.769   5.537
 4962SOL     OW15784   6.170   2.833   0.709
 4962SOL    HW115785   6.075   2.827   0.740
 4962SOL    HW215786   6.209   2.742   0.703
 4963SOL     OW15787   6.544   5.813   6.923
 4963SOL    HW115788   6.639   5.820   6.954
 4963SOL    HW215789   6.539   5.759   6.839
 4964SOL     OW15790   3.509   0.044   3.925
 4964SOL    HW115791   3.444   0.081   3.858
 4964SOL    HW215792   3.510   6.967   3.917
 4965SOL     OW15793   6.949   0.578   3.346
 4965SOL    HW115794   6.888   0.581   3.426
 4965SOL    HW215795   0.001   0.514   3.364
 4966SOL     OW15796   2.069   0.457   5.434
 4966SOL    HW115797   2.107   0.483   5.523
 4966SOL    HW215798   2.136   0.405   5.383
 4967SOL     OW15799   4.085   3.303   5.980
 4967SOL    HW115800   4.182   3.309   6.005
 4967SOL    HW215801   4.043   3.393   5.983
 4968SOL     OW15802   5.394   2.590   3.389
 4968SOL    HW115803   5.374   2.668   3.331
 4968SOL    HW215804   5.401   2.507   3.333
 4969SOL     OW15805   2.221   0.891   2.345
 4969SOL    HW115806   2.192   0.971   2.292
 4969SOL    HW215807   2.321   0.892   2.354
 4970SOL     OW15808   1.632   2.240   4.148
 4970SOL    HW115809   1.561   2.288   4.199
 4970SOL    HW215810   1.637   2.145   4.179
 4971SOL     OW15811   5.809   6.064   3.276
 4971SOL    HW115812   5.743   6.123   3.228
 4971SOL    HW215813   5.772   5.971   3.282
 4972SOL     OW15814   1.628   3.109   0.544
 4972SOL    HW115815   1.651   3.154   0.630
 4972SOL    HW215816   1.690   3.032   0.528
 4973SOL     OW15817   0.255   0.547   2.201
 4973SOL    HW115818   0.155   0.551   2.210
 4973SOL    HW215819   0.283   0.451   2.190
 4974SOL     OW15820   5.892   4.751   1.213
 4974SOL    HW115821   5.833   4.738   1.294
 4974SOL    HW215822   5.932   4.664   1.186
 4975SOL     OW15823   5.466   5.316   6.104
 4975SOL    HW115824   5.467   5.415   6.089
 4975SOL    HW215825   5.545   5.290   6.160
 4976SOL     OW15826   3.014   6.963   5.038
 4976SOL    HW115827   3.036   0.026   5.084
 4976SOL    HW215828   2.974   6.982   4.948
 4977SOL     OW15829   5.109   4.008   0.527
 4977SOL    HW115830   5.083   4.000   0.623
 4977SOL    HW215831   5.198   4.052   0.520
 4978SOL     OW15832   6.652   3.819   5.383
 4978SOL    HW115833   6.697   3.828   5.294
 4978SOL    HW215834   6.650   3.723   5.410
 4979SOL     OW15835   0.425   0.856   5.074
 4979SOL    HW115836   0.349   0.831   5.133
 4979SOL    HW215837   0.499   0.790   5.085
 4980SOL     OW15838   4.535   6.666   3.408
 4980SOL    HW115839   4.588   6.659   3.324
 4980SOL    HW215840   4.589   6.713   3.478
 4981SOL     OW15841   5.010   5.163   6.317
 4981SOL    HW115842   4.933   5.209   6.272
 4981SOL    HW215843   5.096   5.188   6.272
 4982SOL     OW15844   1.855   2.199   6.907
 4982SOL    HW115845   1.828   2.247   6.823
 4982SOL    HW215846   1.950   2.169   6.899
 4983SOL     OW15847   5.256   2.339   4.150
 4983SOL    HW115848   5.318   2.417   4.145
 4983SOL    HW215849   5.184   2.358   4.216
 4984SOL     OW15850   5.920   3.932   4.308
 4984SOL    HW115851   5.906   4.029   4.328
 4984SOL    HW215852   5.993   3.921   4.240
 4985SOL     OW15853   5.760   6.471   2.816
 4985SOL    HW115854   5.835   6.517   2.769
 4985SOL    HW215855   5.705   6.538   2.866
 4986SOL     OW15856   6.271   4.211   2.810
 4986SOL    HW115857   6.273   4.268   2.728
 4986SOL    HW215858   6.280   4.115   2.784
 4987SOL     OW15859   1.103   1.842   1.103
 4987SOL    HW115860   1.087   1.752   1.061
 4987SOL    HW215861   1.185   1.838   1.160
 4988SOL     OW15862   6.204   1.657   3.793
 4988SOL    HW115863   6.248   1.746   3.802
 4988SOL    HW215864   6.247   1.606   3.718
 4989SOL     OW15865   5.197   0.667   1.205
 4989SOL    HW115866   5.109   0.704   1.174
 4989SOL    HW215867   5.190   0.568   1.217
 4990SOL     OW15868   1.617   1.759   5.780
 4990SOL    HW115869   1.710   1.729   5.800
 4990SOL    HW215870   1.554   1.682   5.794
 4991SOL     OW15871   0.541   3.647   4.139
 4991SOL    HW115872   0.626   3.675   4.097
 4991SOL    HW215873   0.548   3.551   4.167
 4992SOL     OW15874   4.931   0.954   4.385
 4992SOL    HW115875   4.888   1.007   4.312
 4992SOL    HW215876   4.883   0.971   4.471
 4993SOL     OW15877   3.606   5.181   4.199
 4993SOL    HW115878   3.616   5.231   4.285
 4993SOL    HW215879   3.510   5.182   4.171
 4994SOL     OW15880   1.335   0.620   2.620
 4994SOL    HW115881   1.374   0.709   2.644
 4994SOL    HW215882   1.396   0.572   2.557
 4995SOL     OW15883   6.523   2.199   6.100
 4995SOL    HW115884   6.427   2.179   6.083
 4995SOL    HW215885   6.542   2.192   6.197
 4996SOL     OW15886   1.784   1.343   2.722
 4996SOL    HW115887   1.745   1.399   2.649
 4996SOL    HW215888   1.761   1.384   2.811
 4997SOL     OW15889   6.236   1.851   3.123
 4997SOL    HW115890   6.250   1.870   3.025
 4997SOL    HW215891   6.183   1.925   3.164
 4998SOL     OW15892   2.126   3.801   5.006
 4998SOL    HW115893   2.197   3.868   5.028
 4998SOL    HW215894   2.098   3.754   5.090
 4999SOL     OW15895   5.579   5.095   1.000
 4999SOL    HW115896   5.658   5.055   1.046
 4999SOL    HW215897   5.531   5.156   1.064
 5000SOL     OW15898   1.825   0.486   4.329
 5000SOL    HW115899   1.750   0.451   4.273
 5000SOL    HW215900   1.886   0.411   4.353
 5001SOL     OW15901   1.517   4.730   6.507
 5001SOL    HW115902   1.594   4.732   6.443
 5001SOL    HW215903   1.500   4.822   6.542
 5002SOL     OW15904   1.675   3.098   2.711
 5002SOL    HW115905   1.598   3.039   2.685
 5002SOL    HW215906   1.681   3.175   2.647
 5003SOL     OW15907   2.358   6.784   3.028
 5003SOL    HW115908   2.325   6.766   2.935
 5003SOL    HW215909   2.372   6.697   3.076
 5004SOL     OW15910   2.956   4.704   5.644
 5004SOL    HW115911   2.944   4.627   5.708
 5004SOL    HW215912   2.870   4.721   5.596
 5005SOL     OW15913   3.353   2.656   1.031
 5005SOL    HW115914   3.310   2.670   0.942
 5005SOL    HW215915   3.436   2.711   1.037
 5006SOL     OW15916   5.378   6.472   6.672
 5006SOL    HW115917   5.411   6.560   6.707
 5006SOL    HW215918   5.449   6.403   6.684
 5007SOL     OW15919   2.115   0.406   6.660
 5007SOL    HW115920   2.158   0.439   6.576
 5007SOL    HW215921   2.041   0.468   6.686
 5008SOL     OW15922   6.432   0.539   3.163
 5008SOL    HW115923   6.507   0.589   3.120
 5008SOL    HW215924   6.400   0.467   3.101
 5009SOL     OW15925   1.911   6.331   1.817
 5009SOL    HW115926   1.968   6.385   1.878
 5009SOL    HW215927   1.951   6.331   1.725
 5010SOL     OW15928   3.078   3.205   3.199
 5010SOL    HW115929   3.134   3.178   3.277
 5010SOL    HW215930   3.077   3.131   3.132
 5011SOL     OW15931   1.845   3.370   2.272
 5011SOL    HW115932   1.819   3.274   2.258
 5011SOL    HW215933   1.941   3.382   2.250
 5012SOL     OW15934   4.765   3.393   5.912
 5012SOL    HW115935   4.789   3.470   5.852
 5012SOL    HW215936   4.666   3.392   5.927
 5013SOL     OW15937   5.142   1.870   0.027
 5013SOL    HW115938   5.210   1.825   6.993
 5013SOL    HW215939   5.167   1.859   0.124
 5014SOL     OW15940   5.564   4.435   0.555
 5014SOL    HW115941   5.623   4.361   0.589
 5014SOL    HW215942   5.473   4.426   0.596
 5015SOL     OW15943   4.585   2.068   4.024
 5015SOL    HW115944   4.500   2.106   3.989
 5015SOL    HW215945   4.620   2.126   4.098
 5016SOL     OW15946   2.703   1.598   1.296
 5016SOL    HW115947   2.612   1.637   1.313
 5016SOL    HW215948   2.773   1.667   1.314
 5017SOL     OW15949   2.041   2.424   0.355
 5017SOL    HW115950   2.134   2.444   0.387
 5017SOL    HW215951   2.019   2.328   0.374
 5018SOL     OW15952   0.950   4.507   1.572
 5018SOL    HW115953   1.049   4.523   1.570
 5018SOL    HW215954   0.903   4.589   1.603
 5019SOL     OW15955   2.241   4.037   0.432
 5019SOL    HW115956   2.272   3.942   0.441
 5019SOL    HW215957   2.283   4.093   0.502
 5020SOL     OW15958   4.702   6.455   6.019
 5020SOL    HW115959   4.608   6.448   5.986
 5020SOL    HW215960   4.765   6.452   5.942
 5021SOL     OW15961   1.679   2.214   5.629
 5021SOL    HW115962   1.721   2.242   5.715
 5021SOL    HW215963   1.644   2.120   5.638
 5022SOL     OW15964   2.119   0.339   0.613
 5022SOL    HW115965   2.115   0.333   0.514
 5022SOL    HW215966   2.027   0.330   0.651
 5023SOL     OW15967   6.548   2.619   1.367
 5023SOL    HW115968   6.477   2.679   1.329
 5023SOL    HW215969   6.632   2.671   1.379
 5024SOL     OW15970   6.837   4.563   3.119
 5024SOL    HW115971   6.791   4.498   3.059
 5024SOL    HW215972   6.920   4.597   3.076
 5025SOL     OW15973   4.408   2.016   1.898
 5025SOL    HW115974   4.353   2.065   1.830
 5025SOL    HW215975   4.431   1.926   1.863
 5026SOL     OW15976   5.772   5.629   6.463
 5026SOL    HW115977   5.794   5.722   6.493
 5026SOL    HW215978   5.673   5.614   6.471
 5027SOL     OW15979   0.263   0.330   2.009
 5027SOL    HW115980   0.351   0.283   2.008
 5027SOL    HW215981   0.229   0.340   1.916
 5028SOL     OW15982   0.374   0.030   2.857
 5028SOL    HW115983   0.361   0.006   2.954
 5028SOL    HW215984   0.424   0.116   2.850
 5029SOL     OW15985   6.449   3.432   3.874
 5029SOL    HW115986   6.544   3.461   3.862
 5029SOL    HW215987   6.448   3.337   3.907
 5030SOL     OW15988   6.951   0.355   0.082
 5030SOL    HW115989   6.862   0.382   0.044
 5030SOL    HW215990   6.974   0.263   0.049
 5031SOL     OW15991   5.549   0.889   4.899
 5031SOL    HW115992   5.454   0.870   4.873
 5031SOL    HW215993   5.601   0.912   4.817
 5032SOL     OW15994   1.255   3.996   1.411
 5032SOL    HW115995   1.182   3.959   1.469
 5032SOL    HW215996   1.244   4.095   1.403
 5033SOL     OW15997   1.394   4.526   6.652
 5033SOL    HW115998   1.427   4.436   6.623
 5033SOL    HW215999   1.457   4.597   6.621
 5034SOL     OW16000   6.667   2.839   2.735
 5034SOL    HW116001   6.711   2.924   2.704
 5034SOL    HW216002   6.731   2.786   2.791
 5035SOL     OW16003   6.008   4.339   0.760
 5035SOL    HW116004   6.105   4.318   0.772
 5035SOL    HW216005   5.958   4.312   0.842
 5036SOL     OW16006   0.265   4.929   6.973
 5036SOL    HW116007   0.322   4.895   0.025
 5036SOL    HW216008   0.211   5.006   7.004
 5037SOL     OW16009   4.727   2.167   2.648
 5037SOL    HW116010   4.663   2.130   2.580
 5037SOL    HW216011   4.751   2.095   2.713
 5038SOL     OW16012   1.650   5.249   5.719
 5038SOL    HW116013   1.730   5.216   5.770
 5038SOL    HW216014   1.597   5.311   5.777
 5039SOL     OW16015   1.978   3.733   5.378
 5039SOL    HW116016   1.950   3.804   5.312
 5039SOL    HW216017   2.078   3.732   5.385
 5040SOL     OW16018   2.137   4.326   6.200
 5040SOL    HW116019   2.208   4.390   6.228
 5040SOL    HW216020   2.141   4.313   6.100
 5041SOL     OW16021   1.387   3.342   1.520
 5041SOL    HW116022   1.475   3.296   1.513
 5041SOL    HW216023   1.402   3.440   1.535
 5042SOL     OW16024   0.331   3.000   6.566
 5042SOL    HW116025   0.243   2.952   6.562
 5042SOL    HW216026   0.392   2.953   6.629
 5043SOL     OW16027   3.431   1.050   5.639
 5043SOL    HW116028   3.461   1.135   5.683
 5043SOL    HW216029   3.389   0.991   5.708
 5044SOL     OW16030   6.007   0.059   2.999
 5044SOL    HW116031   6.075   0.029   3.066
 5044SOL    HW216032   6.019   0.156   2.979
 5045SOL     OW16033   5.393   2.718   6.866
 5045SOL    HW116034   5.378   2.621   6.852
 5045SOL    HW216035   5.483   2.744   6.829
 5046SOL     OW16036   3.994   3.972   4.836
 5046SOL    HW116037   3.924   4.000   4.902
 5046SOL    HW216038   4.061   3.915   4.882
 5047SOL     OW16039   6.783   2.305   2.585
 5047SOL    HW116040   6.701   2.323   2.532
 5047SOL    HW216041   6.831   2.226   2.545
 5048SOL     OW16042   6.974   2.238   0.984
 5048SOL    HW116043   6.996   2.295   0.905
 5048SOL    HW216044   6.912   2.288   1.045
 5049SOL     OW16045   0.179   1.710   4.043
 5049SOL    HW116046   0.256   1.663   4.086
 5049SOL    HW216047   0.177   1.687   3.945
 5050SOL     OW16048   1.155   1.335   2.131
 5050SOL    HW116049   1.235   1.296   2.086
 5050SOL    HW216050   1.156   1.434   2.122
 5051SOL     OW16051   4.433   3.550   0.629
 5051SOL    HW116052   4.364   3.610   0.671
 5051SOL    HW216053   4.523   3.592   0.637
 5052SOL     OW16054   2.746   4.999   5.851
 5052SOL    HW116055   2.738   4.930   5.922
 5052SOL    HW216056   2.822   4.976   5.790
 5053SOL     OW16057   1.723   4.046   3.289
 5053SOL    HW116058   1.758   3.996   3.368
 5053SOL    HW216059   1.722   4.144   3.309
 5054SOL     OW16060   3.772   5.404   4.849
 5054SOL    HW116061   3.773   5.361   4.759
 5054SOL    HW216062   3.728   5.494   4.843
 5055SOL     OW16063   0.363   1.140   5.136
 5055SOL    HW116064   0.451   1.186   5.151
 5055SOL    HW216065   0.379   1.053   5.088
 5056SOL     OW16066   6.371   4.241   0.272
 5056SOL    HW116067   6.284   4.194   0.258
 5056SOL    HW216068   6.439   4.205   0.208
 5057SOL     OW16069   0.955   5.610   3.694
 5057SOL    HW116070   0.892   5.534   3.710
 5057SOL    HW216071   0.919   5.668   3.621
 5058SOL     OW16072   2.335   3.910   6.383
 5058SOL    HW116073   2.347   3.849   6.461
 5058SOL    HW216074   2.424   3.944   6.354
 5059SOL     OW16075   5.342   3.270   4.237
 5059SOL    HW116076   5.367   3.217   4.318
 5059SOL    HW216077   5.348   3.213   4.156
 5060SOL     OW16078   7.003   2.450   5.603
 5060SOL    HW116079   0.062   2.394   5.591
 5060SOL    HW216080   7.017   2.539   5.558
 5061SOL     OW16081   3.110   3.052   3.882
 5061SOL    HW116082   3.015   3.029   3.864
 5061SOL    HW216083   3.142   3.119   3.815
 5062SOL     OW16084   5.748   1.446   2.258
 5062SOL    HW116085   5.838   1.455   2.301
 5062SOL    HW216086   5.760   1.411   2.165
 5063SOL     OW16087   0.901   5.982   1.973
 5063SOL    HW116088   0.846   5.959   1.893
 5063SOL    HW216089   0.849   6.041   2.034
 5064SOL     OW16090   5.245   5.039   1.454
 5064SOL    HW116091   5.151   5.037   1.489
 5064SOL    HW216092   5.277   4.945   1.441
 5065SOL     OW16093   1.686   1.401   2.999
 5065SOL    HW116094   1.736   1.385   3.084
 5065SOL    HW216095   1.588   1.408   3.018
 5066SOL     OW16096   2.837   4.262   1.627
 5066SOL    HW116097   2.910   4.263   1.559
 5066SOL    HW216098   2.867   4.310   1.709
 5067SOL     OW16099   4.467   1.119   2.860
 5067SOL    HW116100   4.383   1.159   2.823
 5067SOL    HW216101   4.492   1.166   2.944
 5068SOL     OW16102   3.339   5.673   0.198
 5068SOL    HW116103   3.351   5.724   0.283
 5068SOL    HW216104   3.304   5.581   0.219
 5069SOL     OW16105   2.270   3.075   6.096
 5069SOL    HW116106   2.224   3.156   6.058
 5069SOL    HW216107   2.236   2.993   6.049
 5070SOL     OW16108   5.561   4.434   5.041
 5070SOL    HW116109   5.504   4.457   4.963
 5070SOL    HW216110   5.611   4.515   5.071
 5071SOL     OW16111   4.143   2.144   3.367
 5071SOL    HW116112   4.169   2.052   3.397
 5071SOL    HW216113   4.226   2.198   3.351
 5072SOL     OW16114   1.525   1.250   1.754
 5072SOL    HW116115   1.540   1.332   1.698
 5072SOL    HW216116   1.586   1.177   1.723
 5073SOL     OW16117   1.635   4.935   1.019
 5073SOL    HW116118   1.670   5.018   0.977
 5073SOL    HW216119   1.556   4.902   0.967
 5074SOL     OW16120   4.143   2.339   1.831
 5074SOL    HW116121   4.224   2.356   1.886
 5074SOL    HW216122   4.122   2.420   1.776
 5075SOL     OW16123   1.176   2.286   0.135
 5075SOL    HW116124   1.079   2.297   0.160
 5075SOL    HW216125   1.185   2.283   0.036
 5076SOL     OW16126   5.842   7.013   0.455
 5076SOL    HW116127   5.942   7.006   0.461
 5076SOL    HW216128   5.807   0.035   0.537
 5077SOL     OW16129   0.384   3.661   5.813
 5077SOL    HW116130   0.467   3.682   5.865
 5077SOL    HW216131   0.304   3.675   5.871
 5078SOL     OW16132   0.545   1.105   4.166
 5078SOL    HW116133   0.645   1.103   4.176
 5078SOL    HW216134   0.520   1.065   4.078
 5079SOL     OW16135   2.164   2.968   5.214
 5079SOL    HW116136   2.251   3.000   5.176
 5079SOL    HW216137   2.175   2.954   5.313
 5080SOL     OW16138   5.483   5.684   5.670
 5080SOL    HW116139   5.383   5.678   5.665
 5080SOL    HW216140   5.518   5.722   5.585
 5081SOL     OW16141   2.900   4.740   5.952
 5081SOL    HW116142   2.957   4.820   5.931
 5081SOL    HW216143   2.927   4.664   5.892
 5082SOL     OW16144   5.493   7.010   0.497
 5082SOL    HW116145   5.435   6.929   0.489
 5082SOL    HW216146   5.540   0.003   0.410
 5083SOL     OW16147   3.206   0.632   1.837
 5083SOL    HW116148   3.198   0.572   1.757
 5083SOL    HW216149   3.185   0.581   1.920
 5084SOL     OW16150   1.031   4.963   4.230
 5084SOL    HW116151   0.969   5.029   4.188
 5084SOL    HW216152   1.116   4.959   4.177
 5085SOL     OW16153   0.299   2.996   5.543
 5085SOL    HW116154   0.313   3.089   5.509
 5085SOL    HW216155   0.293   2.933   5.466
 5086SOL     OW16156   1.265   4.612   2.916
 5086SOL    HW116157   1.258   4.567   3.006
 5086SOL    HW216158   1.354   4.657   2.909
 5087SOL     OW16159   0.143   5.440   1.230
 5087SOL    HW116160   0.212   5.369   1.219
 5087SOL    HW216161   0.184   5.520   1.273
 5088SOL     OW16162   5.227   6.909   3.179
 5088SOL    HW116163   5.308   6.870   3.135
 5088SOL    HW216164   5.245   7.004   3.204
 5089SOL     OW16165   6.000   4.712   4.292
 5089SOL    HW116166   5.967   4.798   4.254
 5089SOL    HW216167   6.099   4.704   4.278
 5090SOL     OW16168   1.982   1.922   2.336
 5090SOL    HW116169   2.065   1.968   2.305
 5090SOL    HW216170   2.006   1.853   2.404
 5091SOL     OW16171   6.736   0.883   1.583
 5091SOL    HW116172   6.703   0.833   1.663
 5091SOL    HW216173   6.687   0.852   1.501
 5092SOL     OW16174   3.550   3.069   3.714
 5092SOL    HW116175   3.527   2.977   3.680
 5092SOL    HW216176   3.563   3.065   3.813
 5093SOL     OW16177   3.478   1.457   1.041
 5093SOL    HW116178   3.549   1.526   1.058
 5093SOL    HW216179   3.464   1.446   0.943
 5094SOL     OW16180   2.366   6.297   6.455
 5094SOL    HW116181   2.334   6.337   6.369
 5094SOL    HW216182   2.374   6.198   6.445
 5095SOL     OW16183   0.217   2.304   3.114
 5095SOL    HW116184   0.173   2.310   3.203
 5095SOL    HW216185   0.248   2.210   3.098
 5096SOL     OW16186   4.683   4.867   6.750
 5096SOL    HW116187   4.647   4.774   6.759
 5096SOL    HW216188   4.715   4.882   6.657
 5097SOL     OW16189   0.413   6.687   6.972
 5097SOL    HW116190   0.313   6.689   6.980
 5097SOL    HW216191   0.446   6.596   6.995
 5098SOL     OW16192   3.153   0.992   2.310
 5098SOL    HW116193   3.192   0.990   2.402
 5098SOL    HW216194   3.171   1.082   2.269
 5099SOL     OW16195   0.624   6.707   1.871
 5099SOL    HW116196   0.579   6.626   1.832
 5099SOL    HW216197   0.718   6.684   1.896
 5100SOL     OW16198   3.390   5.500   4.402
 5100SOL    HW116199   3.310   5.464   4.449
 5100SOL    HW216200   3.464   5.434   4.406
 5101SOL     OW16201   4.384   0.068   5.803
 5101SOL    HW116202   4.428   0.086   5.891
 5101SOL    HW216203   4.301   0.014   5.817
 5102SOL     OW16204   5.649   6.167   4.216
 5102SOL    HW116205   5.628   6.220   4.298
 5102SOL    HW216206   5.734   6.200   4.176
 5103SOL     OW16207   0.700   1.429   4.214
 5103SOL    HW116208   0.645   1.366   4.159
 5103SOL    HW216209   0.703   1.518   4.170
 5104SOL     OW16210   2.757   6.591   2.063
 5104SOL    HW116211   2.686   6.586   1.993
 5104SOL    HW216212   2.738   6.667   2.126
 5105SOL     OW16213   3.250   2.930   6.956
 5105SOL    HW116214   3.281   2.994   0.004
 5105SOL    HW216215   3.324   2.914   6.891
 5106SOL     OW16216   4.458   1.196   1.643
 5106SOL    HW116217   4.432   1.276   1.589
 5106SOL    HW216218   4.558   1.188   1.645
 5107SOL     OW16219   4.583   2.367   1.673
 5107SOL    HW116220   4.643   2.307   1.725
 5107SOL    HW216221   4.614   2.371   1.578
 5108SOL     OW16222   4.071   3.746   5.018
 5108SOL    HW116223   4.132   3.776   5.091
 5108SOL    HW216224   4.063   3.646   5.020
 5109SOL     OW16225   0.945   2.172   0.567
 5109SOL    HW116226   0.900   2.085   0.544
 5109SOL    HW216227   1.036   2.173   0.525
 5110SOL     OW16228   0.591   0.550   6.285
 5110SOL    HW116229   0.529   0.509   6.352
 5110SOL    HW216230   0.656   0.609   6.331
 5111SOL     OW16231   1.705   0.734   4.300
 5111SOL    HW116232   1.762   0.796   4.247
 5111SOL    HW216233   1.747   0.643   4.303
 5112SOL     OW16234   0.751   0.422   3.012
 5112SOL    HW116235   0.785   0.449   2.922
 5112SOL    HW216236   0.674   0.359   3.001
 5113SOL     OW16237   1.212   5.575   1.302
 5113SOL    HW116238   1.277   5.561   1.377
 5113SOL    HW216239   1.179   5.669   1.304
 5114SOL     OW16240   3.946   6.944   6.800
 5114SOL    HW116241   4.008   7.020   6.778
 5114SOL    HW216242   3.982   6.860   6.759
 5115SOL     OW16243   1.362   5.154   3.016
 5115SOL    HW116244   1.434   5.117   3.075
 5115SOL    HW216245   1.277   5.162   3.069
 5116SOL     OW16246   1.025   6.282   0.721
 5116SOL    HW116247   0.952   6.215   0.737
 5116SOL    HW216248   1.079   6.292   0.804
 5117SOL     OW16249   0.793   3.975   3.870
 5117SOL    HW116250   0.893   3.965   3.876
 5117SOL    HW216251   0.764   4.054   3.923
 5118SOL     OW16252   5.461   0.780   0.046
 5118SOL    HW116253   5.425   0.689   0.026
 5118SOL    HW216254   5.468   0.832   6.984
 5119SOL     OW16255   4.641   1.052   2.648
 5119SOL    HW116256   4.587   1.066   2.730
 5119SOL    HW216257   4.624   1.125   2.582
 5120SOL     OW16258   3.988   6.718   5.184
 5120SOL    HW116259   4.060   6.762   5.238
 5120SOL    HW216260   4.030   6.667   5.108
 5121SOL     OW16261   3.530   2.832   6.866
 5121SOL    HW116262   3.555   2.898   6.938
 5121SOL    HW216263   3.601   2.831   6.796
 5122SOL     OW16264   3.521   5.909   3.490
 5122SOL    HW116265   3.618   5.898   3.465
 5122SOL    HW216266   3.505   5.866   3.579
 5123SOL     OW16267   5.156   1.697   4.564
 5123SOL    HW116268   5.176   1.794   4.550
 5123SOL    HW216269   5.105   1.663   4.485
 5124SOL     OW16270   1.359   5.981   4.750
 5124SOL    HW116271   1.361   6.068   4.800
 5124SOL    HW216272   1.444   5.971   4.699
 5125SOL     OW16273   6.525   2.867   3.375
 5125SOL    HW116274   6.533   2.775   3.337
 5125SOL    HW216275   6.552   2.865   3.471
 5126SOL     OW16276   6.753   5.784   6.630
 5126SOL    HW116277   6.789   5.874   6.603
 5126SOL    HW216278   6.671   5.763   6.577
 5127SOL     OW16279   0.216   4.000   0.028
 5127SOL    HW116280   0.123   4.036   0.029
 5127SOL    HW216281   0.221   3.920   6.991
 5128SOL     OW16282   0.636   0.395   0.367
 5128SOL    HW116283   0.729   0.414   0.336
 5128SOL    HW216284   0.603   0.310   0.325
 5129SOL     OW16285   6.508   6.792   3.039
 5129SOL    HW116286   6.515   6.712   2.979
 5129SOL    HW216287   6.421   6.838   3.023
 5130SOL     OW16288   6.918   5.782   2.476
 5130SOL    HW116289   6.916   5.745   2.383
 5130SOL    HW216290   7.012   5.780   2.511
 5131SOL     OW16291   2.185   3.929   4.162
 5131SOL    HW116292   2.284   3.932   4.178
 5131SOL    HW216293   2.137   3.931   4.250
 5132SOL     OW16294   4.097   3.017   6.669
 5132SOL    HW116295   4.088   3.037   6.571
 5132SOL    HW216296   4.154   2.936   6.681
 5133SOL     OW16297   1.764   5.056   0.125
 5133SOL    HW116298   1.763   5.108   0.210
 5133SOL    HW216299   1.790   5.116   0.049
 5134SOL     OW16300   0.054   2.832   2.136
 5134SOL    HW116301   0.065   2.750   2.192
 5134SOL    HW216302   0.025   2.908   2.194
 5135SOL     OW16303   6.155   2.652   5.176
 5135SOL    HW116304   6.057   2.632   5.165
 5135SOL    HW216305   6.172   2.748   5.155
 5136SOL     OW16306   4.788   0.604   6.302
 5136SOL    HW116307   4.734   0.528   6.267
 5136SOL    HW216308   4.740   0.647   6.379
 5137SOL     OW16309   5.259   3.451   6.116
 5137SOL    HW116310   5.301   3.525   6.063
 5137SOL    HW216311   5.172   3.425   6.073
 5138SOL     OW16312   2.802   2.901   5.926
 5138SOL    HW116313   2.841   2.855   5.846
 5138SOL    HW216314   2.725   2.849   5.961
 5139SOL     OW16315   2.053   6.875   2.995
 5139SOL    HW116316   2.095   6.790   2.962
 5139SOL    HW216317   2.090   6.953   2.945
 5140SOL     OW16318   3.885   2.320   0.355
 5140SOL    HW116319   3.870   2.298   0.259
 5140SOL    HW216320   3.866   2.417   0.371
 5141SOL     OW16321   6.713   3.664   0.365
 5141SOL    HW116322   6.796   3.689   0.415
 5141SOL    HW216323   6.642   3.636   0.430
 5142SOL     OW16324   5.971   0.501   4.058
 5142SOL    HW116325   6.016   0.568   3.998
 5142SOL    HW216326   5.923   0.433   4.003
 5143SOL     OW16327   6.987   4.451   4.094
 5143SOL    HW116328   6.948   4.426   4.005
 5143SOL    HW216329   6.914   4.478   4.157
 5144SOL     OW16330   1.197   4.741   6.128
 5144SOL    HW116331   1.237   4.709   6.214
 5144SOL    HW216332   1.135   4.818   6.147
 5145SOL     OW16333   2.343   4.942   5.639
 5145SOL    HW116334   2.327   4.895   5.552
 5145SOL    HW216335   2.407   4.887   5.694
 5146SOL     OW16336   3.782   4.111   5.095
 5146SOL    HW116337   3.717   4.146   5.028
 5146SOL    HW216338   3.788   4.011   5.089
 5147SOL     OW16339   6.709   4.846   3.146
 5147SOL    HW116340   6.809   4.850   3.145
 5147SOL    HW216341   6.673   4.911   3.078
 5148SOL     OW16342   1.103   6.296   1.216
 5148SOL    HW116343   1.012   6.331   1.235
 5148SOL    HW216344   1.159   6.301   1.299
 5149SOL     OW16345   6.131   6.153   3.620
 5149SOL    HW116346   6.143   6.182   3.715
 5149SOL    HW216347   6.220   6.124   3.583
 5150SOL     OW16348   2.247   4.804   2.495
 5150SOL    HW116349   2.316   4.858   2.543
 5150SOL    HW216350   2.160   4.813   2.543
 5151SOL     OW16351   5.486   2.442   0.771
 5151SOL    HW116352   5.473   2.503   0.693
 5151SOL    HW216353   5.432   2.359   0.758
 5152SOL     OW16354   2.115   4.431   0.100
 5152SOL    HW116355   2.040   4.436   0.035
 5152SOL    HW216356   2.078   4.434   0.193
 5153SOL     OW16357   2.446   0.323   0.020
 5153SOL    HW116358   2.401   0.401   0.063
 5153SOL    HW216359   2.381   0.279   6.981
 5154SOL     OW16360   1.023   3.290   6.471
 5154SOL    HW116361   0.993   3.355   6.401
 5154SOL    HW216362   0.957   3.215   6.477
 5155SOL     OW16363   4.607   6.964   2.339
 5155SOL    HW116364   4.562   7.014   2.265
 5155SOL    HW216365   4.564   6.874   2.348
 5156SOL     OW16366   6.674   3.062   6.295
 5156SOL    HW116367   6.617   2.989   6.331
 5156SOL    HW216368   6.723   3.030   6.214
 5157SOL     OW16369   4.078   2.083   3.686
 5157SOL    HW116370   4.131   2.020   3.743
 5157SOL    HW216371   4.134   2.163   3.665
 5158SOL     OW16372   3.610   0.851   1.618
 5158SOL    HW116373   3.611   0.951   1.611
 5158SOL    HW216374   3.682   0.821   1.681
 5159SOL     OW16375   6.924   3.054   4.060
 5159SOL    HW116376   6.953   3.093   3.972
 5159SOL    HW216377   6.885   2.964   4.044
 5160SOL     OW16378   0.283   4.597   3.538
 5160SOL    HW116379   0.264   4.524   3.602
 5160SOL    HW216380   0.261   4.567   3.445
 5161SOL     OW16381   1.547   3.712   4.756
 5161SOL    HW116382   1.551   3.645   4.830
 5161SOL    HW216383   1.596   3.677   4.676
 5162SOL     OW16384   1.450   5.461   3.360
 5162SOL    HW116385   1.538   5.484   3.402
 5162SOL    HW216386   1.388   5.427   3.430
 5163SOL     OW16387   3.890   5.865   1.090
 5163SOL    HW116388   3.932   5.820   1.169
 5163SOL    HW216389   3.816   5.924   1.121
 5164SOL     OW16390   4.579   2.685   6.438
 5164SOL    HW116391   4.615   2.722   6.352
 5164SOL    HW216392   4.479   2.681   6.434
 5165SOL     OW16393   5.952   4.379   5.255
 5165SOL    HW116394   5.937   4.470   5.293
 5165SOL    HW216395   5.920   4.310   5.319
 5166SOL     OW16396   6.765   5.756   2.706
 5166SOL    HW116397   6.694   5.826   2.704
 5166SOL    HW216398   6.821   5.762   2.624
 5167SOL     OW16399   6.517   5.850   5.781
 5167SOL    HW116400   6.470   5.769   5.747
 5167SOL    HW216401   6.453   5.907   5.831
 5168SOL     OW16402   5.268   3.539   3.294
 5168SOL    HW116403   5.340   3.507   3.232
 5168SOL    HW216404   5.246   3.634   3.273
 5169SOL     OW16405   4.292   1.703   5.510
 5169SOL    HW116406   4.331   1.795   5.511
 5169SOL    HW216407   4.193   1.708   5.524
 5170SOL     OW16408   0.320   4.222   5.232
 5170SOL    HW116409   0.357   4.304   5.275
 5170SOL    HW216410   0.298   4.242   5.136
 5171SOL     OW16411   1.619   5.729   3.766
 5171SOL    HW116412   1.682   5.658   3.734
 5171SOL    HW216413   1.651   5.766   3.853
 5172SOL     OW16414   6.880   2.571   2.555
 5172SOL    HW116415   6.863   2.476   2.581
 5172SOL    HW216416   6.792   2.618   2.543
 5173SOL     OW16417   5.840   4.697   6.273
 5173SOL    HW116418   5.854   4.633   6.198
 5173SOL    HW216419   5.912   4.686   6.341
 5174SOL     OW16420   2.448   5.069   3.217
 5174SOL    HW116421   2.495   5.148   3.178
 5174SOL    HW216422   2.515   5.012   3.266
 5175SOL     OW16423   2.186   3.834   6.952
 5175SOL    HW116424   2.131   3.865   0.007
 5175SOL    HW216425   2.226   3.913   6.907
 5176SOL     OW16426   4.563   3.177   6.529
 5176SOL    HW116427   4.658   3.207   6.536
 5176SOL    HW216428   4.559   3.077   6.532
 5177SOL     OW16429   5.179   0.272   6.483
 5177SOL    HW116430   5.196   0.184   6.439
 5177SOL    HW216431   5.173   0.343   6.412
 5178SOL     OW16432   1.234   3.711   1.431
 5178SOL    HW116433   1.202   3.658   1.352
 5178SOL    HW216434   1.172   3.787   1.447
 5179SOL     OW16435   4.042   5.808   4.827
 5179SOL    HW116436   3.950   5.770   4.824
 5179SOL    HW216437   4.039   5.905   4.801
 5180SOL     OW16438   3.221   2.675   6.989
 5180SOL    HW116439   3.156   2.661   0.041
 5180SOL    HW216440   3.228   2.773   6.968
 5181SOL     OW16441   4.884   1.952   2.240
 5181SOL    HW116442   4.876   1.902   2.326
 5181SOL    HW216443   4.866   2.049   2.255
 5182SOL     OW16444   3.598   4.826   1.521
 5182SOL    HW116445   3.641   4.886   1.588
 5182SOL    HW216446   3.506   4.801   1.552
 5183SOL     OW16447   3.735   1.208   2.767
 5183SOL    HW116448   3.690   1.281   2.717
 5183SOL    HW216449   3.667   1.158   2.821
 5184SOL     OW16450   0.189   2.292   4.209
 5184SOL    HW116451   0.156   2.348   4.285
 5184SOL    HW216452   0.259   2.342   4.159
 5185SOL     OW16453   5.587   0.940   2.246
 5185SOL    HW116454   5.507   0.894   2.208
 5185SOL    HW216455   5.608   0.903   2.336
 5186SOL     OW16456   6.059   3.310   0.862
 5186SOL    HW116457   5.989   3.380   0.848
 5186SOL    HW216458   6.027   3.246   0.932
 5187SOL     OW16459   0.158   0.802   3.848
 5187SOL    HW116460   0.075   0.822   3.900
 5187SOL    HW216461   0.189   0.885   3.801
 5188SOL     OW16462   0.598   5.538   0.433
 5188SOL    HW116463   0.581   5.443   0.406
 5188SOL    HW216464   0.555   5.556   0.522
 5189SOL     OW16465   4.895   4.882   0.985
 5189SOL    HW116466   4.901   4.920   1.077
 5189SOL    HW216467   4.970   4.817   0.971
 5190SOL     OW16468   0.092   3.044   4.282
 5190SOL    HW116469   0.179   3.093   4.290
 5190SOL    HW216470   0.055   3.057   4.190
 5191SOL     OW16471   4.437   0.461   1.944
 5191SOL    HW116472   4.517   0.516   1.920
 5191SOL    HW216473   4.355   0.505   1.906
 5192SOL     OW16474   2.813   5.680   2.983
 5192SOL    HW116475   2.757   5.760   2.958
 5192SOL    HW216476   2.891   5.711   3.037
 5193SOL     OW16477   5.465   4.597   4.519
 5193SOL    HW116478   5.499   4.688   4.496
 5193SOL    HW216479   5.415   4.560   4.442
 5194SOL     OW16480   4.242   0.679   0.181
 5194SOL    HW116481   4.276   0.726   0.099
 5194SOL    HW216482   4.145   0.698   0.192
 5195SOL     OW16483   6.780   5.841   4.080
 5195SOL    HW116484   6.847   5.771   4.105
 5195SOL    HW216485   6.826   5.918   4.037
 5196SOL     OW16486   1.504   3.788   0.581
 5196SOL    HW116487   1.435   3.727   0.620
 5196SOL    HW216488   1.493   3.880   0.620
 5197SOL     OW16489   1.486   5.739   5.318
 5197SOL    HW116490   1.577   5.712   5.288
 5197SOL    HW216491   1.432   5.658   5.338
 5198SOL     OW16492   4.167   6.557   3.752
 5198SOL    HW116493   4.140   6.510   3.837
 5198SOL    HW216494   4.252   6.607   3.767
 5199SOL     OW16495   1.135   6.654   6.729
 5199SOL    HW116496   1.090   6.584   6.672
 5199SOL    HW216497   1.232   6.658   6.706
 5200SOL     OW16498   1.563   1.965   5.623
 5200SOL    HW116499   1.487   1.944   5.561
 5200SOL    HW216500   1.581   1.886   5.682
 5201SOL     OW16501   5.901   6.141   3.959
 5201SOL    HW116502   5.876   6.048   3.933
 5201SOL    HW216503   5.946   6.186   3.882
 5202SOL     OW16504   5.743   4.451   5.806
 5202SOL    HW116505   5.653   4.483   5.777
 5202SOL    HW216506   5.743   4.351   5.811
 5203SOL     OW16507   2.338   0.553   0.111
 5203SOL    HW116508   2.344   0.525   0.207
 5203SOL    HW216509   2.381   0.643   0.101
 5204SOL     OW16510   3.743   6.546   0.317
 5204SOL    HW116511   3.725   6.618   0.384
 5204SOL    HW216512   3.834   6.509   0.334
 5205SOL     OW16513   6.737   5.939   0.066
 5205SOL    HW116514   6.799   6.009   0.030
 5205SOL    HW216515   6.671   5.982   0.129
 5206SOL     OW16516   0.135   5.491   6.424
 5206SOL    HW116517   0.051   5.438   6.412
 5206SOL    HW216518   0.162   5.530   6.336
 5207SOL     OW16519   1.034   0.289   3.410
 5207SOL    HW116520   1.020   0.200   3.452
 5207SOL    HW216521   1.095   0.280   3.331
 5208SOL     OW16522   4.479   2.493   6.833
 5208SOL    HW116523   4.554   2.427   6.837
 5208SOL    HW216524   4.400   2.450   6.790
 5209SOL     OW16525   5.346   0.963   1.237
 5209SOL    HW116526   5.297   0.894   1.289
 5209SOL    HW216527   5.442   0.966   1.266
 5210SOL     OW16528   4.810   3.576   0.778
 5210SOL    HW116529   4.777   3.492   0.820
 5210SOL    HW216530   4.752   3.652   0.805
 5211SOL     OW16531   4.401   1.909   5.242
 5211SOL    HW116532   4.384   1.812   5.222
 5211SOL    HW216533   4.327   1.945   5.298
 5212SOL     OW16534   1.784   2.899   1.627
 5212SOL    HW116535   1.880   2.898   1.654
 5212SOL    HW216536   1.771   2.967   1.554
 5213SOL     OW16537   4.464   3.679   0.925
 5213SOL    HW116538   4.509   3.590   0.917
 5213SOL    HW216539   4.376   3.676   0.877
 5214SOL     OW16540   5.750   2.728   5.739
 5214SOL    HW116541   5.775   2.708   5.645
 5214SOL    HW216542   5.665   2.781   5.741
 5215SOL     OW16543   0.878   4.568   4.464
 5215SOL    HW116544   0.854   4.619   4.547
 5215SOL    HW216545   0.967   4.524   4.477
 5216SOL     OW16546   4.902   5.034   1.283
 5216SOL    HW116547   4.825   4.983   1.321
 5216SOL    HW216548   4.959   5.067   1.359
 5217SOL     OW16549   3.481   5.753   4.403
 5217SOL    HW116550   3.443   5.662   4.388
 5217SOL    HW216551   3.581   5.748   4.400
 5218SOL     OW16552   0.561   1.449   1.417
 5218SOL    HW116553   0.530   1.386   1.346
 5218SOL    HW216554   0.574   1.540   1.377
 5219SOL     OW16555   3.616   1.846   4.707
 5219SOL    HW116556   3.559   1.820   4.629
 5219SOL    HW216557   3.712   1.825   4.686
 5220SOL     OW16558   1.675   5.236   2.924
 5220SOL    HW116559   1.704   5.170   2.994
 5220SOL    HW216560   1.580   5.263   2.942
 5221SOL     OW16561   6.530   0.840   2.706
 5221SOL    HW116562   6.508   0.866   2.800
 5221SOL    HW216563   6.477   0.758   2.681
 5222SOL     OW16564   3.791   6.571   1.983
 5222SOL    HW116565   3.744   6.521   2.056
 5222SOL    HW216566   3.739   6.653   1.959
 5223SOL     OW16567   0.126   2.947   6.867
 5223SOL    HW116568   0.207   2.924   6.920
 5223SOL    HW216569   0.044   2.939   6.924
 5224SOL     OW16570   6.639   2.952   4.280
 5224SOL    HW116571   6.628   3.050   4.262
 5224SOL    HW216572   6.719   2.937   4.337
 5225SOL     OW16573   6.270   1.122   3.141
 5225SOL    HW116574   6.248   1.082   3.230
 5225SOL    HW216575   6.368   1.114   3.124
 5226SOL     OW16576   0.462   6.726   4.021
 5226SOL    HW116577   0.533   6.767   3.963
 5226SOL    HW216578   0.425   6.645   3.976
 5227SOL     OW16579   0.237   4.127   5.868
 5227SOL    HW116580   0.173   4.167   5.803
 5227SOL    HW216581   0.210   4.152   5.961
 5228SOL     OW16582   0.899   2.243   0.173
 5228SOL    HW116583   0.853   2.209   0.091
 5228SOL    HW216584   0.835   2.243   0.250
 5229SOL     OW16585   3.169   6.609   0.388
 5229SOL    HW116586   3.082   6.610   0.438
 5229SOL    HW216587   3.245   6.625   0.451
 5230SOL     OW16588   6.928   6.129   1.958
 5230SOL    HW116589   6.982   6.142   2.042
 5230SOL    HW216590   6.850   6.070   1.978
 5231SOL     OW16591   4.656   2.694   3.425
 5231SOL    HW116592   4.702   2.698   3.336
 5231SOL    HW216593   4.691   2.768   3.483
 5232SOL     OW16594   1.102   4.102   5.769
 5232SOL    HW116595   1.152   4.128   5.851
 5232SOL    HW216596   1.035   4.031   5.792
 5233SOL     OW16597   3.527   1.146   2.921
 5233SOL    HW116598   3.440   1.189   2.899
 5233SOL    HW216599   3.513   1.048   2.933
 5234SOL     OW16600   2.490   2.472   6.554
 5234SOL    HW116601   2.513   2.567   6.534
 5234SOL    HW216602   2.470   2.424   6.468
 5235SOL     OW16603   1.938   2.157   0.797
 5235SOL    HW116604   1.896   2.120   0.881
 5235SOL    HW216605   1.989   2.240   0.819
 5236SOL     OW16606   3.674   5.803   1.957
 5236SOL    HW116607   3.575   5.786   1.953
 5236SOL    HW216608   3.721   5.742   1.894
 5237SOL     OW16609   1.232   0.962   5.209
 5237SOL    HW116610   1.300   0.983   5.280
 5237SOL    HW216611   1.278   0.960   5.120
 5238SOL     OW16612   0.451   5.310   0.328
 5238SOL    HW116613   0.483   5.295   0.234
 5238SOL    HW216614   0.361   5.353   0.327
 5239SOL     OW16615   3.775   2.449   6.546
 5239SOL    HW116616   3.735   2.486   6.462
 5239SOL    HW216617   3.826   2.520   6.593
 5240SOL     OW16618   3.362   2.260   5.346
 5240SOL    HW116619   3.300   2.206   5.403
 5240SOL    HW216620   3.308   2.311   5.278
 5241SOL     OW16621   0.840   5.998   4.174
 5241SOL    HW116622   0.931   5.960   4.191
 5241SOL    HW216623   0.835   6.029   4.078
 5242SOL     OW16624   6.194   6.539   1.535
 5242SOL    HW116625   6.178   6.604   1.461
 5242SOL    HW216626   6.257   6.578   1.602
 5243SOL     OW16627   1.978   5.539   1.788
 5243SOL    HW116628   1.884   5.572   1.793
 5243SOL    HW216629   2.034   5.589   1.854
 5244SOL     OW16630   3.619   4.739   6.991
 5244SOL    HW116631   3.575   4.736   6.901
 5244SOL    HW216632   3.717   4.751   6.980
 5245SOL     OW16633   3.600   4.287   0.545
 5245SOL    HW116634   3.688   4.241   0.559
 5245SOL    HW216635   3.616   4.386   0.535
 5246SOL     OW16636   6.695   2.697   2.080
 5246SOL    HW116637   6.687   2.612   2.132
 5246SOL    HW216638   6.714   2.773   2.143
 5247SOL     OW16639   2.679   0.315   6.258
 5247SOL    HW116640   2.765   0.343   6.301
 5247SOL    HW216641   2.695   0.293   6.162
 5248SOL     OW16642   6.429   2.317   3.206
 5248SOL    HW116643   6.488   2.249   3.250
 5248SOL    HW216644   6.364   2.352   3.273
 5249SOL     OW16645   0.564   5.865   6.264
 5249SOL    HW116646   0.470   5.843   6.290
 5249SOL    HW216647   0.627   5.828   6.332
 5250SOL     OW16648   0.977   6.036   0.186
 5250SOL    HW116649   1.067   6.064   0.152
 5250SOL    HW216650   0.947   6.099   0.257
 5251SOL     OW16651   1.120   2.979   0.252
 5251SOL    HW116652   1.206   2.932   0.272
 5251SOL    HW216653   1.137   3.078   0.246
 5252SOL     OW16654   3.195   6.410   0.806
 5252SOL    HW116655   3.182   6.358   0.890
 5252SOL    HW216656   3.220   6.504   0.829
 5253SOL     OW16657   6.828   3.906   4.822
 5253SOL    HW116658   6.761   3.838   4.850
 5253SOL    HW216659   6.784   3.976   4.765
 5254SOL     OW16660   5.338   1.127   3.181
 5254SOL    HW116661   5.261   1.179   3.144
 5254SOL    HW216662   5.357   1.048   3.122
 5255SOL     OW16663   5.514   2.112   5.338
 5255SOL    HW116664   5.415   2.122   5.341
 5255SOL    HW216665   5.548   2.088   5.429
 5256SOL     OW16666   5.204   1.808   3.951
 5256SOL    HW116667   5.250   1.801   4.039
 5256SOL    HW216668   5.163   1.719   3.928
 5257SOL     OW16669   5.129   6.953   1.366
 5257SOL    HW116670   5.208   6.892   1.369
 5257SOL    HW216671   5.052   6.906   1.322
 5258SOL     OW16672   5.902   3.125   2.049
 5258SOL    HW116673   5.991   3.116   2.004
 5258SOL    HW216674   5.841   3.052   2.019
 5259SOL     OW16675   4.690   6.023   2.533
 5259SOL    HW116676   4.643   5.941   2.567
 5259SOL    HW216677   4.789   6.006   2.535
 5260SOL     OW16678   4.677   3.633   0.524
 5260SOL    HW116679   4.745   3.563   0.544
 5260SOL    HW216680   4.713   3.723   0.548
 5261SOL     OW16681   6.601   3.940   5.886
 5261SOL    HW116682   6.531   3.877   5.852
 5261SOL    HW216683   6.659   3.893   5.953
 5262SOL     OW16684   2.261   1.552   3.611
 5262SOL    HW116685   2.360   1.546   3.612
 5262SOL    HW216686   2.224   1.511   3.695
 5263SOL     OW16687   1.799   1.296   3.215
 5263SOL    HW116688   1.775   1.206   3.179
 5263SOL    HW216689   1.824   1.289   3.311
 5264SOL     OW16690   6.434   2.153   2.150
 5264SOL    HW116691   6.422   2.251   2.136
 5264SOL    HW216692   6.381   2.102   2.083
 5265SOL     OW16693   6.205   3.648   3.704
 5265SOL    HW116694   6.167   3.590   3.631
 5265SOL    HW216695   6.207   3.596   3.789
 5266SOL     OW16696   3.277   5.903   0.004
 5266SOL    HW116697   3.281   5.835   0.077
 5266SOL    HW216698   3.290   5.995   0.042
 5267SOL     OW16699   4.818   2.157   4.867
 5267SOL    HW116700   4.873   2.137   4.786
 5267SOL    HW216701   4.836   2.251   4.897
 5268SOL     OW16702   5.839   1.037   6.996
 5268SOL    HW116703   5.922   1.040   0.029
 5268SOL    HW216704   5.761   1.014   0.030
 5269SOL     OW16705   1.057   6.598   2.446
 5269SOL    HW116706   0.965   6.609   2.408
 5269SOL    HW216707   1.057   6.521   2.511
 5270SOL     OW16708   5.311   1.060   1.956
 5270SOL    HW116709   5.241   1.130   1.968
 5270SOL    HW216710   5.299   0.989   2.025
 5271SOL     OW16711   6.178   4.830   5.164
 5271SOL    HW116712   6.238   4.858   5.239
 5271SOL    HW216713   6.084   4.824   5.197
 5272SOL     OW16714   3.400   6.229   1.549
 5272SOL    HW116715   3.498   6.237   1.531
 5272SOL    HW216716   3.383   6.244   1.647
 5273SOL     OW16717   0.647   2.806   3.519
 5273SOL    HW116718   0.597   2.759   3.446
 5273SOL    HW216719   0.708   2.874   3.479
 5274SOL     OW16720   6.418   0.319   2.587
 5274SOL    HW116721   6.450   0.226   2.600
 5274SOL    HW216722   6.323   0.318   2.555
 5275SOL     OW16723   3.901   2.040   0.441
 5275SOL    HW116724   3.920   2.130   0.482
 5275SOL    HW216725   3.803   2.029   0.429
 5276SOL     OW16726   1.894   0.273   0.752
 5276SOL    HW116727   1.888   0.286   0.851
 5276SOL    HW216728   1.843   0.191   0.727
 5277SOL     OW16729   2.075   1.741   2.097
 5277SOL    HW116730   2.146   1.734   2.166
 5277SOL    HW216731   1.986   1.749   2.142
 5278SOL     OW16732   5.423   6.015   3.345
 5278SOL    HW116733   5.374   6.101   3.351
 5278SOL    HW216734   5.417   5.967   3.432
 5279SOL     OW16735   2.196   5.370   0.230
 5279SOL    HW116736   2.170   5.463   0.257
 5279SOL    HW216737   2.272   5.374   0.165
 5280SOL     OW16738   3.214   5.756   5.120
 5280SOL    HW116739   3.311   5.737   5.109
 5280SOL    HW216740   3.186   5.825   5.053
 5281SOL     OW16741   6.737   1.539   2.081
 5281SOL    HW116742   6.747   1.466   2.013
 5281SOL    HW216743   6.758   1.627   2.039
 5282SOL     OW16744   3.698   1.750   3.492
 5282SOL    HW116745   3.744   1.806   3.560
 5282SOL    HW216746   3.637   1.807   3.437
 5283SOL     OW16747   4.255   6.323   2.271
 5283SOL    HW116748   4.328   6.358   2.329
 5283SOL    HW216749   4.168   6.365   2.298
 5284SOL     OW16750   4.713   4.291   3.263
 5284SOL    HW116751   4.679   4.218   3.323
 5284SOL    HW216752   4.730   4.253   3.172
 5285SOL     OW16753   2.433   4.573   4.073
 5285SOL    HW116754   2.439   4.475   4.091
 5285SOL    HW216755   2.337   4.601   4.076
 5286SOL     OW16756   1.853   4.633   0.394
 5286SOL    HW116757   1.844   4.667   0.488
 5286SOL    HW216758   1.910   4.551   0.394
 5287SOL     OW16759   3.161   0.837   0.133
 5287SOL    HW116760   3.081   0.832   0.073
 5287SOL    HW216761   3.244   0.822   0.080
 5288SOL     OW16762   2.861   6.990   1.787
 5288SOL    HW116763   2.841   6.892   1.794
 5288SOL    HW216764   2.827   0.013   1.869
 5289SOL     OW16765   2.045   5.094   6.355
 5289SOL    HW116766   2.004   5.043   6.280
 5289SOL    HW216767   1.972   5.130   6.414
 5290SOL     OW16768   2.903   5.507   5.522
 5290SOL    HW116769   2.866   5.598   5.502
 5290SOL    HW216770   2.831   5.449   5.559
 5291SOL     OW16771   2.275   5.964   5.749
 5291SOL    HW116772   2.335   6.033   5.789
 5291SOL    HW216773   2.317   5.874   5.757
 5292SOL     OW16774   5.739   2.644   6.942
 5292SOL    HW116775   5.691   2.588   7.010
 5292SOL    HW216776   5.792   2.585   6.882
 5293SOL     OW16777   0.465   0.978   4.830
 5293SOL    HW116778   0.503   0.925   4.754
 5293SOL    HW216779   0.448   0.917   4.908
 5294SOL     OW16780   4.977   3.650   6.085
 5294SOL    HW116781   4.884   3.671   6.057
 5294SOL    HW216782   4.999   3.556   6.059
 5295SOL     OW16783   6.788   1.226   2.815
 5295SOL    HW116784   6.814   1.201   2.722
 5295SOL    HW216785   6.856   1.192   2.880
 5296SOL     OW16786   1.832   5.738   6.715
 5296SOL    HW116787   1.743   5.784   6.709
 5296SOL    HW216788   1.857   5.703   6.625
 5297SOL     OW16789   1.648   2.025   1.361
 5297SOL    HW116790   1.693   1.957   1.420
 5297SOL    HW216791   1.711   2.100   1.343
 5298SOL     OW16792   6.773   5.957   2.217
 5298SOL    HW116793   6.728   5.894   2.280
 5298SOL    HW216794   6.750   6.051   2.242
 5299SOL     OW16795   2.828   1.929   1.075
 5299SOL    HW116796   2.771   1.931   1.158
 5299SOL    HW216797   2.776   1.888   1.000
 5300SOL     OW16798   0.126   5.780   2.595
 5300SOL    HW116799   0.091   5.776   2.689
 5300SOL    HW216800   0.181   5.699   2.577
 5301SOL     OW16801   4.605   1.597   0.406
 5301SOL    HW116802   4.590   1.679   0.351
 5301SOL    HW216803   4.528   1.535   0.396
 5302SOL     OW16804   6.162   5.107   3.198
 5302SOL    HW116805   6.145   5.043   3.273
 5302SOL    HW216806   6.237   5.073   3.141
 5303SOL     OW16807   6.743   0.060   3.878
 5303SOL    HW116808   6.757   6.985   3.866
 5303SOL    HW216809   6.831   0.103   3.901
 5304SOL     OW16810   6.267   2.444   6.227
 5304SOL    HW116811   6.188   2.461   6.168
 5304SOL    HW216812   6.350   2.477   6.182
 5305SOL     OW16813   1.202   0.134   3.845
 5305SOL    HW116814   1.127   0.198   3.828
 5305SOL    HW216815   1.288   0.178   3.820
 5306SOL     OW16816   1.950   6.521   5.031
 5306SOL    HW116817   1.902   6.607   5.049
 5306SOL    HW216818   1.888   6.457   4.984
 5307SOL     OW16819   4.359   6.274   6.306
 5307SOL    HW116820   4.286   6.218   6.267
 5307SOL    HW216821   4.374   6.248   6.401
 5308SOL     OW16822   0.249   0.628   4.063
 5308SOL    HW116823   0.189   0.633   3.983
 5308SOL    HW216824   0.331   0.683   4.046
 5309SOL     OW16825   4.022   3.852   3.426
 5309SOL    HW116826   4.008   3.779   3.493
 5309SOL    HW216827   4.011   3.941   3.471
 5310SOL     OW16828   4.873   2.242   2.016
 5310SOL    HW116829   4.906   2.249   2.110
 5310SOL    HW216830   4.820   2.323   1.993
 5311SOL     OW16831   0.512   5.798   6.867
 5311SOL    HW116832   0.494   5.857   6.788
 5311SOL    HW216833   0.610   5.788   6.879
 5312SOL     OW16834   0.271   4.902   2.357
 5312SOL    HW116835   0.286   4.875   2.452
 5312SOL    HW216836   0.175   4.924   2.344
 5313SOL     OW16837   0.531   5.215   0.062
 5313SOL    HW116838   0.584   5.144   0.108
 5313SOL    HW216839   0.565   5.228   6.992
 5314SOL     OW16840   4.891   5.365   0.896
 5314SOL    HW116841   4.824   5.378   0.823
 5314SOL    HW216842   4.951   5.289   0.873
 5315SOL     OW16843   4.612   4.411   1.744
 5315SOL    HW116844   4.587   4.396   1.648
 5315SOL    HW216845   4.566   4.343   1.801
 5316SOL     OW16846   0.249   5.540   4.327
 5316SOL    HW116847   0.333   5.541   4.273
 5316SOL    HW216848   0.236   5.628   4.372
 5317SOL     OW16849   5.465   1.237   4.270
 5317SOL    HW116850   5.463   1.187   4.356
 5317SOL    HW216851   5.388   1.209   4.213
 5318SOL     OW16852   6.919   2.020   4.752
 5318SOL    HW116853   6.860   2.093   4.717
 5318SOL    HW216854   6.873   1.932   4.742
 5319SOL     OW16855   4.891   6.721   6.735
 5319SOL    HW116856   4.942   6.807   6.727
 5319SOL    HW216857   4.949   6.646   6.705
 5320SOL     OW16858   6.341   5.105   0.341
 5320SOL    HW116859   6.429   5.145   0.318
 5320SOL    HW216860   6.291   5.083   0.257
 5321SOL     OW16861   0.725   5.090   3.359
 5321SOL    HW116862   0.747   5.066   3.264
 5321SOL    HW216863   0.638   5.138   3.362
 5322SOL     OW16864   3.742   6.559   6.813
 5322SOL    HW116865   3.745   6.542   6.911
 5322SOL    HW216866   3.684   6.639   6.795
 5323SOL     OW16867   4.639   2.818   1.224
 5323SOL    HW116868   4.607   2.895   1.168
 5323SOL    HW216869   4.670   2.852   1.313
 5324SOL     OW16870   3.740   2.536   1.690
 5324SOL    HW116871   3.736   2.538   1.590
 5324SOL    HW216872   3.715   2.445   1.723
 5325SOL     OW16873   5.769   0.314   3.085
 5325SOL    HW116874   5.754   0.215   3.081
 5325SOL    HW216875   5.838   0.334   3.154
 5326SOL     OW16876   6.138   4.883   2.656
 5326SOL    HW116877   6.140   4.966   2.713
 5326SOL    HW216878   6.091   4.903   2.570
 5327SOL     OW16879   0.323   6.233   5.655
 5327SOL    HW116880   0.238   6.259   5.700
 5327SOL    HW216881   0.303   6.175   5.575
 5328SOL     OW16882   3.419   2.404   5.663
 5328SOL    HW116883   3.496   2.379   5.605
 5328SOL    HW216884   3.336   2.361   5.629
 5329SOL     OW16885   6.581   3.892   0.682
 5329SOL    HW116886   6.546   3.897   0.589
 5329SOL    HW216887   6.667   3.943   0.689
 5330SOL     OW16888   3.739   4.302   6.948
 5330SOL    HW116889   3.835   4.277   6.943
 5330SOL    HW216890   3.683   4.219   6.947
 5331SOL     OW16891   4.863   2.021   0.820
 5331SOL    HW116892   4.856   2.107   0.769
 5331SOL    HW216893   4.793   1.957   0.788
 5332SOL     OW16894   6.472   4.663   0.071
 5332SOL    HW116895   6.443   4.571   0.096
 5332SOL    HW216896   6.508   4.709   0.152
 5333SOL     OW16897   1.947   1.180   3.732
 5333SOL    HW116898   1.991   1.136   3.811
 5333SOL    HW216899   1.849   1.188   3.748
 5334SOL     OW16900   4.851   5.348   4.465
 5334SOL    HW116901   4.797   5.271   4.431
 5334SOL    HW216902   4.790   5.426   4.483
 5335SOL     OW16903   6.803   4.294   2.315
 5335SOL    HW116904   6.703   4.293   2.321
 5335SOL    HW216905   6.841   4.340   2.395
 5336SOL     OW16906   1.918   1.970   3.610
 5336SOL    HW116907   1.872   1.915   3.541
 5336SOL    HW216908   1.981   1.913   3.663
 5337SOL     OW16909   5.837   4.888   1.845
 5337SOL    HW116910   5.836   4.795   1.808
 5337SOL    HW216911   5.819   4.883   1.944
 5338SOL     OW16912   5.468   2.725   0.125
 5338SOL    HW116913   5.446   2.764   0.036
 5338SOL    HW216914   5.506   2.797   0.184
 5339SOL     OW16915   5.808   1.934   1.417
 5339SOL    HW116916   5.837   1.898   1.506
 5339SOL    HW216917   5.709   1.947   1.417
 5340SOL     OW16918   5.276   3.839   1.636
 5340SOL    HW116919   5.286   3.863   1.539
 5340SOL    HW216920   5.304   3.744   1.650
 5341SOL     OW16921   4.328   4.664   4.383
 5341SOL    HW116922   4.411   4.670   4.439
 5341SOL    HW216923   4.249   4.692   4.437
 5342SOL     OW16924   4.793   6.476   5.394
 5342SOL    HW116925   4.865   6.437   5.335
 5342SOL    HW216926   4.741   6.544   5.342
 5343SOL     OW16927   3.734   3.541   4.557
 5343SOL    HW116928   3.817   3.581   4.516
 5343SOL    HW216929   3.760   3.485   4.636
 5344SOL     OW16930   0.318   1.433   6.626
 5344SOL    HW116931   0.273   1.346   6.647
 5344SOL    HW216932   0.284   1.504   6.686
 5345SOL     OW16933   4.793   0.998   0.300
 5345SOL    HW116934   4.751   1.088   0.288
 5345SOL    HW216935   4.809   0.956   0.211
 5346SOL     OW16936   2.682   4.924   4.088
 5346SOL    HW116937   2.605   4.886   4.141
 5346SOL    HW216938   2.673   5.023   4.084
 5347SOL     OW16939   0.181   2.846   3.523
 5347SOL    HW116940   0.099   2.891   3.488
 5347SOL    HW216941   0.240   2.820   3.446
 5348SOL     OW16942   0.120   1.218   5.219
 5348SOL    HW116943   0.045   1.194   5.157
 5348SOL    HW216944   0.206   1.184   5.183
 5349SOL     OW16945   2.117   3.080   2.024
 5349SOL    HW116946   2.179   3.078   1.945
 5349SOL    HW216947   2.024   3.093   1.992
 5350SOL     OW16948   1.647   6.621   5.661
 5350SOL    HW116949   1.679   6.605   5.568
 5350SOL    HW216950   1.557   6.665   5.657
 5351SOL     OW16951   0.427   4.418   2.161
 5351SOL    HW116952   0.428   4.508   2.205
 5351SOL    HW216953   0.519   4.398   2.126
 5352SOL     OW16954   2.360   4.570   2.712
 5352SOL    HW116955   2.352   4.662   2.752
 5352SOL    HW216956   2.412   4.575   2.627
 5353SOL     OW16957   3.460   5.257   3.705
 5353SOL    HW116958   3.547   5.208   3.714
 5353SOL    HW216959   3.468   5.348   3.747
 5354SOL     OW16960   2.832   4.301   0.121
 5354SOL    HW116961   2.752   4.246   0.144
 5354SOL    HW216962   2.820   4.340   0.029
 5355SOL     OW16963   4.701   5.170   5.409
 5355SOL    HW116964   4.777   5.136   5.464
 5355SOL    HW216965   4.630   5.100   5.402
 5356SOL     OW16966   6.809   2.987   2.037
 5356SOL    HW116967   6.894   2.955   1.997
 5356SOL    HW216968   6.802   2.956   2.132
 5357SOL     OW16969   4.096   4.811   1.956
 5357SOL    HW116970   4.166   4.881   1.942
 5357SOL    HW216971   4.071   4.771   1.867
 5358SOL     OW16972   4.657   2.096   0.208
 5358SOL    HW116973   4.674   2.046   0.293
 5358SOL    HW216974   4.569   2.068   0.170
 5359SOL     OW16975   2.255   2.358   6.725
 5359SOL    HW116976   2.346   2.374   6.684
 5359SOL    HW216977   2.185   2.377   6.657
 5360SOL     OW16978   5.348   5.884   3.143
 5360SOL    HW116979   5.281   5.955   3.121
 5360SOL    HW216980   5.391   5.905   3.230
 5361SOL     OW16981   3.071   6.557   3.278
 5361SOL    HW116982   3.151   6.539   3.221
 5361SOL    HW216983   2.994   6.502   3.246
 5362SOL     OW16984   6.545   6.484   2.532
 5362SOL    HW116985   6.608   6.526   2.597
 5362SOL    HW216986   6.455   6.526   2.541
 5363SOL     OW16987   5.352   6.136   4.693
 5363SOL    HW116988   5.274   6.091   4.649
 5363SOL    HW216989   5.423   6.068   4.712
 5364SOL     OW16990   5.326   0.793   2.125
 5364SOL    HW116991   5.274   0.745   2.195
 5364SOL    HW216992   5.324   0.741   2.040
 5365SOL     OW16993   2.938   3.715   2.359
 5365SOL    HW116994   2.893   3.704   2.270
 5365SOL    HW216995   3.006   3.788   2.352
 5366SOL     OW16996   6.586   0.156   1.809
 5366SOL    HW116997   6.547   0.247   1.820
 5366SOL    HW216998   6.524   0.087   1.848
 5367SOL     OW16999   5.937   0.217   0.641
 5367SOL    HW117000   5.917   0.291   0.578
 5367SOL    HW217001   5.852   0.179   0.677
 5368SOL     OW17002   0.339   5.786   2.289
 5368SOL    HW117003   0.303   5.871   2.328
 5368SOL    HW217004   0.297   5.708   2.335
 5369SOL     OW17005   2.898   6.003   1.552
 5369SOL    HW117006   2.852   5.916   1.568
 5369SOL    HW217007   2.985   5.987   1.504
 5370SOL     OW17008   4.102   3.111   1.811
 5370SOL    HW117009   4.178   3.053   1.785
 5370SOL    HW217010   4.040   3.122   1.733
 5371SOL     OW17011   0.311   5.037   5.271
 5371SOL    HW117012   0.213   5.039   5.293
 5371SOL    HW217013   0.329   5.105   5.200
 5372SOL     OW17014   1.034   0.331   2.433
 5372SOL    HW117015   1.049   0.246   2.485
 5372SOL    HW217016   1.076   0.322   2.343
 5373SOL     OW17017   3.843   6.740   6.243
 5373SOL    HW117018   3.937   6.707   6.228
 5373SOL    HW217019   3.784   6.663   6.266
 5374SOL     OW17020   2.481   4.664   1.119
 5374SOL    HW117021   2.512   4.730   1.187
 5374SOL    HW217022   2.417   4.710   1.056
 5375SOL     OW17023   0.664   6.312   5.466
 5375SOL    HW117024   0.656   6.268   5.556
 5375SOL    HW217025   0.724   6.392   5.474
 5376SOL     OW17026   1.286   2.152   2.257
 5376SOL    HW117027   1.352   2.082   2.287
 5376SOL    HW217028   1.325   2.203   2.180
 5377SOL     OW17029   2.142   0.944   3.301
 5377SOL    HW117030   2.227   0.914   3.258
 5377SOL    HW217031   2.162   1.008   3.374
 5378SOL     OW17032   5.874   0.468   0.509
 5378SOL    HW117033   5.774   0.468   0.505
 5378SOL    HW217034   5.905   0.541   0.570
 5379SOL     OW17035   1.106   3.085   5.518
 5379SOL    HW117036   1.106   3.185   5.513
 5379SOL    HW217037   1.192   3.050   5.484
 5380SOL     OW17038   3.280   0.101   1.238
 5380SOL    HW117039   3.270   0.158   1.319
 5380SOL    HW217040   3.361   0.128   1.187
 5381SOL     OW17041   6.293   5.896   2.298
 5381SOL    HW117042   6.361   5.969   2.299
 5381SOL    HW217043   6.203   5.936   2.276
 5382SOL     OW17044   3.621   2.085   2.502
 5382SOL    HW117045   3.541   2.035   2.536
 5382SOL    HW217046   3.594   2.141   2.424
 5383SOL     OW17047   0.959   3.130   4.598
 5383SOL    HW117048   0.923   3.221   4.618
 5383SOL    HW217049   1.000   3.090   4.680
 5384SOL     OW17050   4.574   5.262   4.773
 5384SOL    HW117051   4.533   5.261   4.864
 5384SOL    HW217052   4.638   5.186   4.764
 5385SOL     OW17053   6.731   2.448   5.616
 5385SOL    HW117054   6.693   2.357   5.628
 5385SOL    HW217055   6.830   2.441   5.602
 5386SOL     OW17056   5.390   2.081   4.100
 5386SOL    HW117057   5.387   2.045   4.006
 5386SOL    HW217058   5.329   2.160   4.107
 5387SOL     OW17059   2.963   6.940   3.147
 5387SOL    HW117060   2.927   6.933   3.053
 5387SOL    HW217061   3.051   6.893   3.152
 5388SOL     OW17062   1.469   6.518   2.662
 5388SOL    HW117063   1.521   6.517   2.748
 5388SOL    HW217064   1.529   6.496   2.586
 5389SOL     OW17065   4.246   2.243   4.392
 5389SOL    HW117066   4.155   2.215   4.422
 5389SOL    HW217067   4.260   2.213   4.297
 5390SOL     OW17068   5.377   3.542   4.072
 5390SOL    HW117069   5.347   3.482   3.997
 5390SOL    HW217070   5.305   3.547   4.141
 5391SOL     OW17071   2.889   2.317   0.010
 5391SOL    HW117072   2.902   2.406   6.990
 5391SOL    HW217073   2.858   2.330   0.104
 5392SOL     OW17074   4.751   2.801   2.402
 5392SOL    HW117075   4.795   2.821   2.314
 5392SOL    HW217076   4.739   2.885   2.454
 5393SOL     OW17077   4.502   0.322   5.196
 5393SOL    HW117078   4.413   0.357   5.224
 5393SOL    HW217079   4.561   0.312   5.276
 5394SOL     OW17080   0.901   6.279   1.491
 5394SOL    HW117081   0.813   6.240   1.516
 5394SOL    HW217082   0.891   6.335   1.408
 5395SOL     OW17083   5.014   0.837   1.074
 5395SOL    HW117084   4.958   0.800   1.148
 5395SOL    HW217085   4.997   0.935   1.065
 5396SOL     OW17086   5.524   5.964   1.724
 5396SOL    HW117087   5.518   5.893   1.795
 5396SOL    HW217088   5.499   5.925   1.636
 5397SOL     OW17089   6.719   1.810   1.936
 5397SOL    HW117090   6.747   1.873   1.863
 5397SOL    HW217091   6.757   1.841   2.023
 5398SOL     OW17092   3.856   2.105   3.427
 5398SOL    HW117093   3.894   2.159   3.503
 5398SOL    HW217094   3.930   2.059   3.378
 5399SOL     OW17095   2.176   6.469   5.869
 5399SOL    HW117096   2.172   6.372   5.891
 5399SOL    HW217097   2.099   6.517   5.912
 5400SOL     OW17098   3.581   3.132   0.850
 5400SOL    HW117099   3.670   3.090   0.867
 5400SOL    HW217100   3.510   3.079   0.898
 5401SOL     OW17101   4.939   4.447   3.284
 5401SOL    HW117102   5.010   4.383   3.314
 5401SOL    HW217103   4.855   4.397   3.265
 5402SOL     OW17104   3.542   6.482   0.843
 5402SOL    HW117105   3.458   6.537   0.847
 5402SOL    HW217106   3.519   6.386   0.830
 5403SOL     OW17107   5.275   3.073   6.168
 5403SOL    HW117108   5.309   3.072   6.261
 5403SOL    HW217109   5.180   3.104   6.167
 5404SOL     OW17110   0.608   0.599   1.017
 5404SOL    HW117111   0.703   0.587   1.045
 5404SOL    HW217112   0.590   0.544   0.935
 5405SOL     OW17113   5.808   5.046   0.143
 5405SOL    HW117114   5.713   5.071   0.129
 5405SOL    HW217115   5.856   5.043   0.055
 5406SOL     OW17116   1.812   1.040   4.738
 5406SOL    HW117117   1.804   0.999   4.829
 5406SOL    HW217118   1.725   1.028   4.689
 5407SOL     OW17119   2.788   1.344   1.596
 5407SOL    HW117120   2.840   1.330   1.681
 5407SOL    HW217121   2.827   1.287   1.524
 5408SOL     OW17122   3.875   1.761   4.680
 5408SOL    HW117123   3.885   1.743   4.778
 5408SOL    HW217124   3.922   1.846   4.657
 5409SOL     OW17125   6.254   2.024   1.973
 5409SOL    HW117126   6.293   1.947   1.922
 5409SOL    HW217127   6.278   2.110   1.926
 5410SOL     OW17128   0.572   2.908   0.840
 5410SOL    HW117129   0.517   2.832   0.805
 5410SOL    HW217130   0.634   2.940   0.769
 5411SOL     OW17131   5.742   4.280   0.045
 5411SOL    HW117132   5.683   4.338   0.102
 5411SOL    HW217133   5.706   4.187   0.044
 5412SOL     OW17134   2.173   1.439   6.332
 5412SOL    HW117135   2.155   1.383   6.413
 5412SOL    HW217136   2.164   1.382   6.250
 5413SOL     OW17137   6.845   0.265   5.765
 5413SOL    HW117138   6.810   0.264   5.671
 5413SOL    HW217139   6.901   0.346   5.779
 5414SOL     OW17140   0.095   4.704   5.810
 5414SOL    HW117141   0.129   4.797   5.798
 5414SOL    HW217142   0.144   4.643   5.748
 5415SOL     OW17143   3.000   5.688   0.269
 5415SOL    HW117144   2.930   5.705   0.199
 5415SOL    HW217145   3.019   5.590   0.275
 5416SOL     OW17146   3.060   5.044   4.728
 5416SOL    HW117147   3.011   5.129   4.743
 5416SOL    HW217148   3.035   4.977   4.797
 5417SOL     OW17149   4.292   6.543   4.122
 5417SOL    HW117150   4.305   6.641   4.102
 5417SOL    HW217151   4.195   6.521   4.115
 5418SOL     OW17152   5.578   4.703   4.836
 5418SOL    HW117153   5.653   4.680   4.897
 5418SOL    HW217154   5.521   4.621   4.821
 5419SOL     OW17155   4.065   6.729   0.063
 5419SOL    HW117156   4.136   6.793   0.093
 5419SOL    HW217157   3.977   6.776   0.059
 5420SOL     OW17158   1.482   1.635   1.617
 5420SOL    HW117159   1.570   1.587   1.609
 5420SOL    HW217160   1.427   1.590   1.688
 5421SOL     OW17161   3.110   5.527   2.409
 5421SOL    HW117162   3.142   5.617   2.440
 5421SOL    HW217163   3.010   5.524   2.414
 5422SOL     OW17164   2.146   5.652   4.218
 5422SOL    HW117165   2.206   5.575   4.196
 5422SOL    HW217166   2.183   5.702   4.296
 5423SOL     OW17167   6.167   5.433   2.164
 5423SOL    HW117168   6.139   5.360   2.226
 5423SOL    HW217169   6.102   5.509   2.171
 5424SOL     OW17170   5.090   4.121   4.776
 5424SOL    HW117171   5.182   4.138   4.813
 5424SOL    HW217172   5.026   4.104   4.850
 5425SOL     OW17173   6.437   2.885   5.001
 5425SOL    HW117174   6.469   2.961   5.057
 5425SOL    HW217175   6.436   2.911   4.905
 5426SOL     OW17176   4.805   5.047   2.028
 5426SOL    HW117177   4.857   4.989   2.091
 5426SOL    HW217178   4.716   5.068   2.067
 5427SOL     OW17179   4.593   2.854   0.430
 5427SOL    HW117180   4.557   2.923   0.492
 5427SOL    HW217181   4.634   2.898   0.350
 5428SOL     OW17182   5.251   5.817   2.320
 5428SOL    HW117183   5.258   5.851   2.226
 5428SOL    HW217184   5.322   5.748   2.335
 5429SOL     OW17185   2.940   6.922   4.549
 5429SOL    HW117186   2.938   6.964   4.458
 5429SOL    HW217187   3.027   6.876   4.563
 5430SOL     OW17188   1.994   3.210   5.633
 5430SOL    HW117189   2.072   3.220   5.571
 5430SOL    HW217190   2.002   3.277   5.707
 5431SOL     OW17191   3.390   5.150   6.394
 5431SOL    HW117192   3.324   5.085   6.356
 5431SOL    HW217193   3.416   5.216   6.323
 5432SOL     OW17194   5.496   6.121   0.480
 5432SOL    HW117195   5.438   6.178   0.537
 5432SOL    HW217196   5.568   6.079   0.536
 5433SOL     OW17197   1.449   6.809   1.234
 5433SOL    HW117198   1.520   6.828   1.301
 5433SOL    HW217199   1.359   6.819   1.277
 5434SOL     OW17200   4.560   0.988   4.555
 5434SOL    HW117201   4.657   1.002   4.574
 5434SOL    HW217202   4.526   1.065   4.501
 5435SOL     OW17203   6.075   3.695   0.518
 5435SOL    HW117204   6.040   3.768   0.576
 5435SOL    HW217205   6.002   3.629   0.501
 5436SOL     OW17206   0.431   5.537   3.242
 5436SOL    HW117207   0.453   5.471   3.170
 5436SOL    HW217208   0.417   5.488   3.328
 5437SOL     OW17209   3.206   4.994   6.229
 5437SOL    HW117210   3.256   5.047   6.160
 5437SOL    HW217211   3.124   4.955   6.188
 5438SOL     OW17212   5.470   4.869   1.789
 5438SOL    HW117213   5.526   4.806   1.843
 5438SOL    HW217214   5.379   4.876   1.831
 5439SOL     OW17215   1.053   3.847   0.173
 5439SOL    HW117216   1.050   3.931   0.227
 5439SOL    HW217217   0.984   3.850   0.101
 5440SOL     OW17218   5.649   6.907   3.234
 5440SOL    HW117219   5.725   6.943   3.289
 5440SOL    HW217220   5.563   6.921   3.282
 5441SOL     OW17221   5.252   3.070   3.630
 5441SOL    HW117222   5.177   3.077   3.696
 5441SOL    HW217223   5.239   3.136   3.557
 5442SOL     OW17224   4.704   0.605   3.749
 5442SOL    HW117225   4.767   0.655   3.689
 5442SOL    HW217226   4.729   0.508   3.750
 5443SOL     OW17227   4.609   6.841   4.187
 5443SOL    HW117228   4.584   6.782   4.263
 5443SOL    HW217229   4.685   6.900   4.215
 5444SOL     OW17230   0.180   1.839   4.277
 5444SOL    HW117231   0.133   1.927   4.264
 5444SOL    HW217232   0.190   1.793   4.189
 5445SOL     OW17233   5.037   5.242   4.907
 5445SOL    HW117234   5.027   5.268   5.003
 5445SOL    HW217235   5.014   5.319   4.848
 5446SOL     OW17236   6.716   4.909   4.654
 5446SOL    HW117237   6.711   4.961   4.740
 5446SOL    HW217238   6.630   4.861   4.639
 5447SOL     OW17239   2.507   1.269   1.450
 5447SOL    HW117240   2.583   1.226   1.499
 5447SOL    HW217241   2.514   1.368   1.459
 5448SOL     OW17242   4.325   5.488   3.832
 5448SOL    HW117243   4.298   5.438   3.914
 5448SOL    HW217244   4.331   5.586   3.852
 5449SOL     OW17245   2.911   1.241   1.912
 5449SOL    HW117246   2.903   1.341   1.905
 5449SOL    HW217247   3.007   1.215   1.908
 5450SOL     OW17248   3.244   5.942   1.753
 5450SOL    HW117249   3.223   5.938   1.655
 5450SOL    HW217250   3.317   6.009   1.769
 5451SOL     OW17251   1.367   6.886   2.765
 5451SOL    HW117252   1.330   6.961   2.821
 5451SOL    HW217253   1.302   6.810   2.766
 5452SOL     OW17254   1.785   4.542   1.072
 5452SOL    HW117255   1.846   4.514   1.146
 5452SOL    HW217256   1.690   4.528   1.101
 5453SOL     OW17257   4.840   3.933   2.107
 5453SOL    HW117258   4.896   3.987   2.044
 5453SOL    HW217259   4.758   3.901   2.060
 5454SOL     OW17260   5.774   6.277   2.363
 5454SOL    HW117261   5.701   6.337   2.396
 5454SOL    HW217262   5.863   6.318   2.385
 5455SOL     OW17263   0.878   1.585   2.890
 5455SOL    HW117264   0.954   1.580   2.825
 5455SOL    HW217265   0.792   1.571   2.841
 5456SOL     OW17266   5.188   0.604   0.083
 5456SOL    HW117267   5.160   0.606   0.179
 5456SOL    HW217268   5.151   0.522   0.040
 5457SOL     OW17269   6.304   1.893   0.147
 5457SOL    HW117270   6.253   1.875   0.231
 5457SOL    HW217271   6.262   1.969   0.097
 5458SOL     OW17272   6.278   5.238   1.026
 5458SOL    HW117273   6.208   5.253   0.957
 5458SOL    HW217274   6.369   5.249   0.985
 5459SOL     OW17275   2.122   5.030   5.776
 5459SOL    HW117276   2.169   5.106   5.821
 5459SOL    HW217277   2.189   4.972   5.731
 5460SOL     OW17278   2.040   1.459   1.472
 5460SOL    HW117279   2.115   1.507   1.518
 5460SOL    HW217280   1.954   1.478   1.519
 5461SOL     OW17281   1.430   1.534   5.789
 5461SOL    HW117282   1.405   1.440   5.811
 5461SOL    HW217283   1.360   1.574   5.730
 5462SOL     OW17284   5.593   5.915   6.943
 5462SOL    HW117285   5.601   5.948   6.849
 5462SOL    HW217286   5.573   5.991   7.003
 5463SOL     OW17287   6.262   1.999   6.456
 5463SOL    HW117288   6.227   1.936   6.525
 5463SOL    HW217289   6.186   2.045   6.411
 5464SOL     OW17290   6.438   5.611   5.105
 5464SOL    HW117291   6.388   5.639   5.187
 5464SOL    HW217292   6.512   5.549   5.131
 5465SOL     OW17293   6.434   6.875   3.310
 5465SOL    HW117294   6.403   6.834   3.396
 5465SOL    HW217295   6.510   6.821   3.273
 5466SOL     OW17296   5.477   2.900   5.451
 5466SOL    HW117297   5.453   2.889   5.354
 5466SOL    HW217298   5.393   2.913   5.504
 5467SOL     OW17299   5.856   3.514   3.643
 5467SOL    HW117300   5.843   3.569   3.726
 5467SOL    HW217301   5.890   3.572   3.569
 5468SOL     OW17302   6.987   2.546   3.568
 5468SOL    HW117303   0.052   2.507   3.540
 5468SOL    HW217304   6.961   2.619   3.505
 5469SOL     OW17305   2.034   6.759   6.271
 5469SOL    HW117306   2.000   6.774   6.364
 5469SOL    HW217307   1.988   6.822   6.209
 5470SOL     OW17308   4.165   5.045   3.832
 5470SOL    HW117309   4.240   5.073   3.772
 5470SOL    HW217310   4.203   5.005   3.916
 5471SOL     OW17311   6.107   0.299   2.228
 5471SOL    HW117312   6.142   0.299   2.322
 5471SOL    HW217313   6.050   0.379   2.213
 5472SOL     OW17314   3.309   2.814   5.727
 5472SOL    HW117315   3.241   2.876   5.689
 5472SOL    HW217316   3.276   2.720   5.720
 5473SOL     OW17317   1.717   4.654   0.624
 5473SOL    HW117318   1.778   4.702   0.687
 5473SOL    HW217319   1.657   4.721   0.580
 5474SOL     OW17320   1.170   5.863   3.722
 5474SOL    HW117321   1.181   5.793   3.651
 5474SOL    HW217322   1.092   5.921   3.700
 5475SOL     OW17323   1.680   1.674   1.060
 5475SOL    HW117324   1.662   1.582   1.024
 5475SOL    HW217325   1.656   1.677   1.157
 5476SOL     OW17326   2.611   5.094   5.094
 5476SOL    HW117327   2.533   5.124   5.148
 5476SOL    HW217328   2.647   5.008   5.131
 5477SOL     OW17329   1.549   4.469   2.718
 5477SOL    HW117330   1.522   4.386   2.767
 5477SOL    HW217331   1.520   4.549   2.769
 5478SOL     OW17332   4.859   5.563   6.011
 5478SOL    HW117333   4.952   5.580   6.045
 5478SOL    HW217334   4.849   5.466   5.989
 5479SOL     OW17335   4.272   0.959   4.008
 5479SOL    HW117336   4.291   0.938   4.104
 5479SOL    HW217337   4.346   0.922   3.952
 5480SOL     OW17338   6.101   5.335   5.172
 5480SOL    HW117339   6.054   5.422   5.160
 5480SOL    HW217340   6.035   5.260   5.167
 5481SOL     OW17341   5.036   0.691   4.783
 5481SOL    HW117342   4.940   0.662   4.790
 5481SOL    HW217343   5.057   0.712   4.688
 5482SOL     OW17344   3.339   4.085   2.087
 5482SOL    HW117345   3.268   4.128   2.030
 5482SOL    HW217346   3.308   4.083   2.182
 5483SOL     OW17347   6.266   2.541   5.411
 5483SOL    HW117348   6.213   2.587   5.340
 5483SOL    HW217349   6.276   2.444   5.387
 5484SOL     OW17350   5.952   0.265   3.293
 5484SOL    HW117351   5.908   0.334   3.350
 5484SOL    HW217352   6.042   0.242   3.331
 5485SOL     OW17353   2.946   0.018   4.796
 5485SOL    HW117354   2.870   0.078   4.820
 5485SOL    HW217355   2.944   7.021   4.698
 5486SOL     OW17356   2.314   6.927   3.955
 5486SOL    HW117357   2.231   6.977   3.929
 5486SOL    HW217358   2.304   6.891   4.047
 5487SOL     OW17359   5.756   3.942   6.708
 5487SOL    HW117360   5.768   4.035   6.744
 5487SOL    HW217361   5.697   3.890   6.770
 5488SOL     OW17362   4.892   1.607   0.817
 5488SOL    HW117363   4.897   1.529   0.879
 5488SOL    HW217364   4.809   1.599   0.761
 5489SOL     OW17365   1.473   3.923   1.867
 5489SOL    HW117366   1.571   3.929   1.851
 5489SOL    HW217367   1.443   3.828   1.857
 5490SOL     OW17368   3.823   0.063   0.942
 5490SOL    HW117369   3.749   0.012   0.897
 5490SOL    HW217370   3.839   0.149   0.893
 5491SOL     OW17371   1.040   4.151   6.324
 5491SOL    HW117372   0.976   4.089   6.370
 5491SOL    HW217373   0.997   4.189   6.242
 5492SOL     OW17374   1.184   2.076   5.852
 5492SOL    HW117375   1.201   1.998   5.792
 5492SOL    HW217376   1.100   2.060   5.903
 5493SOL     OW17377   3.486   3.596   4.467
 5493SOL    HW117378   3.582   3.571   4.475
 5493SOL    HW217379   3.433   3.548   4.538
 5494SOL     OW17380   6.401   2.235   0.141
 5494SOL    HW117381   6.329   2.181   0.185
 5494SOL    HW217382   6.488   2.221   0.189
 5495SOL     OW17383   3.128   2.910   1.879
 5495SOL    HW117384   3.063   2.838   1.857
 5495SOL    HW217385   3.079   2.991   1.912
 5496SOL     OW17386   2.792   6.579   2.498
 5496SOL    HW117387   2.784   6.494   2.447
 5496SOL    HW217388   2.730   6.578   2.576
 5497SOL     OW17389   0.022   2.092   3.530
 5497SOL    HW117390   7.009   2.126   3.443
 5497SOL    HW217391   0.121   2.085   3.524
 5498SOL     OW17392   5.323   0.572   0.523
 5498SOL    HW117393   5.376   0.550   0.441
 5498SOL    HW217394   5.262   0.649   0.503
 5499SOL     OW17395   1.143   0.749   3.895
 5499SOL    HW117396   1.096   0.786   3.815
 5499SOL    HW217397   1.082   0.687   3.945
 5500SOL     OW17398   1.349   5.817   6.814
 5500SOL    HW117399   1.322   5.785   6.905
 5500SOL    HW217400   1.410   5.749   6.772
 5501SOL     OW17401   3.315   6.937   0.830
 5501SOL    HW117402   3.283   7.019   0.781
 5501SOL    HW217403   3.239   6.899   0.882
 5502SOL     OW17404   5.875   4.523   6.050
 5502SOL    HW117405   5.816   4.511   5.969
 5502SOL    HW217406   5.863   4.445   6.111
 5503SOL     OW17407   0.153   4.242   2.939
 5503SOL    HW117408   0.202   4.195   2.866
 5503SOL    HW217409   0.142   4.181   3.017
 5504SOL     OW17410   2.972   1.348   5.671
 5504SOL    HW117411   3.061   1.366   5.712
 5504SOL    HW217412   2.911   1.425   5.688
 5505SOL     OW17413   2.875   5.397   4.513
 5505SOL    HW117414   2.791   5.354   4.479
 5505SOL    HW217415   2.858   5.494   4.529
 5506SOL     OW17416   6.606   0.752   5.756
 5506SOL    HW117417   6.560   0.708   5.833
 5506SOL    HW217418   6.539   0.779   5.687
 5507SOL     OW17419   2.517   0.043   2.750
 5507SOL    HW117420   2.557   0.063   2.840
 5507SOL    HW217421   2.465   0.123   2.718
 5508SOL     OW17422   2.585   1.358   0.015
 5508SOL    HW117423   2.618   1.391   6.949
 5508SOL    HW217424   2.654   1.376   0.085
 5509SOL     OW17425   0.937   6.582   0.113
 5509SOL    HW117426   0.924   6.600   0.211
 5509SOL    HW217427   1.031   6.553   0.096
 5510SOL     OW17428   5.186   6.033   0.736
 5510SOL    HW117429   5.243   6.011   0.815
 5510SOL    HW217430   5.204   6.128   0.708
 5511SOL     OW17431   2.812   0.065   4.003
 5511SOL    HW117432   2.775   7.010   4.053
 5511SOL    HW217433   2.771   0.070   3.912
 5512SOL     OW17434   6.464   1.942   0.763
 5512SOL    HW117435   6.555   1.967   0.797
 5512SOL    HW217436   6.409   2.025   0.753
 5513SOL     OW17437   4.115   4.403   6.337
 5513SOL    HW117438   4.027   4.415   6.291
 5513SOL    HW217439   4.184   4.376   6.269
 5514SOL     OW17440   4.680   5.353   2.568
 5514SOL    HW117441   4.588   5.381   2.538
 5514SOL    HW217442   4.698   5.390   2.659
 5515SOL     OW17443   0.529   4.194   1.619
 5515SOL    HW117444   0.535   4.262   1.546
 5515SOL    HW217445   0.509   4.104   1.580
 5516SOL     OW17446   1.097   2.599   0.417
 5516SOL    HW117447   1.123   2.673   0.354
 5516SOL    HW217448   1.176   2.543   0.438
 5517SOL     OW17449   2.720   2.337   2.533
 5517SOL    HW117450   2.663   2.415   2.508
 5517SOL    HW217451   2.662   2.263   2.567
 5518SOL     OW17452   6.378   6.385   6.081
 5518SOL    HW117453   6.292   6.337   6.097
 5518SOL    HW217454   6.413   6.361   5.990
 5519SOL     OW17455   5.459   3.420   2.808
 5519SOL    HW117456   5.487   3.504   2.854
 5519SOL    HW217457   5.396   3.442   2.734
 5520SOL     OW17458   6.887   4.934   2.894
 5520SOL    HW117459   6.887   5.028   2.926
 5520SOL    HW217460   6.942   4.927   2.810
 5521SOL     OW17461   3.937   6.085   2.806
 5521SOL    HW117462   3.942   6.184   2.794
 5521SOL    HW217463   3.841   6.056   2.810
 5522SOL     OW17464   1.268   4.262   0.668
 5522SOL    HW117465   1.216   4.276   0.752
 5522SOL    HW217466   1.328   4.341   0.653
 5523SOL     OW17467   3.224   6.872   3.149
 5523SOL    HW117468   3.296   6.805   3.168
 5523SOL    HW217469   3.241   6.914   3.060
 5524SOL     OW17470   6.993   5.610   4.484
 5524SOL    HW117471   0.023   5.528   4.503
 5524SOL    HW217472   6.978   5.617   4.385
 5525SOL     OW17473   0.128   3.662   0.367
 5525SOL    HW117474   0.178   3.673   0.281
 5525SOL    HW217475   0.190   3.675   0.444
 5526SOL     OW17476   6.137   4.225   4.959
 5526SOL    HW117477   6.225   4.263   4.990
 5526SOL    HW217478   6.099   4.167   5.030
 5527SOL     OW17479   0.599   3.996   3.658
 5527SOL    HW117480   0.672   3.983   3.724
 5527SOL    HW217481   0.584   4.094   3.644
 5528SOL     OW17482   1.009   1.816   6.495
 5528SOL    HW117483   1.031   1.914   6.494
 5528SOL    HW217484   1.062   1.770   6.424
 5529SOL     OW17485   2.440   0.042   4.565
 5529SOL    HW117486   2.409   0.071   4.474
 5529SOL    HW217487   2.516   7.001   4.556
 5530SOL     OW17488   0.044   2.710   2.747
 5530SOL    HW117489   7.014   2.778   2.697
 5530SOL    HW217490   0.046   2.624   2.696
 5531SOL     OW17491   3.733   3.581   3.062
 5531SOL    HW117492   3.751   3.672   3.026
 5531SOL    HW217493   3.785   3.513   3.009
 5532SOL     OW17494   1.064   1.194   1.347
 5532SOL    HW117495   1.056   1.215   1.444
 5532SOL    HW217496   0.981   1.224   1.300
 5533SOL     OW17497   3.264   1.228   2.810
 5533SOL    HW117498   3.287   1.311   2.759
 5533SOL    HW217499   3.167   1.229   2.834
 5534SOL     OW17500   0.777   3.112   5.674
 5534SOL    HW117501   0.725   3.092   5.591
 5534SOL    HW217502   0.714   3.129   5.750
 5535SOL     OW17503   0.452   3.114   3.506
 5535SOL    HW117504   0.438   3.046   3.434
 5535SOL    HW217505   0.379   3.182   3.502
 5536SOL     OW17506   3.692   1.602   4.250
 5536SOL    HW117507   3.661   1.626   4.158
 5536SOL    HW217508   3.791   1.588   4.249
 5537SOL     OW17509   3.230   0.868   4.572
 5537SOL    HW117510   3.253   0.936   4.642
 5537SOL    HW217511   3.314   0.831   4.533
 5538SOL     OW17512   3.041   0.692   5.068
 5538SOL    HW117513   3.036   0.636   5.151
 5538SOL    HW217514   3.137   0.716   5.051
 5539SOL     OW17515   1.377   2.730   0.637
 5539SOL    HW117516   1.473   2.757   0.642
 5539SOL    HW217517   1.320   2.801   0.678
 5540SOL     OW17518   5.917   3.700   2.323
 5540SOL    HW117519   5.921   3.677   2.225
 5540SOL    HW217520   5.861   3.632   2.371
 5541SOL     OW17521   5.197   2.204   6.285
 5541SOL    HW117522   5.254   2.286   6.278
 5541SOL    HW217523   5.215   2.144   6.207
 5542SOL     OW17524   5.521   6.510   6.005
 5542SOL    HW117525   5.571   6.493   6.089
 5542SOL    HW217526   5.426   6.481   6.016
 5543SOL     OW17527   2.582   5.167   6.484
 5543SOL    HW117528   2.595   5.221   6.401
 5543SOL    HW217529   2.650   5.194   6.552
 5544SOL     OW17530   5.082   5.607   6.462
 5544SOL    HW117531   5.009   5.649   6.408
 5544SOL    HW217532   5.139   5.551   6.403
 5545SOL     OW17533   4.454   1.249   3.403
 5545SOL    HW117534   4.527   1.190   3.370
 5545SOL    HW217535   4.366   1.203   3.395
 5546SOL     OW17536   1.039   6.910   4.334
 5546SOL    HW117537   1.032   6.811   4.344
 5546SOL    HW217538   1.118   6.943   4.384
 5547SOL     OW17539   3.924   0.442   4.829
 5547SOL    HW117540   3.934   0.463   4.732
 5547SOL    HW217541   3.945   0.346   4.845
 5548SOL     OW17542   5.795   3.111   4.980
 5548SOL    HW117543   5.778   3.203   4.946
 5548SOL    HW217544   5.893   3.091   4.978
 5549SOL     OW17545   4.249   4.497   0.788
 5549SOL    HW117546   4.240   4.597   0.782
 5549SOL    HW217547   4.165   4.458   0.825
 5550SOL     OW17548   2.405   4.375   2.299
 5550SOL    HW117549   2.423   4.390   2.202
 5550SOL    HW217550   2.307   4.365   2.313
 5551SOL     OW17551   1.736   6.351   3.165
 5551SOL    HW117552   1.702   6.264   3.129
 5551SOL    HW217553   1.778   6.337   3.254
 5552SOL     OW17554   6.774   0.310   6.569
 5552SOL    HW117555   6.793   0.287   6.665
 5552SOL    HW217556   6.859   0.313   6.518
 5553SOL     OW17557   5.240   6.041   6.556
 5553SOL    HW117558   5.172   6.052   6.628
 5553SOL    HW217559   5.196   6.048   6.466
 5554SOL     OW17560   4.272   2.372   6.708
 5554SOL    HW117561   4.242   2.278   6.724
 5554SOL    HW217562   4.238   2.404   6.620
 5555SOL     OW17563   1.189   4.303   2.757
 5555SOL    HW117564   1.135   4.243   2.816
 5555SOL    HW217565   1.164   4.398   2.775
 5556SOL     OW17566   6.498   1.982   3.212
 5556SOL    HW117567   6.491   2.005   3.115
 5556SOL    HW217568   6.409   1.949   3.245
 5557SOL     OW17569   3.800   6.714   2.948
 5557SOL    HW117570   3.729   6.776   2.915
 5557SOL    HW217571   3.888   6.760   2.946
 5558SOL     OW17572   3.521   3.497   5.812
 5558SOL    HW117573   3.618   3.474   5.822
 5558SOL    HW217574   3.466   3.433   5.866
 5559SOL     OW17575   1.892   0.183   1.306
 5559SOL    HW117576   1.961   0.111   1.311
 5559SOL    HW217577   1.934   0.272   1.320
 5560SOL     OW17578   0.674   5.260   1.911
 5560SOL    HW117579   0.603   5.286   1.846
 5560SOL    HW217580   0.665   5.163   1.933
 5561SOL     OW17581   1.788   1.433   4.228
 5561SOL    HW117582   1.746   1.481   4.151
 5561SOL    HW217583   1.830   1.500   4.289
 5562SOL     OW17584   4.265   2.779   6.733
 5562SOL    HW117585   4.308   2.765   6.644
 5562SOL    HW217586   4.334   2.767   6.805
 5563SOL     OW17587   3.720   4.833   2.443
 5563SOL    HW117588   3.646   4.821   2.510
 5563SOL    HW217589   3.807   4.807   2.485
 5564SOL     OW17590   4.972   0.196   0.809
 5564SOL    HW117591   4.907   0.124   0.834
 5564SOL    HW217592   4.967   0.270   0.876
 5565SOL     OW17593   4.350   2.226   6.146
 5565SOL    HW117594   4.412   2.149   6.131
 5565SOL    HW217595   4.334   2.238   6.244
 5566SOL     OW17596   1.482   4.043   6.570
 5566SOL    HW117597   1.462   4.032   6.667
 5566SOL    HW217598   1.548   3.973   6.541
 5567SOL     OW17599   0.065   2.626   0.758
 5567SOL    HW117600   0.035   2.715   0.793
 5567SOL    HW217601   0.146   2.595   0.808
 5568SOL     OW17602   4.768   2.056   3.742
 5568SOL    HW117603   4.713   2.029   3.663
 5568SOL    HW217604   4.753   1.992   3.817
 5569SOL     OW17605   2.265   2.059   2.731
 5569SOL    HW117606   2.278   1.994   2.657
 5569SOL    HW217607   2.193   2.124   2.706
 5570SOL     OW17608   6.459   4.026   5.281
 5570SOL    HW117609   6.483   3.949   5.340
 5570SOL    HW217610   6.513   4.107   5.308
 5571SOL     OW17611   6.535   5.925   0.417
 5571SOL    HW117612   6.567   6.018   0.399
 5571SOL    HW217613   6.608   5.872   0.460
 5572SOL     OW17614   1.314   2.671   4.780
 5572SOL    HW117615   1.296   2.628   4.869
 5572SOL    HW217616   1.310   2.770   4.790
 5573SOL     OW17617   1.888   5.201   5.551
 5573SOL    HW117618   1.945   5.137   5.604
 5573SOL    HW217619   1.847   5.268   5.613
 5574SOL     OW17620   0.120   1.996   2.292
 5574SOL    HW117621   0.184   2.041   2.354
 5574SOL    HW217622   0.150   1.902   2.276
 5575SOL     OW17623   6.621   0.884   0.683
 5575SOL    HW117624   6.636   0.786   0.673
 5575SOL    HW217625   6.599   0.924   0.594
 5576SOL     OW17626   1.211   4.476   1.598
 5576SOL    HW117627   1.233   4.492   1.695
 5576SOL    HW217628   1.292   4.492   1.542
 5577SOL     OW17629   2.958   3.178   5.657
 5577SOL    HW117630   2.872   3.170   5.607
 5577SOL    HW217631   2.961   3.265   5.706
 5578SOL     OW17632   3.413   3.599   1.076
 5578SOL    HW117633   3.470   3.530   1.031
 5578SOL    HW217634   3.327   3.558   1.105
 5579SOL     OW17635   0.774   3.084   0.714
 5579SOL    HW117636   0.775   3.183   0.728
 5579SOL    HW217637   0.825   3.061   0.631
 5580SOL     OW17638   5.425   2.634   5.560
 5580SOL    HW117639   5.453   2.730   5.557
 5580SOL    HW217640   5.399   2.609   5.653
 5581SOL     OW17641   1.339   6.529   1.560
 5581SOL    HW117642   1.256   6.578   1.585
 5581SOL    HW217643   1.315   6.440   1.521
 5582SOL     OW17644   2.844   3.471   5.348
 5582SOL    HW117645   2.815   3.383   5.309
 5582SOL    HW217646   2.944   3.475   5.350
 5583SOL     OW17647   4.876   0.634   2.533
 5583SOL    HW117648   4.856   0.727   2.564
 5583SOL    HW217649   4.919   0.583   2.608
 5584SOL     OW17650   5.862   4.999   3.942
 5584SOL    HW117651   5.803   5.079   3.938
 5584SOL    HW217652   5.822   4.926   3.886
 5585SOL     OW17653   5.290   5.513   3.619
 5585SOL    HW117654   5.317   5.417   3.619
 5585SOL    HW217655   5.255   5.538   3.709
 5586SOL     OW17656   0.725   2.260   6.642
 5586SOL    HW117657   0.773   2.290   6.560
 5586SOL    HW217658   0.638   2.308   6.651
 5587SOL     OW17659   4.515   6.818   1.584
 5587SOL    HW117660   4.475   6.831   1.674
 5587SOL    HW217661   4.558   6.727   1.579
 5588SOL     OW17662   1.840   5.660   3.061
 5588SOL    HW117663   1.856   5.573   3.013
 5588SOL    HW217664   1.773   5.714   3.010
 5589SOL     OW17665   6.331   3.598   5.578
 5589SOL    HW117666   6.359   3.595   5.482
 5589SOL    HW217667   6.400   3.646   5.631
 5590SOL     OW17668   6.923   6.640   4.145
 5590SOL    HW117669   6.868   6.653   4.227
 5590SOL    HW217670   7.020   6.646   4.169
 5591SOL     OW17671   5.317   1.569   0.236
 5591SOL    HW117672   5.268   1.499   0.289
 5591SOL    HW217673   5.274   1.658   0.252
 5592SOL     OW17674   0.073   5.286   2.271
 5592SOL    HW117675   0.139   5.315   2.202
 5592SOL    HW217676   7.021   5.352   2.276
 5593SOL     OW17677   0.779   3.245   0.049
 5593SOL    HW117678   0.792   3.250   6.973
 5593SOL    HW217679   0.819   3.327   0.091
 5594SOL     OW17680   4.215   0.782   6.234
 5594SOL    HW117681   4.244   0.784   6.138
 5594SOL    HW217682   4.248   0.864   6.280
 5595SOL     OW17683   6.808   0.631   4.671
 5595SOL    HW117684   6.717   0.598   4.648
 5595SOL    HW217685   6.806   0.672   4.762
 5596SOL     OW17686   4.805   0.707   3.038
 5596SOL    HW117687   4.873   0.683   2.968
 5596SOL    HW217688   4.839   0.782   3.093
 5597SOL     OW17689   5.272   2.567   4.976
 5597SOL    HW117690   5.371   2.575   4.981
 5597SOL    HW217691   5.238   2.616   4.896
 5598SOL     OW17692   5.955   3.663   3.432
 5598SOL    HW117693   5.964   3.756   3.469
 5598SOL    HW217694   6.043   3.617   3.436
 5599SOL     OW17695   0.704   2.475   1.521
 5599SOL    HW117696   0.768   2.549   1.546
 5599SOL    HW217697   0.735   2.389   1.562
 5600SOL     OW17698   1.632   0.817   1.735
 5600SOL    HW117699   1.709   0.786   1.680
 5600SOL    HW217700   1.554   0.756   1.720
 5601SOL     OW17701   2.607   0.867   6.581
 5601SOL    HW117702   2.563   0.945   6.625
 5601SOL    HW217703   2.603   0.788   6.642
 5602SOL     OW17704   0.075   1.822   1.471
 5602SOL    HW117705   0.172   1.838   1.452
 5602SOL    HW217706   0.020   1.886   1.418
 5603SOL     OW17707   5.864   2.517   0.427
 5603SOL    HW117708   5.880   2.598   0.370
 5603SOL    HW217709   5.923   2.522   0.508
 5604SOL     OW17710   6.021   1.896   4.438
 5604SOL    HW117711   6.012   1.878   4.536
 5604SOL    HW217712   6.099   1.843   4.403
 5605SOL     OW17713   6.321   1.373   5.069
 5605SOL    HW117714   6.250   1.327   5.015
 5605SOL    HW217715   6.410   1.333   5.048
 5606SOL     OW17716   5.116   6.144   0.105
 5606SOL    HW117717   5.067   6.199   0.173
 5606SOL    HW217718   5.050   6.090   0.052
 5607SOL     OW17719   6.109   1.049   2.858
 5607SOL    HW117720   6.034   1.105   2.892
 5607SOL    HW217721   6.142   0.988   2.931
 5608SOL     OW17722   5.504   0.467   3.997
 5608SOL    HW117723   5.527   0.450   3.901
 5608SOL    HW217724   5.407   0.450   4.012
 5609SOL     OW17725   3.151   5.943   1.449
 5609SOL    HW117726   3.250   5.947   1.451
 5609SOL    HW217727   3.120   5.850   1.432
 5610SOL     OW17728   5.035   5.384   1.357
 5610SOL    HW117729   5.020   5.373   1.456
 5610SOL    HW217730   5.006   5.476   1.330
 5611SOL     OW17731   0.637   6.091   3.027
 5611SOL    HW117732   0.641   5.991   3.026
 5611SOL    HW217733   0.714   6.128   2.975
 5612SOL     OW17734   3.957   2.159   5.937
 5612SOL    HW117735   4.039   2.125   5.891
 5612SOL    HW217736   3.974   2.167   6.035
 5613SOL     OW17737   6.744   5.238   3.913
 5613SOL    HW117738   6.823   5.199   3.865
 5613SOL    HW217739   6.661   5.189   3.888
 5614SOL     OW17740   4.310   2.177   4.663
 5614SOL    HW117741   4.230   2.195   4.721
 5614SOL    HW217742   4.289   2.202   4.568
 5615SOL     OW17743   6.654   1.661   3.857
 5615SOL    HW117744   6.752   1.642   3.857
 5615SOL    HW217745   6.604   1.575   3.869
 5616SOL     OW17746   2.383   2.461   4.671
 5616SOL    HW117747   2.313   2.415   4.726
 5616SOL    HW217748   2.467   2.407   4.672
 5617SOL     OW17749   2.767   6.063   5.632
 5617SOL    HW117750   2.764   6.077   5.533
 5617SOL    HW217751   2.690   6.005   5.660
 5618SOL     OW17752   0.209   4.355   3.654
 5618SOL    HW117753   0.162   4.276   3.692
 5618SOL    HW217754   0.306   4.336   3.645
 5619SOL     OW17755   3.741   4.074   4.755
 5619SOL    HW117756   3.746   3.974   4.758
 5619SOL    HW217757   3.833   4.112   4.741
 5620SOL     OW17758   4.395   3.187   0.934
 5620SOL    HW117759   4.379   3.217   0.840
 5620SOL    HW217760   4.317   3.213   0.991
 5621SOL     OW17761   2.342   2.859   0.320
 5621SOL    HW117762   2.302   2.899   0.237
 5621SOL    HW217763   2.407   2.788   0.295
 5622SOL     OW17764   5.078   0.646   5.765
 5622SOL    HW117765   5.113   0.626   5.674
 5622SOL    HW217766   5.123   0.726   5.802
 5623SOL     OW17767   3.863   5.706   5.185
 5623SOL    HW117768   3.848   5.804   5.174
 5623SOL    HW217769   3.790   5.667   5.241
 5624SOL     OW17770   0.754   4.524   3.499
 5624SOL    HW117771   0.718   4.432   3.481
 5624SOL    HW217772   0.843   4.534   3.457
 5625SOL     OW17773   5.661   0.099   4.988
 5625SOL    HW117774   5.707   0.138   4.909
 5625SOL    HW217775   5.626   0.009   4.965
 5626SOL     OW17776   2.450   5.967   4.849
 5626SOL    HW117777   2.376   5.994   4.787
 5626SOL    HW217778   2.460   5.868   4.848
 5627SOL     OW17779   0.296   5.338   6.584
 5627SOL    HW117780   0.299   5.377   6.676
 5627SOL    HW217781   0.241   5.396   6.524
 5628SOL     OW17782   1.435   2.395   2.611
 5628SOL    HW117783   1.505   2.375   2.543
 5628SOL    HW217784   1.434   2.323   2.680
 5629SOL     OW17785   3.831   3.765   1.999
 5629SOL    HW117786   3.846   3.823   1.919
 5629SOL    HW217787   3.751   3.797   2.049
 5630SOL     OW17788   2.060   3.483   6.546
 5630SOL    HW117789   2.028   3.577   6.556
 5630SOL    HW217790   1.986   3.420   6.569
 5631SOL     OW17791   4.728   1.722   1.614
 5631SOL    HW117792   4.678   1.636   1.613
 5631SOL    HW217793   4.786   1.727   1.696
 5632SOL     OW17794   2.640   2.454   5.856
 5632SOL    HW117795   2.641   2.442   5.955
 5632SOL    HW217796   2.555   2.500   5.829
 5633SOL     OW17797   6.308   4.641   4.718
 5633SOL    HW117798   6.307   4.555   4.769
 5633SOL    HW217799   6.217   4.658   4.678
 5634SOL     OW17800   2.377   5.184   3.922
 5634SOL    HW117801   2.427   5.158   3.839
 5634SOL    HW217802   2.422   5.145   4.002
 5635SOL     OW17803   1.772   4.927   5.841
 5635SOL    HW117804   1.721   4.888   5.764
 5635SOL    HW217805   1.851   4.869   5.861
 5636SOL     OW17806   4.776   6.843   4.955
 5636SOL    HW117807   4.844   6.916   4.954
 5636SOL    HW217808   4.686   6.880   4.931
 5637SOL     OW17809   5.350   0.545   3.009
 5637SOL    HW117810   5.333   0.571   3.104
 5637SOL    HW217811   5.296   0.464   2.986
 5638SOL     OW17812   6.325   3.723   0.394
 5638SOL    HW117813   6.326   3.687   0.301
 5638SOL    HW217814   6.231   3.722   0.428
 5639SOL     OW17815   1.020   0.830   2.687
 5639SOL    HW117816   1.034   0.776   2.604
 5639SOL    HW217817   1.070   0.916   2.680
 5640SOL     OW17818   3.629   0.290   3.607
 5640SOL    HW117819   3.614   0.376   3.558
 5640SOL    HW217820   3.626   0.214   3.542
 5641SOL     OW17821   0.932   5.406   5.057
 5641SOL    HW117822   0.832   5.409   5.059
 5641SOL    HW217823   0.964   5.332   5.116
 5642SOL     OW17824   2.304   6.629   4.641
 5642SOL    HW117825   2.280   6.725   4.627
 5642SOL    HW217826   2.363   6.621   4.722
 5643SOL     OW17827   4.237   1.421   4.913
 5643SOL    HW117828   4.279   1.403   5.002
 5643SOL    HW217829   4.265   1.511   4.880
 5644SOL     OW17830   2.844   0.376   4.985
 5644SOL    HW117831   2.842   0.456   5.045
 5644SOL    HW217832   2.894   0.302   5.030
 5645SOL     OW17833   6.250   4.815   3.861
 5645SOL    HW117834   6.326   4.828   3.797
 5645SOL    HW217835   6.169   4.785   3.810
 5646SOL     OW17836   1.791   5.379   4.022
 5646SOL    HW117837   1.739   5.433   4.087
 5646SOL    HW217838   1.882   5.419   4.010
 5647SOL     OW17839   4.797   5.347   1.176
 5647SOL    HW117840   4.840   5.364   1.087
 5647SOL    HW217841   4.867   5.336   1.245
 5648SOL     OW17842   1.814   6.878   2.846
 5648SOL    HW117843   1.895   6.920   2.805
 5648SOL    HW217844   1.836   6.785   2.875
 5649SOL     OW17845   0.824   0.618   4.272
 5649SOL    HW117846   0.758   0.679   4.230
 5649SOL    HW217847   0.897   0.597   4.207
 5650SOL     OW17848   0.169   5.519   0.950
 5650SOL    HW117849   0.071   5.536   0.962
 5650SOL    HW217850   0.216   5.606   0.935
 5651SOL     OW17851   1.588   0.366   1.569
 5651SOL    HW117852   1.624   0.296   1.507
 5651SOL    HW217853   1.643   0.450   1.560
 5652SOL     OW17854   6.237   7.012   1.633
 5652SOL    HW117855   6.262   0.077   1.594
 5652SOL    HW217856   6.159   7.023   1.694
 5653SOL     OW17857   6.265   6.109   6.404
 5653SOL    HW117858   6.335   6.171   6.440
 5653SOL    HW217859   6.254   6.031   6.465
 5654SOL     OW17860   0.290   6.053   5.135
 5654SOL    HW117861   0.272   6.000   5.218
 5654SOL    HW217862   0.239   6.013   5.059
 5655SOL     OW17863   1.096   3.775   3.991
 5655SOL    HW117864   1.106   3.875   3.985
 5655SOL    HW217865   1.057   3.740   3.906
 5656SOL     OW17866   6.946   3.546   6.195
 5656SOL    HW117867   7.003   3.514   6.270
 5656SOL    HW217868   6.969   3.496   6.111
 5657SOL     OW17869   6.566   2.425   0.027
 5657SOL    HW117870   6.483   2.370   0.030
 5657SOL    HW217871   6.642   2.370   7.015
 5658SOL     OW17872   3.886   3.622   6.839
 5658SOL    HW117873   3.932   3.675   6.911
 5658SOL    HW217874   3.944   3.545   6.812
 5659SOL     OW17875   3.555   3.156   5.152
 5659SOL    HW117876   3.570   3.127   5.246
 5659SOL    HW217877   3.638   3.200   5.117
 5660SOL     OW17878   4.390   0.088   6.862
 5660SOL    HW117879   4.411   0.113   6.768
 5660SOL    HW217880   4.418   7.017   6.879
 5661SOL     OW17881   1.386   5.822   5.010
 5661SOL    HW117882   1.378   5.801   5.107
 5661SOL    HW217883   1.355   5.915   4.993
 5662SOL     OW17884   2.815   6.135   3.680
 5662SOL    HW117885   2.790   6.227   3.648
 5662SOL    HW217886   2.745   6.101   3.743
 5663SOL     OW17887   2.089   2.144   0.438
 5663SOL    HW117888   2.101   2.087   0.356
 5663SOL    HW217889   2.179   2.171   0.472
 5664SOL     OW17890   6.623   3.630   4.649
 5664SOL    HW117891   6.718   3.632   4.681
 5664SOL    HW217892   6.608   3.548   4.594
 5665SOL     OW17893   2.331   0.921   0.539
 5665SOL    HW117894   2.416   0.870   0.544
 5665SOL    HW217895   2.273   0.882   0.468
 5666SOL     OW17896   6.419   0.105   3.229
 5666SOL    HW117897   6.450   0.012   3.247
 5666SOL    HW217898   6.495   0.160   3.195
 5667SOL     OW17899   1.655   5.438   4.462
 5667SOL    HW117900   1.747   5.476   4.454
 5667SOL    HW217901   1.591   5.511   4.483
 5668SOL     OW17902   5.223   3.010   3.160
 5668SOL    HW117903   5.318   2.985   3.145
 5668SOL    HW217904   5.167   2.927   3.168
 5669SOL     OW17905   6.949   3.796   0.736
 5669SOL    HW117906   6.965   3.697   0.730
 5669SOL    HW217907   6.903   3.817   0.822
 5670SOL     OW17908   0.755   3.692   3.887
 5670SOL    HW117909   0.721   3.646   3.804
 5670SOL    HW217910   0.743   3.791   3.877
 5671SOL     OW17911   5.761   5.852   5.789
 5671SOL    HW117912   5.780   5.882   5.695
 5671SOL    HW217913   5.798   5.918   5.854
 5672SOL     OW17914   4.427   3.842   0.134
 5672SOL    HW117915   4.495   3.770   0.148
 5672SOL    HW217916   4.473   3.928   0.114
 5673SOL     OW17917   1.748   6.589   1.342
 5673SOL    HW117918   1.782   6.525   1.273
 5673SOL    HW217919   1.676   6.545   1.395
 5674SOL     OW17920   0.514   4.530   5.121
 5674SOL    HW117921   0.477   4.471   5.050
 5674SOL    HW217922   0.534   4.477   5.203
 5675SOL     OW17923   4.066   3.085   6.120
 5675SOL    HW117924   4.087   3.175   6.082
 5675SOL    HW217925   4.045   3.021   6.046
 5676SOL     OW17926   2.812   1.721   2.477
 5676SOL    HW117927   2.759   1.802   2.453
 5676SOL    HW217928   2.774   1.642   2.429
 5677SOL     OW17929   0.574   0.987   0.722
 5677SOL    HW117930   0.595   1.043   0.642
 5677SOL    HW217931   0.656   0.936   0.750
 5678SOL     OW17932   4.118   6.717   2.778
 5678SOL    HW117933   4.152   6.810   2.793
 5678SOL    HW217934   4.118   6.667   2.864
 5679SOL     OW17935   6.316   1.232   3.822
 5679SOL    HW117936   6.251   1.160   3.803
 5679SOL    HW217937   6.294   1.276   3.909
 5680SOL     OW17938   1.639   5.386   6.446
 5680SOL    HW117939   1.703   5.332   6.391
 5680SOL    HW217940   1.581   5.441   6.385
 5681SOL     OW17941   0.672   3.420   1.488
 5681SOL    HW117942   0.729   3.340   1.502
 5681SOL    HW217943   0.731   3.499   1.469
 5682SOL     OW17944   2.129   5.436   4.747
 5682SOL    HW117945   2.079   5.505   4.695
 5682SOL    HW217946   2.079   5.349   4.743
 5683SOL     OW17947   4.006   1.238   5.760
 5683SOL    HW117948   3.916   1.260   5.795
 5683SOL    HW217949   4.060   1.193   5.831
 5684SOL     OW17950   2.014   3.708   5.801
 5684SOL    HW117951   1.927   3.757   5.788
 5684SOL    HW217952   2.003   3.642   5.875
 5685SOL     OW17953   2.025   1.408   3.120
 5685SOL    HW117954   1.942   1.391   3.173
 5685SOL    HW217955   2.104   1.409   3.181
 5686SOL     OW17956   2.869   1.756   6.221
 5686SOL    HW117957   2.893   1.776   6.125
 5686SOL    HW217958   2.953   1.750   6.275
 5687SOL     OW17959   0.267   5.411   6.852
 5687SOL    HW117960   0.266   5.325   6.903
 5687SOL    HW217961   0.251   5.487   6.915
 5688SOL     OW17962   1.125   2.447   2.175
 5688SOL    HW117963   1.117   2.360   2.225
 5688SOL    HW217964   1.181   2.510   2.228
 5689SOL     OW17965   3.252   1.587   1.222
 5689SOL    HW117966   3.281   1.519   1.154
 5689SOL    HW217967   3.158   1.615   1.203
 5690SOL     OW17968   1.999   5.999   0.035
 5690SOL    HW117969   1.955   6.015   0.123
 5690SOL    HW217970   2.070   5.930   0.045
 5691SOL     OW17971   4.081   0.480   2.299
 5691SOL    HW117972   4.158   0.539   2.318
 5691SOL    HW217973   4.048   0.496   2.206
 5692SOL     OW17974   5.616   3.983   0.639
 5692SOL    HW117975   5.691   3.958   0.700
 5692SOL    HW217976   5.621   4.081   0.619
 5693SOL     OW17977   4.980   1.486   2.892
 5693SOL    HW117978   5.023   1.489   2.801
 5693SOL    HW217979   4.884   1.509   2.884
 5694SOL     OW17980   1.118   1.395   3.039
 5694SOL    HW117981   1.052   1.433   3.104
 5694SOL    HW217982   1.143   1.303   3.067
 5695SOL     OW17983   1.835   1.982   3.989
 5695SOL    HW117984   1.745   1.956   3.954
 5695SOL    HW217985   1.867   2.065   3.943
 5696SOL     OW17986   0.895   1.148   3.523
 5696SOL    HW117987   0.886   1.050   3.539
 5696SOL    HW217988   0.896   1.167   3.425
 5697SOL     OW17989   6.206   2.452   1.497
 5697SOL    HW117990   6.187   2.522   1.567
 5697SOL    HW217991   6.120   2.408   1.471
 5698SOL     OW17992   0.675   4.691   4.016
 5698SOL    HW117993   0.729   4.673   4.099
 5698SOL    HW217994   0.578   4.685   4.036
 5699SOL     OW17995   0.954   2.345   3.352
 5699SOL    HW117996   0.972   2.388   3.440
 5699SOL    HW217997   0.940   2.247   3.366
 5700SOL     OW17998   6.227   0.194   3.424
 5700SOL    HW117999   6.269   0.153   3.343
 5700SOL    HW218000   6.289   0.261   3.464
 5701SOL     OW18001   0.713   0.094   1.143
 5701SOL    HW118002   0.625   0.051   1.165
 5701SOL    HW218003   0.740   0.154   1.218
 5702SOL     OW18004   2.577   5.450   4.209
 5702SOL    HW118005   2.614   5.529   4.161
 5702SOL    HW218006   2.644   5.376   4.208
 5703SOL     OW18007   6.408   4.706   0.998
 5703SOL    HW118008   6.423   4.669   1.090
 5703SOL    HW218009   6.480   4.674   0.937
 5704SOL     OW18010   4.972   4.003   3.230
 5704SOL    HW118011   5.027   3.928   3.194
 5704SOL    HW218012   4.949   3.984   3.326
 5705SOL     OW18013   5.060   6.564   6.968
 5705SOL    HW118014   5.115   6.638   6.929
 5705SOL    HW218015   5.113   6.479   6.965
 5706SOL     OW18016   0.032   3.245   2.126
 5706SOL    HW118017   0.008   3.148   2.135
 5706SOL    HW218018   6.974   3.296   2.096
 5707SOL     OW18019   0.012   6.669   0.632
 5707SOL    HW118020   6.969   6.713   0.571
 5707SOL    HW218021   0.016   6.718   0.719
 5708SOL     OW18022   5.037   5.823   2.039
 5708SOL    HW118023   5.127   5.866   2.041
 5708SOL    HW218024   5.035   5.752   1.969
 5709SOL     OW18025   1.117   1.089   2.676
 5709SOL    HW118026   1.071   1.162   2.727
 5709SOL    HW218027   1.119   1.112   2.579
 5710SOL     OW18028   3.281   3.026   0.702
 5710SOL    HW118029   3.195   2.975   0.695
 5710SOL    HW218030   3.287   3.069   0.792
 5711SOL     OW18031   5.447   1.307   2.820
 5711SOL    HW118032   5.476   1.391   2.774
 5711SOL    HW218033   5.455   1.319   2.919
 5712SOL     OW18034   6.541   0.424   0.335
 5712SOL    HW118035   6.478   0.427   0.413
 5712SOL    HW218036   6.490   0.435   0.250
 5713SOL     OW18037   3.092   3.690   1.614
 5713SOL    HW118038   3.001   3.691   1.572
 5713SOL    HW218039   3.156   3.742   1.557
 5714SOL     OW18040   0.391   5.339   0.823
 5714SOL    HW118041   0.348   5.380   0.904
 5714SOL    HW218042   0.490   5.349   0.829
 5715SOL     OW18043   0.725   1.050   2.481
 5715SOL    HW118044   0.729   1.147   2.506
 5715SOL    HW218045   0.817   1.018   2.460
 5716SOL     OW18046   1.560   5.012   6.296
 5716SOL    HW118047   1.640   4.961   6.328
 5716SOL    HW218048   1.572   5.036   6.200
 5717SOL     OW18049   1.502   4.487   0.740
 5717SOL    HW118050   1.590   4.518   0.704
 5717SOL    HW218051   1.514   4.447   0.831
 5718SOL     OW18052   0.559   3.017   0.036
 5718SOL    HW118053   0.654   3.004   0.065
 5718SOL    HW218054   0.557   3.044   6.963
 5719SOL     OW18055   1.771   2.592   6.779
 5719SOL    HW118056   1.686   2.579   6.831
 5719SOL    HW218057   1.749   2.598   6.681
 5720SOL     OW18058   2.407   5.938   5.301
 5720SOL    HW118059   2.338   5.940   5.373
 5720SOL    HW218060   2.398   6.020   5.244
 5721SOL     OW18061   6.390   3.590   0.894
 5721SOL    HW118062   6.446   3.510   0.875
 5721SOL    HW218063   6.305   3.563   0.940
 5722SOL     OW18064   6.909   2.163   5.100
 5722SOL    HW118065   6.926   2.095   5.029
 5722SOL    HW218066   6.880   2.249   5.057
 5723SOL     OW18067   4.347   3.458   0.346
 5723SOL    HW118068   4.399   3.502   0.419
 5723SOL    HW218069   4.320   3.526   0.278
 5724SOL     OW18070   5.115   2.892   4.172
 5724SOL    HW118071   5.195   2.845   4.210
 5724SOL    HW218072   5.065   2.829   4.113
 5725SOL     OW18073   5.949   4.965   4.221
 5725SOL    HW118074   5.929   4.993   4.127
 5725SOL    HW218075   6.019   5.024   4.260
 5726SOL     OW18076   7.005   5.685   4.075
 5726SOL    HW118077   0.058   5.747   4.095
 5726SOL    HW218078   6.991   5.680   3.976
 5727SOL     OW18079   6.452   2.298   4.486
 5727SOL    HW118080   6.462   2.364   4.412
 5727SOL    HW218081   6.369   2.319   4.539
 5728SOL     OW18082   4.392   6.756   5.876
 5728SOL    HW118083   4.410   6.658   5.869
 5728SOL    HW218084   4.296   6.774   5.852
 5729SOL     OW18085   2.340   0.443   0.363
 5729SOL    HW118086   2.388   0.459   0.449
 5729SOL    HW218087   2.273   0.369   0.375
 5730SOL     OW18088   5.412   4.637   6.363
 5730SOL    HW118089   5.331   4.580   6.378
 5730SOL    HW218090   5.455   4.612   6.276
 5731SOL     OW18091   0.793   6.958   2.847
 5731SOL    HW118092   0.773   0.015   2.790
 5731SOL    HW218093   0.886   6.965   2.882
 5732SOL     OW18094   0.012   5.385   3.770
 5732SOL    HW118095   0.057   5.297   3.790
 5732SOL    HW218096   0.079   5.458   3.774
 5733SOL     OW18097   3.356   6.690   5.798
 5733SOL    HW118098   3.264   6.651   5.791
 5733SOL    HW218099   3.409   6.639   5.865
 5734SOL     OW18100   0.863   0.379   5.100
 5734SOL    HW118101   0.841   0.440   5.023
 5734SOL    HW218102   0.906   0.432   5.173
 5735SOL     OW18103   4.058   2.030   1.481
 5735SOL    HW118104   4.029   1.983   1.564
 5735SOL    HW218105   4.105   1.966   1.421
 5736SOL     OW18106   6.181   4.081   0.167
 5736SOL    HW118107   6.219   4.012   0.106
 5736SOL    HW218108   6.132   4.037   0.242
 5737SOL     OW18109   5.840   6.145   0.563
 5737SOL    HW118110   5.851   6.197   0.479
 5737SOL    HW218111   5.852   6.205   0.642
 5738SOL     OW18112   2.060   2.599   5.886
 5738SOL    HW118113   2.058   2.610   5.786
 5738SOL    HW218114   2.060   2.502   5.908
 5739SOL     OW18115   1.799   0.761   5.890
 5739SOL    HW118116   1.745   0.679   5.870
 5739SOL    HW218117   1.777   0.793   5.982
 5740SOL     OW18118   4.486   4.416   0.665
 5740SOL    HW118119   4.394   4.444   0.692
 5740SOL    HW218120   4.539   4.392   0.747
 5741SOL     OW18121   1.444   5.100   4.993
 5741SOL    HW118122   1.393   5.125   5.075
 5741SOL    HW218123   1.421   5.163   4.919
 5742SOL     OW18124   5.393   6.614   2.539
 5742SOL    HW118125   5.354   6.548   2.604
 5742SOL    HW218126   5.422   6.566   2.457
 5743SOL     OW18127   2.690   6.097   4.889
 5743SOL    HW118128   2.688   6.169   4.959
 5743SOL    HW218129   2.600   6.054   4.883
 5744SOL     OW18130   4.817   0.256   2.096
 5744SOL    HW118131   4.725   0.261   2.058
 5744SOL    HW218132   4.815   0.289   2.191
 5745SOL     OW18133   3.214   0.793   4.037
 5745SOL    HW118134   3.157   0.789   4.120
 5745SOL    HW218135   3.245   0.701   4.014
 5746SOL     OW18136   5.548   0.078   1.422
 5746SOL    HW118137   5.641   0.093   1.389
 5746SOL    HW218138   5.483   0.100   1.349
 5747SOL     OW18139   0.014   4.923   2.677
 5747SOL    HW118140   0.027   5.005   2.620
 5747SOL    HW218141   6.973   4.861   2.632
 5748SOL     OW18142   1.350   5.426   0.574
 5748SOL    HW118143   1.261   5.385   0.553
 5748SOL    HW218144   1.372   5.410   0.670
 5749SOL     OW18145   2.114   0.444   4.614
 5749SOL    HW118146   2.106   0.346   4.599
 5749SOL    HW218147   2.040   0.475   4.673
 5750SOL     OW18148   5.835   5.303   4.238
 5750SOL    HW118149   5.743   5.267   4.229
 5750SOL    HW218150   5.895   5.261   4.170
 5751SOL     OW18151   2.084   2.774   4.634
 5751SOL    HW118152   2.164   2.764   4.693
 5751SOL    HW218153   2.034   2.688   4.629
 5752SOL     OW18154   6.839   0.320   6.849
 5752SOL    HW118155   6.777   0.390   6.885
 5752SOL    HW218156   6.924   0.363   6.817
 5753SOL     OW18157   2.947   3.786   5.672
 5753SOL    HW118158   2.858   3.823   5.646
 5753SOL    HW218159   3.008   3.788   5.593
 5754SOL     OW18160   6.009   4.505   1.518
 5754SOL    HW118161   5.953   4.438   1.469
 5754SOL    HW218162   6.106   4.489   1.498
 5755SOL     OW18163   2.811   3.527   5.685
 5755SOL    HW118164   2.842   3.621   5.672
 5755SOL    HW218165   2.740   3.506   5.617
 5756SOL     OW18166   6.328   6.172   3.268
 5756SOL    HW118167   6.365   6.093   3.220
 5756SOL    HW218168   6.362   6.174   3.361
 5757SOL     OW18169   6.475   6.820   2.708
 5757SOL    HW118170   6.490   6.738   2.763
 5757SOL    HW218171   6.426   6.796   2.624
 5758SOL     OW18172   3.351   1.330   4.100
 5758SOL    HW118173   3.409   1.345   4.019
 5758SOL    HW218174   3.390   1.258   4.156
 5759SOL     OW18175   4.285   1.680   6.652
 5759SOL    HW118176   4.304   1.773   6.622
 5759SOL    HW218177   4.340   1.659   6.733
 5760SOL     OW18178   1.134   5.327   1.248
 5760SOL    HW118179   1.226   5.291   1.235
 5760SOL    HW218180   1.139   5.427   1.254
 5761SOL     OW18181   5.725   7.018   6.110
 5761SOL    HW118182   5.648   0.055   6.132
 5761SOL    HW218183   5.691   6.938   6.060
 5762SOL     OW18184   5.002   6.682   0.351
 5762SOL    HW118185   4.911   6.663   0.388
 5762SOL    HW218186   5.053   6.739   0.415
 5763SOL     OW18187   0.407   0.395   0.073
 5763SOL    HW118188   0.471   0.318   0.071
 5763SOL    HW218189   0.317   0.364   0.044
 5764SOL     OW18190   5.671   4.478   6.476
 5764SOL    HW118191   5.713   4.562   6.509
 5764SOL    HW218192   5.591   4.500   6.420
 5765SOL     OW18193   6.575   3.891   6.309
 5765SOL    HW118194   6.658   3.945   6.295
 5765SOL    HW218195   6.498   3.934   6.261
 5766SOL     OW18196   2.282   1.906   0.644
 5766SOL    HW118197   2.261   1.992   0.597
 5766SOL    HW218198   2.343   1.851   0.588
 5767SOL     OW18199   2.323   0.134   0.602
 5767SOL    HW118200   2.279   0.060   0.551
 5767SOL    HW218201   2.257   0.207   0.620
 5768SOL     OW18202   0.161   6.632   2.898
 5768SOL    HW118203   0.194   6.698   2.831
 5768SOL    HW218204   0.155   6.677   2.988
 5769SOL     OW18205   3.014   0.124   3.749
 5769SOL    HW118206   2.920   0.091   3.759
 5769SOL    HW218207   3.029   0.199   3.813
 5770SOL     OW18208   0.374   6.776   0.654
 5770SOL    HW118209   0.459   6.829   0.653
 5770SOL    HW218210   0.395   6.679   0.645
 5771SOL     OW18211   0.968   5.830   2.372
 5771SOL    HW118212   0.950   5.807   2.277
 5771SOL    HW218213   0.988   5.928   2.380
 5772SOL     OW18214   5.709   2.754   0.566
 5772SOL    HW118215   5.645   2.689   0.526
 5772SOL    HW218216   5.762   2.709   0.638
 5773SOL     OW18217   4.971   0.757   3.839
 5773SOL    HW118218   4.915   0.787   3.762
 5773SOL    HW218219   5.058   0.721   3.805
 5774SOL     OW18220   2.963   4.999   3.917
 5774SOL    HW118221   2.984   5.085   3.964
 5774SOL    HW218222   3.048   4.951   3.894
 5775SOL     OW18223   1.498   6.863   1.593
 5775SOL    HW118224   1.477   6.767   1.613
 5775SOL    HW218225   1.541   6.905   1.673
 5776SOL     OW18226   6.763   0.968   5.871
 5776SOL    HW118227   6.701   1.033   5.828
 5776SOL    HW218228   6.712   0.887   5.901
 5777SOL     OW18229   6.016   0.308   4.483
 5777SOL    HW118230   5.925   0.344   4.462
 5777SOL    HW218231   6.018   0.210   4.466
 5778SOL     OW18232   2.085   6.936   0.961
 5778SOL    HW118233   1.992   6.959   0.993
 5778SOL    HW218234   2.127   7.018   0.921
 5779SOL     OW18235   3.839   1.061   1.175
 5779SOL    HW118236   3.931   1.095   1.189
 5779SOL    HW218237   3.775   1.137   1.173
 5780SOL     OW18238   5.870   5.482   2.914
 5780SOL    HW118239   5.770   5.471   2.910
 5780SOL    HW218240   5.912   5.429   2.840
 5781SOL     OW18241   1.444   4.573   4.540
 5781SOL    HW118242   1.438   4.670   4.514
 5781SOL    HW218243   1.395   4.518   4.473
 5782SOL     OW18244   1.508   1.166   1.054
 5782SOL    HW118245   1.508   1.236   0.983
 5782SOL    HW218246   1.592   1.112   1.049
 5783SOL     OW18247   2.109   1.531   1.200
 5783SOL    HW118248   2.151   1.463   1.141
 5783SOL    HW218249   2.065   1.486   1.277
 5784SOL     OW18250   0.608   6.699   0.459
 5784SOL    HW118251   0.664   6.662   0.385
 5784SOL    HW218252   0.665   6.721   0.537
 5785SOL     OW18253   1.799   2.241   1.376
 5785SOL    HW118254   1.793   2.322   1.318
 5785SOL    HW218255   1.817   2.269   1.470
 5786SOL     OW18256   1.046   3.851   0.901
 5786SOL    HW118257   1.133   3.853   0.950
 5786SOL    HW218258   0.978   3.904   0.951
 5787SOL     OW18259   4.823   2.326   4.457
 5787SOL    HW118260   4.806   2.230   4.476
 5787SOL    HW218261   4.789   2.381   4.534
 5788SOL     OW18262   2.754   0.171   1.654
 5788SOL    HW118263   2.784   0.079   1.680
 5788SOL    HW218264   2.792   0.237   1.719
 5789SOL     OW18265   3.497   2.610   6.303
 5789SOL    HW118266   3.454   2.522   6.320
 5789SOL    HW218267   3.427   2.676   6.273
 5790SOL     OW18268   6.596   5.668   5.442
 5790SOL    HW118269   6.509   5.637   5.403
 5790SOL    HW218270   6.671   5.616   5.401
 5791SOL     OW18271   2.941   1.579   2.675
 5791SOL    HW118272   2.904   1.665   2.640
 5791SOL    HW218273   3.006   1.541   2.609
 5792SOL     OW18274   4.898   3.611   3.449
 5792SOL    HW118275   4.928   3.701   3.479
 5792SOL    HW218276   4.798   3.609   3.445
 5793SOL     OW18277   5.813   1.195   5.718
 5793SOL    HW118278   5.864   1.273   5.681
 5793SOL    HW218279   5.763   1.150   5.644
 5794SOL     OW18280   3.687   0.336   6.867
 5794SOL    HW118281   3.657   0.320   6.961
 5794SOL    HW218282   3.685   0.434   6.847
 5795SOL     OW18283   0.468   6.261   1.321
 5795SOL    HW118284   0.372   6.256   1.345
 5795SOL    HW218285   0.505   6.350   1.346
 5796SOL     OW18286   4.603   0.531   6.761
 5796SOL    HW118287   4.686   0.579   6.787
 5796SOL    HW218288   4.581   0.463   6.831
 5797SOL     OW18289   5.585   1.292   0.046
 5797SOL    HW118290   5.593   1.194   0.062
 5797SOL    HW218291   5.669   1.338   0.075
 5798SOL     OW18292   0.752   4.050   4.499
 5798SOL    HW118293   0.689   4.118   4.461
 5798SOL    HW218294   0.770   4.070   4.595
 5799SOL     OW18295   0.589   0.242   2.819
 5799SOL    HW118296   0.551   0.322   2.772
 5799SOL    HW218297   0.644   0.189   2.754
 5800SOL     OW18298   0.884   0.207   1.749
 5800SOL    HW118299   0.844   0.182   1.661
 5800SOL    HW218300   0.911   0.304   1.747
 5801SOL     OW18301   2.251   2.503   3.779
 5801SOL    HW118302   2.211   2.426   3.729
 5801SOL    HW218303   2.191   2.582   3.771
 5802SOL     OW18304   5.838   3.443   2.411
 5802SOL    HW118305   5.932   3.411   2.408
 5802SOL    HW218306   5.789   3.397   2.485
 5803SOL     OW18307   1.172   5.017   3.710
 5803SOL    HW118308   1.213   5.016   3.801
 5803SOL    HW218309   1.108   4.941   3.700
 5804SOL     OW18310   6.603   6.425   3.538
 5804SOL    HW118311   6.651   6.350   3.494
 5804SOL    HW218312   6.644   6.442   3.628
 5805SOL     OW18313   1.668   3.025   0.981
 5805SOL    HW118314   1.599   3.097   0.981
 5805SOL    HW218315   1.623   2.936   0.981
 5806SOL     OW18316   0.305   4.714   4.839
 5806SOL    HW118317   0.240   4.783   4.870
 5806SOL    HW218318   0.259   4.626   4.830
 5807SOL     OW18319   1.361   6.044   0.939
 5807SOL    HW118320   1.326   5.968   0.994
 5807SOL    HW218321   1.460   6.033   0.925
 5808SOL     OW18322   6.563   6.976   5.287
 5808SOL    HW118323   6.593   6.883   5.310
 5808SOL    HW218324   6.607   7.006   5.202
 5809SOL     OW18325   0.180   2.031   5.780
 5809SOL    HW118326   0.111   1.990   5.840
 5809SOL    HW218327   0.271   2.014   5.817
 5810SOL     OW18328   3.993   0.159   4.844
 5810SOL    HW118329   4.010   0.124   4.936
 5810SOL    HW218330   4.079   0.187   4.802
 5811SOL     OW18331   2.535   2.048   5.526
 5811SOL    HW118332   2.593   2.127   5.545
 5811SOL    HW218333   2.447   2.060   5.573
 5812SOL     OW18334   5.645   3.675   6.319
 5812SOL    HW118335   5.635   3.651   6.223
 5812SOL    HW218336   5.642   3.592   6.375
 5813SOL     OW18337   3.060   6.130   1.245
 5813SOL    HW118338   3.092   6.070   1.318
 5813SOL    HW218339   3.086   6.090   1.156
 5814SOL     OW18340   0.144   2.155   1.988
 5814SOL    HW118341   0.175   2.100   1.910
 5814SOL    HW218342   0.224   2.182   2.042
 5815SOL     OW18343   5.468   1.959   4.370
 5815SOL    HW118344   5.476   2.016   4.288
 5815SOL    HW218345   5.551   1.905   4.381
 5816SOL     OW18346   6.751   5.041   2.148
 5816SOL    HW118347   6.653   5.061   2.145
 5816SOL    HW218348   6.772   4.966   2.086
 5817SOL     OW18349   5.885   4.624   5.459
 5817SOL    HW118350   5.887   4.712   5.506
 5817SOL    HW218351   5.889   4.550   5.526
 5818SOL     OW18352   0.670   5.715   5.258
 5818SOL    HW118353   0.723   5.783   5.207
 5818SOL    HW218354   0.633   5.756   5.341
 5819SOL     OW18355   2.881   5.316   6.498
 5819SOL    HW118356   2.935   5.355   6.572
 5819SOL    HW218357   2.942   5.266   6.436
 5820SOL     OW18358   4.688   4.654   2.022
 5820SOL    HW118359   4.784   4.661   2.049
 5820SOL    HW218360   4.642   4.585   2.078
 5821SOL     OW18361   6.223   1.030   1.712
 5821SOL    HW118362   6.187   1.110   1.665
 5821SOL    HW218363   6.153   0.992   1.772
 5822SOL     OW18364   1.224   2.453   2.473
 5822SOL    HW118365   1.309   2.422   2.516
 5822SOL    HW218366   1.155   2.471   2.543
 5823SOL     OW18367   2.238   5.992   4.671
 5823SOL    HW118368   2.169   5.923   4.693
 5823SOL    HW218369   2.226   6.023   4.577
 5824SOL     OW18370   1.054   6.991   2.983
 5824SOL    HW118371   1.008   0.054   3.005
 5824SOL    HW218372   1.151   6.998   3.007
 5825SOL     OW18373   0.397   5.623   4.715
 5825SOL    HW118374   0.463   5.670   4.656
 5825SOL    HW218375   0.305   5.653   4.691
 5826SOL     OW18376   0.270   6.935   5.901
 5826SOL    HW118377   0.235   0.006   5.893
 5826SOL    HW218378   0.194   6.871   5.900
 5827SOL     OW18379   1.096   3.866   4.678
 5827SOL    HW118380   1.164   3.794   4.667
 5827SOL    HW218381   1.004   3.826   4.672
 5828SOL     OW18382   4.645   0.906   3.639
 5828SOL    HW118383   4.639   0.839   3.565
 5828SOL    HW218384   4.741   0.921   3.662
 5829SOL     OW18385   1.542   0.579   4.833
 5829SOL    HW118386   1.476   0.623   4.772
 5829SOL    HW218387   1.614   0.643   4.856
 5830SOL     OW18388   4.448   5.933   5.558
 5830SOL    HW118389   4.406   5.875   5.627
 5830SOL    HW218390   4.409   6.025   5.564
 5831SOL     OW18391   1.393   1.857   5.420
 5831SOL    HW118392   1.408   1.849   5.321
 5831SOL    HW218393   1.317   1.920   5.437
 5832SOL     OW18394   3.349   4.566   1.461
 5832SOL    HW118395   3.368   4.536   1.367
 5832SOL    HW218396   3.305   4.491   1.511
 5833SOL     OW18397   4.009   3.303   5.709
 5833SOL    HW118398   4.041   3.280   5.800
 5833SOL    HW218399   4.084   3.343   5.656
 5834SOL     OW18400   6.611   3.322   6.779
 5834SOL    HW118401   6.628   3.270   6.695
 5834SOL    HW218402   6.692   3.318   6.837
 5835SOL     OW18403   6.363   2.012   2.600
 5835SOL    HW118404   6.441   2.009   2.537
 5835SOL    HW218405   6.283   1.974   2.555
 5836SOL     OW18406   2.877   6.677   1.820
 5836SOL    HW118407   2.866   6.627   1.905
 5836SOL    HW218408   2.902   6.614   1.747
 5837SOL     OW18409   4.188   3.816   6.972
 5837SOL    HW118410   4.266   3.837   0.008
 5837SOL    HW218411   4.220   3.801   6.878
 5838SOL     OW18412   2.646   1.383   1.082
 5838SOL    HW118413   2.647   1.459   1.148
 5838SOL    HW218414   2.573   1.320   1.105
 5839SOL     OW18415   0.550   2.642   1.093
 5839SOL    HW118416   0.631   2.683   1.051
 5839SOL    HW218417   0.549   2.544   1.072
 5840SOL     OW18418   6.974   3.813   1.430
 5840SOL    HW118419   6.947   3.718   1.416
 5840SOL    HW218420   7.005   3.826   1.524
 5841SOL     OW18421   5.216   0.654   1.632
 5841SOL    HW118422   5.153   0.702   1.572
 5841SOL    HW218423   5.233   0.562   1.596
 5842SOL     OW18424   4.174   1.818   1.355
 5842SOL    HW118425   4.146   1.728   1.322
 5842SOL    HW218426   4.223   1.866   1.282
 5843SOL     OW18427   1.930   3.496   1.087
 5843SOL    HW118428   1.947   3.511   1.185
 5843SOL    HW218429   1.958   3.578   1.036
 5844SOL     OW18430   1.015   6.440   5.312
 5844SOL    HW118431   1.106   6.475   5.334
 5844SOL    HW218432   0.946   6.498   5.355
 5845SOL     OW18433   0.724   0.365   2.030
 5845SOL    HW118434   0.698   0.455   2.067
 5845SOL    HW218435   0.647   0.302   2.039
 5846SOL     OW18436   5.905   3.451   5.558
 5846SOL    HW118437   5.823   3.393   5.560
 5846SOL    HW218438   5.933   3.466   5.463
 5847SOL     OW18439   2.652   2.481   1.895
 5847SOL    HW118440   2.593   2.402   1.884
 5847SOL    HW218441   2.748   2.452   1.893
 5848SOL     OW18442   1.735   6.267   4.119
 5848SOL    HW118443   1.657   6.221   4.078
 5848SOL    HW218444   1.775   6.331   4.054
 5849SOL     OW18445   2.227   6.559   5.089
 5849SOL    HW118446   2.251   6.655   5.077
 5849SOL    HW218447   2.132   6.544   5.059
 5850SOL     OW18448   0.689   3.159   1.754
 5850SOL    HW118449   0.742   3.175   1.671
 5850SOL    HW218450   0.751   3.146   1.831
 5851SOL     OW18451   5.555   3.667   3.798
 5851SOL    HW118452   5.521   3.732   3.865
 5851SOL    HW218453   5.652   3.648   3.816
 5852SOL     OW18454   4.426   6.122   2.779
 5852SOL    HW118455   4.462   6.042   2.827
 5852SOL    HW218456   4.412   6.100   2.683
 5853SOL     OW18457   4.451   5.587   5.325
 5853SOL    HW118458   4.524   5.519   5.331
 5853SOL    HW218459   4.442   5.633   5.413
 5854SOL     OW18460   4.315   4.808   5.518
 5854SOL    HW118461   4.239   4.815   5.582
 5854SOL    HW218462   4.292   4.742   5.446
 5855SOL     OW18463   1.664   2.830   4.146
 5855SOL    HW118464   1.601   2.887   4.092
 5855SOL    HW218465   1.611   2.770   4.206
 5856SOL     OW18466   1.160   6.835   2.507
 5856SOL    HW118467   1.114   6.748   2.489
 5856SOL    HW218468   1.192   6.837   2.602
 5857SOL     OW18469   6.506   3.120   5.116
 5857SOL    HW118470   6.447   3.182   5.064
 5857SOL    HW218471   6.500   3.142   5.213
 5858SOL     OW18472   2.388   2.370   2.680
 5858SOL    HW118473   2.289   2.378   2.666
 5858SOL    HW218474   2.436   2.394   2.596
 5859SOL     OW18475   6.039   6.111   1.604
 5859SOL    HW118476   6.073   6.187   1.549
 5859SOL    HW218477   5.963   6.067   1.555
 5860SOL     OW18478   0.640   4.901   3.543
 5860SOL    HW118479   0.607   4.816   3.501
 5860SOL    HW218480   0.658   4.969   3.472
 5861SOL     OW18481   5.653   0.661   4.980
 5861SOL    HW118482   5.636   0.751   4.940
 5861SOL    HW218483   5.611   0.591   4.922
 5862SOL     OW18484   6.249   5.696   1.991
 5862SOL    HW118485   6.203   5.624   2.044
 5862SOL    HW218486   6.347   5.681   1.993
 5863SOL     OW18487   3.380   1.056   4.747
 5863SOL    HW118488   3.365   1.146   4.705
 5863SOL    HW218489   3.472   1.025   4.726
 5864SOL     OW18490   3.668   3.826   2.411
 5864SOL    HW118491   3.666   3.827   2.311
 5864SOL    HW218492   3.739   3.763   2.443
 5865SOL     OW18493   5.380   0.398   5.701
 5865SOL    HW118494   5.400   0.493   5.725
 5865SOL    HW218495   5.375   0.389   5.602
 5866SOL     OW18496   3.171   2.812   0.341
 5866SOL    HW118497   3.120   2.797   0.257
 5866SOL    HW218498   3.200   2.908   0.346
 5867SOL     OW18499   2.049   2.360   2.017
 5867SOL    HW118500   2.030   2.428   2.087
 5867SOL    HW218501   2.080   2.405   1.933
 5868SOL     OW18502   0.917   2.258   5.756
 5868SOL    HW118503   0.843   2.226   5.814
 5868SOL    HW218504   0.993   2.290   5.813
 5869SOL     OW18505   1.833   4.263   3.630
 5869SOL    HW118506   1.910   4.279   3.568
 5869SOL    HW218507   1.755   4.230   3.577
 5870SOL     OW18508   4.136   5.938   5.605
 5870SOL    HW118509   4.038   5.918   5.598
 5870SOL    HW218510   4.171   5.962   5.515
 5871SOL     OW18511   4.032   3.752   2.515
 5871SOL    HW118512   4.037   3.830   2.577
 5871SOL    HW218513   4.071   3.672   2.560
 5872SOL     OW18514   4.263   6.443   1.381
 5872SOL    HW118515   4.242   6.521   1.439
 5872SOL    HW218516   4.209   6.364   1.409
 5873SOL     OW18517   2.907   6.200   2.564
 5873SOL    HW118518   2.847   6.263   2.514
 5873SOL    HW218519   2.981   6.171   2.504
 5874SOL     OW18520   2.065   4.497   5.144
 5874SOL    HW118521   2.152   4.451   5.158
 5874SOL    HW218522   2.024   4.466   5.058
 5875SOL     OW18523   3.617   1.915   0.319
 5875SOL    HW118524   3.630   2.013   0.334
 5875SOL    HW218525   3.557   1.877   0.389
 5876SOL     OW18526   3.870   3.394   2.093
 5876SOL    HW118527   3.872   3.297   2.069
 5876SOL    HW218528   3.775   3.426   2.092
 5877SOL     OW18529   6.130   6.250   0.389
 5877SOL    HW118530   6.064   6.291   0.325
 5877SOL    HW218531   6.135   6.151   0.374
 5878SOL     OW18532   0.872   6.124   3.909
 5878SOL    HW118533   0.799   6.136   3.842
 5878SOL    HW218534   0.960   6.149   3.869
 5879SOL     OW18535   1.014   3.394   0.492
 5879SOL    HW118536   0.945   3.452   0.451
 5879SOL    HW218537   1.097   3.396   0.437
 5880SOL     OW18538   2.934   4.215   0.612
 5880SOL    HW118539   2.996   4.152   0.565
 5880SOL    HW218540   2.846   4.171   0.629
 5881SOL     OW18541   0.042   4.924   3.122
 5881SOL    HW118542   7.012   4.966   3.049
 5881SOL    HW218543   0.047   4.986   3.200
 5882SOL     OW18544   6.754   6.253   1.308
 5882SOL    HW118545   6.706   6.172   1.339
 5882SOL    HW218546   6.783   6.307   1.387
 5883SOL     OW18547   1.066   1.723   6.991
 5883SOL    HW118548   1.064   1.743   0.066
 5883SOL    HW218549   0.988   1.767   6.947
 5884SOL     OW18550   2.709   1.357   4.103
 5884SOL    HW118551   2.754   1.395   4.023
 5884SOL    HW218552   2.766   1.372   4.184
 5885SOL     OW18553   0.066   0.119   2.642
 5885SOL    HW118554   0.075   0.182   2.565
 5885SOL    HW218555   7.006   0.142   2.693
 5886SOL     OW18556   0.493   1.906   5.149
 5886SOL    HW118557   0.590   1.923   5.130
 5886SOL    HW218558   0.438   1.930   5.069
 5887SOL     OW18559   3.352   1.150   3.801
 5887SOL    HW118560   3.363   1.063   3.850
 5887SOL    HW218561   3.257   1.160   3.772
 5888SOL     OW18562   2.558   0.745   2.902
 5888SOL    HW118563   2.601   0.751   2.812
 5888SOL    HW218564   2.607   0.803   2.967
 5889SOL     OW18565   1.488   6.147   1.242
 5889SOL    HW118566   1.480   6.085   1.164
 5889SOL    HW218567   1.516   6.238   1.210
 5890SOL     OW18568   1.343   0.277   5.202
 5890SOL    HW118569   1.322   0.180   5.186
 5890SOL    HW218570   1.291   0.333   5.137
 5891SOL     OW18571   2.941   2.874   6.210
 5891SOL    HW118572   2.936   2.865   6.111
 5891SOL    HW218573   3.012   2.813   6.246
 5892SOL     OW18574   0.548   5.501   1.445
 5892SOL    HW118575   0.593   5.415   1.469
 5892SOL    HW218576   0.599   5.577   1.486
 5893SOL     OW18577   1.499   4.081   4.042
 5893SOL    HW118578   1.531   4.156   3.984
 5893SOL    HW218579   1.500   3.996   3.990
 5894SOL     OW18580   0.632   5.872   3.482
 5894SOL    HW118581   0.560   5.898   3.418
 5894SOL    HW218582   0.633   5.935   3.559
 5895SOL     OW18583   4.881   3.046   4.232
 5895SOL    HW118584   4.975   3.018   4.249
 5895SOL    HW218585   4.855   3.023   4.138
 5896SOL     OW18586   4.203   1.627   0.966
 5896SOL    HW118587   4.178   1.718   0.999
 5896SOL    HW218588   4.125   1.587   0.919
 5897SOL     OW18589   3.840   0.438   1.710
 5897SOL    HW118590   3.797   0.437   1.620
 5897SOL    HW218591   3.780   0.392   1.776
 5898SOL     OW18592   2.045   6.671   3.214
 5898SOL    HW118593   1.993   6.691   3.297
 5898SOL    HW218594   2.004   6.718   3.136
 5899SOL     OW18595   4.845   6.647   5.629
 5899SOL    HW118596   4.817   6.608   5.541
 5899SOL    HW218597   4.764   6.681   5.678
 5900SOL     OW18598   4.838   5.453   3.517
 5900SOL    HW118599   4.884   5.542   3.507
 5900SOL    HW218600   4.840   5.404   3.431
 5901SOL     OW18601   3.033   0.550   0.210
 5901SOL    HW118602   2.970   0.546   0.288
 5901SOL    HW218603   3.123   0.579   0.241
 5902SOL     OW18604   6.977   2.231   6.761
 5902SOL    HW118605   6.997   2.253   6.665
 5902SOL    HW218606   0.037   2.197   6.805
 5903SOL     OW18607   4.325   4.068   0.408
 5903SOL    HW118608   4.227   4.054   0.396
 5903SOL    HW218609   4.376   4.000   0.355
 5904SOL     OW18610   0.991   3.328   1.865
 5904SOL    HW118611   1.018   3.304   1.772
 5904SOL    HW218612   0.955   3.246   1.911
 5905SOL     OW18613   6.431   6.299   3.036
 5905SOL    HW118614   6.363   6.302   2.963
 5905SOL    HW218615   6.391   6.255   3.117
 5906SOL     OW18616   4.753   1.632   4.269
 5906SOL    HW118617   4.663   1.660   4.305
 5906SOL    HW218618   4.790   1.558   4.325
 5907SOL     OW18619   1.386   5.653   2.116
 5907SOL    HW118620   1.382   5.751   2.094
 5907SOL    HW218621   1.391   5.642   2.215
 5908SOL     OW18622   0.819   2.375   6.441
 5908SOL    HW118623   0.804   2.472   6.423
 5908SOL    HW218624   0.822   2.325   6.355
 5909SOL     OW18625   6.842   5.172   1.093
 5909SOL    HW118626   6.922   5.195   1.037
 5909SOL    HW218627   6.825   5.074   1.087
 5910SOL     OW18628   0.858   2.820   3.186
 5910SOL    HW118629   0.885   2.850   3.094
 5910SOL    HW218630   0.903   2.878   3.254
 5911SOL     OW18631   6.486   6.272   6.589
 5911SOL    HW118632   6.492   6.319   6.501
 5911SOL    HW218633   6.568   6.292   6.643
 5912SOL     OW18634   6.683   0.522   5.444
 5912SOL    HW118635   6.744   0.586   5.491
 5912SOL    HW218636   6.611   0.574   5.396
 5913SOL     OW18637   4.678   2.927   6.615
 5913SOL    HW118638   4.653   2.864   6.541
 5913SOL    HW218639   4.767   2.901   6.652
 5914SOL     OW18640   0.924   6.055   6.816
 5914SOL    HW118641   0.957   6.136   6.865
 5914SOL    HW218642   0.985   5.978   6.836
 5915SOL     OW18643   4.521   6.464   1.257
 5915SOL    HW118644   4.560   6.375   1.232
 5915SOL    HW218645   4.435   6.449   1.307
 5916SOL     OW18646   6.975   6.043   2.926
 5916SOL    HW118647   6.952   6.135   2.957
 5916SOL    HW218648   0.027   6.008   2.981
 5917SOL     OW18649   3.177   4.092   4.697
 5917SOL    HW118650   3.225   4.084   4.784
 5917SOL    HW218651   3.082   4.062   4.709
 5918SOL     OW18652   2.002   5.018   6.048
 5918SOL    HW118653   2.014   4.925   6.083
 5918SOL    HW218654   1.980   5.015   5.950
 5919SOL     OW18655   3.120   3.414   2.618
 5919SOL    HW118656   3.161   3.407   2.527
 5919SOL    HW218657   3.182   3.374   2.686
 5920SOL     OW18658   5.243   0.843   6.102
 5920SOL    HW118659   5.243   0.893   6.015
 5920SOL    HW218660   5.178   0.886   6.165
 5921SOL     OW18661   4.146   5.166   6.441
 5921SOL    HW118662   4.220   5.233   6.454
 5921SOL    HW218663   4.180   5.074   6.463
 5922SOL     OW18664   6.302   4.120   4.323
 5922SOL    HW118665   6.262   4.184   4.388
 5922SOL    HW218666   6.364   4.169   4.262
 5923SOL     OW18667   6.931   1.293   2.297
 5923SOL    HW118668   6.879   1.225   2.245
 5923SOL    HW218669   6.894   1.384   2.281
 5924SOL     OW18670   6.110   0.159   2.745
 5924SOL    HW118671   6.053   0.091   2.791
 5924SOL    HW218672   6.108   0.245   2.796
 5925SOL     OW18673   3.332   6.294   1.806
 5925SOL    HW118674   3.381   6.259   1.885
 5925SOL    HW218675   3.278   6.374   1.833
 5926SOL     OW18676   4.251   4.682   2.165
 5926SOL    HW118677   4.167   4.714   2.122
 5926SOL    HW218678   4.303   4.627   2.100
 5927SOL     OW18679   1.216   4.308   2.125
 5927SOL    HW118680   1.163   4.369   2.183
 5927SOL    HW218681   1.312   4.335   2.126
 5928SOL     OW18682   3.706   6.805   1.308
 5928SOL    HW118683   3.616   6.790   1.267
 5928SOL    HW218684   3.777   6.775   1.244
 5929SOL     OW18685   5.765   0.464   5.638
 5929SOL    HW118686   5.834   0.524   5.597
 5929SOL    HW218687   5.769   0.470   5.738
 5930SOL     OW18688   0.665   3.273   2.921
 5930SOL    HW118689   0.602   3.346   2.894
 5930SOL    HW218690   0.633   3.186   2.884
 5931SOL     OW18691   6.733   6.606   2.707
 5931SOL    HW118692   6.801   6.585   2.777
 5931SOL    HW218693   6.776   6.653   2.631
 5932SOL     OW18694   3.786   0.001   0.457
 5932SOL    HW118695   3.725   0.075   0.485
 5932SOL    HW218696   3.733   6.940   0.443
 5933SOL     OW18697   6.740   5.214   4.417
 5933SOL    HW118698   6.673   5.261   4.359
 5933SOL    HW218699   6.719   5.231   4.513
 5934SOL     OW18700   3.974   2.748   5.319
 5934SOL    HW118701   4.020   2.667   5.281
 5934SOL    HW218702   4.031   2.788   5.391
 5935SOL     OW18703   0.463   5.057   6.327
 5935SOL    HW118704   0.419   4.987   6.271
 5935SOL    HW218705   0.413   5.068   6.412
 5936SOL     OW18706   3.191   3.403   1.552
 5936SOL    HW118707   3.290   3.420   1.557
 5936SOL    HW218708   3.148   3.431   1.637
 5937SOL     OW18709   6.140   3.000   1.936
 5937SOL    HW118710   6.133   2.900   1.932
 5937SOL    HW218711   6.236   3.026   1.944
 5938SOL     OW18712   6.157   5.785   3.891
 5938SOL    HW118713   6.188   5.871   3.932
 5938SOL    HW218714   6.173   5.710   3.954
 5939SOL     OW18715   2.606   5.964   3.802
 5939SOL    HW118716   2.662   5.905   3.744
 5939SOL    HW218717   2.513   5.927   3.806
 5940SOL     OW18718   4.098   4.975   3.317
 5940SOL    HW118719   4.165   4.939   3.382
 5940SOL    HW218720   4.127   5.065   3.286
 5941SOL     OW18721   5.319   3.505   2.578
 5941SOL    HW118722   5.381   3.450   2.521
 5941SOL    HW218723   5.340   3.602   2.567
 5942SOL     OW18724   5.586   3.805   6.886
 5942SOL    HW118725   5.577   3.715   6.930
 5942SOL    HW218726   5.530   3.871   6.935
 5943SOL     OW18727   3.337   3.482   6.058
 5943SOL    HW118728   3.273   3.536   6.002
 5943SOL    HW218729   3.318   3.384   6.046
 5944SOL     OW18730   0.377   2.302   0.156
 5944SOL    HW118731   0.452   2.239   0.136
 5944SOL    HW218732   0.403   2.361   0.232
 5945SOL     OW18733   0.030   4.995   5.187
 5945SOL    HW118734   7.007   5.077   5.222
 5945SOL    HW218735   0.085   5.019   5.108
 5946SOL     OW18736   3.369   4.116   6.907
 5946SOL    HW118737   3.350   4.182   6.979
 5946SOL    HW218738   3.446   4.148   6.852
 5947SOL     OW18739   3.182   3.629   3.046
 5947SOL    HW118740   3.189   3.603   3.142
 5947SOL    HW218741   3.250   3.699   3.025
 5948SOL     OW18742   4.252   4.647   2.506
 5948SOL    HW118743   4.329   4.585   2.490
 5948SOL    HW218744   4.204   4.665   2.420
 5949SOL     OW18745   5.358   4.791   1.401
 5949SOL    HW118746   5.380   4.706   1.450
 5949SOL    HW218747   5.437   4.819   1.347
 5950SOL     OW18748   5.755   1.998   4.669
 5950SOL    HW118749   5.767   2.021   4.766
 5950SOL    HW218750   5.688   2.060   4.628
 5951SOL     OW18751   1.063   5.667   4.641
 5951SOL    HW118752   1.017   5.702   4.723
 5951SOL    HW218753   1.087   5.744   4.581
 5952SOL     OW18754   4.703   5.765   3.336
 5952SOL    HW118755   4.664   5.758   3.244
 5952SOL    HW218756   4.645   5.823   3.393
 5953SOL     OW18757   6.864   4.431   5.072
 5953SOL    HW118758   6.792   4.376   5.029
 5953SOL    HW218759   6.953   4.400   5.037
 5954SOL     OW18760   6.499   5.295   4.954
 5954SOL    HW118761   6.401   5.301   4.939
 5954SOL    HW218762   6.519   5.219   5.016
 5955SOL     OW18763   4.849   5.262   1.885
 5955SOL    HW118764   4.862   5.166   1.909
 5955SOL    HW218765   4.804   5.310   1.961
 5956SOL     OW18766   5.443   1.914   3.884
 5956SOL    HW118767   5.504   1.877   3.814
 5956SOL    HW218768   5.355   1.866   3.879
 5957SOL     OW18769   3.243   1.673   4.417
 5957SOL    HW118770   3.208   1.600   4.359
 5957SOL    HW218771   3.342   1.681   4.403
 5958SOL     OW18772   4.082   0.225   2.866
 5958SOL    HW118773   4.160   0.283   2.841
 5958SOL    HW218774   4.060   0.165   2.789
 5959SOL     OW18775   4.270   2.934   5.659
 5959SOL    HW118776   4.292   2.991   5.580
 5959SOL    HW218777   4.349   2.878   5.683
 5960SOL     OW18778   3.624   6.032   4.520
 5960SOL    HW118779   3.600   5.936   4.534
 5960SOL    HW218780   3.702   6.055   4.577
 5961SOL     OW18781   4.865   1.348   2.480
 5961SOL    HW118782   4.896   1.419   2.416
 5961SOL    HW218783   4.913   1.360   2.568
 5962SOL     OW18784   5.444   5.896   6.614
 5962SOL    HW118785   5.427   5.816   6.672
 5962SOL    HW218786   5.366   5.959   6.621
 5963SOL     OW18787   3.265   3.963   6.523
 5963SOL    HW118788   3.210   3.884   6.496
 5963SOL    HW218789   3.354   3.959   6.478
 5964SOL     OW18790   1.672   6.595   4.795
 5964SOL    HW118791   1.580   6.561   4.812
 5964SOL    HW218792   1.739   6.525   4.820
 5965SOL     OW18793   2.422   1.355   0.259
 5965SOL    HW118794   2.511   1.353   0.213
 5965SOL    HW218795   2.359   1.412   0.207
 5966SOL     OW18796   2.064   6.489   6.347
 5966SOL    HW118797   2.132   6.477   6.275
 5966SOL    HW218798   2.055   6.586   6.369
 5967SOL     OW18799   2.712   0.598   5.926
 5967SOL    HW118800   2.730   0.655   6.007
 5967SOL    HW218801   2.656   0.650   5.861
 5968SOL     OW18802   5.010   2.113   6.825
 5968SOL    HW118803   5.050   2.036   6.776
 5968SOL    HW218804   4.914   2.095   6.844
 5969SOL     OW18805   6.373   0.613   6.775
 5969SOL    HW118806   6.436   0.642   6.703
 5969SOL    HW218807   6.303   0.684   6.788
 5970SOL     OW18808   6.964   5.113   1.763
 5970SOL    HW118809   6.988   5.174   1.688
 5970SOL    HW218810   6.895   5.157   1.821
 5971SOL     OW18811   0.027   0.478   1.139
 5971SOL    HW118812   6.953   0.486   1.162
 5971SOL    HW218813   0.050   0.382   1.122
 5972SOL     OW18814   4.706   5.601   6.254
 5972SOL    HW118815   4.762   5.672   6.297
 5972SOL    HW218816   4.749   5.571   6.169
 5973SOL     OW18817   1.479   2.672   3.036
 5973SOL    HW118818   1.527   2.754   3.003
 5973SOL    HW218819   1.543   2.615   3.088
 5974SOL     OW18820   5.201   6.462   0.347
 5974SOL    HW118821   5.142   6.383   0.335
 5974SOL    HW218822   5.155   6.544   0.314
 5975SOL     OW18823   4.367   6.856   0.647
 5975SOL    HW118824   4.374   6.756   0.640
 5975SOL    HW218825   4.409   6.898   0.567
 5976SOL     OW18826   4.002   2.929   5.564
 5976SOL    HW118827   4.096   2.923   5.595
 5976SOL    HW218828   3.973   3.025   5.562
 5977SOL     OW18829   1.056   5.587   0.486
 5977SOL    HW118830   0.987   5.526   0.447
 5977SOL    HW218831   1.065   5.668   0.428
 5978SOL     OW18832   3.439   5.494   1.715
 5978SOL    HW118833   3.340   5.503   1.714
 5978SOL    HW218834   3.481   5.584   1.712
 5979SOL     OW18835   6.436   0.315   2.087
 5979SOL    HW118836   6.445   0.367   2.172
 5979SOL    HW218837   6.418   0.219   2.108
 5980SOL     OW18838   4.052   3.675   1.212
 5980SOL    HW118839   4.049   3.648   1.116
 5980SOL    HW218840   4.022   3.770   1.221
 5981SOL     OW18841   4.981   1.745   0.369
 5981SOL    HW118842   4.978   1.788   0.459
 5981SOL    HW218843   4.898   1.766   0.319
 5982SOL     OW18844   6.037   2.164   2.672
 5982SOL    HW118845   6.038   2.074   2.629
 5982SOL    HW218846   6.131   2.193   2.691
 5983SOL     OW18847   1.140   1.288   4.377
 5983SOL    HW118848   1.208   1.282   4.450
 5983SOL    HW218849   1.182   1.260   4.291
 5984SOL     OW18850   5.121   6.658   3.272
 5984SOL    HW118851   5.143   6.745   3.227
 5984SOL    HW218852   5.039   6.670   3.329
 5985SOL     OW18853   7.013   2.977   3.384
 5985SOL    HW118854   7.015   2.984   3.284
 5985SOL    HW218855   7.005   3.069   3.423
 5986SOL     OW18856   3.161   3.769   5.204
 5986SOL    HW118857   3.096   3.804   5.137
 5986SOL    HW218858   3.250   3.754   5.161
 5987SOL     OW18859   5.010   0.387   4.131
 5987SOL    HW118860   4.938   0.322   4.106
 5987SOL    HW218861   4.971   0.478   4.140
 5988SOL     OW18862   4.624   0.474   5.886
 5988SOL    HW118863   4.683   0.394   5.882
 5988SOL    HW218864   4.670   0.552   5.843
 5989SOL     OW18865   2.177   5.400   6.244
 5989SOL    HW118866   2.249   5.332   6.228
 5989SOL    HW218867   2.087   5.357   6.231
 5990SOL     OW18868   3.313   3.521   0.390
 5990SOL    HW118869   3.357   3.455   0.450
 5990SOL    HW218870   3.221   3.542   0.423
 5991SOL     OW18871   4.090   5.916   6.765
 5991SOL    HW118872   4.178   5.943   6.803
 5991SOL    HW218873   4.032   5.996   6.753
 5992SOL     OW18874   3.614   0.348   1.900
 5992SOL    HW118875   3.562   0.324   1.818
 5992SOL    HW218876   3.554   0.348   1.980
 5993SOL     OW18877   4.136   4.042   5.947
 5993SOL    HW118878   4.193   3.992   5.882
 5993SOL    HW218879   4.173   4.031   6.039
 5994SOL     OW18880   6.787   2.232   6.966
 5994SOL    HW118881   6.833   2.229   6.877
 5994SOL    HW218882   6.845   2.281   0.008
 5995SOL     OW18883   4.884   3.153   2.205
 5995SOL    HW118884   4.940   3.234   2.184
 5995SOL    HW218885   4.831   3.128   2.124
 5996SOL     OW18886   0.930   6.051   1.331
 5996SOL    HW118887   0.913   6.130   1.390
 5996SOL    HW218888   0.849   5.992   1.331
 5997SOL     OW18889   1.038   5.417   2.550
 5997SOL    HW118890   0.940   5.437   2.539
 5997SOL    HW218891   1.055   5.321   2.528
 5998SOL     OW18892   6.387   1.761   2.192
 5998SOL    HW118893   6.394   1.761   2.092
 5998SOL    HW218894   6.447   1.832   2.230
 5999SOL     OW18895   2.968   3.167   1.645
 5999SOL    HW118896   2.888   3.156   1.704
 5999SOL    HW218897   3.006   3.077   1.623
 6000SOL     OW18898   1.250   6.058   0.054
 6000SOL    HW118899   1.306   6.137   0.079
 6000SOL    HW218900   1.223   6.066   6.981
 6001SOL     OW18901   6.915   5.352   6.483
 6001SOL    HW118902   6.972   5.285   6.530
 6001SOL    HW218903   6.842   5.382   6.544
 6002SOL     OW18904   6.065   6.864   6.307
 6002SOL    HW118905   6.157   6.874   6.344
 6002SOL    HW218906   6.043   6.944   6.251
 6003SOL     OW18907   5.834   1.894   5.159
 6003SOL    HW118908   5.819   1.990   5.180
 6003SOL    HW218909   5.776   1.837   5.218
 6004SOL     OW18910   6.762   3.422   3.867
 6004SOL    HW118911   6.722   3.488   3.803
 6004SOL    HW218912   6.776   3.335   3.820
 6005SOL     OW18913   5.666   5.182   4.714
 6005SOL    HW118914   5.732   5.107   4.712
 6005SOL    HW218915   5.579   5.151   4.674
 6006SOL     OW18916   2.417   0.551   4.821
 6006SOL    HW118917   2.489   0.594   4.875
 6006SOL    HW218918   2.339   0.529   4.881
 6007SOL     OW18919   6.515   2.980   5.793
 6007SOL    HW118920   6.498   3.077   5.777
 6007SOL    HW218921   6.463   2.925   5.728
 6008SOL     OW18922   2.703   4.979   6.173
 6008SOL    HW118923   2.798   5.012   6.166
 6008SOL    HW218924   2.645   5.033   6.112
 6009SOL     OW18925   3.678   0.260   3.872
 6009SOL    HW118926   3.627   0.299   3.795
 6009SOL    HW218927   3.638   0.171   3.895
 6010SOL     OW18928   0.657   4.529   3.762
 6010SOL    HW118929   0.693   4.587   3.835
 6010SOL    HW218930   0.682   4.568   3.673
 6011SOL     OW18931   5.896   3.251   3.292
 6011SOL    HW118932   5.854   3.221   3.206
 6011SOL    HW218933   5.827   3.296   3.348
 6012SOL     OW18934   5.966   0.644   0.717
 6012SOL    HW118935   5.957   0.744   0.716
 6012SOL    HW218936   6.024   0.617   0.794
 6013SOL     OW18937   4.847   0.966   2.795
 6013SOL    HW118938   4.774   1.022   2.756
 6013SOL    HW218939   4.907   1.023   2.851
 6014SOL     OW18940   3.757   4.075   3.636
 6014SOL    HW118941   3.799   4.051   3.723
 6014SOL    HW218942   3.664   4.109   3.653
 6015SOL     OW18943   6.030   4.014   4.791
 6015SOL    HW118944   6.000   3.940   4.851
 6015SOL    HW218945   6.055   4.094   4.845
 6016SOL     OW18946   6.381   1.262   6.287
 6016SOL    HW118947   6.425   1.341   6.331
 6016SOL    HW218948   6.287   1.286   6.261
 6017SOL     OW18949   6.307   4.941   4.385
 6017SOL    HW118950   6.361   4.910   4.307
 6017SOL    HW218951   6.250   5.019   4.358
 6018SOL     OW18952   3.387   1.289   5.995
 6018SOL    HW118953   3.456   1.298   6.066
 6018SOL    HW218954   3.428   1.310   5.906
 6019SOL     OW18955   0.643   3.263   4.954
 6019SOL    HW118956   0.631   3.165   4.938
 6019SOL    HW218957   0.690   3.277   5.042
 6020SOL     OW18958   0.652   4.919   0.164
 6020SOL    HW118959   0.714   4.969   0.224
 6020SOL    HW218960   0.700   4.893   0.080
 6021SOL     OW18961   4.612   0.495   3.093
 6021SOL    HW118962   4.670   0.567   3.054
 6021SOL    HW218963   4.549   0.536   3.159
 6022SOL     OW18964   6.815   1.945   3.441
 6022SOL    HW118965   6.747   1.903   3.501
 6022SOL    HW218966   6.882   1.995   3.495
 6023SOL     OW18967   5.000   1.001   1.651
 6023SOL    HW118968   4.934   0.979   1.723
 6023SOL    HW218969   5.090   0.965   1.677
 6024SOL     OW18970   1.120   4.877   1.462
 6024SOL    HW118971   1.121   4.806   1.393
 6024SOL    HW218972   1.029   4.919   1.467
 6025SOL     OW18973   3.057   2.065   3.461
 6025SOL    HW118974   3.074   1.988   3.400
 6025SOL    HW218975   3.013   2.032   3.545
 6026SOL     OW18976   0.331   5.808   4.972
 6026SOL    HW118977   0.406   5.753   5.010
 6026SOL    HW218978   0.364   5.857   4.891
 6027SOL     OW18979   6.983   3.372   5.941
 6027SOL    HW118980   7.015   3.280   5.960
 6027SOL    HW218981   0.008   3.409   5.862
 6028SOL     OW18982   5.808   4.393   1.346
 6028SOL    HW118983   5.867   4.451   1.290
 6028SOL    HW218984   5.785   4.310   1.294
 6029SOL     OW18985   2.972   6.652   3.888
 6029SOL    HW118986   2.881   6.669   3.925
 6029SOL    HW218987   3.024   6.738   3.884
 6030SOL     OW18988   4.474   4.833   3.848
 6030SOL    HW118989   4.449   4.906   3.783
 6030SOL    HW218990   4.488   4.873   3.938
 6031SOL     OW18991   3.095   5.887   4.018
 6031SOL    HW118992   3.103   5.807   4.076
 6031SOL    HW218993   3.046   5.863   3.934
 6032SOL     OW18994   2.408   5.034   2.598
 6032SOL    HW118995   2.363   5.115   2.635
 6032SOL    HW218996   2.485   5.009   2.656
 6033SOL     OW18997   2.089   3.005   3.056
 6033SOL    HW118998   2.021   2.970   2.991
 6033SOL    HW218999   2.050   3.083   3.105
 6034SOL     OW19000   1.294   1.000   5.580
 6034SOL    HW119001   1.373   0.966   5.630
 6034SOL    HW219002   1.301   1.100   5.572
 6035SOL     OW19003   1.419   1.311   2.005
 6035SOL    HW119004   1.439   1.254   1.925
 6035SOL    HW219005   1.382   1.398   1.976
 6036SOL     OW19006   5.135   5.184   2.209
 6036SOL    HW119007   5.097   5.194   2.301
 6036SOL    HW219008   5.072   5.131   2.152
 6037SOL     OW19009   3.890   0.327   0.771
 6037SOL    HW119010   3.884   0.319   0.671
 6037SOL    HW219011   3.854   0.416   0.799
 6038SOL     OW19012   1.506   2.672   6.269
 6038SOL    HW119013   1.450   2.669   6.351
 6038SOL    HW219014   1.525   2.767   6.245
 6039SOL     OW19015   3.736   3.258   2.830
 6039SOL    HW119016   3.694   3.340   2.793
 6039SOL    HW219017   3.720   3.181   2.767
 6040SOL     OW19018   1.266   1.401   1.455
 6040SOL    HW119019   1.220   1.324   1.411
 6040SOL    HW219020   1.364   1.379   1.465
 6041SOL     OW19021   2.715   1.827   4.956
 6041SOL    HW119022   2.640   1.853   4.894
 6041SOL    HW219023   2.753   1.909   4.998
 6042SOL     OW19024   4.223   6.981   2.782
 6042SOL    HW119025   4.286   6.950   2.711
 6042SOL    HW219026   4.269   0.027   2.839
 6043SOL     OW19027   0.562   0.013   4.988
 6043SOL    HW119028   0.571   0.113   4.989
 6043SOL    HW219029   0.466   7.011   4.999
 6044SOL     OW19030   2.138   2.640   1.559
 6044SOL    HW119031   2.234   2.617   1.544
 6044SOL    HW219032   2.097   2.672   1.473
 6045SOL     OW19033   5.520   3.708   3.523
 6045SOL    HW119034   5.612   3.738   3.497
 6045SOL    HW219035   5.510   3.716   3.623
 6046SOL     OW19036   3.235   2.512   1.428
 6046SOL    HW119037   3.138   2.497   1.407
 6046SOL    HW219038   3.273   2.431   1.471
 6047SOL     OW19039   5.163   1.964   1.374
 6047SOL    HW119040   5.197   2.041   1.428
 6047SOL    HW219041   5.201   1.879   1.411
 6048SOL     OW19042   4.647   5.044   5.096
 6048SOL    HW119043   4.613   5.138   5.086
 6048SOL    HW219044   4.579   4.989   5.143
 6049SOL     OW19045   4.383   4.298   6.730
 6049SOL    HW119046   4.363   4.200   6.742
 6049SOL    HW219047   4.301   4.351   6.751
 6050SOL     OW19048   2.176   5.510   6.517
 6050SOL    HW119049   2.096   5.451   6.530
 6050SOL    HW219050   2.201   5.512   6.421
 6051SOL     OW19051   2.146   0.057   2.864
 6051SOL    HW119052   2.199   0.136   2.894
 6051SOL    HW219053   2.131   0.062   2.765
 6052SOL     OW19054   4.962   1.396   1.389
 6052SOL    HW119055   5.005   1.477   1.350
 6052SOL    HW219056   4.863   1.402   1.378
 6053SOL     OW19057   4.366   0.849   5.992
 6053SOL    HW119058   4.387   0.782   5.921
 6053SOL    HW219059   4.446   0.863   6.050
 6054SOL     OW19060   2.346   3.464   0.121
 6054SOL    HW119061   2.412   3.426   0.055
 6054SOL    HW219062   2.253   3.453   0.085
 6055SOL     OW19063   5.001   6.051   5.020
 6055SOL    HW119064   5.015   5.952   5.015
 6055SOL    HW219065   4.981   6.077   5.114
 6056SOL     OW19066   4.643   3.427   5.387
 6056SOL    HW119067   4.738   3.434   5.419
 6056SOL    HW219068   4.632   3.481   5.304
 6057SOL     OW19069   6.995   0.980   2.307
 6057SOL    HW119070   6.960   1.021   2.223
 6057SOL    HW219071   0.072   0.970   2.300
 6058SOL     OW19072   5.079   3.408   0.553
 6058SOL    HW119073   5.161   3.353   0.568
 6058SOL    HW219074   5.085   3.492   0.606
 6059SOL     OW19075   4.786   5.301   6.199
 6059SOL    HW119076   4.766   5.263   6.108
 6059SOL    HW219077   4.706   5.291   6.257
 6060SOL     OW19078   2.534   3.161   6.173
 6060SOL    HW119079   2.456   3.127   6.121
 6060SOL    HW219080   2.505   3.241   6.227
 6061SOL     OW19081   5.252   3.720   0.054
 6061SOL    HW119082   5.290   3.697   0.144
 6061SOL    HW219083   5.156   3.746   0.065
 6062SOL     OW19084   2.480   1.291   5.887
 6062SOL    HW119085   2.507   1.318   5.795
 6062SOL    HW219086   2.437   1.369   5.933
 6063SOL     OW19087   4.597   2.597   6.104
 6063SOL    HW119088   4.544   2.638   6.029
 6063SOL    HW219089   4.692   2.584   6.075
 6064SOL     OW19090   1.784   0.532   1.241
 6064SOL    HW119091   1.761   0.600   1.311
 6064SOL    HW219092   1.866   0.482   1.269
 6065SOL     OW19093   1.030   5.917   2.701
 6065SOL    HW119094   0.992   5.976   2.772
 6065SOL    HW219095   1.129   5.932   2.695
 6066SOL     OW19096   5.417   1.285   5.493
 6066SOL    HW119097   5.343   1.278   5.559
 6066SOL    HW219098   5.395   1.233   5.411
 6067SOL     OW19099   4.969   0.759   5.149
 6067SOL    HW119100   4.910   0.686   5.117
 6067SOL    HW219101   4.979   0.754   5.249
 6068SOL     OW19102   4.741   2.771   4.900
 6068SOL    HW119103   4.763   2.834   4.825
 6068SOL    HW219104   4.695   2.690   4.862
 6069SOL     OW19105   5.917   3.409   5.097
 6069SOL    HW119106   5.946   3.328   5.147
 6069SOL    HW219107   5.818   3.405   5.080
 6070SOL     OW19108   2.801   2.699   1.420
 6070SOL    HW119109   2.746   2.666   1.496
 6070SOL    HW219110   2.889   2.731   1.454
 6071SOL     OW19111   0.153   6.085   4.570
 6071SOL    HW119112   0.117   6.128   4.487
 6071SOL    HW219113   0.103   6.001   4.589
 6072SOL     OW19114   0.264   0.386   1.747
 6072SOL    HW119115   0.208   0.385   1.664
 6072SOL    HW219116   0.321   0.468   1.747
 6073SOL     OW19117   5.284   2.849   0.739
 6073SOL    HW119118   5.192   2.833   0.775
 6073SOL    HW219119   5.351   2.804   0.798
 6074SOL     OW19120   1.386   5.342   2.521
 6074SOL    HW119121   1.344   5.430   2.501
 6074SOL    HW219122   1.322   5.284   2.572
 6075SOL     OW19123   4.627   6.809   5.769
 6075SOL    HW119124   4.538   6.781   5.806
 6075SOL    HW219125   4.681   6.852   5.841
 6076SOL     OW19126   2.972   4.848   3.136
 6076SOL    HW119127   2.964   4.821   3.040
 6076SOL    HW219128   3.067   4.844   3.164
 6077SOL     OW19129   6.267   5.242   1.481
 6077SOL    HW119130   6.286   5.337   1.454
 6077SOL    HW219131   6.171   5.235   1.509
 6078SOL     OW19132   5.163   5.050   0.110
 6078SOL    HW119133   5.184   4.969   0.056
 6078SOL    HW219134   5.230   5.122   0.090
 6079SOL     OW19135   5.049   3.686   5.404
 6079SOL    HW119136   4.950   3.702   5.409
 6079SOL    HW219137   5.096   3.748   5.468
 6080SOL     OW19138   0.335   5.741   0.915
 6080SOL    HW119139   0.338   5.796   0.998
 6080SOL    HW219140   0.409   5.769   0.854
 6081SOL     OW19141   0.083   2.341   5.901
 6081SOL    HW119142   0.122   2.431   5.880
 6081SOL    HW219143   0.053   2.297   5.817
 6082SOL     OW19144   3.149   0.307   2.931
 6082SOL    HW119145   3.175   0.214   2.902
 6082SOL    HW219146   3.212   0.338   3.003
 6083SOL     OW19147   6.268   6.013   0.342
 6083SOL    HW119148   6.360   6.021   0.381
 6083SOL    HW219149   6.269   5.943   0.270
 6084SOL     OW19150   1.064   0.122   2.587
 6084SOL    HW119151   1.029   0.031   2.608
 6084SOL    HW219152   1.126   0.151   2.660
 6085SOL     OW19153   0.458   6.976   0.035
 6085SOL    HW119154   0.432   7.015   6.970
 6085SOL    HW219155   0.493   6.883   0.021
 6086SOL     OW19156   2.733   1.874   5.593
 6086SOL    HW119157   2.792   1.913   5.663
 6086SOL    HW219158   2.675   1.946   5.555
 6087SOL     OW19159   3.410   5.964   1.496
 6087SOL    HW119160   3.395   6.062   1.505
 6087SOL    HW219161   3.505   5.947   1.469
 6088SOL     OW19162   5.518   6.801   4.384
 6088SOL    HW119163   5.465   6.796   4.299
 6088SOL    HW219164   5.494   6.724   4.443
 6089SOL     OW19165   5.624   2.284   2.581
 6089SOL    HW119166   5.666   2.193   2.583
 6089SOL    HW219167   5.648   2.330   2.496
 6090SOL     OW19168   2.309   5.218   4.397
 6090SOL    HW119169   2.352   5.180   4.315
 6090SOL    HW219170   2.318   5.153   4.472
 6091SOL     OW19171   2.673   1.396   6.756
 6091SOL    HW119172   2.767   1.406   6.722
 6091SOL    HW219173   2.614   1.362   6.683
 6092SOL     OW19174   4.129   0.907   2.798
 6092SOL    HW119175   4.193   0.896   2.874
 6092SOL    HW219176   4.064   0.981   2.818
 6093SOL     OW19177   2.248   2.664   2.151
 6093SOL    HW119178   2.328   2.609   2.127
 6093SOL    HW219179   2.184   2.666   2.074
 6094SOL     OW19180   1.136   6.134   2.892
 6094SOL    HW119181   1.198   6.071   2.844
 6094SOL    HW219182   1.186   6.215   2.921
 6095SOL     OW19183   4.874   4.645   0.113
 6095SOL    HW119184   4.961   4.609   0.079
 6095SOL    HW219185   4.882   4.744   0.126
 6096SOL     OW19186   6.268   0.215   3.015
 6096SOL    HW119187   6.304   0.173   3.098
 6096SOL    HW219188   6.341   0.219   2.946
 6097SOL     OW19189   1.621   5.429   2.231
 6097SOL    HW119190   1.717   5.406   2.214
 6097SOL    HW219191   1.567   5.403   2.151
 6098SOL     OW19192   0.199   1.378   5.437
 6098SOL    HW119193   0.296   1.378   5.460
 6098SOL    HW219194   0.186   1.329   5.350
 6099SOL     OW19195   5.235   5.795   6.001
 6099SOL    HW119196   5.320   5.834   5.967
 6099SOL    HW219197   5.175   5.772   5.924
 6100SOL     OW19198   5.667   6.182   1.688
 6100SOL    HW119199   5.710   6.167   1.599
 6100SOL    HW219200   5.599   6.112   1.705
 6101SOL     OW19201   0.076   3.024   3.106
 6101SOL    HW119202   0.073   2.925   3.102
 6101SOL    HW219203   0.164   3.056   3.069
 6102SOL     OW19204   3.611   5.629   3.197
 6102SOL    HW119205   3.518   5.644   3.165
 6102SOL    HW219206   3.672   5.699   3.159
 6103SOL     OW19207   5.591   1.795   1.699
 6103SOL    HW119208   5.668   1.836   1.747
 6103SOL    HW219209   5.564   1.710   1.745
 6104SOL     OW19210   5.366   0.011   5.362
 6104SOL    HW119211   5.289   6.993   5.410
 6104SOL    HW219212   5.435   6.964   5.344
 6105SOL     OW19213   2.474   5.452   6.592
 6105SOL    HW119214   2.381   5.464   6.556
 6105SOL    HW219215   2.486   5.356   6.620
 6106SOL     OW19216   1.848   4.561   5.935
 6106SOL    HW119217   1.894   4.507   5.865
 6106SOL    HW219218   1.751   4.571   5.911
 6107SOL     OW19219   4.661   5.909   5.002
 6107SOL    HW119220   4.590   5.851   5.041
 6107SOL    HW219221   4.670   5.993   5.056
 6108SOL     OW19222   2.376   2.759   2.613
 6108SOL    HW119223   2.408   2.697   2.685
 6108SOL    HW219224   2.330   2.837   2.655
 6109SOL     OW19225   5.289   1.623   5.162
 6109SOL    HW119226   5.388   1.613   5.162
 6109SOL    HW219227   5.248   1.549   5.215
 6110SOL     OW19228   2.800   3.827   0.980
 6110SOL    HW119229   2.820   3.821   1.078
 6110SOL    HW219230   2.776   3.736   0.946
 6111SOL     OW19231   1.402   3.265   2.275
 6111SOL    HW119232   1.393   3.325   2.196
 6111SOL    HW219233   1.433   3.175   2.244
 6112SOL     OW19234   3.457   0.250   2.445
 6112SOL    HW119235   3.509   0.313   2.502
 6112SOL    HW219236   3.519   0.185   2.401
 6113SOL     OW19237   2.622   2.040   6.001
 6113SOL    HW119238   2.698   1.992   5.959
 6113SOL    HW219239   2.536   2.011   5.957
 6114SOL     OW19240   5.510   4.352   2.576
 6114SOL    HW119241   5.530   4.340   2.479
 6114SOL    HW219242   5.411   4.343   2.591
 6115SOL     OW19243   6.284   0.260   4.437
 6115SOL    HW119244   6.338   0.266   4.522
 6115SOL    HW219245   6.187   0.274   4.459
 6116SOL     OW19246   3.741   1.742   6.129
 6116SOL    HW119247   3.700   1.793   6.205
 6116SOL    HW219248   3.727   1.792   6.044
 6117SOL     OW19249   1.941   1.582   3.628
 6117SOL    HW119250   2.002   1.533   3.565
 6117SOL    HW219251   1.882   1.644   3.576
 6118SOL     OW19252   5.767   0.690   1.161
 6118SOL    HW119253   5.761   0.605   1.213
 6118SOL    HW219254   5.675   0.722   1.137
 6119SOL     OW19255   0.897   3.506   0.157
 6119SOL    HW119256   0.943   3.551   0.234
 6119SOL    HW219257   0.965   3.469   0.094
 6120SOL     OW19258   2.570   6.396   5.825
 6120SOL    HW119259   2.628   6.342   5.886
 6120SOL    HW219260   2.604   6.490   5.821
 6121SOL     OW19261   0.932   3.527   5.133
 6121SOL    HW119262   0.838   3.557   5.148
 6121SOL    HW219263   0.978   3.513   5.221
 6122SOL     OW19264   3.740   5.129   0.422
 6122SOL    HW119265   3.818   5.185   0.451
 6122SOL    HW219266   3.690   5.098   0.503
 6123SOL     OW19267   5.020   6.614   6.396
 6123SOL    HW119268   5.026   6.590   6.493
 6123SOL    HW219269   4.960   6.693   6.384
 6124SOL     OW19270   1.444   6.677   5.932
 6124SOL    HW119271   1.536   6.672   5.894
 6124SOL    HW219272   1.423   6.772   5.956
 6125SOL     OW19273   1.670   4.039   0.306
 6125SOL    HW119274   1.656   3.950   0.262
 6125SOL    HW219275   1.737   4.030   0.379
 6126SOL     OW19276   6.836   1.112   4.031
 6126SOL    HW119277   6.780   1.075   3.956
 6126SOL    HW219278   6.801   1.201   4.058
 6127SOL     OW19279   3.100   6.830   0.959
 6127SOL    HW119280   3.017   6.780   0.933
 6127SOL    HW219281   3.076   6.924   0.984
 6128SOL     OW19282   6.342   5.261   0.582
 6128SOL    HW119283   6.392   5.199   0.522
 6128SOL    HW219284   6.311   5.340   0.530
 6129SOL     OW19285   0.208   2.920   2.469
 6129SOL    HW119286   0.185   2.932   2.566
 6129SOL    HW219287   0.258   2.834   2.458
 6130SOL     OW19288   4.889   2.251   2.315
 6130SOL    HW119289   4.983   2.259   2.284
 6130SOL    HW219290   4.878   2.300   2.402
 6131SOL     OW19291   0.826   1.731   3.958
 6131SOL    HW119292   0.873   1.643   3.952
 6131SOL    HW219293   0.870   1.797   3.897
 6132SOL     OW19294   4.161   2.015   7.006
 6132SOL    HW119295   4.201   1.923   7.012
 6132SOL    HW219296   4.077   2.019   0.037
 6133SOL     OW19297   2.112   3.552   3.256
 6133SOL    HW119298   2.106   3.517   3.350
 6133SOL    HW219299   2.095   3.650   3.256
 6134SOL     OW19300   4.292   6.074   6.865
 6134SOL    HW119301   4.230   6.152   6.878
 6134SOL    HW219302   4.381   6.108   6.836
 6135SOL     OW19303   0.419   6.094   1.091
 6135SOL    HW119304   0.488   6.113   1.021
 6135SOL    HW219305   0.435   6.153   1.170
 6136SOL     OW19306   1.538   2.758   1.743
 6136SOL    HW119307   1.630   2.776   1.709
 6136SOL    HW219308   1.474   2.825   1.707
 6137SOL     OW19309   6.692   3.956   2.086
 6137SOL    HW119310   6.738   4.021   2.026
 6137SOL    HW219311   6.753   3.878   2.104
 6138SOL     OW19312   3.968   0.058   2.683
 6138SOL    HW119313   3.881   0.010   2.676
 6138SOL    HW219314   4.039   7.017   2.712
 6139SOL     OW19315   1.057   7.012   5.689
 6139SOL    HW119316   0.996   0.064   5.663
 6139SOL    HW219317   1.084   6.961   5.608
 6140SOL     OW19318   1.259   0.271   2.053
 6140SOL    HW119319   1.241   0.264   1.954
 6140SOL    HW219320   1.182   0.232   2.103
 6141SOL     OW19321   0.657   7.009   5.900
 6141SOL    HW119322   0.602   0.043   5.961
 6141SOL    HW219323   0.623   6.915   5.903
 6142SOL     OW19324   6.923   6.129   6.172
 6142SOL    HW119325   7.016   6.117   6.206
 6142SOL    HW219326   6.914   6.084   6.083
 6143SOL     OW19327   6.661   3.328   1.416
 6143SOL    HW119328   6.740   3.325   1.478
 6143SOL    HW219329   6.615   3.240   1.416
 6144SOL     OW19330   5.474   4.854   4.452
 6144SOL    HW119331   5.429   4.888   4.534
 6144SOL    HW219332   5.564   4.896   4.443
 6145SOL     OW19333   5.325   4.948   4.233
 6145SOL    HW119334   5.302   4.872   4.172
 6145SOL    HW219335   5.332   4.914   4.327
 6146SOL     OW19336   3.568   5.462   3.873
 6146SOL    HW119337   3.635   5.398   3.910
 6146SOL    HW219338   3.561   5.541   3.934
 6147SOL     OW19339   2.370   2.403   5.053
 6147SOL    HW119340   2.371   2.496   5.088
 6147SOL    HW219341   2.277   2.379   5.025
 6148SOL     OW19342   4.122   6.597   4.995
 6148SOL    HW119343   4.219   6.575   4.988
 6148SOL    HW219344   4.080   6.594   4.904
 6149SOL     OW19345   2.277   6.631   1.338
 6149SOL    HW119346   2.185   6.634   1.375
 6149SOL    HW219347   2.340   6.594   1.406
 6150SOL     OW19348   6.182   4.637   0.635
 6150SOL    HW119349   6.226   4.702   0.573
 6150SOL    HW219350   6.140   4.563   0.582
 6151SOL     OW19351   6.337   4.845   6.374
 6151SOL    HW119352   6.383   4.756   6.381
 6151SOL    HW219353   6.257   4.846   6.434
 6152SOL     OW19354   0.626   5.971   4.343
 6152SOL    HW119355   0.573   5.895   4.305
 6152SOL    HW219356   0.708   5.986   4.287
 6153SOL     OW19357   5.478   4.096   1.410
 6153SOL    HW119358   5.457   4.193   1.400
 6153SOL    HW219359   5.409   4.042   1.361
 6154SOL     OW19360   6.168   2.658   2.418
 6154SOL    HW119361   6.127   2.567   2.426
 6154SOL    HW219362   6.129   2.719   2.487
 6155SOL     OW19363   1.899   1.255   3.469
 6155SOL    HW119364   1.820   1.300   3.510
 6155SOL    HW219365   1.964   1.230   3.540
 6156SOL     OW19366   4.916   4.445   2.224
 6156SOL    HW119367   4.941   4.538   2.197
 6156SOL    HW219368   4.999   4.390   2.233
 6157SOL     OW19369   6.607   1.855   3.633
 6157SOL    HW119370   6.671   1.805   3.692
 6157SOL    HW219371   6.553   1.791   3.579
 6158SOL     OW19372   3.847   2.318   6.838
 6158SOL    HW119373   3.907   2.340   6.761
 6158SOL    HW219374   3.753   2.313   6.805
 6159SOL     OW19375   4.247   1.922   1.109
 6159SOL    HW119376   4.287   1.988   1.046
 6159SOL    HW219377   4.320   1.873   1.157
 6160SOL     OW19378   5.677   0.196   6.979
 6160SOL    HW119379   5.635   0.134   0.022
 6160SOL    HW219380   5.632   0.186   6.890
 6161SOL     OW19381   5.590   2.208   6.492
 6161SOL    HW119382   5.628   2.259   6.570
 6161SOL    HW219383   5.501   2.171   6.516
 6162SOL     OW19384   6.163   6.875   3.858
 6162SOL    HW119385   6.074   6.915   3.837
 6162SOL    HW219386   6.192   6.817   3.783
 6163SOL     OW19387   5.610   6.164   1.394
 6163SOL    HW119388   5.584   6.154   1.298
 6163SOL    HW219389   5.687   6.102   1.413
 6164SOL     OW19390   3.539   3.880   3.768
 6164SOL    HW119391   3.528   3.972   3.731
 6164SOL    HW219392   3.521   3.881   3.866
 6165SOL     OW19393   3.889   1.359   6.410
 6165SOL    HW119394   3.824   1.422   6.367
 6165SOL    HW219395   3.923   1.399   6.495
 6166SOL     OW19396   5.629   1.566   6.818
 6166SOL    HW119397   5.554   1.563   6.884
 6166SOL    HW219398   5.643   1.661   6.789
 6167SOL     OW19399   0.785   5.028   3.087
 6167SOL    HW119400   0.689   5.030   3.059
 6167SOL    HW219401   0.840   4.990   3.012
 6168SOL     OW19402   1.893   3.332   3.190
 6168SOL    HW119403   1.855   3.242   3.166
 6168SOL    HW219404   1.963   3.357   3.123
 6169SOL     OW19405   1.458   1.843   0.497
 6169SOL    HW119406   1.378   1.812   0.548
 6169SOL    HW219407   1.501   1.765   0.452
 6170SOL     OW19408   2.698   3.908   5.597
 6170SOL    HW119409   2.697   3.858   5.510
 6170SOL    HW219410   2.643   3.859   5.664
 6171SOL     OW19411   1.720   3.605   0.928
 6171SOL    HW119412   1.724   3.705   0.928
 6171SOL    HW219413   1.767   3.570   1.009
 6172SOL     OW19414   1.436   1.538   3.725
 6172SOL    HW119415   1.437   1.546   3.825
 6172SOL    HW219416   1.473   1.449   3.698
 6173SOL     OW19417   6.337   5.339   2.692
 6173SOL    HW119418   6.259   5.354   2.631
 6173SOL    HW219419   6.379   5.427   2.715
 6174SOL     OW19420   5.765   5.647   3.323
 6174SOL    HW119421   5.697   5.687   3.261
 6174SOL    HW219422   5.811   5.571   3.277
 6175SOL     OW19423   4.713   0.801   3.373
 6175SOL    HW119424   4.684   0.718   3.325
 6175SOL    HW219425   4.646   0.874   3.358
 6176SOL     OW19426   6.084   2.996   6.742
 6176SOL    HW119427   6.167   2.956   6.705
 6176SOL    HW219428   6.082   2.984   6.841
 6177SOL     OW19429   4.823   0.978   1.421
 6177SOL    HW119430   4.745   1.038   1.401
 6177SOL    HW219431   4.854   0.996   1.515
 6178SOL     OW19432   4.930   4.697   3.144
 6178SOL    HW119433   4.925   4.609   3.192
 6178SOL    HW219434   4.875   4.765   3.193
 6179SOL     OW19435   6.460   4.847   4.611
 6179SOL    HW119436   6.408   4.894   4.540
 6179SOL    HW219437   6.404   4.774   4.651
 6180SOL     OW19438   3.799   5.453   0.392
 6180SOL    HW119439   3.778   5.534   0.446
 6180SOL    HW219440   3.722   5.434   0.330
 6181SOL     OW19441   4.320   6.584   0.614
 6181SOL    HW119442   4.400   6.551   0.664
 6181SOL    HW219443   4.238   6.538   0.648
 6182SOL     OW19444   5.759   3.350   6.065
 6182SOL    HW119445   5.691   3.419   6.089
 6182SOL    HW219446   5.816   3.383   5.990
 6183SOL     OW19447   1.930   0.391   3.054
 6183SOL    HW119448   2.004   0.352   3.108
 6183SOL    HW219449   1.961   0.477   3.012
 6184SOL     OW19450   1.660   6.884   6.236
 6184SOL    HW119451   1.682   6.877   6.333
 6184SOL    HW219452   1.575   6.936   6.225
 6185SOL     OW19453   6.810   3.534   6.646
 6185SOL    HW119454   6.906   3.547   6.671
 6185SOL    HW219455   6.771   3.462   6.704
 6186SOL     OW19456   6.276   6.970   5.901
 6186SOL    HW119457   6.340   0.003   5.848
 6186SOL    HW219458   6.183   6.982   5.866
 6187SOL     OW19459   4.376   4.931   3.451
 6187SOL    HW119460   4.398   5.024   3.423
 6187SOL    HW219461   4.427   4.866   3.394
 6188SOL     OW19462   2.401   0.108   0.910
 6188SOL    HW119463   2.419   0.064   0.822
 6188SOL    HW219464   2.312   0.154   0.907
 6189SOL     OW19465   4.821   4.029   4.189
 6189SOL    HW119466   4.773   3.999   4.272
 6189SOL    HW219467   4.911   3.985   4.185
 6190SOL     OW19468   6.950   3.729   5.902
 6190SOL    HW119469   6.983   3.787   5.828
 6190SOL    HW219470   6.899   3.785   5.968
 6191SOL     OW19471   3.928   2.648   6.688
 6191SOL    HW119472   3.970   2.636   6.778
 6191SOL    HW219473   3.998   2.673   6.622
 6192SOL     OW19474   3.349   3.041   6.698
 6192SOL    HW119475   3.252   3.061   6.705
 6192SOL    HW219476   3.383   3.074   6.610
 6193SOL     OW19477   5.536   1.193   2.332
 6193SOL    HW119478   5.617   1.246   2.356
 6193SOL    HW219479   5.563   1.110   2.283
 6194SOL     OW19480   1.601   6.884   0.789
 6194SOL    HW119481   1.656   6.832   0.854
 6194SOL    HW219482   1.504   6.873   0.810
 6195SOL     OW19483   4.179   6.571   5.566
 6195SOL    HW119484   4.278   6.566   5.554
 6195SOL    HW219485   4.145   6.656   5.525
 6196SOL     OW19486   5.984   2.327   1.417
 6196SOL    HW119487   5.997   2.229   1.432
 6196SOL    HW219488   5.912   2.360   1.478
 6197SOL     OW19489   4.761   4.527   0.854
 6197SOL    HW119490   4.752   4.561   0.948
 6197SOL    HW219491   4.732   4.431   0.851
 6198SOL     OW19492   3.530   5.786   2.265
 6198SOL    HW119493   3.495   5.728   2.192
 6198SOL    HW219494   3.532   5.881   2.233
 6199SOL     OW19495   1.226   0.746   0.848
 6199SOL    HW119496   1.249   0.828   0.900
 6199SOL    HW219497   1.161   0.690   0.900
 6200SOL     OW19498   1.674   1.612   5.075
 6200SOL    HW119499   1.678   1.580   5.170
 6200SOL    HW219500   1.578   1.624   5.049
 6201SOL     OW19501   1.201   3.950   4.929
 6201SOL    HW119502   1.181   3.911   4.840
 6201SOL    HW219503   1.180   3.883   5.000
 6202SOL     OW19504   3.931   1.748   2.342
 6202SOL    HW119505   3.949   1.650   2.338
 6202SOL    HW219506   3.916   1.783   2.249
 6203SOL     OW19507   6.438   6.858   3.580
 6203SOL    HW119508   6.487   6.936   3.542
 6203SOL    HW219509   6.499   6.803   3.636
 6204SOL     OW19510   1.454   5.618   4.527
 6204SOL    HW119511   1.374   5.564   4.499
 6204SOL    HW219512   1.443   5.648   4.622
 6205SOL     OW19513   6.364   6.045   0.054
 6205SOL    HW119514   6.315   6.132   0.062
 6205SOL    HW219515   6.318   5.986   7.010
 6206SOL     OW19516   6.993   0.853   2.570
 6206SOL    HW119517   6.924   0.844   2.498
 6206SOL    HW219518   0.007   0.946   2.569
 6207SOL     OW19519   1.520   5.272   4.633
 6207SOL    HW119520   1.470   5.298   4.716
 6207SOL    HW219521   1.525   5.350   4.571
 6208SOL     OW19522   5.687   1.908   6.566
 6208SOL    HW119523   5.733   1.934   6.481
 6208SOL    HW219524   5.687   1.984   6.630
 6209SOL     OW19525   4.631   5.392   0.108
 6209SOL    HW119526   4.675   5.459   0.048
 6209SOL    HW219527   4.699   5.325   0.138
 6210SOL     OW19528   5.264   3.797   3.409
 6210SOL    HW119529   5.341   3.751   3.453
 6210SOL    HW219530   5.299   3.874   3.355
 6211SOL     OW19531   3.191   6.305   5.750
 6211SOL    HW119532   3.234   6.307   5.660
 6211SOL    HW219533   3.099   6.267   5.742
 6212SOL     OW19534   1.993   4.915   3.348
 6212SOL    HW119535   2.066   4.976   3.379
 6212SOL    HW219536   2.005   4.895   3.250
 6213SOL     OW19537   5.917   0.152   6.842
 6213SOL    HW119538   5.826   0.180   6.873
 6213SOL    HW219539   5.976   0.137   6.921
 6214SOL     OW19540   4.397   4.792   4.663
 6214SOL    HW119541   4.344   4.859   4.611
 6214SOL    HW219542   4.360   4.784   4.755
 6215SOL     OW19543   4.568   1.062   1.313
 6215SOL    HW119544   4.504   0.988   1.292
 6215SOL    HW219545   4.547   1.141   1.255
 6216SOL     OW19546   5.936   1.547   1.901
 6216SOL    HW119547   5.871   1.624   1.899
 6216SOL    HW219548   5.937   1.502   1.811
 6217SOL     OW19549   0.598   2.943   2.169
 6217SOL    HW119550   0.641   3.026   2.206
 6217SOL    HW219551   0.499   2.955   2.166
 6218SOL     OW19552   4.127   5.544   5.780
 6218SOL    HW119553   4.184   5.479   5.731
 6218SOL    HW219554   4.085   5.499   5.859
 6219SOL     OW19555   0.590   2.470   4.347
 6219SOL    HW119556   0.577   2.503   4.441
 6219SOL    HW219557   0.605   2.548   4.286
 6220SOL     OW19558   1.514   2.689   5.261
 6220SOL    HW119559   1.474   2.599   5.279
 6220SOL    HW219560   1.461   2.735   5.190
 6221SOL     OW19561   5.800   5.809   0.228
 6221SOL    HW119562   5.813   5.819   0.130
 6221SOL    HW219563   5.888   5.789   0.272
 6222SOL     OW19564   0.720   6.324   1.072
 6222SOL    HW119565   0.707   6.353   0.977
 6222SOL    HW219566   0.774   6.239   1.073
 6223SOL     OW19567   0.336   5.163   4.211
 6223SOL    HW119568   0.411   5.109   4.249
 6223SOL    HW219569   0.259   5.161   4.274
 6224SOL     OW19570   2.226   1.780   6.025
 6224SOL    HW119571   2.184   1.867   5.998
 6224SOL    HW219572   2.173   1.704   5.987
 6225SOL     OW19573   3.608   3.849   0.116
 6225SOL    HW119574   3.581   3.796   0.036
 6225SOL    HW219575   3.705   3.834   0.136
 6226SOL     OW19576   5.963   1.508   5.029
 6226SOL    HW119577   6.018   1.428   5.002
 6226SOL    HW219578   5.897   1.480   5.099
 6227SOL     OW19579   3.856   6.137   5.731
 6227SOL    HW119580   3.825   6.052   5.689
 6227SOL    HW219581   3.860   6.209   5.661
 6228SOL     OW19582   1.154   2.319   3.585
 6228SOL    HW119583   1.210   2.241   3.558
 6228SOL    HW219584   1.202   2.372   3.656
 6229SOL     OW19585   6.952   2.102   2.986
 6229SOL    HW119586   6.983   2.098   3.081
 6229SOL    HW219587   6.854   2.122   2.983
 6230SOL     OW19588   1.241   1.332   3.912
 6230SOL    HW119589   1.159   1.363   3.864
 6230SOL    HW219590   1.293   1.411   3.944
 6231SOL     OW19591   5.982   5.119   1.282
 6231SOL    HW119592   5.953   5.069   1.200
 6231SOL    HW219593   6.065   5.078   1.319
 6232SOL     OW19594   6.949   0.791   0.640
 6232SOL    HW119595   0.015   0.807   0.596
 6232SOL    HW219596   6.924   0.871   0.694
 6233SOL     OW19597   6.455   0.690   0.522
 6233SOL    HW119598   6.416   0.768   0.571
 6233SOL    HW219599   6.505   0.722   0.442
 6234SOL     OW19600   5.956   1.411   5.593
 6234SOL    HW119601   5.887   1.480   5.570
 6234SOL    HW219602   5.980   1.419   5.690
 6235SOL     OW19603   1.274   0.004   1.570
 6235SOL    HW119604   1.355   6.970   1.560
 6235SOL    HW219605   1.193   6.969   1.582
 6236SOL     OW19606   0.747   3.978   0.639
 6236SOL    HW119607   0.726   3.889   0.679
 6236SOL    HW219608   0.839   3.977   0.601
 6237SOL     OW19609   3.483   6.757   0.058
 6237SOL    HW119610   3.581   6.770   0.049
 6237SOL    HW219611   3.458   6.667   0.021
 6238SOL     OW19612   4.394   4.871   2.631
 6238SOL    HW119613   4.361   4.780   2.605
 6238SOL    HW219614   4.444   4.865   2.717
 6239SOL     OW19615   2.695   0.055   2.378
 6239SOL    HW119616   2.624   0.120   2.353
 6239SOL    HW219617   2.785   0.096   2.362
 6240SOL     OW19618   2.338   3.568   6.135
 6240SOL    HW119619   2.251   3.526   6.108
 6240SOL    HW219620   2.392   3.502   6.188
 6241SOL     OW19621   4.024   0.105   1.836
 6241SOL    HW119622   3.928   0.115   1.810
 6241SOL    HW219623   4.039   0.148   1.925
 6242SOL     OW19624   5.400   1.299   3.375
 6242SOL    HW119625   5.304   1.324   3.384
 6242SOL    HW219626   5.410   1.226   3.307
 6243SOL     OW19627   6.074   6.893   4.131
 6243SOL    HW119628   6.131   6.845   4.065
 6243SOL    HW219629   6.126   6.909   4.215
 6244SOL     OW19630   0.654   2.615   2.537
 6244SOL    HW119631   0.739   2.662   2.512
 6244SOL    HW219632   0.671   2.554   2.614
 6245SOL     OW19633   1.637   3.779   0.175
 6245SOL    HW119634   1.637   3.679   0.180
 6245SOL    HW219635   1.543   3.811   0.160
 6246SOL     OW19636   2.037   2.010   5.533
 6246SOL    HW119637   2.032   2.060   5.447
 6246SOL    HW219638   2.051   1.913   5.514
 6247SOL     OW19639   1.212   6.321   4.645
 6247SOL    HW119640   1.126   6.269   4.649
 6247SOL    HW219641   1.247   6.320   4.551
 6248SOL     OW19642   3.396   3.087   0.084
 6248SOL    HW119643   3.419   3.182   0.064
 6248SOL    HW219644   3.480   3.033   0.088
 6249SOL     OW19645   0.412   3.829   0.765
 6249SOL    HW119646   0.329   3.862   0.810
 6249SOL    HW219647   0.435   3.738   0.799
 6250SOL     OW19648   6.717   6.313   6.900
 6250SOL    HW119649   6.778   6.308   6.979
 6250SOL    HW219650   6.763   6.273   6.820
 6251SOL     OW19651   4.198   5.215   0.096
 6251SOL    HW119652   4.110   5.255   0.123
 6251SOL    HW219653   4.255   5.284   0.052
 6252SOL     OW19654   1.358   6.756   5.489
 6252SOL    HW119655   1.372   6.671   5.437
 6252SOL    HW219656   1.316   6.735   5.577
 6253SOL     OW19657   2.053   3.921   2.829
 6253SOL    HW119658   2.029   3.824   2.830
 6253SOL    HW219659   2.082   3.949   2.921
 6254SOL     OW19660   5.338   1.744   0.845
 6254SOL    HW119661   5.420   1.748   0.903
 6254SOL    HW219662   5.258   1.765   0.900
 6255SOL     OW19663   3.110   0.416   0.701
 6255SOL    HW119664   3.142   0.371   0.617
 6255SOL    HW219665   3.010   0.412   0.705
 6256SOL     OW19666   3.491   5.207   2.217
 6256SOL    HW119667   3.499   5.198   2.117
 6256SOL    HW219668   3.394   5.205   2.243
 6257SOL     OW19669   5.033   2.471   0.012
 6257SOL    HW119670   4.973   2.458   0.091
 6257SOL    HW219671   5.120   2.511   0.043
 6258SOL     OW19672   3.972   6.764   3.773
 6258SOL    HW119673   3.900   6.731   3.712
 6258SOL    HW219674   4.054   6.708   3.761
 6259SOL     OW19675   2.325   2.509   0.673
 6259SOL    HW119676   2.309   2.520   0.575
 6259SOL    HW219677   2.365   2.592   0.710
 6260SOL     OW19678   3.038   5.539   0.732
 6260SOL    HW119679   2.998   5.616   0.682
 6260SOL    HW219680   3.087   5.480   0.668
 6261SOL     OW19681   4.089   0.805   6.695
 6261SOL    HW119682   4.010   0.751   6.664
 6261SOL    HW219683   4.074   0.901   6.673
 6262SOL     OW19684   1.963   5.929   0.462
 6262SOL    HW119685   2.055   5.904   0.432
 6262SOL    HW219686   1.896   5.866   0.423
 6263SOL     OW19687   6.744   0.474   4.994
 6263SOL    HW119688   6.721   0.569   4.977
 6263SOL    HW219689   6.842   0.466   5.014
 6264SOL     OW19690   1.530   6.574   2.225
 6264SOL    HW119691   1.449   6.516   2.230
 6264SOL    HW219692   1.526   6.644   2.297
 6265SOL     OW19693   3.378   3.885   0.312
 6265SOL    HW119694   3.314   3.956   0.281
 6265SOL    HW219695   3.446   3.869   0.240
 6266SOL     OW19696   3.994   0.832   4.645
 6266SOL    HW119697   4.008   0.844   4.743
 6266SOL    HW219698   3.908   0.783   4.629
 6267SOL     OW19699   2.477   0.512   6.829
 6267SOL    HW119700   2.480   0.431   6.887
 6267SOL    HW219701   2.529   0.586   6.872
 6268SOL     OW19702   3.270   6.839   3.731
 6268SOL    HW119703   3.230   6.882   3.650
 6268SOL    HW219704   3.206   6.846   3.808
 6269SOL     OW19705   0.154   6.370   1.602
 6269SOL    HW119706   0.083   6.354   1.671
 6269SOL    HW219707   0.132   6.318   1.519
 6270SOL     OW19708   1.859   0.437   5.255
 6270SOL    HW119709   1.841   0.535   5.246
 6270SOL    HW219710   1.926   0.422   5.328
 6271SOL     OW19711   6.379   1.991   6.760
 6271SOL    HW119712   6.444   1.980   6.835
 6271SOL    HW219713   6.412   1.942   6.679
 6272SOL     OW19714   0.216   2.213   6.892
 6272SOL    HW119715   0.301   2.168   6.864
 6272SOL    HW219716   0.232   2.311   6.900
 6273SOL     OW19717   1.648   6.465   2.460
 6273SOL    HW119718   1.722   6.527   2.435
 6273SOL    HW219719   1.608   6.424   2.378
 6274SOL     OW19720   2.787   5.489   6.099
 6274SOL    HW119721   2.808   5.520   6.192
 6274SOL    HW219722   2.861   5.431   6.067
 6275SOL     OW19723   2.020   6.706   5.389
 6275SOL    HW119724   2.003   6.622   5.337
 6275SOL    HW219725   2.044   6.682   5.483
 6276SOL     OW19726   2.378   4.446   2.976
 6276SOL    HW119727   2.402   4.472   2.882
 6276SOL    HW219728   2.338   4.355   2.976
 6277SOL     OW19729   5.586   3.273   1.918
 6277SOL    HW119730   5.523   3.208   1.875
 6277SOL    HW219731   5.621   3.234   2.004
 6278SOL     OW19732   5.277   6.361   4.548
 6278SOL    HW119733   5.318   6.290   4.606
 6278SOL    HW219734   5.178   6.355   4.555
 6279SOL     OW19735   4.201   0.306   6.970
 6279SOL    HW119736   4.257   0.229   6.940
 6279SOL    HW219737   4.196   0.306   0.047
 6280SOL     OW19738   1.183   2.011   5.494
 6280SOL    HW119739   1.164   1.981   5.588
 6280SOL    HW219740   1.119   1.967   5.431
 6281SOL     OW19741   1.082   5.222   3.543
 6281SOL    HW119742   1.120   5.162   3.614
 6281SOL    HW219743   1.050   5.166   3.467
 6282SOL     OW19744   1.370   6.561   4.966
 6282SOL    HW119745   1.327   6.485   5.014
 6282SOL    HW219746   1.354   6.646   5.017
 6283SOL     OW19747   6.785   3.084   5.515
 6283SOL    HW119748   6.771   2.985   5.510
 6283SOL    HW219749   6.883   3.105   5.515
 6284SOL     OW19750   1.692   5.484   4.758
 6284SOL    HW119751   1.676   5.415   4.688
 6284SOL    HW219752   1.685   5.442   4.848
 6285SOL     OW19753   7.020   3.629   4.663
 6285SOL    HW119754   0.035   3.661   4.750
 6285SOL    HW219755   7.023   3.529   4.659
 6286SOL     OW19756   5.924   1.665   3.513
 6286SOL    HW119757   5.874   1.751   3.508
 6286SOL    HW219758   6.012   1.680   3.559
 6287SOL     OW19759   3.490   4.912   3.761
 6287SOL    HW119760   3.571   4.855   3.771
 6287SOL    HW219761   3.471   4.926   3.663
 6288SOL     OW19762   4.928   4.472   2.593
 6288SOL    HW119763   4.881   4.409   2.531
 6288SOL    HW219764   4.870   4.489   2.673
 6289SOL     OW19765   1.885   4.558   1.462
 6289SOL    HW119766   1.907   4.490   1.391
 6289SOL    HW219767   1.963   4.568   1.523
 6290SOL     OW19768   6.806   4.683   4.974
 6290SOL    HW119769   6.817   4.613   5.044
 6290SOL    HW219770   6.894   4.728   4.957
 6291SOL     OW19771   3.746   3.363   4.795
 6291SOL    HW119772   3.813   3.291   4.812
 6291SOL    HW219773   3.695   3.383   4.878
 6292SOL     OW19774   1.535   2.705   4.382
 6292SOL    HW119775   1.635   2.710   4.389
 6292SOL    HW219776   1.496   2.703   4.474
 6293SOL     OW19777   3.483   1.172   0.310
 6293SOL    HW119778   3.520   1.127   0.229
 6293SOL    HW219779   3.415   1.240   0.283
 6294SOL     OW19780   3.841   4.978   4.788
 6294SOL    HW119781   3.808   4.977   4.693
 6294SOL    HW219782   3.764   4.972   4.851
 6295SOL     OW19783   5.598   4.867   6.058
 6295SOL    HW119784   5.591   4.776   6.098
 6295SOL    HW219785   5.688   4.906   6.080
 6296SOL     OW19786   0.488   0.126   6.056
 6296SOL    HW119787   0.412   0.191   6.051
 6296SOL    HW219788   0.456   0.040   6.095
 6297SOL     OW19789   4.727   6.539   4.238
 6297SOL    HW119790   4.706   6.499   4.149
 6297SOL    HW219791   4.641   6.558   4.286
 6298SOL     OW19792   1.183   2.797   6.406
 6298SOL    HW119793   1.116   2.834   6.471
 6298SOL    HW219794   1.213   2.870   6.344
 6299SOL     OW19795   5.459   1.828   6.862
 6299SOL    HW119796   5.517   1.898   6.819
 6299SOL    HW219797   5.476   1.828   6.961
 6300SOL     OW19798   6.293   0.467   0.489
 6300SOL    HW119799   6.206   0.460   0.440
 6300SOL    HW219800   6.316   0.564   0.502
 6301SOL     OW19801   3.981   0.581   0.250
 6301SOL    HW119802   3.888   0.603   0.279
 6301SOL    HW219803   4.021   0.514   0.313
 6302SOL     OW19804   2.082   0.685   3.352
 6302SOL    HW119805   2.075   0.784   3.347
 6302SOL    HW219806   2.162   0.655   3.300
 6303SOL     OW19807   1.512   1.589   4.262
 6303SOL    HW119808   1.592   1.613   4.316
 6303SOL    HW219809   1.431   1.630   4.302
 6304SOL     OW19810   2.466   0.940   1.568
 6304SOL    HW119811   2.429   0.960   1.659
 6304SOL    HW219812   2.558   0.902   1.577
 6305SOL     OW19813   6.310   6.769   1.714
 6305SOL    HW119814   6.290   6.837   1.644
 6305SOL    HW219815   6.391   6.717   1.688
 6306SOL     OW19816   0.541   4.461   4.228
 6306SOL    HW119817   0.466   4.421   4.177
 6306SOL    HW219818   0.626   4.452   4.177
 6307SOL     OW19819   4.173   4.093   5.354
 6307SOL    HW119820   4.111   4.160   5.314
 6307SOL    HW219821   4.153   4.084   5.452
 6308SOL     OW19822   1.809   2.749   4.410
 6308SOL    HW119823   1.893   2.785   4.370
 6308SOL    HW219824   1.809   2.650   4.404
 6309SOL     OW19825   5.022   4.801   5.680
 6309SOL    HW119826   5.075   4.854   5.746
 6309SOL    HW219827   5.071   4.799   5.593
 6310SOL     OW19828   1.716   6.064   2.980
 6310SOL    HW119829   1.653   5.989   2.959
 6310SOL    HW219830   1.780   6.035   3.051
 6311SOL     OW19831   4.568   0.859   5.767
 6311SOL    HW119832   4.537   0.914   5.690
 6311SOL    HW219833   4.525   0.769   5.764
 6312SOL     OW19834   6.415   5.600   5.750
 6312SOL    HW119835   6.380   5.589   5.843
 6312SOL    HW219836   6.368   5.537   5.689
 6313SOL     OW19837   1.314   6.640   4.464
 6313SOL    HW119838   1.288   6.607   4.555
 6313SOL    HW219839   1.414   6.637   4.455
 6314SOL     OW19840   3.537   6.407   1.220
 6314SOL    HW119841   3.532   6.317   1.175
 6314SOL    HW219842   3.498   6.476   1.160
 6315SOL     OW19843   1.896   2.843   5.462
 6315SOL    HW119844   1.932   2.785   5.535
 6315SOL    HW219845   1.862   2.786   5.387
 6316SOL     OW19846   4.354   1.256   6.640
 6316SOL    HW119847   4.378   1.303   6.555
 6316SOL    HW219848   4.364   1.318   6.717
 6317SOL     OW19849   4.634   5.758   2.610
 6317SOL    HW119850   4.707   5.697   2.578
 6317SOL    HW219851   4.551   5.740   2.557
 6318SOL     OW19852   3.968   1.419   4.967
 6318SOL    HW119853   3.935   1.402   4.874
 6318SOL    HW219854   4.066   1.401   4.972
 6319SOL     OW19855   6.542   1.559   4.351
 6319SOL    HW119856   6.600   1.523   4.278
 6319SOL    HW219857   6.528   1.488   4.420
 6320SOL     OW19858   5.509   5.726   5.409
 6320SOL    HW119859   5.464   5.813   5.391
 6320SOL    HW219860   5.462   5.653   5.360
 6321SOL     OW19861   3.293   3.501   0.699
 6321SOL    HW119862   3.262   3.499   0.794
 6321SOL    HW219863   3.235   3.563   0.646
 6322SOL     OW19864   1.645   2.269   0.055
 6322SOL    HW119865   1.613   2.207   0.126
 6322SOL    HW219866   1.731   2.235   0.017
 6323SOL     OW19867   3.347   2.700   1.716
 6323SOL    HW119868   3.350   2.740   1.624
 6323SOL    HW219869   3.385   2.608   1.713
 6324SOL     OW19870   5.276   6.897   6.633
 6324SOL    HW119871   5.328   6.907   6.547
 6324SOL    HW219872   5.276   6.984   6.682
 6325SOL     OW19873   2.289   1.931   2.423
 6325SOL    HW119874   2.384   1.917   2.394
 6325SOL    HW219875   2.242   1.991   2.358
 6326SOL     OW19876   4.776   4.653   1.778
 6326SOL    HW119877   4.758   4.643   1.876
 6326SOL    HW219878   4.739   4.574   1.729
 6327SOL     OW19879   6.893   0.257   4.749
 6327SOL    HW119880   6.929   0.338   4.796
 6327SOL    HW219881   6.916   0.175   4.801
 6328SOL     OW19882   3.029   2.889   0.599
 6328SOL    HW119883   3.050   2.889   0.501
 6328SOL    HW219884   2.930   2.891   0.612
 6329SOL     OW19885   2.050   2.732   3.831
 6329SOL    HW119886   2.110   2.807   3.858
 6329SOL    HW219887   2.011   2.690   3.913
 6330SOL     OW19888   4.551   0.839   1.076
 6330SOL    HW119889   4.480   0.870   1.139
 6330SOL    HW219890   4.565   0.741   1.086
 6331SOL     OW19891   6.482   2.598   6.132
 6331SOL    HW119892   6.469   2.697   6.132
 6331SOL    HW219893   6.568   2.575   6.088
 6332SOL     OW19894   6.311   3.287   1.531
 6332SOL    HW119895   6.395   3.277   1.585
 6332SOL    HW219896   6.334   3.311   1.437
 6333SOL     OW19897   4.836   5.635   5.316
 6333SOL    HW119898   4.777   5.555   5.306
 6333SOL    HW219899   4.780   5.718   5.321
 6334SOL     OW19900   3.145   0.500   1.613
 6334SOL    HW119901   3.073   0.442   1.651
 6334SOL    HW219902   3.108   0.556   1.539
 6335SOL     OW19903   4.448   1.122   0.538
 6335SOL    HW119904   4.434   1.084   0.447
 6335SOL    HW219905   4.488   1.052   0.598
 6336SOL     OW19906   0.649   2.251   5.849
 6336SOL    HW119907   0.670   2.298   5.935
 6336SOL    HW219908   0.605   2.315   5.786
 6337SOL     OW19909   5.106   4.120   6.163
 6337SOL    HW119910   5.137   4.185   6.093
 6337SOL    HW219911   5.178   4.109   6.231
 6338SOL     OW19912   3.708   1.920   4.409
 6338SOL    HW119913   3.771   1.857   4.362
 6338SOL    HW219914   3.761   1.993   4.451
 6339SOL     OW19915   1.640   3.999   2.758
 6339SOL    HW119916   1.663   3.953   2.844
 6339SOL    HW219917   1.576   4.073   2.776
 6340SOL     OW19918   1.634   5.076   2.703
 6340SOL    HW119919   1.626   5.125   2.616
 6340SOL    HW219920   1.671   5.138   2.773
 6341SOL     OW19921   1.043   4.167   4.634
 6341SOL    HW119922   1.107   4.195   4.705
 6341SOL    HW219923   1.021   4.070   4.645
 6342SOL     OW19924   2.124   1.404   1.769
 6342SOL    HW119925   2.154   1.496   1.793
 6342SOL    HW219926   2.201   1.352   1.730
 6343SOL     OW19927   4.550   1.883   6.324
 6343SOL    HW119928   4.508   1.864   6.412
 6343SOL    HW219929   4.600   1.802   6.292
 6344SOL     OW19930   5.640   3.158   5.428
 6344SOL    HW119931   5.645   3.150   5.328
 6344SOL    HW219932   5.585   3.083   5.465
 6345SOL     OW19933   5.492   2.922   2.474
 6345SOL    HW119934   5.540   2.898   2.559
 6345SOL    HW219935   5.409   2.867   2.466
 6346SOL     OW19936   6.764   4.613   3.603
 6346SOL    HW119937   6.745   4.612   3.504
 6346SOL    HW219938   6.862   4.598   3.618
 6347SOL     OW19939   2.335   0.538   0.673
 6347SOL    HW119940   2.391   0.488   0.739
 6347SOL    HW219941   2.247   0.492   0.662
 6348SOL     OW19942   0.758   4.117   5.552
 6348SOL    HW119943   0.822   4.160   5.489
 6348SOL    HW219944   0.745   4.176   5.632
 6349SOL     OW19945   2.476   0.236   1.685
 6349SOL    HW119946   2.470   0.335   1.676
 6349SOL    HW219947   2.570   0.206   1.670
 6350SOL     OW19948   2.121   5.133   3.905
 6350SOL    HW119949   2.074   5.141   3.993
 6350SOL    HW219950   2.218   5.153   3.917
 6351SOL     OW19951   6.484   3.485   3.464
 6351SOL    HW119952   6.487   3.404   3.523
 6351SOL    HW219953   6.469   3.567   3.520
 6352SOL     OW19954   3.781   5.756   4.783
 6352SOL    HW119955   3.706   5.699   4.816
 6352SOL    HW219956   3.751   5.851   4.779
 6353SOL     OW19957   0.342   0.352   6.077
 6353SOL    HW119958   0.387   0.391   6.157
 6353SOL    HW219959   0.327   0.424   6.009
 6354SOL     OW19960   1.855   5.912   3.181
 6354SOL    HW119961   1.952   5.929   3.199
 6354SOL    HW219962   1.843   5.815   3.159
 6355SOL     OW19963   0.721   4.959   6.236
 6355SOL    HW119964   0.753   4.960   6.331
 6355SOL    HW219965   0.635   5.011   6.230
 6356SOL     OW19966   4.058   5.519   1.848
 6356SOL    HW119967   4.013   5.431   1.864
 6356SOL    HW219968   3.999   5.594   1.879
 6357SOL     OW19969   5.499   3.378   2.367
 6357SOL    HW119970   5.566   3.333   2.309
 6357SOL    HW219971   5.437   3.310   2.406
 6358SOL     OW19972   0.513   1.886   6.133
 6358SOL    HW119973   0.538   1.803   6.083
 6358SOL    HW219974   0.594   1.923   6.179
 6359SOL     OW19975   5.799   6.700   6.300
 6359SOL    HW119976   5.768   6.752   6.380
 6359SOL    HW219977   5.886   6.738   6.268
 6360SOL     OW19978   1.255   4.026   3.712
 6360SOL    HW119979   1.176   3.993   3.660
 6360SOL    HW219980   1.314   3.949   3.735
 6361SOL     OW19981   6.363   6.918   0.789
 6361SOL    HW119982   6.376   6.870   0.701
 6361SOL    HW219983   6.285   6.980   0.782
 6362SOL     OW19984   0.400   6.473   0.408
 6362SOL    HW119985   0.301   6.485   0.410
 6362SOL    HW219986   0.444   6.562   0.418
 6363SOL     OW19987   2.523   4.680   3.471
 6363SOL    HW119988   2.580   4.658   3.551
 6363SOL    HW219989   2.524   4.603   3.408
 6364SOL     OW19990   3.186   1.115   6.007
 6364SOL    HW119991   3.262   1.179   6.005
 6364SOL    HW219992   3.196   1.053   6.085
 6365SOL     OW19993   5.394   0.056   3.841
 6365SOL    HW119994   5.477   0.069   3.785
 6365SOL    HW219995   5.314   0.085   3.788
 6366SOL     OW19996   0.863   6.228   5.800
 6366SOL    HW119997   0.903   6.150   5.848
 6366SOL    HW219998   0.769   6.241   5.832
 6367SOL     OW19999   4.056   0.821   4.907
 6367SOL    HW120000   4.151   0.853   4.905
 6367SOL    HW220001   4.049   0.740   4.965
 6368SOL     OW20002   3.744   4.943   3.476
 6368SOL    HW120003   3.840   4.916   3.472
 6368SOL    HW220004   3.701   4.929   3.387
 6369SOL     OW20005   1.963   5.337   3.765
 6369SOL    HW120006   1.959   5.379   3.855
 6369SOL    HW220007   1.995   5.242   3.774
 6370SOL     OW20008   0.575   3.351   3.177
 6370SOL    HW120009   0.528   3.439   3.183
 6370SOL    HW220010   0.607   3.337   3.084
 6371SOL     OW20011   5.236   4.173   4.223
 6371SOL    HW120012   5.317   4.231   4.233
 6371SOL    HW220013   5.193   4.161   4.312
 6372SOL     OW20014   2.195   0.120   2.306
 6372SOL    HW120015   2.098   0.121   2.329
 6372SOL    HW220016   2.239   0.040   2.348
 6373SOL     OW20017   5.084   4.229   3.105
 6373SOL    HW120018   5.012   4.266   3.046
 6373SOL    HW220019   5.046   4.158   3.164
 6374SOL     OW20020   3.099   3.981   3.969
 6374SOL    HW120021   3.064   4.043   4.040
 6374SOL    HW220022   3.188   4.014   3.937
 6375SOL     OW20023   6.455   1.817   3.968
 6375SOL    HW120024   6.546   1.790   3.938
 6375SOL    HW220025   6.402   1.848   3.889
 6376SOL     OW20026   6.121   2.531   4.875
 6376SOL    HW120027   6.037   2.547   4.926
 6376SOL    HW220028   6.121   2.438   4.839
 6377SOL     OW20029   6.185   1.707   5.612
 6377SOL    HW120030   6.216   1.620   5.575
 6377SOL    HW220031   6.138   1.759   5.540
 6378SOL     OW20032   4.797   5.296   4.140
 6378SOL    HW120033   4.830   5.209   4.178
 6378SOL    HW220034   4.764   5.280   4.047
 6379SOL     OW20035   1.681   3.851   3.939
 6379SOL    HW120036   1.670   3.762   3.982
 6379SOL    HW220037   1.766   3.894   3.970
 6380SOL     OW20038   0.320   1.774   5.679
 6380SOL    HW120039   0.290   1.720   5.757
 6380SOL    HW220040   0.373   1.717   5.616
 6381SOL     OW20041   3.473   3.433   1.550
 6381SOL    HW120042   3.486   3.421   1.452
 6381SOL    HW220043   3.496   3.347   1.597
 6382SOL     OW20044   1.151   1.273   1.011
 6382SOL    HW120045   1.153   1.201   0.942
 6382SOL    HW220046   1.153   1.232   1.102
 6383SOL     OW20047   1.375   1.695   2.991
 6383SOL    HW120048   1.464   1.651   2.995
 6383SOL    HW220049   1.318   1.649   2.923
 6384SOL     OW20050   5.809   3.653   1.737
 6384SOL    HW120051   5.775   3.588   1.668
 6384SOL    HW220052   5.745   3.658   1.813
 6385SOL     OW20053   0.003   4.654   3.574
 6385SOL    HW120054   7.005   4.749   3.551
 6385SOL    HW220055   0.100   4.637   3.560
 6386SOL     OW20056   2.236   4.243   5.928
 6386SOL    HW120057   2.258   4.150   5.896
 6386SOL    HW220058   2.277   4.310   5.866
 6387SOL     OW20059   0.783   1.341   6.556
 6387SOL    HW120060   0.882   1.327   6.545
 6387SOL    HW220061   0.758   1.431   6.522
 6388SOL     OW20062   4.160   4.617   1.109
 6388SOL    HW120063   4.114   4.648   1.192
 6388SOL    HW220064   4.145   4.683   1.036
 6389SOL     OW20065   0.694   6.087   2.643
 6389SOL    HW120066   0.640   6.031   2.581
 6389SOL    HW220067   0.758   6.143   2.590
 6390SOL     OW20068   0.273   1.790   5.325
 6390SOL    HW120069   0.306   1.845   5.248
 6390SOL    HW220070   0.350   1.765   5.384
 6391SOL     OW20071   2.309   0.186   5.874
 6391SOL    HW120072   2.281   0.111   5.934
 6391SOL    HW220073   2.322   0.152   5.781
 6392SOL     OW20074   2.458   6.562   3.152
 6392SOL    HW120075   2.558   6.557   3.149
 6392SOL    HW220076   2.429   6.598   3.240
 6393SOL     OW20077   6.860   6.926   1.946
 6393SOL    HW120078   6.842   7.021   1.970
 6393SOL    HW220079   6.829   6.909   1.852
 6394SOL     OW20080   2.274   4.695   0.938
 6394SOL    HW120081   2.183   4.707   0.977
 6394SOL    HW220082   2.295   4.597   0.934
 6395SOL     OW20083   6.786   2.393   1.122
 6395SOL    HW120084   6.743   2.359   1.038
 6395SOL    HW220085   6.761   2.334   1.199
 6396SOL     OW20086   5.023   3.362   6.000
 6396SOL    HW120087   5.045   3.282   6.056
 6396SOL    HW220088   4.930   3.354   5.965
 6397SOL     OW20089   5.532   2.557   6.403
 6397SOL    HW120090   5.555   2.655   6.401
 6397SOL    HW220091   5.614   2.504   6.426
 6398SOL     OW20092   3.233   0.314   0.482
 6398SOL    HW120093   3.231   0.215   0.471
 6398SOL    HW220094   3.170   0.356   0.418
 6399SOL     OW20095   0.850   5.874   6.344
 6399SOL    HW120096   0.857   5.974   6.347
 6399SOL    HW220097   0.880   5.841   6.255
 6400SOL     OW20098   2.227   6.199   1.995
 6400SOL    HW120099   2.207   6.137   1.919
 6400SOL    HW220100   2.186   6.288   1.977
 6401SOL     OW20101   6.969   5.018   3.842
 6401SOL    HW120102   0.023   5.074   3.873
 6401SOL    HW220103   6.992   4.921   3.850
 6402SOL     OW20104   4.267   1.532   2.507
 6402SOL    HW120105   4.283   1.557   2.602
 6402SOL    HW220106   4.207   1.452   2.503
 6403SOL     OW20107   6.822   6.794   6.346
 6403SOL    HW120108   6.851   6.740   6.267
 6403SOL    HW220109   6.865   6.884   6.343
 6404SOL     OW20110   4.433   1.729   2.168
 6404SOL    HW120111   4.457   1.826   2.163
 6404SOL    HW220112   4.417   1.694   2.075
 6405SOL     OW20113   2.949   0.536   3.561
 6405SOL    HW120114   3.019   0.464   3.567
 6405SOL    HW220115   2.993   0.626   3.570
 6406SOL     OW20116   1.251   2.343   2.975
 6406SOL    HW120117   1.262   2.439   3.002
 6406SOL    HW220118   1.169   2.305   3.018
 6407SOL     OW20119   2.772   5.935   4.018
 6407SOL    HW120120   2.843   5.998   3.988
 6407SOL    HW220121   2.703   5.925   3.945
 6408SOL     OW20122   5.600   2.331   0.995
 6408SOL    HW120123   5.521   2.384   0.965
 6408SOL    HW220124   5.579   2.286   1.082
 6409SOL     OW20125   6.700   4.632   3.342
 6409SOL    HW120126   6.738   4.595   3.258
 6409SOL    HW220127   6.642   4.711   3.321
 6410SOL     OW20128   1.606   1.537   0.625
 6410SOL    HW120129   1.558   1.547   0.712
 6410SOL    HW220130   1.700   1.572   0.634
 6411SOL     OW20131   0.740   2.555   3.304
 6411SOL    HW120132   0.771   2.558   3.399
 6411SOL    HW220133   0.760   2.641   3.259
 6412SOL     OW20134   0.438   2.189   5.143
 6412SOL    HW120135   0.463   2.115   5.205
 6412SOL    HW220136   0.440   2.155   5.049
 6413SOL     OW20137   4.412   4.620   3.675
 6413SOL    HW120138   4.466   4.683   3.731
 6413SOL    HW220139   4.471   4.579   3.606
 6414SOL     OW20140   6.108   0.846   0.415
 6414SOL    HW120141   6.094   0.760   0.365
 6414SOL    HW220142   6.022   0.897   0.418
 6415SOL     OW20143   1.805   3.074   3.138
 6415SOL    HW120144   1.719   3.111   3.103
 6415SOL    HW220145   1.790   2.982   3.174
 6416SOL     OW20146   1.412   1.502   6.338
 6416SOL    HW120147   1.469   1.464   6.265
 6416SOL    HW220148   1.335   1.441   6.354
 6417SOL     OW20149   6.458   5.059   2.138
 6417SOL    HW120150   6.447   4.975   2.084
 6417SOL    HW220151   6.433   5.041   2.233
 6418SOL     OW20152   4.924   4.341   1.731
 6418SOL    HW120153   4.881   4.405   1.667
 6418SOL    HW220154   4.853   4.291   1.780
 6419SOL     OW20155   2.333   4.858   3.076
 6419SOL    HW120156   2.397   4.784   3.099
 6419SOL    HW220157   2.367   4.943   3.116
 6420SOL     OW20158   3.539   4.698   5.581
 6420SOL    HW120159   3.443   4.724   5.582
 6420SOL    HW220160   3.552   4.617   5.638
 6421SOL     OW20161   5.327   0.892   2.983
 6421SOL    HW120162   5.363   0.910   2.891
 6421SOL    HW220163   5.343   0.796   3.006
 6422SOL     OW20164   0.478   1.044   3.863
 6422SOL    HW120165   0.572   1.026   3.835
 6422SOL    HW220166   0.428   1.086   3.787
 6423SOL     OW20167   4.671   5.099   2.420
 6423SOL    HW120168   4.700   5.186   2.458
 6423SOL    HW220169   4.643   5.111   2.325
 6424SOL     OW20170   6.876   6.385   6.109
 6424SOL    HW120171   6.901   6.298   6.153
 6424SOL    HW220172   6.925   6.394   6.023
 6425SOL     OW20173   6.349   5.812   2.914
 6425SOL    HW120174   6.278   5.835   2.848
 6425SOL    HW220175   6.316   5.829   3.006
 6426SOL     OW20176   1.104   4.934   2.963
 6426SOL    HW120177   1.149   4.867   2.904
 6426SOL    HW220178   1.147   4.932   3.054
 6427SOL     OW20179   3.146   2.997   5.626
 6427SOL    HW120180   3.217   3.053   5.583
 6427SOL    HW220181   3.066   3.054   5.645
 6428SOL     OW20182   6.137   3.266   6.634
 6428SOL    HW120183   6.110   3.178   6.672
 6428SOL    HW220184   6.216   3.254   6.575
 6429SOL     OW20185   1.905   2.105   5.793
 6429SOL    HW120186   1.850   2.037   5.841
 6429SOL    HW220187   1.911   2.080   5.696
 6430SOL     OW20188   5.806   1.100   2.247
 6430SOL    HW120189   5.735   1.031   2.236
 6430SOL    HW220190   5.812   1.156   2.164
 6431SOL     OW20191   5.135   6.521   4.204
 6431SOL    HW120192   5.115   6.543   4.299
 6431SOL    HW220193   5.135   6.422   4.192
 6432SOL     OW20194   3.681   4.253   6.376
 6432SOL    HW120195   3.631   4.332   6.412
 6432SOL    HW220196   3.625   4.207   6.306
 6433SOL     OW20197   2.558   4.229   0.143
 6433SOL    HW120198   2.514   4.317   0.126
 6433SOL    HW220199   2.517   4.159   0.085
 6434SOL     OW20200   1.872   3.840   0.013
 6434SOL    HW120201   1.923   3.914   0.057
 6434SOL    HW220202   1.809   3.799   0.078
 6435SOL     OW20203   4.312   6.217   0.113
 6435SOL    HW120204   4.399   6.199   0.066
 6435SOL    HW220205   4.240   6.232   0.046
 6436SOL     OW20206   1.991   3.409   3.446
 6436SOL    HW120207   2.061   3.342   3.468
 6436SOL    HW220208   1.934   3.374   3.371
 6437SOL     OW20209   2.222   1.336   0.720
 6437SOL    HW120210   2.295   1.271   0.696
 6437SOL    HW220211   2.134   1.298   0.692
 6438SOL     OW20212   0.070   3.829   6.423
 6438SOL    HW120213   7.021   3.807   6.488
 6438SOL    HW220214   0.150   3.862   6.473
 6439SOL     OW20215   5.246   0.931   1.727
 6439SOL    HW120216   5.236   0.833   1.744
 6439SOL    HW220217   5.271   0.977   1.811
 6440SOL     OW20218   2.392   1.726   6.752
 6440SOL    HW120219   2.342   1.640   6.747
 6440SOL    HW220220   2.479   1.717   6.704
 6441SOL     OW20221   0.938   6.381   2.019
 6441SOL    HW120222   0.872   6.353   1.950
 6441SOL    HW220223   1.016   6.426   1.975
 6442SOL     OW20224   2.346   0.499   4.397
 6442SOL    HW120225   2.354   0.482   4.299
 6442SOL    HW220226   2.381   0.421   4.448
 6443SOL     OW20227   3.796   2.400   5.739
 6443SOL    HW120228   3.814   2.492   5.705
 6443SOL    HW220229   3.721   2.359   5.687
 6444SOL     OW20230   6.561   2.539   3.871
 6444SOL    HW120231   6.640   2.552   3.932
 6444SOL    HW220232   6.508   2.460   3.901
 6445SOL     OW20233   4.472   3.304   5.569
 6445SOL    HW120234   4.536   3.348   5.506
 6445SOL    HW220235   4.452   3.212   5.536
 6446SOL     OW20236   2.130   1.093   5.882
 6446SOL    HW120237   2.129   1.019   5.949
 6446SOL    HW220238   2.039   1.104   5.841
 6447SOL     OW20239   6.700   4.700   2.865
 6447SOL    HW120240   6.725   4.706   2.962
 6447SOL    HW220241   6.739   4.777   2.815
 6448SOL     OW20242   4.814   5.598   2.468
 6448SOL    HW120243   4.804   5.500   2.483
 6448SOL    HW220244   4.886   5.615   2.400
 6449SOL     OW20245   2.510   4.841   0.640
 6449SOL    HW120246   2.509   4.825   0.739
 6449SOL    HW220247   2.588   4.793   0.599
 6450SOL     OW20248   0.441   3.555   1.107
 6450SOL    HW120249   0.370   3.619   1.137
 6450SOL    HW220250   0.450   3.481   1.173
 6451SOL     OW20251   2.266   0.163   4.815
 6451SOL    HW120252   2.194   0.173   4.747
 6451SOL    HW220253   2.232   0.108   4.891
 6452SOL     OW20254   3.512   6.726   4.669
 6452SOL    HW120255   3.559   6.647   4.710
 6452SOL    HW220256   3.418   6.729   4.703
 6453SOL     OW20257   2.515   6.298   1.115
 6453SOL    HW120258   2.599   6.314   1.166
 6453SOL    HW220259   2.455   6.378   1.122
 6454SOL     OW20260   2.399   2.191   3.776
 6454SOL    HW120261   2.463   2.222   3.706
 6454SOL    HW220262   2.308   2.229   3.759
 6455SOL     OW20263   0.176   2.277   3.827
 6455SOL    HW120264   0.133   2.191   3.801
 6455SOL    HW220265   0.115   2.327   3.889
 6456SOL     OW20266   1.799   0.400   3.608
 6456SOL    HW120267   1.751   0.359   3.530
 6456SOL    HW220268   1.897   0.405   3.588
 6457SOL     OW20269   5.077   1.710   1.029
 6457SOL    HW120270   5.030   1.661   0.955
 6457SOL    HW220271   5.053   1.807   1.026
 6458SOL     OW20272   0.711   6.829   3.665
 6458SOL    HW120273   0.670   6.741   3.684
 6458SOL    HW220274   0.718   6.883   3.749
 6459SOL     OW20275   6.289   4.427   0.025
 6459SOL    HW120276   6.237   4.343   0.010
 6459SOL    HW220277   6.226   4.502   0.045
 6460SOL     OW20278   4.952   5.801   5.724
 6460SOL    HW120279   4.880   5.774   5.787
 6460SOL    HW220280   4.948   5.900   5.709
 6461SOL     OW20281   2.547   4.808   5.746
 6461SOL    HW120282   2.615   4.869   5.786
 6461SOL    HW220283   2.577   4.777   5.656
 6462SOL     OW20284   2.404   2.739   4.600
 6462SOL    HW120285   2.501   2.761   4.597
 6462SOL    HW220286   2.392   2.646   4.635
 6463SOL     OW20287   6.872   3.624   0.105
 6463SOL    HW120288   6.876   3.705   0.045
 6463SOL    HW220289   6.849   3.653   0.198
 6464SOL     OW20290   1.507   5.210   4.279
 6464SOL    HW120291   1.514   5.115   4.310
 6464SOL    HW220292   1.571   5.267   4.329
 6465SOL     OW20293   6.776   2.790   3.153
 6465SOL    HW120294   6.788   2.761   3.058
 6465SOL    HW220295   6.745   2.885   3.155
 6466SOL     OW20296   2.000   1.209   6.170
 6466SOL    HW120297   2.096   1.223   6.148
 6466SOL    HW220298   1.989   1.123   6.221
 6467SOL     OW20299   3.226   1.070   6.753
 6467SOL    HW120300   3.295   1.093   6.823
 6467SOL    HW220301   3.205   0.973   6.758
 6468SOL     OW20302   3.995   6.317   0.936
 6468SOL    HW120303   3.991   6.415   0.955
 6468SOL    HW220304   3.903   6.278   0.941
 6469SOL     OW20305   4.751   0.640   4.786
 6469SOL    HW120306   4.681   0.594   4.731
 6469SOL    HW220307   4.719   0.649   4.881
 6470SOL     OW20308   6.566   4.436   0.356
 6470SOL    HW120309   6.493   4.368   0.346
 6470SOL    HW220310   6.623   4.435   0.274
 6471SOL     OW20311   6.333   6.231   5.778
 6471SOL    HW120312   6.416   6.203   5.729
 6471SOL    HW220313   6.305   6.322   5.746
 6472SOL     OW20314   1.000   5.110   1.365
 6472SOL    HW120315   0.987   5.124   1.463
 6472SOL    HW220316   1.076   5.166   1.332
 6473SOL     OW20317   3.171   1.547   4.126
 6473SOL    HW120318   3.221   1.463   4.102
 6473SOL    HW220319   3.102   1.526   4.194
 6474SOL     OW20320   2.449   4.086   5.630
 6474SOL    HW120321   2.477   3.990   5.626
 6474SOL    HW220322   2.461   4.128   5.540
 6475SOL     OW20323   6.557   5.549   4.632
 6475SOL    HW120324   6.510   5.577   4.716
 6475SOL    HW220325   6.573   5.450   4.635
 6476SOL     OW20326   4.518   3.064   1.132
 6476SOL    HW120327   4.485   3.113   1.051
 6476SOL    HW220328   4.522   3.128   1.209
 6477SOL     OW20329   6.139   4.812   1.274
 6477SOL    HW120330   6.163   4.903   1.241
 6477SOL    HW220331   6.045   4.790   1.247
 6478SOL     OW20332   3.664   6.431   1.692
 6478SOL    HW120333   3.578   6.456   1.738
 6478SOL    HW220334   3.735   6.413   1.760
 6479SOL     OW20335   3.949   5.587   3.924
 6479SOL    HW120336   3.940   5.642   3.841
 6479SOL    HW220337   4.003   5.506   3.904
 6480SOL     OW20338   3.173   2.579   5.760
 6480SOL    HW120339   3.088   2.540   5.797
 6480SOL    HW220340   3.250   2.549   5.816
 6481SOL     OW20341   3.621   2.251   1.591
 6481SOL    HW120342   3.654   2.270   1.684
 6481SOL    HW220343   3.522   2.245   1.593
 6482SOL     OW20344   6.820   0.720   5.571
 6482SOL    HW120345   6.843   0.799   5.513
 6482SOL    HW220346   6.764   0.751   5.648
 6483SOL     OW20347   1.207   6.248   0.948
 6483SOL    HW120348   1.171   6.268   1.039
 6483SOL    HW220349   1.262   6.165   0.951
 6484SOL     OW20350   3.608   0.239   1.573
 6484SOL    HW120351   3.530   0.301   1.561
 6484SOL    HW220352   3.615   0.179   1.494
 6485SOL     OW20353   1.864   4.553   3.299
 6485SOL    HW120354   1.830   4.596   3.383
 6485SOL    HW220355   1.962   4.570   3.290
 6486SOL     OW20356   2.052   4.572   4.279
 6486SOL    HW120357   2.104   4.561   4.364
 6486SOL    HW220358   1.983   4.500   4.274
 6487SOL     OW20359   7.021   6.422   5.173
 6487SOL    HW120360   0.093   6.391   5.172
 6487SOL    HW220361   6.961   6.344   5.161
 6488SOL     OW20362   3.657   5.949   5.369
 6488SOL    HW120363   3.629   6.015   5.439
 6488SOL    HW220364   3.611   5.862   5.385
 6489SOL     OW20365   2.870   2.499   6.351
 6489SOL    HW120366   2.852   2.475   6.447
 6489SOL    HW220367   2.940   2.570   6.347
 6490SOL     OW20368   3.958   1.700   6.308
 6490SOL    HW120369   4.036   1.655   6.264
 6490SOL    HW220370   3.882   1.706   6.244
 6491SOL     OW20371   4.090   1.289   0.379
 6491SOL    HW120372   4.084   1.190   0.388
 6491SOL    HW220373   4.109   1.330   0.469
 6492SOL     OW20374   5.616   5.207   0.429
 6492SOL    HW120375   5.667   5.293   0.431
 6492SOL    HW220376   5.681   5.131   0.436
 6493SOL     OW20377   1.378   5.346   4.867
 6493SOL    HW120378   1.284   5.313   4.861
 6493SOL    HW220379   1.380   5.444   4.844
 6494SOL     OW20380   0.285   1.176   3.690
 6494SOL    HW120381   0.190   1.169   3.721
 6494SOL    HW220382   0.320   1.267   3.709
 6495SOL     OW20383   5.099   6.255   4.298
 6495SOL    HW120384   5.022   6.252   4.362
 6495SOL    HW220385   5.185   6.265   4.349
 6496SOL     OW20386   6.743   0.277   2.506
 6496SOL    HW120387   6.726   0.220   2.426
 6496SOL    HW220388   6.829   0.327   2.493
 6497SOL     OW20389   2.440   2.668   1.178
 6497SOL    HW120390   2.518   2.726   1.204
 6497SOL    HW220391   2.355   2.717   1.197
 6498SOL     OW20392   2.130   3.721   4.492
 6498SOL    HW120393   2.095   3.730   4.585
 6498SOL    HW220394   2.142   3.812   4.452
 6499SOL     OW20395   5.482   2.246   5.079
 6499SOL    HW120396   5.506   2.250   5.176
 6499SOL    HW220397   5.419   2.171   5.063
 6500SOL     OW20398   6.927   4.363   3.619
 6500SOL    HW120399   6.900   4.351   3.715
 6500SOL    HW220400   7.008   4.421   3.614
 6501SOL     OW20401   6.236   2.763   6.622
 6501SOL    HW120402   6.157   2.703   6.628
 6501SOL    HW220403   6.296   2.732   6.547
 6502SOL     OW20404   6.557   3.081   1.401
 6502SOL    HW120405   6.459   3.064   1.393
 6502SOL    HW220406   6.599   3.009   1.456
 6503SOL     OW20407   4.404   1.437   3.613
 6503SOL    HW120408   4.431   1.387   3.531
 6503SOL    HW220409   4.328   1.390   3.658
 6504SOL     OW20410   4.900   5.762   6.326
 6504SOL    HW120411   4.833   5.827   6.362
 6504SOL    HW220412   4.986   5.809   6.310
 6505SOL     OW20413   5.173   5.601   1.531
 6505SOL    HW120414   5.250   5.558   1.484
 6505SOL    HW220415   5.122   5.531   1.582
 6506SOL     OW20416   6.415   3.065   1.947
 6506SOL    HW120417   6.438   3.123   2.025
 6506SOL    HW220418   6.497   3.049   1.892
 6507SOL     OW20419   2.432   5.063   6.064
 6507SOL    HW120420   2.366   4.991   6.042
 6507SOL    HW220421   2.396   5.118   6.139
 6508SOL     OW20422   2.139   0.642   3.005
 6508SOL    HW120423   2.189   0.599   3.080
 6508SOL    HW220424   2.140   0.581   2.926
 6509SOL     OW20425   3.185   1.638   4.724
 6509SOL    HW120426   3.239   1.695   4.785
 6509SOL    HW220427   3.224   1.641   4.632
 6510SOL     OW20428   0.350   4.256   6.810
 6510SOL    HW120429   0.310   4.286   6.897
 6510SOL    HW220430   0.331   4.324   6.739
 6511SOL     OW20431   4.626   1.350   4.815
 6511SOL    HW120432   4.608   1.281   4.885
 6511SOL    HW220433   4.722   1.346   4.788
 6512SOL     OW20434   5.094   6.787   2.272
 6512SOL    HW120435   5.067   6.842   2.351
 6512SOL    HW220436   5.194   6.791   2.261
 6513SOL     OW20437   3.319   4.858   2.795
 6513SOL    HW120438   3.321   4.956   2.776
 6513SOL    HW220439   3.401   4.814   2.757
 6514SOL     OW20440   5.271   0.945   3.909
 6514SOL    HW120441   5.269   0.848   3.932
 6514SOL    HW220442   5.284   0.955   3.811
 6515SOL     OW20443   0.431   5.351   4.012
 6515SOL    HW120444   0.419   5.303   3.926
 6515SOL    HW220445   0.396   5.295   4.087
 6516SOL     OW20446   0.351   3.122   1.627
 6516SOL    HW120447   0.289   3.044   1.626
 6516SOL    HW220448   0.365   3.155   1.533
 6517SOL     OW20449   6.869   0.709   0.335
 6517SOL    HW120450   6.845   0.658   0.417
 6517SOL    HW220451   6.967   0.700   0.316
 6518SOL     OW20452   0.120   6.796   6.559
 6518SOL    HW120453   0.034   6.758   6.594
 6518SOL    HW220454   0.101   6.851   6.478
 6519SOL     OW20455   2.384   1.987   3.552
 6519SOL    HW120456   2.462   2.033   3.594
 6519SOL    HW220457   2.359   2.035   3.468
 6520SOL     OW20458   5.637   5.154   2.159
 6520SOL    HW120459   5.558   5.135   2.218
 6520SOL    HW220460   5.682   5.237   2.189
 6521SOL     OW20461   1.673   3.192   4.122
 6521SOL    HW120462   1.597   3.128   4.135
 6521SOL    HW220463   1.759   3.146   4.146
 6522SOL     OW20464   3.748   4.652   0.323
 6522SOL    HW120465   3.761   4.744   0.287
 6522SOL    HW220466   3.711   4.593   0.250
 6523SOL     OW20467   3.628   1.095   0.090
 6523SOL    HW120468   3.715   1.047   0.075
 6523SOL    HW220469   3.631   1.184   0.043
 6524SOL     OW20470   2.863   3.562   2.028
 6524SOL    HW120471   2.898   3.655   2.017
 6524SOL    HW220472   2.843   3.522   1.938
 6525SOL     OW20473   1.217   4.202   3.261
 6525SOL    HW120474   1.122   4.171   3.264
 6525SOL    HW220475   1.249   4.222   3.354
 6526SOL     OW20476   2.140   0.155   6.528
 6526SOL    HW120477   2.151   0.224   6.599
 6526SOL    HW220478   2.123   0.066   6.571
 6527SOL     OW20479   0.590   2.597   5.015
 6527SOL    HW120480   0.639   2.519   4.976
 6527SOL    HW220481   0.650   2.677   5.013
 6528SOL     OW20482   0.062   1.272   4.090
 6528SOL    HW120483   0.071   1.350   4.152
 6528SOL    HW220484   6.990   1.239   4.091
 6529SOL     OW20485   0.839   1.587   2.574
 6529SOL    HW120486   0.922   1.634   2.604
 6529SOL    HW220487   0.759   1.632   2.613
 6530SOL     OW20488   6.932   3.553   1.440
 6530SOL    HW120489   7.021   3.542   1.485
 6530SOL    HW220490   6.860   3.516   1.500
 6531SOL     OW20491   5.659   3.782   5.064
 6531SOL    HW120492   5.609   3.863   5.035
 6531SOL    HW220493   5.755   3.789   5.034
 6532SOL     OW20494   6.271   0.360   6.848
 6532SOL    HW120495   6.307   0.441   6.802
 6532SOL    HW220496   6.181   0.381   6.887
 6533SOL     OW20497   4.566   5.962   0.574
 6533SOL    HW120498   4.487   5.961   0.636
 6533SOL    HW220499   4.551   6.029   0.502
 6534SOL     OW20500   3.269   4.350   0.920
 6534SOL    HW120501   3.181   4.303   0.925
 6534SOL    HW220502   3.336   4.291   0.876
 6535SOL     OW20503   6.336   4.118   3.780
 6535SOL    HW120504   6.265   4.118   3.850
 6535SOL    HW220505   6.355   4.212   3.752
 6536SOL     OW20506   0.927   1.993   5.919
 6536SOL    HW120507   0.899   1.929   5.848
 6536SOL    HW220508   0.908   1.953   6.009
 6537SOL     OW20509   6.501   5.497   6.784
 6537SOL    HW120510   6.456   5.530   6.701
 6537SOL    HW220511   6.447   5.422   6.824
 6538SOL     OW20512   3.089   4.078   6.881
 6538SOL    HW120513   3.177   4.078   6.832
 6538SOL    HW220514   3.089   4.150   6.949
 6539SOL     OW20515   3.613   0.403   6.173
 6539SOL    HW120516   3.566   0.315   6.170
 6539SOL    HW220517   3.620   0.434   6.268
 6540SOL     OW20518   5.200   1.411   5.286
 6540SOL    HW120519   5.116   1.403   5.339
 6540SOL    HW220520   5.218   1.326   5.237
 6541SOL     OW20521   4.238   1.312   5.165
 6541SOL    HW120522   4.317   1.271   5.210
 6541SOL    HW220523   4.162   1.246   5.165
 6542SOL     OW20524   6.631   4.307   4.444
 6542SOL    HW120525   6.606   4.221   4.487
 6542SOL    HW220526   6.562   4.376   4.464
 6543SOL     OW20527   5.926   3.469   5.870
 6543SOL    HW120528   6.020   3.459   5.901
 6543SOL    HW220529   5.923   3.468   5.770
 6544SOL     OW20530   0.319   6.390   2.985
 6544SOL    HW120531   0.297   6.484   2.957
 6544SOL    HW220532   0.370   6.392   3.071
 6545SOL     OW20533   5.358   2.040   6.520
 6545SOL    HW120534   5.328   2.106   6.452
 6545SOL    HW220535   5.394   1.959   6.474
 6546SOL     OW20536   3.547   4.716   6.692
 6546SOL    HW120537   3.595   4.631   6.713
 6546SOL    HW220538   3.613   4.790   6.677
 6547SOL     OW20539   4.910   1.161   6.100
 6547SOL    HW120540   4.879   1.208   6.017
 6547SOL    HW220541   4.912   1.226   6.176
 6548SOL     OW20542   1.115   3.470   7.014
 6548SOL    HW120543   1.135   3.564   6.986
 6548SOL    HW220544   1.098   3.414   6.932
 6549SOL     OW20545   4.513   1.236   0.865
 6549SOL    HW120546   4.573   1.286   0.803
 6549SOL    HW220547   4.539   1.139   0.868
 6550SOL     OW20548   0.553   6.593   3.675
 6550SOL    HW120549   0.585   6.504   3.705
 6550SOL    HW220550   0.463   6.612   3.715
 6551SOL     OW20551   1.819   4.748   2.706
 6551SOL    HW120552   1.729   4.768   2.667
 6551SOL    HW220553   1.839   4.650   2.696
 6552SOL     OW20554   2.421   6.935   5.303
 6552SOL    HW120555   2.370   7.015   5.334
 6552SOL    HW220556   2.402   6.858   5.364
 6553SOL     OW20557   0.641   1.407   3.193
 6553SOL    HW120558   0.567   1.381   3.256
 6553SOL    HW220559   0.615   1.489   3.143
 6554SOL     OW20560   5.846   1.425   5.245
 6554SOL    HW120561   5.941   1.393   5.238
 6554SOL    HW220562   5.813   1.408   5.338
 6555SOL     OW20563   0.371   1.891   2.032
 6555SOL    HW120564   0.344   1.983   2.062
 6555SOL    HW220565   0.442   1.899   1.962
 6556SOL     OW20566   4.578   4.658   5.289
 6556SOL    HW120567   4.642   4.734   5.294
 6556SOL    HW220568   4.497   4.685   5.236
 6557SOL     OW20569   3.135   5.705   1.144
 6557SOL    HW120570   3.160   5.706   1.240
 6557SOL    HW220571   3.043   5.667   1.134
 6558SOL     OW20572   6.324   4.854   0.472
 6558SOL    HW120573   6.325   4.928   0.405
 6558SOL    HW220574   6.378   4.880   0.552
 6559SOL     OW20575   6.953   4.158   6.572
 6559SOL    HW120576   0.027   4.147   6.550
 6559SOL    HW220577   6.943   4.216   6.652
 6560SOL     OW20578   4.389   4.199   0.946
 6560SOL    HW120579   4.328   4.180   0.870
 6560SOL    HW220580   4.415   4.113   0.990
 6561SOL     OW20581   3.563   4.080   2.405
 6561SOL    HW120582   3.617   3.996   2.410
 6561SOL    HW220583   3.582   4.126   2.318
 6562SOL     OW20584   5.403   3.989   0.374
 6562SOL    HW120585   5.389   3.893   0.350
 6562SOL    HW220586   5.499   4.003   0.400
 6563SOL     OW20587   6.555   6.138   0.223
 6563SOL    HW120588   6.483   6.093   0.170
 6563SOL    HW220589   6.517   6.217   0.270
 6564SOL     OW20590   6.485   4.049   2.668
 6564SOL    HW120591   6.417   3.980   2.690
 6564SOL    HW220592   6.537   4.073   2.750
 6565SOL     OW20593   6.755   2.536   4.070
 6565SOL    HW120594   6.765   2.437   4.059
 6565SOL    HW220595   6.737   2.557   4.166
 6566SOL     OW20596   3.170   6.357   2.499
 6566SOL    HW120597   3.200   6.418   2.427
 6566SOL    HW220598   3.152   6.266   2.461
 6567SOL     OW20599   3.985   2.055   1.062
 6567SOL    HW120600   3.933   2.002   1.129
 6567SOL    HW220601   4.083   2.037   1.074
 6568SOL     OW20602   4.978   0.174   3.647
 6568SOL    HW120603   5.024   0.088   3.671
 6568SOL    HW220604   5.012   0.206   3.558
 6569SOL     OW20605   2.788   3.753   6.633
 6569SOL    HW120606   2.741   3.718   6.714
 6569SOL    HW220607   2.835   3.839   6.656
 6570SOL     OW20608   3.987   6.606   2.521
 6570SOL    HW120609   3.891   6.582   2.510
 6570SOL    HW220610   4.006   6.627   2.617
 6571SOL     OW20611   2.469   5.510   2.150
 6571SOL    HW120612   2.560   5.530   2.112
 6571SOL    HW220613   2.466   5.415   2.180
 6572SOL     OW20614   6.825   5.778   5.721
 6572SOL    HW120615   6.850   5.774   5.817
 6572SOL    HW220616   6.757   5.708   5.700
 6573SOL     OW20617   3.119   1.239   2.190
 6573SOL    HW120618   3.045   1.298   2.222
 6573SOL    HW220619   3.152   1.272   2.101
 6574SOL     OW20620   3.015   6.352   2.779
 6574SOL    HW120621   3.098   6.390   2.738
 6574SOL    HW220622   2.955   6.318   2.707
 6575SOL     OW20623   1.198   0.672   2.138
 6575SOL    HW120624   1.274   0.616   2.171
 6575SOL    HW220625   1.151   0.713   2.216
 6576SOL     OW20626   1.772   6.088   6.241
 6576SOL    HW120627   1.795   6.097   6.144
 6576SOL    HW220628   1.757   6.178   6.280
 6577SOL     OW20629   1.016   1.972   3.857
 6577SOL    HW120630   1.078   1.897   3.831
 6577SOL    HW220631   1.024   2.046   3.791
 6578SOL     OW20632   0.832   4.444   2.962
 6578SOL    HW120633   0.809   4.529   3.009
 6578SOL    HW220634   0.906   4.461   2.897
 6579SOL     OW20635   0.158   3.926   4.787
 6579SOL    HW120636   0.170   3.830   4.813
 6579SOL    HW220637   0.078   3.934   4.726
 6580SOL     OW20638   6.389   1.558   1.144
 6580SOL    HW120639   6.399   1.475   1.089
 6580SOL    HW220640   6.446   1.630   1.106
 6581SOL     OW20641   2.925   1.403   0.007
 6581SOL    HW120642   2.978   1.477   0.049
 6581SOL    HW220643   2.929   1.412   6.930
 6582SOL     OW20644   1.460   0.947   1.464
 6582SOL    HW120645   1.539   0.890   1.443
 6582SOL    HW220646   1.455   0.961   1.563
 6583SOL     OW20647   4.218   0.271   4.728
 6583SOL    HW120648   4.239   0.245   4.633
 6583SOL    HW220649   4.269   0.353   4.752
 6584SOL     OW20650   5.106   1.950   6.609
 6584SOL    HW120651   5.197   1.969   6.573
 6584SOL    HW220652   5.037   1.986   6.546
 6585SOL     OW20653   0.225   0.169   7.012
 6585SOL    HW120654   0.290   0.126   0.051
 6585SOL    HW220655   0.136   0.125   7.020
 6586SOL     OW20656   6.324   1.759   6.043
 6586SOL    HW120657   6.254   1.744   5.973
 6586SOL    HW220658   6.287   1.816   6.116
 6587SOL     OW20659   2.548   6.209   5.267
 6587SOL    HW120660   2.481   6.223   5.340
 6587SOL    HW220661   2.534   6.278   5.196
 6588SOL     OW20662   1.448   3.629   1.797
 6588SOL    HW120663   1.361   3.617   1.748
 6588SOL    HW220664   1.480   3.541   1.830
 6589SOL     OW20665   4.680   0.231   0.409
 6589SOL    HW120666   4.682   0.279   0.322
 6589SOL    HW220667   4.758   0.259   0.465
 6590SOL     OW20668   1.001   1.069   5.597
 6590SOL    HW120669   0.966   1.143   5.654
 6590SOL    HW220670   1.052   1.004   5.653
 6591SOL     OW20671   5.184   5.973   2.529
 6591SOL    HW120672   5.253   5.998   2.597
 6591SOL    HW220673   5.226   5.916   2.459
 6592SOL     OW20674   5.887   6.505   3.763
 6592SOL    HW120675   5.981   6.488   3.790
 6592SOL    HW220676   5.827   6.439   3.808
 6593SOL     OW20677   2.529   1.832   3.874
 6593SOL    HW120678   2.559   1.771   3.947
 6593SOL    HW220679   2.441   1.872   3.898
 6594SOL     OW20680   3.977   1.521   6.926
 6594SOL    HW120681   3.978   1.478   7.016
 6594SOL    HW220682   3.883   1.546   6.903
 6595SOL     OW20683   0.726   2.417   0.815
 6595SOL    HW120684   0.691   2.421   0.908
 6595SOL    HW220685   0.820   2.453   0.813
 6596SOL     OW20686   3.221   6.824   4.521
 6596SOL    HW120687   3.221   6.772   4.607
 6596SOL    HW220688   3.271   6.910   4.534
 6597SOL     OW20689   2.170   5.895   2.673
 6597SOL    HW120690   2.137   5.872   2.581
 6597SOL    HW220691   2.210   5.987   2.671
 6598SOL     OW20692   0.692   0.365   4.356
 6598SOL    HW120693   0.709   0.444   4.298
 6598SOL    HW220694   0.767   0.354   4.421
 6599SOL     OW20695   4.431   6.374   5.339
 6599SOL    HW120696   4.505   6.434   5.307
 6599SOL    HW220697   4.343   6.416   5.318
 6600SOL     OW20698   5.237   5.203   6.167
 6600SOL    HW120699   5.240   5.103   6.174
 6600SOL    HW220700   5.325   5.237   6.134
 6601SOL     OW20701   1.312   1.641   5.563
 6601SOL    HW120702   1.267   1.575   5.503
 6601SOL    HW220703   1.354   1.713   5.508
 6602SOL     OW20704   0.477   1.668   1.665
 6602SOL    HW120705   0.557   1.686   1.722
 6602SOL    HW220706   0.396   1.709   1.707
 6603SOL     OW20707   0.296   2.648   3.731
 6603SOL    HW120708   0.299   2.584   3.654
 6603SOL    HW220709   0.365   2.718   3.717
 6604SOL     OW20710   2.482   6.550   0.683
 6604SOL    HW120711   2.539   6.472   0.659
 6604SOL    HW220712   2.386   6.528   0.663
 6605SOL     OW20713   5.669   3.986   1.586
 6605SOL    HW120714   5.622   4.044   1.519
 6605SOL    HW220715   5.667   3.891   1.556
 6606SOL     OW20716   6.759   6.844   2.244
 6606SOL    HW120717   6.796   6.840   2.151
 6606SOL    HW220718   6.720   6.934   2.261
 6607SOL     OW20719   1.529   2.590   2.174
 6607SOL    HW120720   1.619   2.634   2.175
 6607SOL    HW220721   1.505   2.566   2.080
 6608SOL     OW20722   5.299   5.879   2.041
 6608SOL    HW120723   5.331   5.974   2.048
 6608SOL    HW220724   5.376   5.820   2.016
 6609SOL     OW20725   4.828   0.743   6.083
 6609SOL    HW120726   4.818   0.680   6.160
 6609SOL    HW220727   4.798   0.698   5.999
 6610SOL     OW20728   2.822   1.216   6.257
 6610SOL    HW120729   2.784   1.186   6.170
 6610SOL    HW220730   2.760   1.281   6.300
 6611SOL     OW20731   5.968   2.871   4.247
 6611SOL    HW120732   6.058   2.894   4.211
 6611SOL    HW220733   5.901   2.937   4.213
 6612SOL     OW20734   6.576   2.221   6.611
 6612SOL    HW120735   6.555   2.149   6.678
 6612SOL    HW220736   6.584   2.309   6.659
 6613SOL     OW20737   6.327   6.825   5.215
 6613SOL    HW120738   6.408   6.881   5.231
 6613SOL    HW220739   6.255   6.851   5.280
 6614SOL     OW20740   5.445   6.288   0.279
 6614SOL    HW120741   5.352   6.317   0.300
 6614SOL    HW220742   5.468   6.207   0.333
 6615SOL     OW20743   0.906   4.771   3.133
 6615SOL    HW120744   0.851   4.854   3.144
 6615SOL    HW220745   1.000   4.796   3.109
 6616SOL     OW20746   4.113   1.045   5.953
 6616SOL    HW120747   4.040   1.049   6.021
 6616SOL    HW220748   4.183   0.979   5.982
 6617SOL     OW20749   3.638   5.276   2.627
 6617SOL    HW120750   3.697   5.215   2.678
 6617SOL    HW220751   3.626   5.362   2.677
 6618SOL     OW20752   1.344   3.543   2.774
 6618SOL    HW120753   1.312   3.455   2.739
 6618SOL    HW220754   1.333   3.546   2.874
 6619SOL     OW20755   6.399   0.566   4.272
 6619SOL    HW120756   6.302   0.541   4.274
 6619SOL    HW220757   6.448   0.504   4.211
 6620SOL     OW20758   1.798   2.542   5.000
 6620SOL    HW120759   1.747   2.531   5.085
 6620SOL    HW220760   1.832   2.636   4.994
 6621SOL     OW20761   2.086   3.710   6.718
 6621SOL    HW120762   1.991   3.678   6.714
 6621SOL    HW220763   2.111   3.730   6.813
 6622SOL     OW20764   5.857   6.944   1.607
 6622SOL    HW120765   5.918   7.007   1.656
 6622SOL    HW220766   5.765   6.950   1.645
 6623SOL     OW20767   2.546   3.334   6.724
 6623SOL    HW120768   2.477   3.354   6.653
 6623SOL    HW220769   2.603   3.258   6.694
 6624SOL     OW20770   1.793   6.783   4.113
 6624SOL    HW120771   1.837   6.732   4.039
 6624SOL    HW220772   1.770   6.875   4.081
 6625SOL     OW20773   5.186   1.868   5.882
 6625SOL    HW120774   5.114   1.800   5.884
 6625SOL    HW220775   5.271   1.826   5.849
 6626SOL     OW20776   4.367   5.216   5.316
 6626SOL    HW120777   4.396   5.199   5.410
 6626SOL    HW220778   4.275   5.255   5.316
 6627SOL     OW20779   2.517   0.766   5.804
 6627SOL    HW120780   2.420   0.748   5.793
 6627SOL    HW220781   2.536   0.862   5.785
 6628SOL     OW20782   4.530   4.442   4.596
 6628SOL    HW120783   4.448   4.448   4.539
 6628SOL    HW220784   4.603   4.397   4.545
 6629SOL     OW20785   4.096   6.146   0.273
 6629SOL    HW120786   4.068   6.054   0.248
 6629SOL    HW220787   4.184   6.167   0.231
 6630SOL     OW20788   3.767   1.453   1.817
 6630SOL    HW120789   3.727   1.376   1.866
 6630SOL    HW220790   3.803   1.520   1.882
 6631SOL     OW20791   3.041   0.185   2.658
 6631SOL    HW120792   3.069   0.103   2.609
 6631SOL    HW220793   2.945   0.179   2.683
 6632SOL     OW20794   0.720   5.851   1.322
 6632SOL    HW120795   0.795   5.786   1.331
 6632SOL    HW220796   0.643   5.806   1.276
 6633SOL     OW20797   0.778   3.851   6.287
 6633SOL    HW120798   0.733   3.795   6.357
 6633SOL    HW220799   0.712   3.918   6.252
 6634SOL     OW20800   6.039   2.727   4.500
 6634SOL    HW120801   6.138   2.714   4.501
 6634SOL    HW220802   6.014   2.791   4.428
 6635SOL     OW20803   4.246   4.631   2.980
 6635SOL    HW120804   4.199   4.642   2.892
 6635SOL    HW220805   4.192   4.672   3.053
 6636SOL     OW20806   4.336   1.511   5.736
 6636SOL    HW120807   4.435   1.513   5.749
 6636SOL    HW220808   4.313   1.551   5.648
 6637SOL     OW20809   1.400   0.009   6.306
 6637SOL    HW120810   1.396   0.108   6.294
 6637SOL    HW220811   1.376   7.009   6.401
 6638SOL     OW20812   3.399   4.050   3.963
 6638SOL    HW120813   3.360   4.014   4.047
 6638SOL    HW220814   3.481   4.104   3.985
 6639SOL     OW20815   5.999   5.269   6.524
 6639SOL    HW120816   5.901   5.270   6.543
 6639SOL    HW220817   6.016   5.230   6.434
 6640SOL     OW20818   1.177   1.515   5.187
 6640SOL    HW120819   1.097   1.548   5.137
 6640SOL    HW220820   1.154   1.505   5.284
 6641SOL     OW20821   2.745   2.124   6.866
 6641SOL    HW120822   2.769   2.194   6.934
 6641SOL    HW220823   2.781   2.151   6.777
 6642SOL     OW20824   2.986   5.354   6.812
 6642SOL    HW120825   2.900   5.363   6.861
 6642SOL    HW220826   3.062   5.363   6.876
 6643SOL     OW20827   0.180   5.687   6.640
 6643SOL    HW120828   0.212   5.646   6.725
 6643SOL    HW220829   0.165   5.616   6.572
 6644SOL     OW20830   2.873   4.751   2.234
 6644SOL    HW120831   2.858   4.702   2.148
 6644SOL    HW220832   2.832   4.700   2.309
 6645SOL     OW20833   6.870   4.808   0.660
 6645SOL    HW120834   6.835   4.898   0.634
 6645SOL    HW220835   6.890   4.755   0.578
 6646SOL     OW20836   3.722   6.677   4.906
 6646SOL    HW120837   3.654   6.605   4.893
 6646SOL    HW220838   3.758   6.705   4.817
 6647SOL     OW20839   4.154   1.115   2.152
 6647SOL    HW120840   4.202   1.151   2.232
 6647SOL    HW220841   4.165   1.016   2.149
 6648SOL     OW20842   3.675   6.195   2.796
 6648SOL    HW120843   3.666   6.200   2.895
 6648SOL    HW220844   3.699   6.285   2.760
 6649SOL     OW20845   5.486   0.947   6.833
 6649SOL    HW120846   5.582   0.948   6.806
 6649SOL    HW220847   5.439   1.025   6.792
 6650SOL     OW20848   2.923   1.612   4.781
 6650SOL    HW120849   3.022   1.600   4.769
 6650SOL    HW220850   2.898   1.582   4.873
 6651SOL     OW20851   2.039   1.814   6.525
 6651SOL    HW120852   2.021   1.763   6.609
 6651SOL    HW220853   2.132   1.852   6.529
 6652SOL     OW20854   6.976   4.182   0.612
 6652SOL    HW120855   6.885   4.160   0.647
 6652SOL    HW220856   0.018   4.112   0.643
 6653SOL     OW20857   3.655   2.868   2.154
 6653SOL    HW120858   3.588   2.854   2.082
 6653SOL    HW220859   3.729   2.801   2.145
 6654SOL     OW20860   1.619   3.219   1.568
 6654SOL    HW120861   1.701   3.171   1.537
 6654SOL    HW220862   1.640   3.268   1.653
 6655SOL     OW20863   2.549   6.788   1.690
 6655SOL    HW120864   2.631   6.797   1.634
 6655SOL    HW220865   2.492   6.870   1.680
 6656SOL     OW20866   5.964   1.831   1.678
 6656SOL    HW120867   6.064   1.825   1.690
 6656SOL    HW220868   5.919   1.796   1.761
 6657SOL     OW20869   5.664   6.035   6.689
 6657SOL    HW120870   5.745   5.993   6.648
 6657SOL    HW220871   5.582   5.993   6.652
 6658SOL     OW20872   6.091   1.259   4.928
 6658SOL    HW120873   6.016   1.210   4.972
 6658SOL    HW220874   6.066   1.278   4.833
 6659SOL     OW20875   2.052   1.909   0.778
 6659SOL    HW120876   2.005   1.992   0.749
 6659SOL    HW220877   2.134   1.896   0.723
 6660SOL     OW20878   0.852   5.437   0.425
 6660SOL    HW120879   0.821   5.454   0.331
 6660SOL    HW220880   0.777   5.458   0.488
 6661SOL     OW20881   1.250   6.579   4.731
 6661SOL    HW120882   1.220   6.485   4.717
 6661SOL    HW220883   1.321   6.582   4.802
 6662SOL     OW20884   1.225   1.191   0.216
 6662SOL    HW120885   1.218   1.287   0.190
 6662SOL    HW220886   1.146   1.165   0.271
 6663SOL     OW20887   0.053   5.260   3.519
 6663SOL    HW120888   7.007   5.300   3.580
 6663SOL    HW220889   0.014   5.250   3.427
 6664SOL     OW20890   2.281   6.441   0.157
 6664SOL    HW120891   2.276   6.365   0.222
 6664SOL    HW220892   2.217   6.424   0.082
 6665SOL     OW20893   1.585   0.046   3.187
 6665SOL    HW120894   1.526   7.001   3.231
 6665SOL    HW220895   1.673   0.004   3.166
 6666SOL     OW20896   5.431   6.909   6.415
 6666SOL    HW120897   5.436   6.848   6.336
 6666SOL    HW220898   5.520   6.912   6.461
 6667SOL     OW20899   6.837   5.754   6.297
 6667SOL    HW120900   6.779   5.694   6.352
 6667SOL    HW220901   6.806   5.848   6.307
 6668SOL     OW20902   6.513   5.793   2.181
 6668SOL    HW120903   6.419   5.802   2.213
 6668SOL    HW220904   6.574   5.786   2.260
 6669SOL     OW20905   1.715   2.996   3.837
 6669SOL    HW120906   1.746   2.918   3.891
 6669SOL    HW220907   1.775   3.074   3.853
 6670SOL     OW20908   3.628   2.242   5.587
 6670SOL    HW120909   3.555   2.175   5.597
 6670SOL    HW220910   3.657   2.246   5.491
 6671SOL     OW20911   5.865   5.349   1.421
 6671SOL    HW120912   5.812   5.405   1.357
 6671SOL    HW220913   5.912   5.276   1.370
 6672SOL     OW20914   0.476   1.992   5.584
 6672SOL    HW120915   0.411   1.917   5.590
 6672SOL    HW220916   0.507   2.016   5.676
 6673SOL     OW20917   5.097   5.929   4.005
 6673SOL    HW120918   5.163   5.937   3.929
 6673SOL    HW220919   5.142   5.956   4.090
 6674SOL     OW20920   1.246   5.193   5.720
 6674SOL    HW120921   1.266   5.104   5.761
 6674SOL    HW220922   1.273   5.192   5.624
 6675SOL     OW20923   4.290   3.792   1.722
 6675SOL    HW120924   4.210   3.731   1.722
 6675SOL    HW220925   4.260   3.885   1.701
 6676SOL     OW20926   6.772   4.863   5.604
 6676SOL    HW120927   6.761   4.818   5.693
 6676SOL    HW220928   6.865   4.850   5.571
 6677SOL     OW20929   0.849   1.807   6.101
 6677SOL    HW120930   0.908   1.750   6.158
 6677SOL    HW220931   0.782   1.749   6.055
 6678SOL     OW20932   2.477   3.068   0.069
 6678SOL    HW120933   2.446   3.106   0.157
 6678SOL    HW220934   2.563   3.019   0.082
 6679SOL     OW20935   2.688   2.047   3.871
 6679SOL    HW120936   2.619   1.974   3.870
 6679SOL    HW220937   2.740   2.042   3.956
 6680SOL     OW20938   4.451   0.129   6.334
 6680SOL    HW120939   4.424   0.067   6.260
 6680SOL    HW220940   4.549   0.145   6.330
 6681SOL     OW20941   4.483   5.497   0.814
 6681SOL    HW120942   4.409   5.503   0.747
 6681SOL    HW220943   4.450   5.451   0.896
 6682SOL     OW20944   1.823   4.470   2.687
 6682SOL    HW120945   1.730   4.438   2.701
 6682SOL    HW220946   1.868   4.481   2.776
 6683SOL     OW20947   5.381   3.376   5.410
 6683SOL    HW120948   5.290   3.393   5.371
 6683SOL    HW220949   5.379   3.290   5.462
 6684SOL     OW20950   2.824   6.159   0.999
 6684SOL    HW120951   2.842   6.254   0.972
 6684SOL    HW220952   2.823   6.100   0.918
 6685SOL     OW20953   5.852   3.244   6.307
 6685SOL    HW120954   5.800   3.280   6.230
 6685SOL    HW220955   5.927   3.187   6.272
 6686SOL     OW20956   5.457   5.820   4.710
 6686SOL    HW120957   5.408   5.782   4.632
 6686SOL    HW220958   5.391   5.850   4.780
 6687SOL     OW20959   0.464   2.671   0.704
 6687SOL    HW120960   0.455   2.610   0.625
 6687SOL    HW220961   0.428   2.625   0.786
 6688SOL     OW20962   6.919   4.484   2.102
 6688SOL    HW120963   6.985   4.528   2.163
 6688SOL    HW220964   6.860   4.424   2.155
 6689SOL     OW20965   4.299   3.583   0.113
 6689SOL    HW120966   4.293   3.539   0.024
 6689SOL    HW220967   4.334   3.676   0.102
 6690SOL     OW20968   2.435   1.246   1.192
 6690SOL    HW120969   2.473   1.269   1.281
 6690SOL    HW220970   2.367   1.173   1.203
 6691SOL     OW20971   3.164   6.582   1.184
 6691SOL    HW120972   3.200   6.548   1.271
 6691SOL    HW220973   3.096   6.653   1.202
 6692SOL     OW20974   4.071   4.005   5.626
 6692SOL    HW120975   3.982   3.976   5.591
 6692SOL    HW220976   4.121   3.926   5.660
 6693SOL     OW20977   4.379   3.631   6.027
 6693SOL    HW120978   4.371   3.538   6.062
 6693SOL    HW220979   4.374   3.696   6.103
 6694SOL     OW20980   5.080   5.111   0.555
 6694SOL    HW120981   5.063   5.122   0.653
 6694SOL    HW220982   5.015   5.045   0.517
 6695SOL     OW20983   2.620   1.799   6.562
 6695SOL    HW120984   2.609   1.857   6.643
 6695SOL    HW220985   2.578   1.844   6.483
 6696SOL     OW20986   1.297   2.887   6.980
 6696SOL    HW120987   1.210   2.843   7.001
 6696SOL    HW220988   1.327   2.942   0.035
 6697SOL     OW20989   4.786   2.956   2.751
 6697SOL    HW120990   4.824   2.869   2.719
 6697SOL    HW220991   4.787   3.022   2.676
 6698SOL     OW20992   2.981   2.671   0.870
 6698SOL    HW120993   2.894   2.629   0.893
 6698SOL    HW220994   3.002   2.744   0.935
 6699SOL     OW20995   3.389   5.483   6.490
 6699SOL    HW120996   3.438   5.502   6.405
 6699SOL    HW220997   3.291   5.477   6.472
 6700SOL     OW20998   0.100   6.208   0.679
 6700SOL    HW120999   0.040   6.133   0.654
 6700SOL    HW221000   0.049   6.276   0.732
 6701SOL     OW21001   5.752   3.106   1.208
 6701SOL    HW121002   5.692   3.090   1.286
 6701SOL    HW221003   5.710   3.069   1.125
 6702SOL     OW21004   3.066   2.677   1.732
 6702SOL    HW121005   3.032   2.583   1.736
 6702SOL    HW221006   3.166   2.675   1.727
 6703SOL     OW21007   6.176   2.090   0.016
 6703SOL    HW121008   6.084   2.129   0.016
 6703SOL    HW221009   6.227   2.125   6.961
 6704SOL     OW21010   4.296   1.804   2.458
 6704SOL    HW121011   4.245   1.847   2.383
 6704SOL    HW221012   4.306   1.707   2.440
 6705SOL     OW21013   6.825   2.377   1.561
 6705SOL    HW121014   6.745   2.437   1.554
 6705SOL    HW221015   6.889   2.398   1.487
 6706SOL     OW21016   0.485   4.341   1.878
 6706SOL    HW121017   0.398   4.355   1.926
 6706SOL    HW221018   0.474   4.268   1.811
 6707SOL     OW21019   0.070   6.405   3.602
 6707SOL    HW121020   0.109   6.393   3.693
 6707SOL    HW221021   0.143   6.415   3.535
 6708SOL     OW21022   0.731   5.235   2.563
 6708SOL    HW121023   0.750   5.297   2.487
 6708SOL    HW221024   0.738   5.285   2.650
 6709SOL     OW21025   3.203   6.528   1.784
 6709SOL    HW121026   3.122   6.542   1.727
 6709SOL    HW221027   3.182   6.554   1.879
 6710SOL     OW21028   2.722   0.971   5.760
 6710SOL    HW121029   2.774   1.024   5.827
 6710SOL    HW221030   2.783   0.944   5.685
 6711SOL     OW21031   5.367   4.790   0.185
 6711SOL    HW121032   5.345   4.814   0.280
 6711SOL    HW221033   5.446   4.730   0.184
 6712SOL     OW21034   4.707   5.211   0.458
 6712SOL    HW121035   4.702   5.284   0.526
 6712SOL    HW221036   4.695   5.123   0.504
 6713SOL     OW21037   2.582   1.696   1.945
 6713SOL    HW121038   2.612   1.644   2.025
 6713SOL    HW221039   2.527   1.637   1.886
 6714SOL     OW21040   5.665   0.738   6.712
 6714SOL    HW121041   5.671   0.715   6.809
 6714SOL    HW221042   5.758   0.747   6.675
 6715SOL     OW21043   0.869   0.200   6.519
 6715SOL    HW121044   0.845   0.235   6.429
 6715SOL    HW221045   0.797   0.138   6.550
 6716SOL     OW21046   0.458   5.519   2.197
 6716SOL    HW121047   0.526   5.452   2.165
 6716SOL    HW221048   0.471   5.534   2.295
 6717SOL     OW21049   4.694   3.122   0.870
 6717SOL    HW121050   4.599   3.111   0.838
 6717SOL    HW221051   4.735   3.033   0.884
 6718SOL     OW21052   4.623   6.735   6.211
 6718SOL    HW121053   4.599   6.640   6.188
 6718SOL    HW221054   4.563   6.797   6.161
 6719SOL     OW21055   1.085   6.999   5.955
 6719SOL    HW121056   1.003   6.967   6.002
 6719SOL    HW221057   1.066   7.006   5.857
 6720SOL     OW21058   0.530   5.381   3.054
 6720SOL    HW121059   0.487   5.359   2.967
 6720SOL    HW221060   0.610   5.322   3.068
 6721SOL     OW21061   6.464   0.126   5.454
 6721SOL    HW121062   6.368   0.105   5.438
 6721SOL    HW221063   6.521   0.062   5.403
 6722SOL     OW21064   6.519   3.265   1.690
 6722SOL    HW121065   6.564   3.188   1.736
 6722SOL    HW221066   6.587   3.336   1.670
 6723SOL     OW21067   2.231   6.819   2.633
 6723SOL    HW121068   2.227   6.738   2.692
 6723SOL    HW221069   2.326   6.834   2.605
 6724SOL     OW21070   0.984   3.431   5.865
 6724SOL    HW121071   0.980   3.336   5.894
 6724SOL    HW221072   1.079   3.462   5.866
 6725SOL     OW21073   0.786   4.345   1.388
 6725SOL    HW121074   0.812   4.390   1.473
 6725SOL    HW221075   0.848   4.374   1.315
 6726SOL     OW21076   1.037   2.201   4.801
 6726SOL    HW121077   0.977   2.280   4.790
 6726SOL    HW221078   1.077   2.177   4.712
 6727SOL     OW21079   6.147   3.771   5.705
 6727SOL    HW121080   6.093   3.796   5.625
 6727SOL    HW221081   6.216   3.704   5.680
 6728SOL     OW21082   4.982   1.514   4.432
 6728SOL    HW121083   5.054   1.472   4.377
 6728SOL    HW221084   4.979   1.470   4.522
 6729SOL     OW21085   0.214   1.463   2.305
 6729SOL    HW121086   0.152   1.386   2.319
 6729SOL    HW221087   0.283   1.462   2.377
 6730SOL     OW21088   2.766   6.452   6.457
 6730SOL    HW121089   2.744   6.549   6.453
 6730SOL    HW221090   2.733   6.414   6.544
 6731SOL     OW21091   1.495   4.552   1.195
 6731SOL    HW121092   1.439   4.609   1.136
 6731SOL    HW221093   1.449   4.464   1.211
 6732SOL     OW21094   4.335   5.365   6.458
 6732SOL    HW121095   4.310   5.435   6.525
 6732SOL    HW221096   4.430   5.376   6.431
 6733SOL     OW21097   3.438   5.521   0.634
 6733SOL    HW121098   3.482   5.577   0.564
 6733SOL    HW221099   3.384   5.449   0.591
 6734SOL     OW21100   6.749   2.683   5.006
 6734SOL    HW121101   6.709   2.705   5.095
 6734SOL    HW221102   6.769   2.585   5.002
 6735SOL     OW21103   0.155   5.436   5.074
 6735SOL    HW121104   0.096   5.420   4.994
 6735SOL    HW221105   0.251   5.422   5.047
 6736SOL     OW21106   2.342   3.196   0.297
 6736SOL    HW121107   2.300   3.286   0.280
 6736SOL    HW221108   2.275   3.124   0.277
 6737SOL     OW21109   2.082   2.423   1.283
 6737SOL    HW121110   2.087   2.324   1.271
 6737SOL    HW221111   1.995   2.447   1.328
 6738SOL     OW21112   2.106   3.940   2.391
 6738SOL    HW121113   2.171   3.990   2.449
 6738SOL    HW221114   2.049   3.880   2.448
 6739SOL     OW21115   3.627   5.010   6.276
 6739SOL    HW121116   3.656   5.105   6.287
 6739SOL    HW221117   3.562   4.986   6.348
 6740SOL     OW21118   1.605   1.311   4.494
 6740SOL    HW121119   1.652   1.389   4.536
 6740SOL    HW221120   1.590   1.329   4.397
 6741SOL     OW21121   4.589   0.879   6.117
 6741SOL    HW121122   4.670   0.822   6.100
 6741SOL    HW221123   4.593   0.915   6.210
 6742SOL     OW21124   6.766   5.349   2.780
 6742SOL    HW121125   6.851   5.396   2.803
 6742SOL    HW221126   6.704   5.413   2.735
 6743SOL     OW21127   4.213   4.589   0.469
 6743SOL    HW121128   4.291   4.652   0.470
 6743SOL    HW221129   4.129   4.640   0.453
 6744SOL     OW21130   5.147   5.447   5.403
 6744SOL    HW121131   5.123   5.530   5.454
 6744SOL    HW221132   5.198   5.385   5.462
 6745SOL     OW21133   0.932   6.718   1.955
 6745SOL    HW121134   0.948   6.703   2.052
 6745SOL    HW221135   1.007   6.773   1.917
 6746SOL     OW21136   0.980   1.204   3.253
 6746SOL    HW121137   0.888   1.179   3.223
 6746SOL    HW221138   1.037   1.122   3.257
 6747SOL     OW21139   5.402   6.826   4.957
 6747SOL    HW121140   5.368   6.746   4.906
 6747SOL    HW221141   5.459   6.796   5.032
 6748SOL     OW21142   1.504   0.765   3.033
 6748SOL    HW121143   1.510   0.832   2.959
 6748SOL    HW221144   1.561   0.794   3.110
 6749SOL     OW21145   2.729   5.622   0.158
 6749SOL    HW121146   2.632   5.647   0.158
 6749SOL    HW221147   2.740   5.530   0.120
 6750SOL     OW21148   4.285   0.941   4.902
 6750SOL    HW121149   4.303   0.938   5.000
 6750SOL    HW221150   4.316   1.029   4.865
 6751SOL     OW21151   3.833   1.400   4.030
 6751SOL    HW121152   3.734   1.407   4.034
 6751SOL    HW221153   3.863   1.401   3.934
 6752SOL     OW21154   6.440   3.272   2.438
 6752SOL    HW121155   6.348   3.283   2.477
 6752SOL    HW221156   6.472   3.360   2.404
 6753SOL     OW21157   4.739   0.934   6.634
 6753SOL    HW121158   4.802   0.856   6.635
 6753SOL    HW221159   4.698   0.942   6.543
 6754SOL     OW21160   6.205   1.718   6.335
 6754SOL    HW121161   6.163   1.737   6.424
 6754SOL    HW221162   6.179   1.788   6.270
 6755SOL     OW21163   4.624   1.918   3.539
 6755SOL    HW121164   4.558   1.893   3.610
 6755SOL    HW221165   4.578   1.970   3.467
 6756SOL     OW21166   4.733   4.396   4.389
 6756SOL    HW121167   4.774   4.481   4.422
 6756SOL    HW221168   4.740   4.392   4.290
 6757SOL     OW21169   4.860   6.449   0.855
 6757SOL    HW121170   4.934   6.475   0.916
 6757SOL    HW221171   4.815   6.531   0.819
 6758SOL     OW21172   6.195   3.652   1.444
 6758SOL    HW121173   6.249   3.579   1.485
 6758SOL    HW221174   6.119   3.675   1.505
 6759SOL     OW21175   1.281   3.690   4.413
 6759SOL    HW121176   1.278   3.687   4.513
 6759SOL    HW221177   1.195   3.727   4.378
 6760SOL     OW21178   6.454   5.112   4.696
 6760SOL    HW121179   6.435   5.124   4.793
 6760SOL    HW221180   6.443   5.016   4.672
 6761SOL     OW21181   5.808   2.468   6.402
 6761SOL    HW121182   5.894   2.459   6.452
 6761SOL    HW221183   5.826   2.471   6.304
 6762SOL     OW21184   6.989   5.922   3.647
 6762SOL    HW121185   6.918   5.905   3.579
 6762SOL    HW221186   0.048   5.957   3.602
 6763SOL     OW21187   6.632   6.101   3.688
 6763SOL    HW121188   6.698   6.176   3.692
 6763SOL    HW221189   6.618   6.064   3.779
 6764SOL     OW21190   2.783   4.928   6.994
 6764SOL    HW121191   2.778   4.940   6.895
 6764SOL    HW221192   2.705   4.974   0.014
 6765SOL     OW21193   5.159   5.254   3.423
 6765SOL    HW121194   5.156   5.324   3.351
 6765SOL    HW221195   5.091   5.276   3.493
 6766SOL     OW21196   3.532   0.088   6.803
 6766SOL    HW121197   3.446   0.092   6.854
 6766SOL    HW221198   3.586   0.170   6.823
 6767SOL     OW21199   0.623   2.163   0.877
 6767SOL    HW121200   0.541   2.118   0.841
 6767SOL    HW221201   0.656   2.231   0.812
 6768SOL     OW21202   0.964   6.955   3.830
 6768SOL    HW121203   0.944   6.901   3.911
 6768SOL    HW221204   1.058   6.988   3.834
 6769SOL     OW21205   2.823   1.130   5.288
 6769SOL    HW121206   2.856   1.066   5.219
 6769SOL    HW221207   2.857   1.102   5.378
 6770SOL     OW21208   6.775   2.155   3.754
 6770SOL    HW121209   6.677   2.148   3.740
 6770SOL    HW221210   6.799   2.248   3.782
 6771SOL     OW21211   3.789   2.133   3.151
 6771SOL    HW121212   3.792   2.156   3.248
 6771SOL    HW221213   3.699   2.157   3.114
 6772SOL     OW21214   5.580   1.538   2.437
 6772SOL    HW121215   5.629   1.581   2.512
 6772SOL    HW221216   5.645   1.496   2.374
 6773SOL     OW21217   0.301   6.734   1.163
 6773SOL    HW121218   0.298   6.667   1.089
 6773SOL    HW221219   0.352   6.814   1.134
 6774SOL     OW21220   1.760   2.182   4.612
 6774SOL    HW121221   1.854   2.204   4.587
 6774SOL    HW221222   1.744   2.208   4.707
 6775SOL     OW21223   0.535   2.337   3.319
 6775SOL    HW121224   0.616   2.395   3.314
 6775SOL    HW221225   0.521   2.307   3.413
 6776SOL     OW21226   4.044   3.674   1.742
 6776SOL    HW121227   4.017   3.767   1.716
 6776SOL    HW221228   3.972   3.610   1.716
 6777SOL     OW21229   4.427   5.302   1.008
 6777SOL    HW121230   4.489   5.226   0.989
 6777SOL    HW221231   4.458   5.353   1.088
 6778SOL     OW21232   5.878   3.046   2.617
 6778SOL    HW121233   5.957   2.989   2.594
 6778SOL    HW221234   5.842   3.019   2.706
 6779SOL     OW21235   5.222   4.401   6.441
 6779SOL    HW121236   5.191   4.325   6.498
 6779SOL    HW221237   5.260   4.365   6.355
 6780SOL     OW21238   1.960   3.727   2.522
 6780SOL    HW121239   2.009   3.688   2.600
 6780SOL    HW221240   1.864   3.739   2.546
 6781SOL     OW21241   6.639   1.144   3.517
 6781SOL    HW121242   6.624   1.208   3.442
 6781SOL    HW221243   6.649   1.051   3.480
 6782SOL     OW21244   1.182   0.944   3.633
 6782SOL    HW121245   1.214   0.955   3.539
 6782SOL    HW221246   1.205   0.852   3.665
 6783SOL     OW21247   0.766   4.076   4.776
 6783SOL    HW121248   0.708   3.997   4.794
 6783SOL    HW221249   0.827   4.091   4.854
 6784SOL     OW21250   2.577   4.308   1.733
 6784SOL    HW121251   2.643   4.278   1.664
 6784SOL    HW221252   2.569   4.408   1.731
 6785SOL     OW21253   5.945   4.836   5.878
 6785SOL    HW121254   5.869   4.774   5.859
 6785SOL    HW221255   5.911   4.926   5.903
 6786SOL     OW21256   6.513   2.608   0.238
 6786SOL    HW121257   6.421   2.588   0.272
 6786SOL    HW221258   6.537   2.542   0.167
 6787SOL     OW21259   2.977   2.469   1.369
 6787SOL    HW121260   2.982   2.435   1.463
 6787SOL    HW221261   2.895   2.525   1.358
 6788SOL     OW21262   0.375   3.828   2.414
 6788SOL    HW121263   0.348   3.853   2.507
 6788SOL    HW221264   0.382   3.910   2.358
 6789SOL     OW21265   0.113   4.963   4.693
 6789SOL    HW121266   0.101   4.865   4.714
 6789SOL    HW221267   0.050   4.989   4.620
 6790SOL     OW21268   0.204   4.301   6.120
 6790SOL    HW121269   0.248   4.321   6.208
 6790SOL    HW221270   0.198   4.385   6.066
 6791SOL     OW21271   4.595   1.836   3.156
 6791SOL    HW121272   4.639   1.869   3.073
 6791SOL    HW221273   4.536   1.907   3.194
 6792SOL     OW21274   4.170   6.795   5.390
 6792SOL    HW121275   4.242   6.864   5.391
 6792SOL    HW221276   4.094   6.825   5.447
 6793SOL     OW21277   3.113   2.261   0.210
 6793SOL    HW121278   3.197   2.209   0.220
 6793SOL    HW221279   3.078   2.250   0.116
 6794SOL     OW21280   5.029   1.091   5.825
 6794SOL    HW121281   4.990   1.169   5.874
 6794SOL    HW221282   4.956   1.035   5.789
 6795SOL     OW21283   1.339   6.854   0.882
 6795SOL    HW121284   1.306   6.939   0.923
 6795SOL    HW221285   1.314   6.777   0.941
 6796SOL     OW21286   5.529   1.240   1.935
 6796SOL    HW121287   5.500   1.333   1.958
 6796SOL    HW221288   5.448   1.184   1.915
 6797SOL     OW21289   6.714   2.225   1.303
 6797SOL    HW121290   6.703   2.248   1.400
 6797SOL    HW221291   6.667   2.139   1.284
 6798SOL     OW21292   5.598   6.902   1.661
 6798SOL    HW121293   5.526   6.941   1.719
 6798SOL    HW221294   5.591   6.942   1.570
 6799SOL     OW21295   5.639   0.660   2.994
 6799SOL    HW121296   5.636   0.738   2.931
 6799SOL    HW221297   5.564   0.597   2.972
 6800SOL     OW21298   2.119   2.404   1.715
 6800SOL    HW121299   2.110   2.497   1.680
 6800SOL    HW221300   2.212   2.371   1.697
 6801SOL     OW21301   1.216   6.565   4.076
 6801SOL    HW121302   1.302   6.515   4.086
 6801SOL    HW221303   1.141   6.500   4.061
 6802SOL     OW21304   3.499   6.190   0.771
 6802SOL    HW121305   3.478   6.161   0.865
 6802SOL    HW221306   3.418   6.179   0.714
 6803SOL     OW21307   5.356   3.944   6.986
 6803SOL    HW121308   5.313   3.856   7.000
 6803SOL    HW221309   5.286   4.016   6.981
 6804SOL     OW21310   2.910   5.189   2.823
 6804SOL    HW121311   2.896   5.288   2.837
 6804SOL    HW221312   2.843   5.139   2.879
 6805SOL     OW21313   0.398   4.690   6.681
 6805SOL    HW121314   0.395   4.742   6.596
 6805SOL    HW221315   0.317   4.712   6.736
 6806SOL     OW21316   6.602   1.031   4.413
 6806SOL    HW121317   6.549   0.956   4.372
 6806SOL    HW221318   6.699   1.005   4.415
 6807SOL     OW21319   3.467   3.211   3.363
 6807SOL    HW121320   3.567   3.206   3.363
 6807SOL    HW221321   3.438   3.302   3.332
 6808SOL     OW21322   5.310   1.169   5.182
 6808SOL    HW121323   5.352   1.092   5.229
 6808SOL    HW221324   5.337   1.170   5.086
 6809SOL     OW21325   6.530   3.809   0.929
 6809SOL    HW121326   6.468   3.733   0.910
 6809SOL    HW221327   6.568   3.843   0.843
 6810SOL     OW21328   3.308   0.938   3.487
 6810SOL    HW121329   3.361   1.006   3.435
 6810SOL    HW221330   3.212   0.967   3.490
 6811SOL     OW21331   6.641   2.692   2.487
 6811SOL    HW121332   6.619   2.769   2.546
 6811SOL    HW221333   6.562   2.631   2.481
 6812SOL     OW21334   3.286   3.721   4.323
 6812SOL    HW121335   3.364   3.676   4.367
 6812SOL    HW221336   3.314   3.812   4.292
 6813SOL     OW21337   5.248   3.534   2.200
 6813SOL    HW121338   5.185   3.573   2.267
 6813SOL    HW221339   5.323   3.488   2.248
 6814SOL     OW21340   4.346   1.496   6.435
 6814SOL    HW121341   4.314   1.559   6.505
 6814SOL    HW221342   4.437   1.462   6.458
 6815SOL     OW21343   1.537   5.173   6.607
 6815SOL    HW121344   1.588   5.245   6.562
 6815SOL    HW221345   1.498   5.112   6.538
 6816SOL     OW21346   6.727   1.755   4.428
 6816SOL    HW121347   6.643   1.701   4.421
 6816SOL    HW221348   6.746   1.774   4.525
 6817SOL     OW21349   2.347   2.752   4.083
 6817SOL    HW121350   2.374   2.771   4.178
 6817SOL    HW221351   2.281   2.676   4.082
 6818SOL     OW21352   1.978   6.020   5.992
 6818SOL    HW121353   1.895   5.994   5.944
 6818SOL    HW221354   2.027   5.937   6.020
 6819SOL     OW21355   4.720   6.174   2.823
 6819SOL    HW121356   4.649   6.206   2.886
 6819SOL    HW221357   4.678   6.150   2.735
 6820SOL     OW21358   1.621   6.253   1.501
 6820SOL    HW121359   1.574   6.312   1.435
 6820SOL    HW221360   1.705   6.218   1.461
 6821SOL     OW21361   4.681   2.594   5.575
 6821SOL    HW121362   4.716   2.576   5.483
 6821SOL    HW221363   4.732   2.669   5.616
 6822SOL     OW21364   0.061   2.566   6.435
 6822SOL    HW121365   0.022   2.605   6.352
 6822SOL    HW221366   0.143   2.618   6.460
 6823SOL     OW21367   5.549   3.990   6.450
 6823SOL    HW121368   5.622   4.008   6.516
 6823SOL    HW221369   5.495   3.912   6.482
 6824SOL     OW21370   1.336   1.659   0.045
 6824SOL    HW121371   1.245   1.688   0.015
 6824SOL    HW221372   1.378   1.733   0.098
 6825SOL     OW21373   6.745   6.156   0.742
 6825SOL    HW121374   6.817   6.093   0.772
 6825SOL    HW221375   6.774   6.200   0.657
 6826SOL     OW21376   0.696   3.201   3.404
 6826SOL    HW121377   0.629   3.168   3.472
 6826SOL    HW221378   0.654   3.200   3.313
 6827SOL     OW21379   4.927   4.994   5.502
 6827SOL    HW121380   5.008   5.047   5.478
 6827SOL    HW221381   4.944   4.944   5.586
 6828SOL     OW21382   3.249   1.485   2.651
 6828SOL    HW121383   3.194   1.465   2.569
 6828SOL    HW221384   3.316   1.556   2.629
 6829SOL     OW21385   5.358   0.270   5.466
 6829SOL    HW121386   5.262   0.246   5.453
 6829SOL    HW221387   5.410   0.187   5.489
 6830SOL     OW21388   6.312   1.537   3.575
 6830SOL    HW121389   6.383   1.478   3.612
 6830SOL    HW221390   6.278   1.498   3.490
 6831SOL     OW21391   0.985   1.539   5.818
 6831SOL    HW121392   0.981   1.601   5.739
 6831SOL    HW221393   0.960   1.447   5.789
 6832SOL     OW21394   2.732   2.993   0.057
 6832SOL    HW121395   2.690   2.948   7.002
 6832SOL    HW221396   2.809   3.050   0.026
 6833SOL     OW21397   3.494   5.563   6.175
 6833SOL    HW121398   3.548   5.550   6.092
 6833SOL    HW221399   3.509   5.654   6.211
 6834SOL     OW21400   5.096   0.050   0.616
 6834SOL    HW121401   5.193   0.073   0.611
 6834SOL    HW221402   5.052   0.109   0.684
 6835SOL     OW21403   3.764   1.610   5.181
 6835SOL    HW121404   3.764   1.511   5.196
 6835SOL    HW221405   3.670   1.641   5.166
 6836SOL     OW21406   1.781   4.362   6.614
 6836SOL    HW121407   1.773   4.456   6.647
 6836SOL    HW221408   1.820   4.363   6.521
 6837SOL     OW21409   1.393   1.315   2.680
 6837SOL    HW121410   1.332   1.244   2.643
 6837SOL    HW221411   1.361   1.405   2.650
 6838SOL     OW21412   2.973   4.323   5.331
 6838SOL    HW121413   3.060   4.357   5.366
 6838SOL    HW221414   2.932   4.391   5.270
 6839SOL     OW21415   5.492   2.018   3.499
 6839SOL    HW121416   5.558   1.944   3.510
 6839SOL    HW221417   5.503   2.083   3.575
 6840SOL     OW21418   2.428   6.569   4.873
 6840SOL    HW121419   2.375   6.560   4.957
 6840SOL    HW221420   2.483   6.487   4.859
 6841SOL     OW21421   4.348   4.993   1.676
 6841SOL    HW121422   4.384   5.085   1.691
 6841SOL    HW221423   4.416   4.938   1.627
 6842SOL     OW21424   1.116   2.354   6.465
 6842SOL    HW121425   1.204   2.337   6.421
 6842SOL    HW221426   1.055   2.401   6.401
 6843SOL     OW21427   4.518   0.927   1.702
 6843SOL    HW121428   4.455   0.853   1.680
 6843SOL    HW221429   4.485   1.013   1.663
 6844SOL     OW21430   5.382   5.815   3.992
 6844SOL    HW121431   5.451   5.745   3.976
 6844SOL    HW221432   5.394   5.855   4.083
 6845SOL     OW21433   4.755   3.781   1.866
 6845SOL    HW121434   4.716   3.864   1.826
 6845SOL    HW221435   4.746   3.705   1.802
 6846SOL     OW21436   3.859   3.327   0.858
 6846SOL    HW121437   3.825   3.234   0.871
 6846SOL    HW221438   3.848   3.354   0.762
 6847SOL     OW21439   5.305   3.877   2.386
 6847SOL    HW121440   5.240   3.953   2.388
 6847SOL    HW221441   5.396   3.911   2.362
 6848SOL     OW21442   1.729   5.177   3.831
 6848SOL    HW121443   1.783   5.221   3.759
 6848SOL    HW221444   1.752   5.216   3.919
 6849SOL     OW21445   3.222   5.890   4.468
 6849SOL    HW121446   3.305   5.845   4.435
 6849SOL    HW221447   3.186   5.839   4.546
 6850SOL     OW21448   5.789   2.643   2.931
 6850SOL    HW121449   5.763   2.740   2.934
 6850SOL    HW221450   5.867   2.628   2.992
 6851SOL     OW21451   1.726   4.866   4.719
 6851SOL    HW121452   1.788   4.790   4.701
 6851SOL    HW221453   1.681   4.893   4.634
 6852SOL     OW21454   1.184   4.369   0.903
 6852SOL    HW121455   1.252   4.440   0.884
 6852SOL    HW221456   1.092   4.409   0.900
 6853SOL     OW21457   6.657   4.361   6.813
 6853SOL    HW121458   6.587   4.415   6.766
 6853SOL    HW221459   6.614   4.289   6.867
 6854SOL     OW21460   5.843   0.899   6.032
 6854SOL    HW121461   5.923   0.937   6.078
 6854SOL    HW221462   5.791   0.972   5.989
 6855SOL     OW21463   3.371   6.656   3.164
 6855SOL    HW121464   3.357   6.626   3.259
 6855SOL    HW221465   3.452   6.612   3.127
 6856SOL     OW21466   5.200   4.850   5.445
 6856SOL    HW121467   5.217   4.837   5.348
 6856SOL    HW221468   5.207   4.947   5.468
 6857SOL     OW21469   3.419   1.040   6.499
 6857SOL    HW121470   3.348   1.015   6.565
 6857SOL    HW221471   3.491   1.092   6.545
 6858SOL     OW21472   3.967   3.197   4.848
 6858SOL    HW121473   3.989   3.169   4.941
 6858SOL    HW221474   3.920   3.122   4.801
 6859SOL     OW21475   1.615   6.345   0.775
 6859SOL    HW121476   1.523   6.316   0.747
 6859SOL    HW221477   1.612   6.441   0.802
 6860SOL     OW21478   5.994   5.100   2.113
 6860SOL    HW121479   5.906   5.052   2.112
 6860SOL    HW221480   6.048   5.072   2.034
 6861SOL     OW21481   5.670   4.169   1.164
 6861SOL    HW121482   5.646   4.072   1.174
 6861SOL    HW221483   5.590   4.220   1.133
 6862SOL     OW21484   2.498   4.669   4.521
 6862SOL    HW121485   2.486   4.571   4.500
 6862SOL    HW221486   2.561   4.679   4.599
 6863SOL     OW21487   5.525   1.460   5.182
 6863SOL    HW121488   5.612   1.480   5.138
 6863SOL    HW221489   5.503   1.363   5.171
 6864SOL     OW21490   3.431   5.944   4.034
 6864SOL    HW121491   3.369   6.002   3.983
 6864SOL    HW221492   3.454   5.988   4.121
 6865SOL     OW21493   6.184   4.943   3.429
 6865SOL    HW121494   6.279   4.944   3.458
 6865SOL    HW221495   6.141   5.030   3.453
 6866SOL     OW21496   6.043   4.443   1.866
 6866SOL    HW121497   6.072   4.413   1.775
 6866SOL    HW221498   5.964   4.503   1.858
 6867SOL     OW21499   1.119   4.654   1.297
 6867SOL    HW121500   1.170   4.650   1.211
 6867SOL    HW221501   1.028   4.613   1.285
 6868SOL     OW21502   1.733   5.614   5.208
 6868SOL    HW121503   1.807   5.576   5.263
 6868SOL    HW221504   1.677   5.539   5.172
 6869SOL     OW21505   5.785   2.704   5.479
 6869SOL    HW121506   5.799   2.611   5.444
 6869SOL    HW221507   5.757   2.764   5.403
 6870SOL     OW21508   6.245   3.938   2.755
 6870SOL    HW121509   6.157   3.890   2.767
 6870SOL    HW221510   6.298   3.930   2.839
 6871SOL     OW21511   6.418   4.861   1.966
 6871SOL    HW121512   6.489   4.802   1.928
 6871SOL    HW221513   6.344   4.870   1.899
 6872SOL     OW21514   2.211   3.347   1.121
 6872SOL    HW121515   2.184   3.341   1.025
 6872SOL    HW221516   2.215   3.444   1.148
 6873SOL     OW21517   5.682   3.323   5.636
 6873SOL    HW121518   5.660   3.274   5.721
 6873SOL    HW221519   5.671   3.261   5.558
 6874SOL     OW21520   0.682   4.246   3.448
 6874SOL    HW121521   0.652   4.187   3.373
 6874SOL    HW221522   0.777   4.222   3.472
 6875SOL     OW21523   1.874   2.221   3.691
 6875SOL    HW121524   1.814   2.210   3.770
 6875SOL    HW221525   1.864   2.143   3.630
 6876SOL     OW21526   3.872   5.139   6.726
 6876SOL    HW121527   3.845   5.044   6.709
 6876SOL    HW221528   3.900   5.148   6.822
 6877SOL     OW21529   2.418   4.031   0.009
 6877SOL    HW121530   2.353   4.035   0.086
 6877SOL    HW221531   2.428   3.936   7.002
 6878SOL     OW21532   2.338   1.969   5.282
 6878SOL    HW121533   2.398   2.015   5.347
 6878SOL    HW221534   2.243   1.996   5.299
 6879SOL     OW21535   1.227   1.865   0.183
 6879SOL    HW121536   1.138   1.852   0.224
 6879SOL    HW221537   1.261   1.957   0.205
 6880SOL     OW21538   2.262   3.439   5.202
 6880SOL    HW121539   2.233   3.428   5.108
 6880SOL    HW221540   2.187   3.418   5.264
 6881SOL     OW21541   6.511   4.581   2.240
 6881SOL    HW121542   6.507   4.481   2.246
 6881SOL    HW221543   6.425   4.615   2.202
 6882SOL     OW21544   2.066   0.282   5.922
 6882SOL    HW121545   2.073   0.348   5.997
 6882SOL    HW221546   2.157   0.252   5.896
 6883SOL     OW21547   3.453   1.052   0.944
 6883SOL    HW121548   3.410   1.102   0.869
 6883SOL    HW221549   3.548   1.079   0.952
 6884SOL     OW21550   1.991   3.953   4.372
 6884SOL    HW121551   2.000   4.050   4.391
 6884SOL    HW221552   1.899   3.934   4.337
 6885SOL     OW21553   3.143   5.438   3.905
 6885SOL    HW121554   3.204   5.478   3.837
 6885SOL    HW221555   3.184   5.445   3.995
 6886SOL     OW21556   6.883   1.151   2.563
 6886SOL    HW121557   6.975   1.130   2.596
 6886SOL    HW221558   6.888   1.180   2.468
 6887SOL     OW21559   5.137   6.901   5.432
 6887SOL    HW121560   5.125   6.836   5.357
 6887SOL    HW221561   5.085   6.871   5.512
 6888SOL     OW21562   5.691   6.469   6.232
 6888SOL    HW121563   5.741   6.554   6.241
 6888SOL    HW221564   5.639   6.451   6.316
 6889SOL     OW21565   0.851   2.789   5.574
 6889SOL    HW121566   0.755   2.803   5.548
 6889SOL    HW221567   0.868   2.830   5.664
 6890SOL     OW21568   2.523   6.095   0.755
 6890SOL    HW121569   2.451   6.053   0.699
 6890SOL    HW221570   2.495   6.092   0.851
 6891SOL     OW21571   2.176   3.962   4.760
 6891SOL    HW121572   2.114   3.919   4.825
 6891SOL    HW221573   2.244   4.016   4.809
 6892SOL     OW21574   3.596   0.708   3.992
 6892SOL    HW121575   3.680   0.716   3.939
 6892SOL    HW221576   3.528   0.656   3.940
 6893SOL     OW21577   5.925   6.384   1.230
 6893SOL    HW121578   5.865   6.443   1.282
 6893SOL    HW221579   5.969   6.436   1.156
 6894SOL     OW21580   6.312   5.698   0.022
 6894SOL    HW121581   6.336   5.669   0.115
 6894SOL    HW221582   6.394   5.733   6.999
 6895SOL     OW21583   2.769   5.337   0.065
 6895SOL    HW121584   2.786   5.252   0.115
 6895SOL    HW221585   2.675   5.336   0.029
 6896SOL     OW21586   3.281   0.035   4.140
 6896SOL    HW121587   3.297   6.971   4.186
 6896SOL    HW221588   3.367   0.068   4.101
 6897SOL     OW21589   2.705   3.874   0.007
 6897SOL    HW121590   2.650   3.837   6.955
 6897SOL    HW221591   2.659   3.954   0.046
 6898SOL     OW21592   3.504   2.093   1.797
 6898SOL    HW121593   3.553   2.180   1.809
 6898SOL    HW221594   3.560   2.019   1.833
 6899SOL     OW21595   4.754   6.922   0.012
 6899SOL    HW121596   4.679   6.859   0.032
 6899SOL    HW221597   4.840   6.884   0.047
 6900SOL     OW21598   6.106   0.584   6.235
 6900SOL    HW121599   6.124   0.645   6.313
 6900SOL    HW221600   6.087   0.492   6.269
 6901SOL     OW21601   0.655   0.208   6.285
 6901SOL    HW121602   0.606   0.150   6.220
 6901SOL    HW221603   0.714   0.271   6.236
 6902SOL     OW21604   0.313   5.824   0.500
 6902SOL    HW121605   0.398   5.788   0.539
 6902SOL    HW221606   0.259   5.868   0.572
 6903SOL     OW21607   3.567   4.079   6.175
 6903SOL    HW121608   3.568   4.129   6.088
 6903SOL    HW221609   3.591   3.984   6.158
 6904SOL     OW21610   0.030   1.586   3.815
 6904SOL    HW121611   7.003   1.639   3.884
 6904SOL    HW221612   0.003   1.617   3.724
 6905SOL     OW21613   6.665   6.593   6.797
 6905SOL    HW121614   6.699   6.501   6.820
 6905SOL    HW221615   6.577   6.607   6.842
 6906SOL     OW21616   4.353   1.215   4.011
 6906SOL    HW121617   4.307   1.126   4.007
 6906SOL    HW221618   4.320   1.266   4.090
 6907SOL     OW21619   4.494   1.294   1.146
 6907SOL    HW121620   4.530   1.301   1.052
 6907SOL    HW221621   4.417   1.357   1.156
 6908SOL     OW21622   1.323   0.166   5.509
 6908SOL    HW121623   1.268   0.233   5.460
 6908SOL    HW221624   1.265   0.092   5.542
 6909SOL     OW21625   5.269   4.618   1.203
 6909SOL    HW121626   5.326   4.683   1.252
 6909SOL    HW221627   5.283   4.628   1.105
 6910SOL     OW21628   6.446   2.480   2.841
 6910SOL    HW121629   6.347   2.471   2.851
 6910SOL    HW221630   6.478   2.420   2.768
 6911SOL     OW21631   4.030   0.174   3.144
 6911SOL    HW121632   4.033   0.199   3.047
 6911SOL    HW221633   3.962   0.102   3.157
 6912SOL     OW21634   4.814   4.939   1.785
 6912SOL    HW121635   4.813   4.965   1.882
 6912SOL    HW221636   4.787   4.843   1.776
 6913SOL     OW21637   5.225   4.722   5.020
 6913SOL    HW121638   5.240   4.813   4.981
 6913SOL    HW221639   5.135   4.719   5.064
 6914SOL     OW21640   6.346   4.895   6.968
 6914SOL    HW121641   6.400   4.939   6.897
 6914SOL    HW221642   6.399   4.821   7.009
 6915SOL     OW21643   6.942   4.633   1.736
 6915SOL    HW121644   7.013   4.640   1.665
 6915SOL    HW221645   6.979   4.584   1.815
 6916SOL     OW21646   6.291   3.866   0.007
 6916SOL    HW121647   6.310   3.777   0.049
 6916SOL    HW221648   6.364   3.889   6.965
 6917SOL     OW21649   3.299   5.403   0.267
 6917SOL    HW121650   3.320   5.388   0.364
 6917SOL    HW221651   3.368   5.358   0.211
 6918SOL     OW21652   1.052   4.306   4.224
 6918SOL    HW121653   1.129   4.251   4.192
 6918SOL    HW221654   1.049   4.303   4.324
 6919SOL     OW21655   0.495   5.736   2.902
 6919SOL    HW121656   0.592   5.734   2.877
 6919SOL    HW221657   0.486   5.755   2.999
 6920SOL     OW21658   4.260   5.368   5.612
 6920SOL    HW121659   4.235   5.376   5.516
 6920SOL    HW221660   4.342   5.423   5.630
 6921SOL     OW21661   5.133   5.824   3.325
 6921SOL    HW121662   5.112   5.920   3.341
 6921SOL    HW221663   5.225   5.815   3.289
 6922SOL     OW21664   1.615   5.885   6.660
 6922SOL    HW121665   1.530   5.840   6.635
 6922SOL    HW221666   1.667   5.907   6.577
 6923SOL     OW21667   5.482   6.894   3.464
 6923SOL    HW121668   5.557   6.879   3.528
 6923SOL    HW221669   5.420   6.815   3.465
 6924SOL     OW21670   0.654   4.139   6.526
 6924SOL    HW121671   0.747   4.104   6.538
 6924SOL    HW221672   0.602   4.124   6.610
 6925SOL     OW21673   3.728   6.121   4.018
 6925SOL    HW121674   3.735   6.081   4.110
 6925SOL    HW221675   3.638   6.101   3.980
 6926SOL     OW21676   3.380   3.175   2.267
 6926SOL    HW121677   3.406   3.116   2.191
 6926SOL    HW221678   3.391   3.126   2.353
 6927SOL     OW21679   6.169   3.430   5.982
 6927SOL    HW121680   6.193   3.346   6.031
 6927SOL    HW221681   6.249   3.491   5.978
 6928SOL     OW21682   6.263   6.727   1.087
 6928SOL    HW121683   6.224   6.740   0.996
 6928SOL    HW221684   6.248   6.809   1.142
 6929SOL     OW21685   5.011   5.593   0.938
 6929SOL    HW121686   4.954   5.669   0.905
 6929SOL    HW221687   4.974   5.507   0.904
 6930SOL     OW21688   0.371   0.001   1.734
 6930SOL    HW121689   0.291   0.010   1.793
 6930SOL    HW221690   0.426   0.085   1.740
 6931SOL     OW21691   0.657   0.621   2.083
 6931SOL    HW121692   0.667   0.709   2.036
 6931SOL    HW221693   0.689   0.630   2.177
 6932SOL     OW21694   4.085   1.465   0.766
 6932SOL    HW121695   4.155   1.397   0.746
 6932SOL    HW221696   4.080   1.530   0.690
 6933SOL     OW21697   3.489   6.528   5.284
 6933SOL    HW121698   3.553   6.597   5.248
 6933SOL    HW221699   3.416   6.513   5.218
 6934SOL     OW21700   4.579   4.270   6.041
 6934SOL    HW121701   4.576   4.294   5.944
 6934SOL    HW221702   4.586   4.171   6.051
 6935SOL     OW21703   4.336   6.176   3.351
 6935SOL    HW121704   4.411   6.231   3.315
 6935SOL    HW221705   4.328   6.190   3.449
 6936SOL     OW21706   6.491   2.290   2.551
 6936SOL    HW121707   6.433   2.261   2.627
 6936SOL    HW221708   6.517   2.210   2.497
 6937SOL     OW21709   6.390   6.612   6.879
 6937SOL    HW121710   6.428   6.533   6.926
 6937SOL    HW221711   6.290   6.610   6.885
 6938SOL     OW21712   5.224   4.031   5.364
 6938SOL    HW121713   5.275   4.011   5.447
 6938SOL    HW221714   5.274   3.996   5.284
 6939SOL     OW21715   6.786   4.635   2.355
 6939SOL    HW121716   6.693   4.600   2.350
 6939SOL    HW221717   6.810   4.679   2.268
 6940SOL     OW21718   5.054   1.423   0.267
 6940SOL    HW121719   5.089   1.330   0.253
 6940SOL    HW221720   5.043   1.440   0.365
 6941SOL     OW21721   3.899   2.963   2.868
 6941SOL    HW121722   3.846   2.989   2.787
 6941SOL    HW221723   3.839   2.917   2.933
 6942SOL     OW21724   6.496   3.002   0.755
 6942SOL    HW121725   6.513   2.904   0.761
 6942SOL    HW221726   6.414   3.025   0.807
 6943SOL     OW21727   4.811   6.182   6.936
 6943SOL    HW121728   4.824   6.264   6.882
 6943SOL    HW221729   4.793   6.207   0.008
 6944SOL     OW21730   1.381   4.530   5.596
 6944SOL    HW121731   1.302   4.476   5.624
 6944SOL    HW221732   1.462   4.499   5.645
 6945SOL     OW21733   5.833   2.950   6.650
 6945SOL    HW121734   5.856   2.923   6.557
 6945SOL    HW221735   5.917   2.964   6.703
 6946SOL     OW21736   6.037   5.962   2.274
 6946SOL    HW121737   6.003   5.952   2.367
 6946SOL    HW221738   5.965   5.939   2.209
 6947SOL     OW21739   3.386   7.012   5.063
 6947SOL    HW121740   3.448   0.020   5.135
 6947SOL    HW221741   3.433   7.010   4.975
 6948SOL     OW21742   6.070   0.426   0.317
 6948SOL    HW121743   6.029   0.433   0.226
 6948SOL    HW221744   5.997   0.421   0.385
 6949SOL     OW21745   5.648   6.882   4.068
 6949SOL    HW121746   5.620   6.937   4.147
 6949SOL    HW221747   5.581   6.893   3.995
 6950SOL     OW21748   2.666   0.076   2.988
 6950SOL    HW121749   2.651   0.174   2.994
 6950SOL    HW221750   2.610   0.030   3.058
 6951SOL     OW21751   5.485   5.881   5.875
 6951SOL    HW121752   5.580   5.898   5.902
 6951SOL    HW221753   5.484   5.822   5.794
 6952SOL     OW21754   6.847   6.250   3.657
 6952SOL    HW121755   6.833   6.203   3.570
 6952SOL    HW221756   6.938   6.291   3.660
 6953SOL     OW21757   5.214   6.776   6.900
 6953SOL    HW121758   5.222   6.786   6.801
 6953SOL    HW221759   5.223   6.866   6.943
 6954SOL     OW21760   0.832   3.640   4.174
 6954SOL    HW121761   0.905   3.651   4.106
 6954SOL    HW221762   0.829   3.721   4.232
 6955SOL     OW21763   6.660   0.064   2.255
 6955SOL    HW121764   6.568   0.053   2.216
 6955SOL    HW221765   6.720   0.107   2.187
 6956SOL     OW21766   4.283   6.361   2.757
 6956SOL    HW121767   4.352   6.316   2.815
 6956SOL    HW221768   4.235   6.292   2.703
 6957SOL     OW21769   6.272   4.873   1.685
 6957SOL    HW121770   6.191   4.868   1.627
 6957SOL    HW221771   6.328   4.951   1.657
 6958SOL     OW21772   3.149   3.819   5.467
 6958SOL    HW121773   3.160   3.731   5.513
 6958SOL    HW221774   3.149   3.805   5.368
 6959SOL     OW21775   2.431   0.900   4.819
 6959SOL    HW121776   2.475   0.858   4.740
 6959SOL    HW221777   2.363   0.966   4.789
 6960SOL     OW21778   0.912   4.987   0.559
 6960SOL    HW121779   0.970   4.907   0.571
 6960SOL    HW221780   0.823   4.972   0.601
 6961SOL     OW21781   0.044   2.791   4.408
 6961SOL    HW121782   0.060   2.869   4.348
 6961SOL    HW221783   0.064   2.706   4.360
 6962SOL     OW21784   5.118   5.312   2.469
 6962SOL    HW121785   5.046   5.376   2.444
 6962SOL    HW221786   5.103   5.280   2.563
 6963SOL     OW21787   0.104   5.581   0.636
 6963SOL    HW121788   0.143   5.518   0.704
 6963SOL    HW221789   0.004   5.575   0.638
 6964SOL     OW21790   4.914   4.767   4.132
 6964SOL    HW121791   4.996   4.710   4.140
 6964SOL    HW221792   4.920   4.824   4.050
 6965SOL     OW21793   0.897   3.907   5.752
 6965SOL    HW121794   0.887   3.939   5.658
 6965SOL    HW221795   0.862   3.813   5.758
 6966SOL     OW21796   6.238   2.515   3.068
 6966SOL    HW121797   6.257   2.613   3.057
 6966SOL    HW221798   6.324   2.466   3.079
 6967SOL     OW21799   1.785   1.525   5.359
 6967SOL    HW121800   1.721   1.505   5.434
 6967SOL    HW221801   1.879   1.513   5.391
 6968SOL     OW21802   3.514   6.839   2.758
 6968SOL    HW121803   3.514   6.848   2.858
 6968SOL    HW221804   3.476   6.750   2.733
 6969SOL     OW21805   3.356   2.235   1.455
 6969SOL    HW121806   3.285   2.165   1.448
 6969SOL    HW221807   3.408   2.237   1.370
 6970SOL     OW21808   4.604   3.635   0.184
 6970SOL    HW121809   4.570   3.542   0.170
 6970SOL    HW221810   4.604   3.656   0.281
 6971SOL     OW21811   6.389   4.071   2.261
 6971SOL    HW121812   6.341   4.015   2.329
 6971SOL    HW221813   6.404   4.018   2.178
 6972SOL     OW21814   5.606   5.144   4.237
 6972SOL    HW121815   5.649   5.097   4.315
 6972SOL    HW221816   5.507   5.147   4.251
 6973SOL     OW21817   0.919   3.877   5.186
 6973SOL    HW121818   0.984   3.853   5.114
 6973SOL    HW221819   0.831   3.902   5.144
 6974SOL     OW21820   3.075   3.020   2.973
 6974SOL    HW121821   3.018   2.939   2.986
 6974SOL    HW221822   3.035   3.078   2.902
 6975SOL     OW21823   2.984   7.014   6.271
 6975SOL    HW121824   2.899   6.999   6.221
 6975SOL    HW221825   2.992   6.946   6.344
 6976SOL     OW21826   3.978   4.653   6.132
 6976SOL    HW121827   3.949   4.557   6.141
 6976SOL    HW221828   3.923   4.698   6.062
 6977SOL     OW21829   5.168   2.190   1.585
 6977SOL    HW121830   5.228   2.241   1.647
 6977SOL    HW221831   5.077   2.230   1.587
 6978SOL     OW21832   6.354   2.240   1.146
 6978SOL    HW121833   6.367   2.308   1.218
 6978SOL    HW221834   6.299   2.164   1.181
 6979SOL     OW21835   1.243   5.082   0.811
 6979SOL    HW121836   1.174   5.063   0.881
 6979SOL    HW221837   1.305   5.154   0.844
 6980SOL     OW21838   1.983   0.665   3.706
 6980SOL    HW121839   1.985   0.581   3.652
 6980SOL    HW221840   1.925   0.650   3.787
 6981SOL     OW21841   2.362   2.835   6.687
 6981SOL    HW121842   2.378   2.798   6.778
 6981SOL    HW221843   2.329   2.929   6.694
 6982SOL     OW21844   0.961   1.511   4.287
 6982SOL    HW121845   0.883   1.468   4.241
 6982SOL    HW221846   1.023   1.440   4.319
 6983SOL     OW21847   5.676   2.399   3.414
 6983SOL    HW121848   5.601   2.398   3.348
 6983SOL    HW221849   5.715   2.491   3.419
 6984SOL     OW21850   1.971   2.521   4.600
 6984SOL    HW121851   1.910   2.513   4.521
 6984SOL    HW221852   2.020   2.435   4.614
 6985SOL     OW21853   3.866   5.318   1.888
 6985SOL    HW121854   3.912   5.231   1.909
 6985SOL    HW221855   3.800   5.339   1.961
 6986SOL     OW21856   1.661   6.227   6.511
 6986SOL    HW121857   1.723   6.166   6.559
 6986SOL    HW221858   1.712   6.305   6.474
 6987SOL     OW21859   1.318   1.792   6.050
 6987SOL    HW121860   1.287   1.867   6.108
 6987SOL    HW221861   1.280   1.803   5.957
 6988SOL     OW21862   6.228   1.040   5.208
 6988SOL    HW121863   6.180   1.126   5.193
 6988SOL    HW221864   6.170   0.977   5.259
 6989SOL     OW21865   0.195   3.670   3.761
 6989SOL    HW121866   0.236   3.657   3.671
 6989SOL    HW221867   0.250   3.624   3.831
 6990SOL     OW21868   5.543   2.049   0.312
 6990SOL    HW121869   5.484   2.071   0.390
 6990SOL    HW221870   5.565   2.133   0.262
 6991SOL     OW21871   2.415   4.368   3.797
 6991SOL    HW121872   2.444   4.331   3.885
 6991SOL    HW221873   2.429   4.467   3.796
 6992SOL     OW21874   6.039   6.276   4.724
 6992SOL    HW121875   6.022   6.264   4.822
 6992SOL    HW221876   6.019   6.370   4.698
 6993SOL     OW21877   6.775   0.550   2.304
 6993SOL    HW121878   6.769   0.646   2.333
 6993SOL    HW221879   6.686   0.506   2.318
 6994SOL     OW21880   0.715   2.917   4.762
 6994SOL    HW121881   0.641   2.949   4.821
 6994SOL    HW221882   0.803   2.942   4.802
 6995SOL     OW21883   6.242   5.479   5.562
 6995SOL    HW121884   6.148   5.490   5.595
 6995SOL    HW221885   6.246   5.403   5.497
 6996SOL     OW21886   2.110   0.901   4.916
 6996SOL    HW121887   2.179   0.956   4.962
 6996SOL    HW221888   2.123   0.805   4.940
 6997SOL     OW21889   5.805   5.961   5.218
 6997SOL    HW121890   5.822   5.989   5.313
 6997SOL    HW221891   5.882   5.908   5.184
 6998SOL     OW21892   1.834   2.263   2.149
 6998SOL    HW121893   1.917   2.244   2.097
 6998SOL    HW221894   1.858   2.285   2.244
 6999SOL     OW21895   2.097   2.137   6.814
 6999SOL    HW121896   2.171   2.199   6.790
 6999SOL    HW221897   2.128   2.042   6.805
 7000SOL     OW21898   6.735   5.622   2.941
 7000SOL    HW121899   6.761   5.693   3.006
 7000SOL    HW221900   6.752   5.655   2.848
 7001SOL     OW21901   2.562   2.899   5.414
 7001SOL    HW121902   2.555   2.945   5.325
 7001SOL    HW221903   2.585   2.965   5.484
 7002SOL     OW21904   2.054   4.882   2.660
 7002SOL    HW121905   2.110   4.855   2.739
 7002SOL    HW221906   1.967   4.834   2.664
 7003SOL     OW21907   3.662   6.136   0.305
 7003SOL    HW121908   3.635   6.228   0.276
 7003SOL    HW221909   3.691   6.138   0.400
 7004SOL     OW21910   2.063   5.120   1.821
 7004SOL    HW121911   2.026   5.053   1.757
 7004SOL    HW221912   2.046   5.090   1.915
 7005SOL     OW21913   0.512   6.133   6.120
 7005SOL    HW121914   0.609   6.120   6.098
 7005SOL    HW221915   0.502   6.155   6.217
 7006SOL     OW21916   5.294   4.961   4.937
 7006SOL    HW121917   5.389   4.991   4.931
 7006SOL    HW221918   5.233   5.037   4.917
 7007SOL     OW21919   4.938   6.954   3.307
 7007SOL    HW121920   5.035   6.955   3.282
 7007SOL    HW221921   4.910   6.860   3.326
 7008SOL     OW21922   1.874   5.545   4.293
 7008SOL    HW121923   1.924   5.459   4.284
 7008SOL    HW221924   1.937   5.622   4.282
 7009SOL     OW21925   5.669   5.667   2.594
 7009SOL    HW121926   5.752   5.712   2.560
 7009SOL    HW221927   5.665   5.573   2.558
 7010SOL     OW21928   4.558   3.724   5.828
 7010SOL    HW121929   4.481   3.685   5.878
 7010SOL    HW221930   4.530   3.742   5.733
 7011SOL     OW21931   2.013   0.845   6.673
 7011SOL    HW121932   2.014   0.876   6.768
 7011SOL    HW221933   2.105   0.819   6.645
 7012SOL     OW21934   2.107   0.754   2.552
 7012SOL    HW121935   2.166   0.797   2.484
 7012SOL    HW221936   2.124   0.656   2.556
 7013SOL     OW21937   0.276   6.535   0.962
 7013SOL    HW121938   0.216   6.463   0.927
 7013SOL    HW221939   0.359   6.539   0.906
 7014SOL     OW21940   5.179   2.864   1.426
 7014SOL    HW121941   5.084   2.871   1.393
 7014SOL    HW221942   5.196   2.770   1.456
 7015SOL     OW21943   5.778   4.869   2.376
 7015SOL    HW121944   5.731   4.786   2.347
 7015SOL    HW221945   5.868   4.845   2.412
 7016SOL     OW21946   3.840   4.982   2.191
 7016SOL    HW121947   3.901   4.955   2.266
 7016SOL    HW221948   3.846   4.915   2.117
 7017SOL     OW21949   1.905   6.910   2.326
 7017SOL    HW121950   1.913   6.918   2.227
 7017SOL    HW221951   1.827   6.963   2.358
 7018SOL     OW21952   6.389   4.359   5.054
 7018SOL    HW121953   6.394   4.459   5.056
 7018SOL    HW221954   6.357   4.325   5.142
 7019SOL     OW21955   3.249   4.515   6.984
 7019SOL    HW121956   3.229   4.509   6.886
 7019SOL    HW221957   3.251   4.611   7.012
 7020SOL     OW21958   6.305   6.903   6.442
 7020SOL    HW121959   6.326   6.861   6.530
 7020SOL    HW221960   6.389   6.915   6.390
 7021SOL     OW21961   2.144   1.210   5.412
 7021SOL    HW121962   2.138   1.274   5.335
 7021SOL    HW221963   2.205   1.248   5.481
 7022SOL     OW21964   4.651   5.139   1.081
 7022SOL    HW121965   4.713   5.190   1.141
 7022SOL    HW221966   4.587   5.086   1.137
 7023SOL     OW21967   0.623   2.291   3.853
 7023SOL    HW121968   0.714   2.318   3.885
 7023SOL    HW221969   0.554   2.327   3.916
 7024SOL     OW21970   1.610   5.076   6.054
 7024SOL    HW121971   1.521   5.030   6.044
 7024SOL    HW221972   1.671   5.046   5.981
 7025SOL     OW21973   2.832   1.144   0.107
 7025SOL    HW121974   2.853   1.218   0.043
 7025SOL    HW221975   2.798   1.182   0.193
 7026SOL     OW21976   2.906   1.470   2.260
 7026SOL    HW121977   2.948   1.559   2.243
 7026SOL    HW221978   2.814   1.469   2.221
 7027SOL     OW21979   2.895   4.833   2.679
 7027SOL    HW121980   2.858   4.804   2.767
 7027SOL    HW221981   2.830   4.812   2.607
 7028SOL     OW21982   6.241   7.014   4.312
 7028SOL    HW121983   6.282   0.065   4.365
 7028SOL    HW221984   6.259   0.006   4.215
 7029SOL     OW21985   4.070   6.695   6.710
 7029SOL    HW121986   4.061   6.653   6.800
 7029SOL    HW221987   4.020   6.640   6.643
 7030SOL     OW21988   6.594   2.222   5.663
 7030SOL    HW121989   6.583   2.155   5.589
 7030SOL    HW221990   6.607   2.174   5.749
 7031SOL     OW21991   2.080   5.971   4.357
 7031SOL    HW121992   2.173   5.938   4.374
 7031SOL    HW221993   2.080   6.027   4.274
 7032SOL     OW21994   3.584   6.409   3.750
 7032SOL    HW121995   3.565   6.329   3.692
 7032SOL    HW221996   3.503   6.430   3.805
 7033SOL     OW21997   0.107   2.004   3.827
 7033SOL    HW121998   0.067   1.991   3.737
 7033SOL    HW221999   0.035   2.028   3.892
 7034SOL     OW22000   6.388   0.606   2.667
 7034SOL    HW122001   6.307   0.566   2.710
 7034SOL    HW222002   6.450   0.532   2.639
 7035SOL     OW22003   1.320   6.815   1.917
 7035SOL    HW122004   1.241   6.860   1.877
 7035SOL    HW222005   1.302   6.791   2.012
 7036SOL     OW22006   6.938   0.595   1.759
 7036SOL    HW122007   6.957   0.573   1.664
 7036SOL    HW222008   0.000   0.601   1.810
 7037SOL     OW22009   1.359   0.754   6.250
 7037SOL    HW122010   1.318   0.666   6.222
 7037SOL    HW222011   1.320   0.782   6.337
 7038SOL     OW22012   1.687   3.390   3.952
 7038SOL    HW122013   1.670   3.316   4.017
 7038SOL    HW222014   1.694   3.477   4.002
 7039SOL     OW22015   2.897   5.565   1.085
 7039SOL    HW122016   2.855   5.559   1.176
 7039SOL    HW222017   2.938   5.477   1.061
 7040SOL     OW22018   5.603   1.680   5.355
 7040SOL    HW122019   5.544   1.753   5.389
 7040SOL    HW222020   5.547   1.603   5.326
 7041SOL     OW22021   0.259   2.019   3.077
 7041SOL    HW122022   0.354   2.051   3.075
 7041SOL    HW222023   0.230   1.997   2.984
 7042SOL     OW22024   5.598   5.148   6.754
 7042SOL    HW122025   5.501   5.128   6.741
 7042SOL    HW222026   5.612   5.187   6.845
 7043SOL     OW22027   2.254   2.932   3.450
 7043SOL    HW122028   2.297   2.865   3.511
 7043SOL    HW222029   2.261   2.900   3.356
 7044SOL     OW22030   5.016   4.724   2.495
 7044SOL    HW122031   4.925   4.759   2.477
 7044SOL    HW222032   5.010   4.642   2.552
 7045SOL     OW22033   5.047   5.642   2.344
 7045SOL    HW122034   5.112   5.718   2.335
 7045SOL    HW222035   5.061   5.579   2.268
 7046SOL     OW22036   3.568   2.006   3.361
 7046SOL    HW122037   3.648   2.045   3.407
 7046SOL    HW222038   3.486   2.057   3.387
 7047SOL     OW22039   0.749   2.415   2.689
 7047SOL    HW122040   0.698   2.370   2.763
 7047SOL    HW222041   0.842   2.434   2.719
 7048SOL     OW22042   0.181   5.341   1.823
 7048SOL    HW122043   0.097   5.392   1.802
 7048SOL    HW222044   0.163   5.243   1.811
 7049SOL     OW22045   2.169   1.782   1.250
 7049SOL    HW122046   2.086   1.831   1.277
 7049SOL    HW222047   2.148   1.685   1.238
 7050SOL     OW22048   3.998   3.878   3.007
 7050SOL    HW122049   3.919   3.888   3.067
 7050SOL    HW222050   4.020   3.966   2.965
 7051SOL     OW22051   0.157   1.070   0.803
 7051SOL    HW122052   0.141   1.023   0.717
 7051SOL    HW222053   0.138   1.008   0.879
 7052SOL     OW22054   5.923   2.922   3.962
 7052SOL    HW122055   5.974   2.837   3.975
 7052SOL    HW222056   5.868   2.915   3.879
 7053SOL     OW22057   0.804   3.348   4.719
 7053SOL    HW122058   0.835   3.441   4.741
 7053SOL    HW222059   0.766   3.306   4.801
 7054SOL     OW22060   1.132   5.852   1.277
 7054SOL    HW122061   1.186   5.876   1.196
 7054SOL    HW222062   1.078   5.931   1.305
 7055SOL     OW22063   3.604   6.158   5.548
 7055SOL    HW122064   3.680   6.216   5.521
 7055SOL    HW222065   3.555   6.200   5.625
 7056SOL     OW22066   5.945   5.962   2.529
 7056SOL    HW122067   5.848   5.984   2.522
 7056SOL    HW222068   5.994   6.039   2.570
 7057SOL     OW22069   1.222   5.675   3.536
 7057SOL    HW122070   1.223   5.576   3.554
 7057SOL    HW222071   1.315   5.709   3.529
 7058SOL     OW22072   6.265   5.885   6.536
 7058SOL    HW122073   6.202   5.812   6.508
 7058SOL    HW222074   6.287   5.874   6.633
 7059SOL     OW22075   0.238   0.963   3.127
 7059SOL    HW122076   0.223   1.049   3.177
 7059SOL    HW222077   0.205   0.887   3.183
 7060SOL     OW22078   3.769   0.053   1.719
 7060SOL    HW122079   3.773   6.996   1.660
 7060SOL    HW222080   3.716   0.125   1.674
 7061SOL     OW22081   0.249   3.010   3.756
 7061SOL    HW122082   0.232   2.959   3.671
 7061SOL    HW222083   0.298   2.951   3.820
 7062SOL     OW22084   5.480   1.245   5.909
 7062SOL    HW122085   5.514   1.336   5.933
 7062SOL    HW222086   5.401   1.254   5.848
 7063SOL     OW22087   0.404   0.202   0.666
 7063SOL    HW122088   0.435   0.297   0.668
 7063SOL    HW222089   0.352   0.182   0.749
 7064SOL     OW22090   4.112   1.976   2.029
 7064SOL    HW122091   4.026   2.006   1.987
 7064SOL    HW222092   4.175   1.944   1.958
 7065SOL     OW22093   4.251   3.377   6.928
 7065SOL    HW122094   4.346   3.398   6.905
 7065SOL    HW222095   4.234   3.279   6.913
 7066SOL     OW22096   4.290   0.577   0.752
 7066SOL    HW122097   4.226   0.575   0.675
 7066SOL    HW222098   4.286   0.667   0.796
 7067SOL     OW22099   1.849   1.797   5.282
 7067SOL    HW122100   1.809   1.707   5.302
 7067SOL    HW222101   1.794   1.869   5.324
 7068SOL     OW22102   0.778   4.392   4.116
 7068SOL    HW122103   0.815   4.485   4.120
 7068SOL    HW222104   0.847   4.327   4.148
 7069SOL     OW22105   6.003   2.525   4.273
 7069SOL    HW122106   5.919   2.469   4.275
 7069SOL    HW222107   6.016   2.568   4.362
 7070SOL     OW22108   7.017   6.639   5.009
 7070SOL    HW122109   0.005   6.556   5.063
 7070SOL    HW222110   0.021   6.621   4.915
 7071SOL     OW22111   1.482   6.163   6.112
 7071SOL    HW122112   1.455   6.131   6.203
 7071SOL    HW222113   1.449   6.256   6.098
 7072SOL     OW22114   0.280   6.242   6.058
 7072SOL    HW122115   0.301   6.315   6.123
 7072SOL    HW222116   0.357   6.180   6.052
 7073SOL     OW22117   5.674   6.447   4.546
 7073SOL    HW122118   5.575   6.462   4.551
 7073SOL    HW222119   5.707   6.479   4.457
 7074SOL     OW22120   4.130   2.521   1.205
 7074SOL    HW122121   4.193   2.548   1.133
 7074SOL    HW222122   4.123   2.421   1.208
 7075SOL     OW22123   1.007   5.545   5.531
 7075SOL    HW122124   0.933   5.598   5.574
 7075SOL    HW222125   0.990   5.538   5.433
 7076SOL     OW22126   4.483   2.097   6.743
 7076SOL    HW122127   4.392   2.132   6.720
 7076SOL    HW222128   4.546   2.174   6.754
 7077SOL     OW22129   2.251   4.292   4.862
 7077SOL    HW122130   2.329   4.354   4.866
 7077SOL    HW222131   2.266   4.215   4.925
 7078SOL     OW22132   6.548   0.528   1.158
 7078SOL    HW122133   6.530   0.479   1.243
 7078SOL    HW222134   6.464   0.575   1.129
 7079SOL     OW22135   6.391   6.840   5.500
 7079SOL    HW122136   6.295   6.815   5.509
 7079SOL    HW222137   6.446   6.757   5.491
 7080SOL     OW22138   3.157   2.151   4.651
 7080SOL    HW122139   3.164   2.194   4.561
 7080SOL    HW222140   3.066   2.113   4.663
 7081SOL     OW22141   2.950   1.499   6.764
 7081SOL    HW122142   3.035   1.550   6.773
 7081SOL    HW222143   2.928   1.487   6.667
 7082SOL     OW22144   6.487   4.566   6.663
 7082SOL    HW122145   6.389   4.550   6.677
 7082SOL    HW222146   6.502   4.660   6.635
 7083SOL     OW22147   3.160   1.115   0.186
 7083SOL    HW122148   3.171   1.018   0.162
 7083SOL    HW222149   3.074   1.127   0.236
 7084SOL     OW22150   0.045   6.618   5.640
 7084SOL    HW122151   0.130   6.568   5.658
 7084SOL    HW222152   0.010   6.594   5.550
 7085SOL     OW22153   1.911   1.594   2.397
 7085SOL    HW122154   1.918   1.498   2.369
 7085SOL    HW222155   2.003   1.635   2.397
 7086SOL     OW22156   4.820   1.000   5.648
 7086SOL    HW122157   4.759   0.941   5.701
 7086SOL    HW222158   4.789   1.002   5.553
 7087SOL     OW22159   5.822   4.438   4.103
 7087SOL    HW122160   5.774   4.501   4.163
 7087SOL    HW222161   5.841   4.483   4.015
 7088SOL     OW22162   5.362   2.392   3.646
 7088SOL    HW122163   5.359   2.331   3.566
 7088SOL    HW222164   5.307   2.473   3.626
 7089SOL     OW22165   3.722   2.314   5.328
 7089SOL    HW122166   3.820   2.325   5.343
 7089SOL    HW222167   3.678   2.404   5.325
 7090SOL     OW22168   2.346   1.610   6.442
 7090SOL    HW122169   2.274   1.554   6.401
 7090SOL    HW222170   2.358   1.584   6.538
 7091SOL     OW22171   0.275   1.859   0.020
 7091SOL    HW122172   0.196   1.915   7.020
 7091SOL    HW222173   0.264   1.767   7.005
 7092SOL     OW22174   4.324   2.757   6.474
 7092SOL    HW122175   4.302   2.854   6.460
 7092SOL    HW222176   4.295   2.705   6.394
 7093SOL     OW22177   2.903   3.664   3.367
 7093SOL    HW122178   2.828   3.725   3.341
 7093SOL    HW222179   2.902   3.583   3.309
 7094SOL     OW22180   0.841   5.161   5.569
 7094SOL    HW122181   0.918   5.164   5.505
 7094SOL    HW222182   0.763   5.117   5.524
 7095SOL     OW22183   3.538   3.936   6.698
 7095SOL    HW122184   3.580   3.846   6.685
 7095SOL    HW222185   3.455   3.942   6.643
 7096SOL     OW22186   6.146   0.608   3.601
 7096SOL    HW122187   6.150   0.607   3.501
 7096SOL    HW222188   6.051   0.596   3.630
 7097SOL     OW22189   6.009   1.092   1.444
 7097SOL    HW122190   5.953   1.032   1.386
 7097SOL    HW222191   5.949   1.140   1.508
 7098SOL     OW22192   0.770   0.798   4.034
 7098SOL    HW122193   0.859   0.756   4.018
 7098SOL    HW222194   0.755   0.871   3.967
 7099SOL     OW22195   2.926   0.937   5.111
 7099SOL    HW122196   3.003   0.999   5.099
 7099SOL    HW222197   2.959   0.842   5.113
 7100SOL     OW22198   5.689   3.438   1.117
 7100SOL    HW122199   5.767   3.394   1.162
 7100SOL    HW222200   5.641   3.371   1.060
 7101SOL     OW22201   1.932   0.525   4.813
 7101SOL    HW122202   1.887   0.614   4.814
 7101SOL    HW222203   1.869   0.455   4.847
 7102SOL     OW22204   4.581   0.570   1.028
 7102SOL    HW122205   4.545   0.517   0.951
 7102SOL    HW222206   4.630   0.510   1.091
 7103SOL     OW22207   4.563   4.974   1.449
 7103SOL    HW122208   4.515   5.059   1.427
 7103SOL    HW222209   4.585   4.924   1.365
 7104SOL     OW22210   1.218   3.488   5.073
 7104SOL    HW122211   1.121   3.501   5.092
 7104SOL    HW222212   1.231   3.463   4.978
 7105SOL     OW22213   3.049   2.725   5.525
 7105SOL    HW122214   3.086   2.815   5.504
 7105SOL    HW222215   3.063   2.705   5.622
 7106SOL     OW22216   2.969   3.718   2.892
 7106SOL    HW122217   3.046   3.656   2.907
 7106SOL    HW222218   2.929   3.700   2.802
 7107SOL     OW22219   3.018   1.527   0.837
 7107SOL    HW122220   2.997   1.567   0.926
 7107SOL    HW222221   3.063   1.594   0.779
 7108SOL     OW22222   3.735   6.470   2.769
 7108SOL    HW122223   3.830   6.444   2.752
 7108SOL    HW222224   3.728   6.519   2.855
 7109SOL     OW22225   3.844   0.109   6.431
 7109SOL    HW122226   3.893   0.145   6.510
 7109SOL    HW222227   3.746   0.125   6.443
 7110SOL     OW22228   3.540   6.117   3.794
 7110SOL    HW122229   3.511   6.080   3.706
 7110SOL    HW222230   3.461   6.124   3.855
 7111SOL     OW22231   2.115   2.356   4.272
 7111SOL    HW122232   2.108   2.316   4.180
 7111SOL    HW222233   2.133   2.284   4.338
 7112SOL     OW22234   2.043   5.878   4.030
 7112SOL    HW122235   2.074   5.814   4.100
 7112SOL    HW222236   2.071   5.971   4.055
 7113SOL     OW22237   3.422   3.807   4.836
 7113SOL    HW122238   3.500   3.767   4.884
 7113SOL    HW222239   3.394   3.892   4.882
 7114SOL     OW22240   3.701   6.376   1.433
 7114SOL    HW122241   3.673   6.406   1.524
 7114SOL    HW222242   3.633   6.406   1.366
 7115SOL     OW22243   5.214   3.147   2.107
 7115SOL    HW122244   5.204   3.154   2.007
 7115SOL    HW222245   5.266   3.066   2.130
 7116SOL     OW22246   5.226   4.197   3.734
 7116SOL    HW122247   5.252   4.101   3.741
 7116SOL    HW222248   5.301   4.250   3.695
 7117SOL     OW22249   6.682   6.312   4.873
 7117SOL    HW122250   6.751   6.355   4.815
 7117SOL    HW222251   6.597   6.301   4.822
 7118SOL     OW22252   2.367   4.179   0.644
 7118SOL    HW122253   2.290   4.237   0.672
 7118SOL    HW222254   2.420   4.153   0.724
 7119SOL     OW22255   4.990   1.552   3.231
 7119SOL    HW122256   4.947   1.637   3.262
 7119SOL    HW222257   4.920   1.483   3.212
 7120SOL     OW22258   4.156   1.950   2.288
 7120SOL    HW122259   4.169   1.938   2.189
 7120SOL    HW222260   4.071   1.904   2.316
 7121SOL     OW22261   2.148   6.761   2.373
 7121SOL    HW122262   2.054   6.794   2.360
 7121SOL    HW222263   2.165   6.748   2.471
 7122SOL     OW22264   0.377   0.558   5.813
 7122SOL    HW122265   0.352   0.576   5.718
 7122SOL    HW222266   0.461   0.608   5.835
 7123SOL     OW22267   2.105   4.844   2.210
 7123SOL    HW122268   2.157   4.871   2.291
 7123SOL    HW222269   2.047   4.920   2.182
 7124SOL     OW22270   0.074   2.488   0.321
 7124SOL    HW122271   0.124   2.507   0.406
 7124SOL    HW222272   0.041   2.573   0.283
 7125SOL     OW22273   6.514   6.685   0.996
 7125SOL    HW122274   6.526   6.586   0.985
 7125SOL    HW222275   6.417   6.706   1.007
 7126SOL     OW22276   3.384   4.279   0.357
 7126SOL    HW122277   3.480   4.281   0.385
 7126SOL    HW222278   3.326   4.287   0.438
 7127SOL     OW22279   2.017   6.301   4.558
 7127SOL    HW122280   2.027   6.245   4.475
 7127SOL    HW222281   2.106   6.336   4.586
 7128SOL     OW22282   2.823   5.212   0.456
 7128SOL    HW122283   2.792   5.124   0.492
 7128SOL    HW222284   2.855   5.200   0.362
 7129SOL     OW22285   2.435   1.200   0.599
 7129SOL    HW122286   2.379   1.118   0.592
 7129SOL    HW222287   2.506   1.198   0.529
 7130SOL     OW22288   3.773   4.712   5.449
 7130SOL    HW122289   3.690   4.732   5.500
 7130SOL    HW222290   3.800   4.617   5.465
 7131SOL     OW22291   2.816   1.373   0.499
 7131SOL    HW122292   2.780   1.282   0.475
 7131SOL    HW222293   2.752   1.418   0.562
 7132SOL     OW22294   3.646   3.537   0.033
 7132SOL    HW122295   3.743   3.552   0.015
 7132SOL    HW222296   3.591   3.590   6.993
 7133SOL     OW22297   5.364   5.755   4.471
 7133SOL    HW122298   5.294   5.821   4.445
 7133SOL    HW222299   5.367   5.681   4.404
 7134SOL     OW22300   5.913   5.807   1.775
 7134SOL    HW122301   5.872   5.883   1.724
 7134SOL    HW222302   6.002   5.784   1.735
 7135SOL     OW22303   1.377   2.599   2.791
 7135SOL    HW122304   1.427   2.525   2.746
 7135SOL    HW222305   1.404   2.603   2.888
 7136SOL     OW22306   1.494   2.474   1.062
 7136SOL    HW122307   1.524   2.389   1.019
 7136SOL    HW222308   1.461   2.455   1.154
 7137SOL     OW22309   4.610   0.378   0.182
 7137SOL    HW122310   4.534   0.399   0.243
 7137SOL    HW222311   4.577   0.373   0.087
 7138SOL     OW22312   1.778   2.897   0.450
 7138SOL    HW122313   1.815   2.810   0.416
 7138SOL    HW222314   1.712   2.933   0.385
 7139SOL     OW22315   5.110   4.123   2.663
 7139SOL    HW122316   5.161   4.108   2.748
 7139SOL    HW222317   5.012   4.128   2.683
 7140SOL     OW22318   5.841   4.155   4.079
 7140SOL    HW122319   5.830   4.254   4.075
 7140SOL    HW222320   5.757   4.113   4.111
 7141SOL     OW22321   3.177   5.611   1.718
 7141SOL    HW122322   3.119   5.540   1.758
 7141SOL    HW222323   3.134   5.701   1.730
 7142SOL     OW22324   4.608   0.135   3.896
 7142SOL    HW122325   4.512   0.133   3.869
 7142SOL    HW222326   4.658   0.064   3.848
 7143SOL     OW22327   1.651   3.069   5.919
 7143SOL    HW122328   1.703   3.153   5.907
 7143SOL    HW222329   1.576   3.066   5.853
 7144SOL     OW22330   1.602   1.624   3.316
 7144SOL    HW122331   1.592   1.718   3.283
 7144SOL    HW222332   1.522   1.571   3.289
 7145SOL     OW22333   4.307   6.785   6.601
 7145SOL    HW122334   4.353   6.803   6.688
 7145SOL    HW222335   4.218   6.742   6.618
 7146SOL     OW22336   2.163   0.831   0.345
 7146SOL    HW122337   2.244   0.839   0.288
 7146SOL    HW222338   2.121   0.741   0.330
 7147SOL     OW22339   6.669   6.475   3.155
 7147SOL    HW122340   6.612   6.522   3.223
 7147SOL    HW222341   6.611   6.430   3.088
 7148SOL     OW22342   0.580   0.145   0.196
 7148SOL    HW122343   0.677   0.120   0.201
 7148SOL    HW222344   0.527   0.067   0.165
 7149SOL     OW22345   6.521   6.529   2.894
 7149SOL    HW122346   6.490   6.434   2.899
 7149SOL    HW222347   6.592   6.537   2.824
 7150SOL     OW22348   3.627   1.893   2.276
 7150SOL    HW122349   3.683   1.976   2.281
 7150SOL    HW222350   3.664   1.825   2.340
 7151SOL     OW22351   1.684   6.286   0.496
 7151SOL    HW122352   1.653   6.270   0.589
 7151SOL    HW222353   1.658   6.208   0.438
 7152SOL     OW22354   0.925   1.638   5.041
 7152SOL    HW122355   0.967   1.696   4.971
 7152SOL    HW222356   0.844   1.594   5.002
 7153SOL     OW22357   3.203   5.395   2.796
 7153SOL    HW122358   3.169   5.334   2.725
 7153SOL    HW222359   3.128   5.425   2.854
 7154SOL     OW22360   3.758   0.357   4.139
 7154SOL    HW122361   3.739   0.294   4.064
 7154SOL    HW222362   3.738   0.312   4.226
 7155SOL     OW22363   2.379   4.643   1.391
 7155SOL    HW122364   2.311   4.601   1.451
 7155SOL    HW222365   2.455   4.580   1.378
 7156SOL     OW22366   0.452   4.684   4.578
 7156SOL    HW122367   0.435   4.745   4.655
 7156SOL    HW222368   0.463   4.590   4.612
 7157SOL     OW22369   6.241   4.877   0.881
 7157SOL    HW122370   6.296   4.816   0.938
 7157SOL    HW222371   6.296   4.911   0.805
 7158SOL     OW22372   1.223   0.455   2.874
 7158SOL    HW122373   1.133   0.484   2.906
 7158SOL    HW222374   1.219   0.361   2.842
 7159SOL     OW22375   0.356   4.133   2.784
 7159SOL    HW122376   0.338   4.193   2.707
 7159SOL    HW222377   0.455   4.125   2.798
 7160SOL     OW22378   5.644   1.015   3.142
 7160SOL    HW122379   5.640   0.963   3.227
 7160SOL    HW222380   5.649   1.113   3.163
 7161SOL     OW22381   3.094   3.813   4.816
 7161SOL    HW122382   3.175   3.845   4.766
 7161SOL    HW222383   3.113   3.723   4.855
 7162SOL     OW22384   2.324   5.705   5.801
 7162SOL    HW122385   2.268   5.733   5.879
 7162SOL    HW222386   2.407   5.660   5.835
 7163SOL     OW22387   2.850   6.433   3.001
 7163SOL    HW122388   2.921   6.419   2.932
 7163SOL    HW222389   2.822   6.529   3.000
 7164SOL     OW22390   1.845   1.125   4.016
 7164SOL    HW122391   1.808   1.141   4.107
 7164SOL    HW222392   1.770   1.103   3.953
 7165SOL     OW22393   6.919   1.445   1.520
 7165SOL    HW122394   6.837   1.492   1.552
 7165SOL    HW222395   7.000   1.490   1.558
 7166SOL     OW22396   5.652   3.086   6.999
 7166SOL    HW122397   5.558   3.053   6.993
 7166SOL    HW222398   5.715   3.009   7.006
 7167SOL     OW22399   4.913   3.577   4.492
 7167SOL    HW122400   4.855   3.586   4.573
 7167SOL    HW222401   4.912   3.482   4.461
 7168SOL     OW22402   1.178   3.055   3.604
 7168SOL    HW122403   1.130   3.047   3.691
 7168SOL    HW222404   1.265   3.102   3.618
 7169SOL     OW22405   0.357   3.761   5.084
 7169SOL    HW122406   0.396   3.762   5.176
 7169SOL    HW222407   0.281   3.826   5.081
 7170SOL     OW22408   4.931   6.380   3.330
 7170SOL    HW122409   5.003   6.406   3.266
 7170SOL    HW222410   4.972   6.358   3.419
 7171SOL     OW22411   5.846   4.268   6.557
 7171SOL    HW122412   5.791   4.346   6.527
 7171SOL    HW222413   5.798   4.218   6.629
 7172SOL     OW22414   1.851   0.715   5.229
 7172SOL    HW122415   1.762   0.755   5.252
 7172SOL    HW222416   1.920   0.749   5.294
 7173SOL     OW22417   6.853   4.720   5.855
 7173SOL    HW122418   6.849   4.790   5.926
 7173SOL    HW222419   6.943   4.721   5.813
 7174SOL     OW22420   0.865   4.427   0.315
 7174SOL    HW122421   0.948   4.389   0.357
 7174SOL    HW222422   0.787   4.410   0.374
 7175SOL     OW22423   5.353   3.240   6.794
 7175SOL    HW122424   5.445   3.278   6.784
 7175SOL    HW222425   5.341   3.165   6.729
 7176SOL     OW22426   0.930   6.126   3.204
 7176SOL    HW122427   0.881   6.107   3.119
 7176SOL    HW222428   0.949   6.040   3.251
 7177SOL     OW22429   2.366   6.756   4.320
 7177SOL    HW122430   2.268   6.774   4.320
 7177SOL    HW222431   2.413   6.826   4.374
 7178SOL     OW22432   2.246   3.465   5.579
 7178SOL    HW122433   2.227   3.545   5.522
 7178SOL    HW222434   2.227   3.382   5.526
 7179SOL     OW22435   1.734   3.882   4.591
 7179SOL    HW122436   1.721   3.911   4.497
 7179SOL    HW222437   1.724   3.782   4.597
 7180SOL     OW22438   1.530   4.316   6.532
 7180SOL    HW122439   1.624   4.321   6.566
 7180SOL    HW222440   1.494   4.224   6.547
 7181SOL     OW22441   2.099   5.622   0.325
 7181SOL    HW122442   2.013   5.648   0.282
 7181SOL    HW222443   2.152   5.705   0.345
 7182SOL     OW22444   1.818   3.073   5.315
 7182SOL    HW122445   1.868   2.991   5.344
 7182SOL    HW222446   1.878   3.129   5.258
 7183SOL     OW22447   1.586   6.008   0.249
 7183SOL    HW122448   1.648   6.087   0.248
 7183SOL    HW222449   1.494   6.039   0.276
 7184SOL     OW22450   0.536   0.667   2.949
 7184SOL    HW122451   0.604   0.677   2.877
 7184SOL    HW222452   0.580   0.638   3.034
 7185SOL     OW22453   5.696   0.303   5.158
 7185SOL    HW122454   5.722   0.214   5.119
 7185SOL    HW222455   5.711   0.375   5.091
 7186SOL     OW22456   6.833   6.985   6.647
 7186SOL    HW122457   6.834   7.016   6.552
 7186SOL    HW222458   6.847   6.887   6.651
 7187SOL     OW22459   3.206   4.086   0.240
 7187SOL    HW122460   3.248   4.159   0.294
 7187SOL    HW222461   3.162   4.126   0.159
 7188SOL     OW22462   6.250   6.717   0.358
 7188SOL    HW122463   6.344   6.695   0.384
 7188SOL    HW222464   6.233   6.682   0.266
 7189SOL     OW22465   6.957   1.095   6.055
 7189SOL    HW122466   6.875   1.084   6.000
 7189SOL    HW222467   6.932   1.123   6.148
 7190SOL     OW22468   6.680   4.054   3.156
 7190SOL    HW122469   6.707   4.012   3.243
 7190SOL    HW222470   6.606   4.119   3.173
 7191SOL     OW22471   0.256   4.317   3.378
 7191SOL    HW122472   0.251   4.283   3.472
 7191SOL    HW222473   0.191   4.392   3.367
 7192SOL     OW22474   3.146   4.966   5.955
 7192SOL    HW122475   3.191   5.050   5.985
 7192SOL    HW222476   3.199   4.887   5.987
 7193SOL     OW22477   2.107   2.312   2.628
 7193SOL    HW122478   2.105   2.344   2.534
 7193SOL    HW222479   2.017   2.276   2.653
 7194SOL     OW22480   2.634   2.051   0.746
 7194SOL    HW122481   2.704   2.116   0.777
 7194SOL    HW222482   2.634   1.971   0.805
 7195SOL     OW22483   0.074   5.179   6.604
 7195SOL    HW122484   0.084   5.122   6.522
 7195SOL    HW222485   0.153   5.240   6.613
 7196SOL     OW22486   3.213   4.340   1.606
 7196SOL    HW122487   3.207   4.278   1.684
 7196SOL    HW222488   3.285   4.308   1.544
 7197SOL     OW22489   6.991   1.965   5.973
 7197SOL    HW122490   6.995   2.008   6.063
 7197SOL    HW222491   6.972   2.034   5.903
 7198SOL     OW22492   0.801   1.080   6.371
 7198SOL    HW122493   0.775   1.100   6.277
 7198SOL    HW222494   0.759   1.146   6.432
 7199SOL     OW22495   2.149   0.508   2.431
 7199SOL    HW122496   2.100   0.543   2.352
 7199SOL    HW222497   2.222   0.446   2.401
 7200SOL     OW22498   2.338   2.000   7.006
 7200SOL    HW122499   2.326   1.970   6.911
 7200SOL    HW222500   2.405   2.075   7.009
 7201SOL     OW22501   1.420   5.774   4.105
 7201SOL    HW122502   1.501   5.719   4.124
 7201SOL    HW222503   1.383   5.751   4.015
 7202SOL     OW22504   4.409   0.638   5.825
 7202SOL    HW122505   4.324   0.588   5.806
 7202SOL    HW222506   4.483   0.572   5.842
 7203SOL     OW22507   0.320   2.319   1.271
 7203SOL    HW122508   0.302   2.408   1.229
 7203SOL    HW222509   0.412   2.318   1.309
 7204SOL     OW22510   6.895   0.111   5.431
 7204SOL    HW122511   6.833   0.176   5.474
 7204SOL    HW222512   6.897   0.026   5.485
 7205SOL     OW22513   0.870   5.569   3.042
 7205SOL    HW122514   0.961   5.569   3.002
 7205SOL    HW222515   0.842   5.474   3.060
 7206SOL     OW22516   1.868   0.530   0.974
 7206SOL    HW122517   1.810   0.555   0.897
 7206SOL    HW222518   1.816   0.476   1.040
 7207SOL     OW22519   3.764   0.108   2.014
 7207SOL    HW122520   3.764   0.050   1.932
 7207SOL    HW222521   3.713   0.192   1.994
 7208SOL     OW22522   4.436   6.295   4.079
 7208SOL    HW122523   4.361   6.361   4.075
 7208SOL    HW222524   4.522   6.341   4.059
 7209SOL     OW22525   3.419   3.673   2.063
 7209SOL    HW122526   3.344   3.693   2.125
 7209SOL    HW222527   3.496   3.635   2.115
 7210SOL     OW22528   4.382   6.809   4.039
 7210SOL    HW122529   4.318   6.885   4.040
 7210SOL    HW222530   4.472   6.840   4.071
 7211SOL     OW22531   2.424   5.775   4.127
 7211SOL    HW122532   2.518   5.766   4.162
 7211SOL    HW222533   2.366   5.812   4.199
 7212SOL     OW22534   0.876   6.635   3.868
 7212SOL    HW122535   0.962   6.588   3.888
 7212SOL    HW222536   0.843   6.681   3.950
 7213SOL     OW22537   6.103   0.417   6.468
 7213SOL    HW122538   6.091   0.322   6.498
 7213SOL    HW222539   6.135   0.473   6.545
 7214SOL     OW22540   1.201   6.384   5.078
 7214SOL    HW122541   1.109   6.407   5.044
 7214SOL    HW222542   1.212   6.422   5.170
 7215SOL     OW22543   0.118   3.078   4.579
 7215SOL    HW122544   0.114   3.084   4.479
 7215SOL    HW222545   0.037   3.029   4.612
 7216SOL     OW22546   2.337   5.981   0.147
 7216SOL    HW122547   2.342   5.977   0.047
 7216SOL    HW222548   2.328   6.076   0.177
 7217SOL     OW22549   2.216   4.125   2.727
 7217SOL    HW122550   2.269   4.106   2.643
 7217SOL    HW222551   2.186   4.038   2.767
 7218SOL     OW22552   4.923   2.414   5.439
 7218SOL    HW122553   4.957   2.395   5.347
 7218SOL    HW222554   4.969   2.495   5.476
 7219SOL     OW22555   4.737   6.264   4.363
 7219SOL    HW122556   4.761   6.357   4.337
 7219SOL    HW222557   4.790   6.237   4.443
 7220SOL     OW22558   0.482   5.790   4.201
 7220SOL    HW122559   0.387   5.816   4.184
 7220SOL    HW222560   0.489   5.690   4.204
 7221SOL     OW22561   4.793   4.809   4.497
 7221SOL    HW122562   4.748   4.878   4.554
 7221SOL    HW222563   4.788   4.720   4.543
 7222SOL     OW22564   6.312   0.307   1.813
 7222SOL    HW122565   6.346   0.313   1.907
 7222SOL    HW222566   6.219   0.269   1.813
 7223SOL     OW22567   2.842   1.991   1.376
 7223SOL    HW122568   2.788   2.037   1.307
 7223SOL    HW222569   2.832   2.038   1.464
 7224SOL     OW22570   5.540   2.277   4.311
 7224SOL    HW122571   5.615   2.299   4.248
 7224SOL    HW222572   5.483   2.205   4.271
 7225SOL     OW22573   0.936   5.807   6.086
 7225SOL    HW122574   0.933   5.716   6.045
 7225SOL    HW222575   0.974   5.872   6.020
 7226SOL     OW22576   0.791   0.646   0.528
 7226SOL    HW122577   0.697   0.661   0.560
 7226SOL    HW222578   0.847   0.613   0.605
 7227SOL     OW22579   0.902   2.121   0.849
 7227SOL    HW122580   0.812   2.116   0.892
 7227SOL    HW222581   0.891   2.137   0.751
 7228SOL     OW22582   0.287   1.135   1.949
 7228SOL    HW122583   0.323   1.118   1.857
 7228SOL    HW222584   0.190   1.109   1.952
 7229SOL     OW22585   0.564   0.280   4.949
 7229SOL    HW122586   0.638   0.319   4.894
 7229SOL    HW222587   0.484   0.339   4.942
 7230SOL     OW22588   5.297   5.385   4.501
 7230SOL    HW122589   5.332   5.434   4.421
 7230SOL    HW222590   5.286   5.449   4.577
 7231SOL     OW22591   4.760   6.529   0.219
 7231SOL    HW122592   4.790   6.500   0.309
 7231SOL    HW222593   4.817   6.486   0.149
 7232SOL     OW22594   4.840   5.335   3.275
 7232SOL    HW122595   4.851   5.408   3.207
 7232SOL    HW222596   4.761   5.279   3.251
 7233SOL     OW22597   0.105   2.480   4.426
 7233SOL    HW122598   0.012   2.444   4.430
 7233SOL    HW222599   0.126   2.529   4.511
 7234SOL     OW22600   5.536   2.698   3.628
 7234SOL    HW122601   5.517   2.704   3.727
 7234SOL    HW222602   5.496   2.614   3.592
 7235SOL     OW22603   6.437   4.200   3.164
 7235SOL    HW122604   6.366   4.167   3.226
 7235SOL    HW222605   6.405   4.281   3.115
 7236SOL     OW22606   2.929   1.707   3.133
 7236SOL    HW122607   2.842   1.748   3.106
 7236SOL    HW222608   2.956   1.639   3.064
 7237SOL     OW22609   6.590   6.907   5.675
 7237SOL    HW122610   6.527   6.866   5.610
 7237SOL    HW222611   6.555   6.996   5.703
 7238SOL     OW22612   2.387   2.262   1.327
 7238SOL    HW122613   2.414   2.295   1.237
 7238SOL    HW222614   2.287   2.265   1.334
 7239SOL     OW22615   2.737   1.225   3.387
 7239SOL    HW122616   2.798   1.230   3.467
 7239SOL    HW222617   2.646   1.256   3.412
 7240SOL     OW22618   2.557   4.102   6.337
 7240SOL    HW122619   2.653   4.110   6.365
 7240SOL    HW222620   2.542   4.157   6.254
 7241SOL     OW22621   3.249   0.589   6.902
 7241SOL    HW122622   3.340   0.547   6.907
 7241SOL    HW222623   3.185   0.523   6.864
 7242SOL     OW22624   6.824   5.683   0.074
 7242SOL    HW122625   6.804   5.776   0.045
 7242SOL    HW222626   6.746   5.624   0.053
 7243SOL     OW22627   0.423   4.453   5.886
 7243SOL    HW122628   0.500   4.409   5.932
 7243SOL    HW222629   0.413   4.418   5.793
 7244SOL     OW22630   5.009   0.632   0.841
 7244SOL    HW122631   5.021   0.696   0.917
 7244SOL    HW222632   4.911   0.614   0.829
 7245SOL     OW22633   0.778   1.934   5.130
 7245SOL    HW122634   0.834   1.852   5.145
 7245SOL    HW222635   0.742   1.965   5.217
 7246SOL     OW22636   6.038   6.685   4.932
 7246SOL    HW122637   6.089   6.661   4.849
 7246SOL    HW222638   6.003   6.601   4.975
 7247SOL     OW22639   3.182   6.507   3.616
 7247SOL    HW122640   3.242   6.468   3.546
 7247SOL    HW222641   3.157   6.600   3.590
 7248SOL     OW22642   3.633   1.351   3.093
 7248SOL    HW122643   3.613   1.261   3.055
 7248SOL    HW222644   3.731   1.370   3.085
 7249SOL     OW22645   5.478   5.196   1.477
 7249SOL    HW122646   5.398   5.142   1.453
 7249SOL    HW222647   5.549   5.136   1.515
 7250SOL     OW22648   3.821   5.391   6.085
 7250SOL    HW122649   3.768   5.410   6.002
 7250SOL    HW222650   3.915   5.369   6.060
 7251SOL     OW22651   0.074   6.285   5.521
 7251SOL    HW122652   0.114   6.208   5.471
 7251SOL    HW222653   0.129   6.367   5.506
 7252SOL     OW22654   3.544   3.323   3.611
 7252SOL    HW122655   3.543   3.251   3.681
 7252SOL    HW222656   3.505   3.287   3.526
 7253SOL     OW22657   2.090   6.770   0.459
 7253SOL    HW122658   2.184   6.738   0.460
 7253SOL    HW222659   2.030   6.698   0.422
 7254SOL     OW22660   4.650   5.423   5.318
 7254SOL    HW122661   4.662   5.405   5.220
 7254SOL    HW222662   4.648   5.337   5.368
 7255SOL     OW22663   3.421   3.864   1.096
 7255SOL    HW122664   3.404   3.766   1.104
 7255SOL    HW222665   3.513   3.885   1.127
 7256SOL     OW22666   5.020   4.955   4.589
 7256SOL    HW122667   4.933   4.923   4.552
 7256SOL    HW222668   5.028   5.054   4.574
 7257SOL     OW22669   4.719   2.865   3.731
 7257SOL    HW122670   4.732   2.903   3.640
 7257SOL    HW222671   4.667   2.780   3.724
 7258SOL     OW22672   3.910   1.471   3.499
 7258SOL    HW122673   3.922   1.373   3.516
 7258SOL    HW222674   3.845   1.484   3.423
 7259SOL     OW22675   3.918   3.816   1.438
 7259SOL    HW122676   3.943   3.726   1.402
 7259SOL    HW222677   3.822   3.815   1.465
 7260SOL     OW22678   3.149   2.167   2.867
 7260SOL    HW122679   3.238   2.211   2.864
 7260SOL    HW222680   3.115   2.154   2.773
 7261SOL     OW22681   2.654   2.865   0.955
 7261SOL    HW122682   2.625   2.828   1.044
 7261SOL    HW222683   2.716   2.942   0.970
 7262SOL     OW22684   5.247   1.955   4.520
 7262SOL    HW122685   5.333   1.960   4.469
 7262SOL    HW222686   5.189   2.032   4.495
 7263SOL     OW22687   0.253   6.010   2.394
 7263SOL    HW122688   0.157   5.993   2.376
 7263SOL    HW222689   0.266   6.032   2.491
 7264SOL     OW22690   6.245   1.414   0.156
 7264SOL    HW122691   6.313   1.377   0.092
 7264SOL    HW222692   6.176   1.344   0.175
 7265SOL     OW22693   5.763   5.224   5.760
 7265SOL    HW122694   5.729   5.136   5.791
 7265SOL    HW222695   5.713   5.298   5.806
 7266SOL     OW22696   4.044   0.341   0.993
 7266SOL    HW122697   3.992   0.338   0.908
 7266SOL    HW222698   4.026   0.428   1.039
 7267SOL     OW22699   0.115   4.923   5.619
 7267SOL    HW122700   0.204   4.958   5.592
 7267SOL    HW222701   0.069   4.883   5.539
 7268SOL     OW22702   4.619   4.753   3.431
 7268SOL    HW122703   4.608   4.654   3.428
 7268SOL    HW222704   4.660   4.779   3.519
 7269SOL     OW22705   6.670   5.933   1.185
 7269SOL    HW122706   6.685   5.888   1.273
 7269SOL    HW222707   6.751   5.985   1.160
 7270SOL     OW22708   1.272   2.503   3.789
 7270SOL    HW122709   1.274   2.452   3.875
 7270SOL    HW222710   1.353   2.562   3.784
 7271SOL     OW22711   0.075   4.797   3.835
 7271SOL    HW122712   0.075   4.747   3.749
 7271SOL    HW222713   0.100   4.736   3.910
 7272SOL     OW22714   5.715   4.302   2.147
 7272SOL    HW122715   5.674   4.301   2.055
 7272SOL    HW222716   5.795   4.242   2.148
 7273SOL     OW22717   5.592   4.367   1.914
 7273SOL    HW122718   5.584   4.338   1.819
 7273SOL    HW222719   5.501   4.383   1.952
 7274SOL     OW22720   0.518   6.784   5.959
 7274SOL    HW122721   0.425   6.821   5.953
 7274SOL    HW222722   0.515   6.685   5.943
 7275SOL     OW22723   6.978   0.859   1.411
 7275SOL    HW122724   6.943   0.879   1.319
 7275SOL    HW222725   6.904   0.868   1.477
 7276SOL     OW22726   3.340   1.357   3.577
 7276SOL    HW122727   3.341   1.271   3.627
 7276SOL    HW222728   3.426   1.406   3.593
 7277SOL     OW22729   5.630   1.092   5.227
 7277SOL    HW122730   5.557   1.025   5.239
 7277SOL    HW222731   5.643   1.109   5.129
 7278SOL     OW22732   3.210   2.093   3.195
 7278SOL    HW122733   3.209   1.994   3.183
 7278SOL    HW222734   3.127   2.132   3.155
 7279SOL     OW22735   4.455   3.807   6.478
 7279SOL    HW122736   4.417   3.730   6.529
 7279SOL    HW222737   4.452   3.889   6.534
 7280SOL     OW22738   6.069   2.322   5.157
 7280SOL    HW122739   6.009   2.260   5.106
 7280SOL    HW222740   6.062   2.414   5.117
 7281SOL     OW22741   2.570   0.185   0.463
 7281SOL    HW122742   2.591   0.280   0.441
 7281SOL    HW222743   2.474   0.177   0.490
 7282SOL     OW22744   6.750   6.323   1.043
 7282SOL    HW122745   6.800   6.409   1.030
 7282SOL    HW222746   6.747   6.301   1.141
 7283SOL     OW22747   2.452   6.569   2.205
 7283SOL    HW122748   2.499   6.655   2.188
 7283SOL    HW222749   2.515   6.503   2.246
 7284SOL     OW22750   6.481   2.870   4.071
 7284SOL    HW122751   6.508   2.787   4.023
 7284SOL    HW222752   6.545   2.887   4.146
 7285SOL     OW22753   5.375   3.565   1.698
 7285SOL    HW122754   5.300   3.569   1.765
 7285SOL    HW222755   5.463   3.570   1.746
 7286SOL     OW22756   1.081   1.124   0.772
 7286SOL    HW122757   1.138   1.094   0.696
 7286SOL    HW222758   1.023   1.200   0.743
 7287SOL     OW22759   6.833   3.181   4.344
 7287SOL    HW122760   6.773   3.245   4.294
 7287SOL    HW222761   6.898   3.140   4.280
 7288SOL     OW22762   1.424   3.013   2.181
 7288SOL    HW122763   1.474   3.015   2.095
 7288SOL    HW222764   1.354   2.942   2.178
 7289SOL     OW22765   6.149   2.803   2.202
 7289SOL    HW122766   6.102   2.891   2.213
 7289SOL    HW222767   6.176   2.768   2.291
 7290SOL     OW22768   3.099   1.132   5.120
 7290SOL    HW122769   3.150   1.159   5.202
 7290SOL    HW222770   3.058   1.212   5.078
 7291SOL     OW22771   3.832   6.801   0.624
 7291SOL    HW122772   3.870   6.733   0.686
 7291SOL    HW222773   3.896   6.878   0.616
 7292SOL     OW22774   1.852   6.978   3.155
 7292SOL    HW122775   1.830   6.895   3.206
 7292SOL    HW222776   1.936   6.963   3.102
 7293SOL     OW22777   1.991   0.990   6.334
 7293SOL    HW122778   1.905   0.975   6.382
 7293SOL    HW222779   2.067   0.985   6.400
 7294SOL     OW22780   3.042   4.538   1.233
 7294SOL    HW122781   3.018   4.593   1.153
 7294SOL    HW222782   3.129   4.491   1.216
 7295SOL     OW22783   6.492   3.916   1.184
 7295SOL    HW122784   6.520   3.857   1.108
 7295SOL    HW222785   6.504   4.012   1.158
 7296SOL     OW22786   4.223   5.099   2.956
 7296SOL    HW122787   4.197   5.086   2.861
 7296SOL    HW222788   4.268   5.188   2.967
 7297SOL     OW22789   2.846   6.897   2.574
 7297SOL    HW122790   2.936   6.929   2.545
 7297SOL    HW222791   2.775   6.948   2.525
 7298SOL     OW22792   5.343   5.220   0.033
 7298SOL    HW122793   5.370   5.251   6.965
 7298SOL    HW222794   5.401   5.262   0.102
 7299SOL     OW22795   0.774   1.295   0.984
 7299SOL    HW122796   0.838   1.347   0.927
 7299SOL    HW222797   0.788   1.197   0.968
 7300SOL     OW22798   1.285   4.885   1.760
 7300SOL    HW122799   1.342   4.843   1.690
 7300SOL    HW222800   1.278   4.983   1.742
 7301SOL     OW22801   6.771   0.807   5.276
 7301SOL    HW122802   6.767   0.905   5.253
 7301SOL    HW222803   6.678   0.770   5.279
 7302SOL     OW22804   6.689   1.826   4.699
 7302SOL    HW122805   6.634   1.909   4.692
 7302SOL    HW222806   6.671   1.781   4.786
 7303SOL     OW22807   3.354   1.075   6.998
 7303SOL    HW122808   3.443   1.057   0.015
 7303SOL    HW222809   3.299   1.130   0.039
 7304SOL     OW22810   2.039   5.317   1.639
 7304SOL    HW122811   2.020   5.396   1.697
 7304SOL    HW222812   2.047   5.235   1.695
 7305SOL     OW22813   5.467   2.529   1.479
 7305SOL    HW122814   5.369   2.536   1.498
 7305SOL    HW222815   5.514   2.498   1.561
 7306SOL     OW22816   3.664   1.575   2.200
 7306SOL    HW122817   3.595   1.573   2.128
 7306SOL    HW222818   3.743   1.628   2.169
 7307SOL     OW22819   3.726   6.570   2.484
 7307SOL    HW122820   3.715   6.670   2.484
 7307SOL    HW222821   3.690   6.533   2.570
 7308SOL     OW22822   6.936   1.459   3.320
 7308SOL    HW122823   6.865   1.411   3.268
 7308SOL    HW222824   6.908   1.554   3.335
 7309SOL     OW22825   2.080   6.259   2.282
 7309SOL    HW122826   2.011   6.212   2.228
 7309SOL    HW222827   2.100   6.348   2.242
 7310SOL     OW22828   1.405   3.599   6.119
 7310SOL    HW122829   1.473   3.525   6.113
 7310SOL    HW222830   1.452   3.687   6.123
 7311SOL     OW22831   1.155   0.500   0.297
 7311SOL    HW122832   1.168   0.599   0.297
 7311SOL    HW222833   1.208   0.459   0.223
 7312SOL     OW22834   0.673   1.377   4.791
 7312SOL    HW122835   0.753   1.320   4.769
 7312SOL    HW222836   0.625   1.400   4.707
 7313SOL     OW22837   2.696   1.584   0.827
 7313SOL    HW122838   2.614   1.553   0.779
 7313SOL    HW222839   2.719   1.519   0.900
 7314SOL     OW22840   0.103   3.363   6.544
 7314SOL    HW122841   0.095   3.451   6.496
 7314SOL    HW222842   0.181   3.313   6.508
 7315SOL     OW22843   5.944   5.619   2.526
 7315SOL    HW122844   5.987   5.617   2.435
 7315SOL    HW222845   5.989   5.688   2.582
 7316SOL     OW22846   3.201   2.054   6.028
 7316SOL    HW122847   3.260   2.131   6.054
 7316SOL    HW222848   3.120   2.089   5.981
 7317SOL     OW22849   3.572   1.472   2.450
 7317SOL    HW122850   3.480   1.508   2.465
 7317SOL    HW222851   3.595   1.480   2.353
 7318SOL     OW22852   3.257   6.501   2.296
 7318SOL    HW122853   3.306   6.578   2.335
 7318SOL    HW222854   3.313   6.418   2.303
 7319SOL     OW22855   6.399   2.950   6.352
 7319SOL    HW122856   6.384   2.950   6.253
 7319SOL    HW222857   6.347   3.025   6.393
 7320SOL     OW22858   0.171   3.826   0.903
 7320SOL    HW122859   0.131   3.904   0.951
 7320SOL    HW222860   0.099   3.777   0.853
 7321SOL     OW22861   1.810   6.354   6.048
 7321SOL    HW122862   1.838   6.271   6.000
 7321SOL    HW222863   1.713   6.371   6.031
 7322SOL     OW22864   0.375   3.110   3.044
 7322SOL    HW122865   0.406   3.177   3.111
 7322SOL    HW222866   0.454   3.070   2.997
 7323SOL     OW22867   3.017   1.675   1.097
 7323SOL    HW122868   3.001   1.766   1.059
 7323SOL    HW222869   2.976   1.669   1.188
 7324SOL     OW22870   6.149   4.482   2.506
 7324SOL    HW122871   6.152   4.382   2.511
 7324SOL    HW222872   6.210   4.520   2.576
 7325SOL     OW22873   2.821   0.380   5.756
 7325SOL    HW122874   2.773   0.371   5.844
 7325SOL    HW222875   2.865   0.470   5.752
 7326SOL     OW22876   4.533   0.696   6.453
 7326SOL    HW122877   4.529   0.795   6.439
 7326SOL    HW222878   4.451   0.666   6.502
 7327SOL     OW22879   5.846   3.721   3.850
 7327SOL    HW122880   5.863   3.719   3.949
 7327SOL    HW222881   5.858   3.815   3.816
 7328SOL     OW22882   4.120   6.365   5.969
 7328SOL    HW122883   4.044   6.320   6.016
 7328SOL    HW222884   4.182   6.296   5.933
 7329SOL     OW22885   0.981   2.580   6.899
 7329SOL    HW122886   0.885   2.603   6.912
 7329SOL    HW222887   0.989   2.505   6.834
 7330SOL     OW22888   3.131   2.968   1.135
 7330SOL    HW122889   3.109   2.871   1.134
 7330SOL    HW222890   3.129   3.002   1.229
 7331SOL     OW22891   4.571   0.203   2.012
 7331SOL    HW122892   4.506   0.270   1.977
 7331SOL    HW222893   4.523   0.138   2.071
 7332SOL     OW22894   3.982   4.455   0.211
 7332SOL    HW122895   3.950   4.497   0.296
 7332SOL    HW222896   3.905   4.444   0.148
 7333SOL     OW22897   6.168   3.252   3.222
 7333SOL    HW122898   6.069   3.267   3.223
 7333SOL    HW222899   6.186   3.154   3.216
 7334SOL     OW22900   2.898   5.901   5.889
 7334SOL    HW122901   2.851   5.987   5.869
 7334SOL    HW222902   2.875   5.871   5.981
 7335SOL     OW22903   0.467   3.448   2.859
 7335SOL    HW122904   0.454   3.488   2.768
 7335SOL    HW222905   0.409   3.496   2.925
 7336SOL     OW22906   2.452   6.346   1.436
 7336SOL    HW122907   2.535   6.337   1.380
 7336SOL    HW222908   2.468   6.412   1.509
 7337SOL     OW22909   3.221   3.120   1.423
 7337SOL    HW122910   3.222   3.081   1.515
 7337SOL    HW222911   3.175   3.209   1.425
 7338SOL     OW22912   6.251   2.260   1.758
 7338SOL    HW122913   6.350   2.250   1.767
 7338SOL    HW222914   6.230   2.305   1.671
 7339SOL     OW22915   7.016   6.439   5.855
 7339SOL    HW122916   0.003   6.511   5.786
 7339SOL    HW222917   0.084   6.410   5.886
 7340SOL     OW22918   4.186   1.721   7.004
 7340SOL    HW122919   4.121   1.657   6.963
 7340SOL    HW222920   4.271   1.720   6.952
 7341SOL     OW22921   1.589   5.416   5.045
 7341SOL    HW122922   1.631   5.334   5.085
 7341SOL    HW222923   1.515   5.389   4.984
 7342SOL     OW22924   6.468   6.823   0.538
 7342SOL    HW122925   6.547   6.867   0.497
 7342SOL    HW222926   6.481   6.724   0.540
 7343SOL     OW22927   5.684   3.234   2.214
 7343SOL    HW122928   5.780   3.247   2.193
 7343SOL    HW222929   5.674   3.162   2.283
 7344SOL     OW22930   1.903   6.951   6.447
 7344SOL    HW122931   1.992   6.996   6.442
 7344SOL    HW222932   1.834   7.017   6.476
 7345SOL     OW22933   4.491   5.347   5.995
 7345SOL    HW122934   4.401   5.376   5.963
 7345SOL    HW222935   4.483   5.306   6.085
 7346SOL     OW22936   4.097   4.004   1.225
 7346SOL    HW122937   4.175   3.981   1.283
 7346SOL    HW222938   4.109   3.962   1.135
 7347SOL     OW22939   6.865   2.626   1.882
 7347SOL    HW122940   6.905   2.544   1.922
 7347SOL    HW222941   6.804   2.669   1.949
 7348SOL     OW22942   1.546   3.992   3.599
 7348SOL    HW122943   1.531   3.975   3.697
 7348SOL    HW222944   1.482   3.938   3.545
 7349SOL     OW22945   3.539   1.911   1.568
 7349SOL    HW122946   3.543   2.006   1.597
 7349SOL    HW222947   3.445   1.885   1.547
 7350SOL     OW22948   0.620   3.192   3.719
 7350SOL    HW122949   0.531   3.164   3.683
 7350SOL    HW222950   0.640   3.139   3.802
 7351SOL     OW22951   4.124   4.792   6.802
 7351SOL    HW122952   4.100   4.883   6.836
 7351SOL    HW222953   4.117   4.725   6.877
 7352SOL     OW22954   1.717   2.237   3.432
 7352SOL    HW122955   1.637   2.296   3.445
 7352SOL    HW222956   1.780   2.249   3.509
 7353SOL     OW22957   0.877   1.381   5.448
 7353SOL    HW122958   0.884   1.360   5.350
 7353SOL    HW222959   0.794   1.338   5.485
 7354SOL     OW22960   0.446   0.876   6.268
 7354SOL    HW122961   0.499   0.835   6.194
 7354SOL    HW222962   0.408   0.803   6.326
 7355SOL     OW22963   1.847   6.151   0.247
 7355SOL    HW122964   1.892   6.221   0.191
 7355SOL    HW222965   1.891   6.147   0.337
 7356SOL     OW22966   5.218   2.553   6.487
 7356SOL    HW122967   5.149   2.480   6.483
 7356SOL    HW222968   5.250   2.574   6.395
 7357SOL     OW22969   4.334   0.889   1.284
 7357SOL    HW122970   4.319   0.850   1.375
 7357SOL    HW222971   4.323   0.819   1.215
 7358SOL     OW22972   2.581   2.118   2.643
 7358SOL    HW122973   2.490   2.137   2.679
 7358SOL    HW222974   2.640   2.085   2.717
 7359SOL     OW22975   3.455   2.411   1.139
 7359SOL    HW122976   3.550   2.422   1.110
 7359SOL    HW222977   3.400   2.488   1.104
 7360SOL     OW22978   2.776   2.032   5.097
 7360SOL    HW122979   2.744   1.994   5.183
 7360SOL    HW222980   2.816   2.122   5.112
 7361SOL     OW22981   4.676   6.066   2.149
 7361SOL    HW122982   4.696   6.074   2.051
 7361SOL    HW222983   4.736   5.998   2.190
 7362SOL     OW22984   0.440   6.605   4.672
 7362SOL    HW122985   0.448   6.638   4.767
 7362SOL    HW222986   0.456   6.681   4.609
 7363SOL     OW22987   4.240   2.000   0.399
 7363SOL    HW122988   4.295   2.002   0.482
 7363SOL    HW222989   4.253   1.913   0.352
 7364SOL     OW22990   4.140   6.906   1.514
 7364SOL    HW122991   4.211   6.959   1.560
 7364SOL    HW222992   4.161   6.898   1.417
 7365SOL     OW22993   1.486   5.927   2.074
 7365SOL    HW122994   1.447   5.980   2.149
 7365SOL    HW222995   1.581   5.902   2.096
 7366SOL     OW22996   1.117   5.146   0.575
 7366SOL    HW122997   1.023   5.114   0.569
 7366SOL    HW222998   1.159   5.110   0.658
 7367SOL     OW22999   4.457   3.430   1.109
 7367SOL    HW123000   4.369   3.397   1.075
 7367SOL    HW223001   4.492   3.367   1.178
 7368SOL     OW23002   3.349   2.882   3.928
 7368SOL    HW123003   3.273   2.944   3.945
 7368SOL    HW223004   3.314   2.795   3.894
 7369SOL     OW23005   4.952   3.193   0.642
 7369SOL    HW123006   4.990   3.283   0.621
 7369SOL    HW223007   4.864   3.183   0.596
 7370SOL     OW23008   2.186   0.470   6.154
 7370SOL    HW123009   2.261   0.489   6.091
 7370SOL    HW223010   2.106   0.525   6.131
 7371SOL     OW23011   3.059   5.672   4.196
 7371SOL    HW123012   3.003   5.717   4.266
 7371SOL    HW223013   3.106   5.594   4.237
 7372SOL     OW23014   3.336   0.598   5.480
 7372SOL    HW123015   3.345   0.697   5.470
 7372SOL    HW223016   3.351   0.573   5.576
 7373SOL     OW23017   4.617   1.631   3.514
 7373SOL    HW123018   4.531   1.618   3.564
 7373SOL    HW223019   4.633   1.729   3.501
 7374SOL     OW23020   2.641   2.596   5.225
 7374SOL    HW123021   2.707   2.655   5.272
 7374SOL    HW223022   2.687   2.547   5.151
 7375SOL     OW23023   1.638   2.460   3.715
 7375SOL    HW123024   1.653   2.389   3.783
 7375SOL    HW223025   1.596   2.421   3.633
 7376SOL     OW23026   3.633   2.171   0.415
 7376SOL    HW123027   3.562   2.207   0.475
 7376SOL    HW223028   3.692   2.245   0.384
 7377SOL     OW23029   4.404   5.878   1.895
 7377SOL    HW123030   4.404   5.960   1.838
 7377SOL    HW223031   4.339   5.891   1.970
 7378SOL     OW23032   0.024   2.053   4.235
 7378SOL    HW123033   6.981   2.040   4.310
 7378SOL    HW223034   0.065   2.143   4.243
 7379SOL     OW23035   4.260   1.838   3.019
 7379SOL    HW123036   4.185   1.800   3.073
 7379SOL    HW223037   4.230   1.922   2.974
 7380SOL     OW23038   0.048   3.129   5.514
 7380SOL    HW123039   0.011   3.100   5.426
 7380SOL    HW223040   0.126   3.072   5.538
 7381SOL     OW23041   4.867   3.058   2.471
 7381SOL    HW123042   4.963   3.041   2.491
 7381SOL    HW223043   4.859   3.103   2.381
 7382SOL     OW23044   0.080   5.349   5.310
 7382SOL    HW123045   0.114   5.387   5.224
 7382SOL    HW223046   7.012   5.310   5.296
 7383SOL     OW23047   0.215   6.855   2.737
 7383SOL    HW123048   0.147   6.872   2.665
 7383SOL    HW223049   0.248   6.942   2.773
 7384SOL     OW23050   4.953   1.008   2.051
 7384SOL    HW123051   4.964   0.929   1.991
 7384SOL    HW223052   4.887   0.985   2.123
 7385SOL     OW23053   3.721   6.474   2.245
 7385SOL    HW123054   3.711   6.511   2.337
 7385SOL    HW223055   3.803   6.417   2.241
 7386SOL     OW23056   0.292   2.844   5.337
 7386SOL    HW123057   0.383   2.820   5.303
 7386SOL    HW223058   0.223   2.815   5.270
 7387SOL     OW23059   4.361   6.837   4.733
 7387SOL    HW123060   4.341   6.802   4.824
 7387SOL    HW223061   4.290   6.807   4.669
 7388SOL     OW23062   6.885   6.046   3.866
 7388SOL    HW123063   6.897   6.006   3.775
 7388SOL    HW223064   6.901   6.144   3.862
 7389SOL     OW23065   0.954   4.759   6.539
 7389SOL    HW123066   1.048   4.792   6.541
 7389SOL    HW223067   0.912   4.772   6.628
 7390SOL     OW23068   1.590   1.764   6.560
 7390SOL    HW123069   1.535   1.786   6.479
 7390SOL    HW223070   1.530   1.749   6.638
 7391SOL     OW23071   4.721   4.406   5.138
 7391SOL    HW123072   4.665   4.373   5.061
 7391SOL    HW223073   4.776   4.483   5.108
 7392SOL     OW23074   2.566   6.006   6.380
 7392SOL    HW123075   2.567   6.082   6.314
 7392SOL    HW223076   2.493   5.942   6.356
 7393SOL     OW23077   6.086   5.540   1.578
 7393SOL    HW123078   6.137   5.595   1.644
 7393SOL    HW223079   6.084   5.586   1.489
 7394SOL     OW23080   2.969   2.610   6.017
 7394SOL    HW123081   2.915   2.590   5.936
 7394SOL    HW223082   2.959   2.534   6.083
 7395SOL     OW23083   1.357   1.147   7.006
 7395SOL    HW123084   1.305   1.150   0.068
 7395SOL    HW223085   1.378   1.240   6.976
 7396SOL     OW23086   1.195   0.929   6.891
 7396SOL    HW123087   1.221   0.904   6.798
 7396SOL    HW223088   1.240   1.015   6.916
 7397SOL     OW23089   5.414   5.162   4.627
 7397SOL    HW123090   5.336   5.099   4.624
 7397SOL    HW223091   5.384   5.252   4.594
 7398SOL     OW23092   3.146   4.915   4.124
 7398SOL    HW123093   3.066   4.880   4.172
 7398SOL    HW223094   3.158   4.865   4.039
 7399SOL     OW23095   0.410   3.759   5.351
 7399SOL    HW123096   0.419   3.858   5.350
 7399SOL    HW223097   0.356   3.731   5.430
 7400SOL     OW23098   3.279   3.864   6.821
 7400SOL    HW123099   3.325   3.945   6.856
 7400SOL    HW223100   3.233   3.887   6.735
 7401SOL     OW23101   0.693   1.612   3.572
 7401SOL    HW123102   0.596   1.635   3.565
 7401SOL    HW223103   0.705   1.513   3.563
 7402SOL     OW23104   1.586   6.356   4.313
 7402SOL    HW123105   1.647   6.411   4.371
 7402SOL    HW223106   1.641   6.295   4.256
 7403SOL     OW23107   1.662   3.454   2.770
 7403SOL    HW123108   1.685   3.426   2.677
 7403SOL    HW223109   1.564   3.448   2.784
 7404SOL     OW23110   1.993   5.864   1.630
 7404SOL    HW123111   1.894   5.867   1.637
 7404SOL    HW223112   2.034   5.925   1.698
 7405SOL     OW23113   1.582   5.016   4.521
 7405SOL    HW123114   1.665   5.032   4.467
 7405SOL    HW223115   1.551   5.102   4.561
 7406SOL     OW23116   1.697   4.116   2.270
 7406SOL    HW123117   1.644   4.060   2.207
 7406SOL    HW223118   1.645   4.129   2.355
 7407SOL     OW23119   0.362   6.241   4.619
 7407SOL    HW123120   0.299   6.174   4.580
 7407SOL    HW223121   0.318   6.331   4.623
 7408SOL     OW23122   0.959   4.206   5.372
 7408SOL    HW123123   0.894   4.212   5.297
 7408SOL    HW223124   0.997   4.296   5.391
 7409SOL     OW23125   0.151   0.605   4.330
 7409SOL    HW123126   0.071   0.545   4.329
 7409SOL    HW223127   0.184   0.619   4.237
 7410SOL     OW23128   6.928   4.665   0.878
 7410SOL    HW123129   6.949   4.721   0.958
 7410SOL    HW223130   6.916   4.723   0.798
 7411SOL     OW23131   3.296   6.380   4.490
 7411SOL    HW123132   3.307   6.385   4.589
 7411SOL    HW223133   3.386   6.377   4.446
 7412SOL     OW23134   3.886   1.266   1.611
 7412SOL    HW123135   3.872   1.336   1.681
 7412SOL    HW223136   3.914   1.180   1.654
 7413SOL     OW23137   6.850   5.243   4.169
 7413SOL    HW123138   6.805   5.212   4.252
 7413SOL    HW223139   6.799   5.210   4.089
 7414SOL     OW23140   0.255   0.315   3.100
 7414SOL    HW123141   0.348   0.279   3.100
 7414SOL    HW223142   0.226   0.331   3.006
 7415SOL     OW23143   0.633   4.100   3.235
 7415SOL    HW123144   0.630   4.170   3.163
 7415SOL    HW223145   0.603   4.012   3.198
 7416SOL     OW23146   3.064   0.412   4.227
 7416SOL    HW123147   3.060   0.497   4.280
 7416SOL    HW223148   3.089   0.337   4.288
 7417SOL     OW23149   1.365   0.073   6.582
 7417SOL    HW123150   1.270   0.095   6.560
 7417SOL    HW223151   1.370   0.021   6.667
 7418SOL     OW23152   4.427   4.783   1.181
 7418SOL    HW123153   4.354   4.838   1.221
 7418SOL    HW223154   4.389   4.698   1.146
 7419SOL     OW23155   6.581   2.476   4.689
 7419SOL    HW123156   6.492   2.510   4.718
 7419SOL    HW223157   6.569   2.402   4.622
 7420SOL     OW23158   6.409   6.231   2.521
 7420SOL    HW123159   6.426   6.180   2.605
 7420SOL    HW223160   6.477   6.304   2.513
 7421SOL     OW23161   3.376   3.349   1.872
 7421SOL    HW123162   3.305   3.307   1.930
 7421SOL    HW223163   3.383   3.298   1.786
 7422SOL     OW23164   0.197   3.355   2.366
 7422SOL    HW123165   0.212   3.446   2.329
 7422SOL    HW223166   0.113   3.316   2.328
 7423SOL     OW23167   6.740   3.470   6.395
 7423SOL    HW123168   6.802   3.502   6.323
 7423SOL    HW223169   6.766   3.510   6.482
 7424SOL     OW23170   6.217   0.877   4.128
 7424SOL    HW123171   6.227   0.974   4.147
 7424SOL    HW223172   6.214   0.862   4.029
 7425SOL     OW23173   4.577   5.007   6.479
 7425SOL    HW123174   4.620   5.075   6.538
 7425SOL    HW223175   4.478   5.020   6.480
 7426SOL     OW23176   1.190   2.278   6.894
 7426SOL    HW123177   1.114   2.338   6.866
 7426SOL    HW223178   1.277   2.318   6.865
 7427SOL     OW23179   2.890   5.793   4.376
 7427SOL    HW123180   2.959   5.865   4.386
 7427SOL    HW223181   2.877   5.748   4.465
 7428SOL     OW23182   3.249   1.386   5.068
 7428SOL    HW123183   3.166   1.361   5.019
 7428SOL    HW223184   3.329   1.364   5.012
 7429SOL     OW23185   5.386   0.719   3.646
 7429SOL    HW123186   5.431   0.689   3.562
 7429SOL    HW223187   5.394   0.818   3.655
 7430SOL     OW23188   6.992   4.506   6.257
 7430SOL    HW123189   7.012   4.457   6.173
 7430SOL    HW223190   6.894   4.528   6.261
 7431SOL     OW23191   0.447   3.723   1.746
 7431SOL    HW123192   0.377   3.714   1.816
 7431SOL    HW223193   0.483   3.633   1.722
 7432SOL     OW23194   0.277   6.925   3.091
 7432SOL    HW123195   0.255   7.001   3.152
 7432SOL    HW223196   0.212   6.850   3.105
 7433SOL     OW23197   6.755   5.776   0.533
 7433SOL    HW123198   6.720   5.686   0.558
 7433SOL    HW223199   6.812   5.812   0.606
 7434SOL     OW23200   4.128   1.247   6.290
 7434SOL    HW123201   4.033   1.246   6.320
 7434SOL    HW223202   4.170   1.334   6.316
 7435SOL     OW23203   3.657   6.306   6.709
 7435SOL    HW123204   3.664   6.398   6.670
 7435SOL    HW223205   3.663   6.312   6.808
 7436SOL     OW23206   5.896   3.389   6.530
 7436SOL    HW123207   5.972   3.350   6.581
 7436SOL    HW223208   5.872   3.329   6.454
 7437SOL     OW23209   6.951   6.063   6.993
 7437SOL    HW123210   0.026   6.060   7.007
 7437SOL    HW223211   6.928   6.140   6.933
 7438SOL     OW23212   1.155   4.880   0.412
 7438SOL    HW123213   1.204   4.965   0.433
 7438SOL    HW223214   1.077   4.899   0.353
 7439SOL     OW23215   1.746   6.511   4.506
 7439SOL    HW123216   1.824   6.450   4.501
 7439SOL    HW223217   1.726   6.531   4.602
 7440SOL     OW23218   0.812   2.950   4.456
 7440SOL    HW123219   0.859   3.025   4.503
 7440SOL    HW223220   0.715   2.972   4.448
 7441SOL     OW23221   5.642   6.018   4.750
 7441SOL    HW123222   5.620   6.082   4.676
 7441SOL    HW223223   5.598   5.930   4.732
 7442SOL     OW23224   1.538   1.168   6.213
 7442SOL    HW123225   1.469   1.158   6.142
 7442SOL    HW223226   1.557   1.079   6.255
 7443SOL     OW23227   0.342   1.238   1.162
 7443SOL    HW123228   0.304   1.208   1.250
 7443SOL    HW223229   0.368   1.157   1.108
 7444SOL     OW23230   6.661   3.737   4.959
 7444SOL    HW123231   6.564   3.722   4.978
 7444SOL    HW223232   6.705   3.649   4.939
 7445SOL     OW23233   3.578   0.918   1.353
 7445SOL    HW123234   3.676   0.936   1.339
 7445SOL    HW223235   3.559   0.913   1.451
 7446SOL     OW23236   5.661   4.291   0.323
 7446SOL    HW123237   5.605   4.321   0.400
 7446SOL    HW223238   5.758   4.304   0.344
 7447SOL     OW23239   1.761   3.313   5.863
 7447SOL    HW123240   1.714   3.387   5.815
 7447SOL    HW223241   1.859   3.316   5.840
 7448SOL     OW23242   5.114   6.649   5.575
 7448SOL    HW123243   5.124   6.647   5.476
 7448SOL    HW223244   5.018   6.640   5.600
 7449SOL     OW23245   5.319   2.881   2.180
 7449SOL    HW123246   5.317   2.803   2.116
 7449SOL    HW223247   5.407   2.884   2.227
 7450SOL     OW23248   4.934   2.015   4.266
 7450SOL    HW123249   4.937   1.915   4.270
 7450SOL    HW223250   4.959   2.045   4.174
 7451SOL     OW23251   2.176   0.280   3.235
 7451SOL    HW123252   2.164   0.181   3.225
 7451SOL    HW223253   2.262   0.298   3.282
 7452SOL     OW23254   0.672   6.839   4.808
 7452SOL    HW123255   0.662   6.937   4.829
 7452SOL    HW223256   0.682   6.827   4.709
 7453SOL     OW23257   5.215   5.442   6.305
 7453SOL    HW123258   5.247   5.370   6.366
 7453SOL    HW223259   5.199   5.404   6.213
 7454SOL     OW23260   1.032   2.983   2.234
 7454SOL    HW123261   1.050   3.081   2.246
 7454SOL    HW223262   1.107   2.942   2.182
 7455SOL     OW23263   6.973   1.208   1.770
 7455SOL    HW123264   6.953   1.223   1.673
 7455SOL    HW223265   7.011   1.117   1.783
 7456SOL     OW23266   0.682   2.115   4.586
 7456SOL    HW123267   0.674   2.022   4.550
 7456SOL    HW223268   0.765   2.158   4.549
 7457SOL     OW23269   3.722   0.513   5.957
 7457SOL    HW123270   3.687   0.455   5.883
 7457SOL    HW223271   3.685   0.482   6.044
 7458SOL     OW23272   1.547   0.394   6.436
 7458SOL    HW123273   1.637   0.351   6.428
 7458SOL    HW223274   1.492   0.371   6.356
 7459SOL     OW23275   4.575   0.038   0.233
 7459SOL    HW123276   4.633   0.079   0.303
 7459SOL    HW223277   4.632   0.001   0.159
 7460SOL     OW23278   1.349   4.198   1.016
 7460SOL    HW123279   1.277   4.241   0.962
 7460SOL    HW223280   1.323   4.104   1.039
 7461SOL     OW23281   5.205   1.499   6.221
 7461SOL    HW123282   5.289   1.525   6.173
 7461SOL    HW223283   5.198   1.400   6.226
 7462SOL     OW23284   2.173   2.936   2.265
 7462SOL    HW123285   2.146   2.989   2.184
 7462SOL    HW223286   2.217   2.851   2.236
 7463SOL     OW23287   3.428   4.250   1.423
 7463SOL    HW123288   3.412   4.151   1.416
 7463SOL    HW223289   3.526   4.269   1.418
 7464SOL     OW23290   3.467   6.983   6.480
 7464SOL    HW123291   3.379   6.999   6.523
 7464SOL    HW223292   3.520   0.045   6.478
 7465SOL     OW23293   1.847   0.437   0.479
 7465SOL    HW123294   1.865   0.412   0.574
 7465SOL    HW223295   1.842   0.354   0.423
 7466SOL     OW23296   0.993   0.208   0.013
 7466SOL    HW123297   0.908   0.207   6.984
 7466SOL    HW223298   1.046   0.289   7.013
 7467SOL     OW23299   6.762   1.487   0.777
 7467SOL    HW123300   6.664   1.499   0.764
 7467SOL    HW223301   6.787   1.392   0.759
 7468SOL     OW23302   5.395   3.178   2.536
 7468SOL    HW123303   5.323   3.162   2.604
 7468SOL    HW223304   5.412   3.093   2.485
 7469SOL     OW23305   0.788   0.074   0.471
 7469SOL    HW123306   0.788   0.030   0.381
 7469SOL    HW223307   0.721   0.029   0.530
 7470SOL     OW23308   0.310   3.273   3.739
 7470SOL    HW123309   0.314   3.306   3.645
 7470SOL    HW223310   0.287   3.176   3.739
 7471SOL     OW23311   5.876   6.673   5.305
 7471SOL    HW123312   5.883   6.656   5.403
 7471SOL    HW223313   5.943   6.618   5.256
 7472SOL     OW23314   5.800   6.536   4.325
 7472SOL    HW123315   5.881   6.477   4.321
 7472SOL    HW223316   5.823   6.627   4.291
 7473SOL     OW23317   0.608   4.129   2.809
 7473SOL    HW123318   0.663   4.048   2.825
 7473SOL    HW223319   0.589   4.175   2.896
 7474SOL     OW23320   2.143   1.355   5.006
 7474SOL    HW123321   2.076   1.429   5.002
 7474SOL    HW223322   2.235   1.393   5.004
 7475SOL     OW23323   3.395   1.907   2.609
 7475SOL    HW123324   3.404   1.813   2.643
 7475SOL    HW223325   3.390   1.970   2.687
 7476SOL     OW23326   3.389   6.098   4.260
 7476SOL    HW123327   3.399   6.028   4.330
 7476SOL    HW223328   3.430   6.184   4.293
 7477SOL     OW23329   5.789   1.432   4.066
 7477SOL    HW123330   5.712   1.465   4.012
 7477SOL    HW223331   5.771   1.338   4.097
 7478SOL     OW23332   3.986   4.736   6.570
 7478SOL    HW123333   4.031   4.778   6.649
 7478SOL    HW223334   3.975   4.804   6.498
 7479SOL     OW23335   4.262   2.374   0.829
 7479SOL    HW123336   4.256   2.440   0.904
 7479SOL    HW223337   4.243   2.420   0.742
 7480SOL     OW23338   6.553   4.360   1.745
 7480SOL    HW123339   6.508   4.332   1.831
 7480SOL    HW223340   6.605   4.444   1.761
 7481SOL     OW23341   5.730   5.198   1.854
 7481SOL    HW123342   5.764   5.104   1.863
 7481SOL    HW223343   5.649   5.210   1.912
 7482SOL     OW23344   5.071   1.413   2.650
 7482SOL    HW123345   5.150   1.443   2.596
 7482SOL    HW223346   5.091   1.324   2.691
 7483SOL     OW23347   4.421   2.194   5.154
 7483SOL    HW123348   4.415   2.109   5.205
 7483SOL    HW223349   4.444   2.174   5.058
 7484SOL     OW23350   0.372   0.329   2.607
 7484SOL    HW123351   0.382   0.417   2.561
 7484SOL    HW223352   0.423   0.259   2.556
 7485SOL     OW23353   3.193   6.016   4.968
 7485SOL    HW123354   3.234   6.107   4.970
 7485SOL    HW223355   3.101   6.021   4.930
 7486SOL     OW23356   2.472   0.514   6.206
 7486SOL    HW123357   2.544   0.457   6.244
 7486SOL    HW223358   2.465   0.499   6.108
 7487SOL     OW23359   2.333   6.108   2.221
 7487SOL    HW123360   2.247   6.106   2.272
 7487SOL    HW223361   2.313   6.123   2.124
 7488SOL     OW23362   2.011   6.854   4.806
 7488SOL    HW123363   1.942   6.899   4.750
 7488SOL    HW223364   1.967   6.809   4.884
 7489SOL     OW23365   5.718   2.039   4.930
 7489SOL    HW123366   5.772   2.012   5.009
 7489SOL    HW223367   5.647   2.102   4.958
 7490SOL     OW23368   0.885   1.393   1.229
 7490SOL    HW123369   0.838   1.395   1.141
 7490SOL    HW223370   0.915   1.486   1.253
 7491SOL     OW23371   6.937   4.066   0.005
 7491SOL    HW123372   6.934   4.077   0.104
 7491SOL    HW223373   6.905   4.150   6.984
 7492SOL     OW23374   3.026   1.137   4.759
 7492SOL    HW123375   2.942   1.084   4.769
 7492SOL    HW223376   3.040   1.159   4.663
 7493SOL     OW23377   0.291   4.440   6.628
 7493SOL    HW123378   0.321   4.522   6.678
 7493SOL    HW223379   0.197   4.453   6.598
 7494SOL     OW23380   6.123   1.242   2.384
 7494SOL    HW123381   6.174   1.271   2.303
 7494SOL    HW223382   6.117   1.142   2.386
 7495SOL     OW23383   2.663   0.995   1.143
 7495SOL    HW123384   2.573   1.002   1.188
 7495SOL    HW223385   2.651   1.002   1.044
 7496SOL     OW23386   0.887   3.462   6.322
 7496SOL    HW123387   0.922   3.544   6.275
 7496SOL    HW223388   0.790   3.450   6.301
 7497SOL     OW23389   2.587   4.447   0.775
 7497SOL    HW123390   2.604   4.449   0.676
 7497SOL    HW223391   2.673   4.427   0.822
 7498SOL     OW23392   1.785   1.287   4.873
 7498SOL    HW123393   1.790   1.202   4.820
 7498SOL    HW223394   1.850   1.353   4.836
 7499SOL     OW23395   5.628   1.067   3.446
 7499SOL    HW123396   5.681   1.057   3.530
 7499SOL    HW223397   5.618   1.164   3.424
 7500SOL     OW23398   4.024   6.034   3.951
 7500SOL    HW123399   3.969   6.032   3.867
 7500SOL    HW223400   3.981   6.096   4.017
 7501SOL     OW23401   6.781   4.478   4.254
 7501SOL    HW123402   6.764   4.571   4.287
 7501SOL    HW223403   6.766   4.413   4.328
 7502SOL     OW23404   1.157   0.707   5.175
 7502SOL    HW123405   1.181   0.797   5.212
 7502SOL    HW223406   1.099   0.658   5.240
 7503SOL     OW23407   1.856   1.271   0.260
 7503SOL    HW123408   1.778   1.231   0.212
 7503SOL    HW223409   1.836   1.275   0.358
 7504SOL     OW23410   2.650   0.601   3.905
 7504SOL    HW123411   2.686   0.517   3.865
 7504SOL    HW223412   2.601   0.654   3.835
 7505SOL     OW23413   2.232   0.992   5.569
 7505SOL    HW123414   2.176   1.071   5.543
 7505SOL    HW223415   2.314   1.025   5.617
 7506SOL     OW23416   4.273   6.792   3.245
 7506SOL    HW123417   4.259   6.881   3.201
 7506SOL    HW223418   4.338   6.802   3.320
 7507SOL     OW23419   0.848   0.599   1.143
 7507SOL    HW123420   0.823   0.689   1.180
 7507SOL    HW223421   0.890   0.544   1.215
 7508SOL     OW23422   6.698   6.734   1.764
 7508SOL    HW123423   6.719   6.742   1.666
 7508SOL    HW223424   6.742   6.652   1.800
 7509SOL     OW23425   5.592   3.915   1.190
 7509SOL    HW123426   5.604   3.903   1.289
 7509SOL    HW223427   5.499   3.946   1.171
 7510SOL     OW23428   2.639   4.506   5.344
 7510SOL    HW123429   2.722   4.497   5.290
 7510SOL    HW223430   2.633   4.431   5.410
 7511SOL     OW23431   1.344   6.989   3.318
 7511SOL    HW123432   1.336   0.058   3.357
 7511SOL    HW223433   1.351   6.922   3.391
 7512SOL     OW23434   3.574   4.537   0.843
 7512SOL    HW123435   3.582   4.527   0.743
 7512SOL    HW223436   3.495   4.485   0.875
 7513SOL     OW23437   1.805   1.823   1.506
 7513SOL    HW123438   1.794   1.740   1.559
 7513SOL    HW223439   1.825   1.900   1.567
 7514SOL     OW23440   2.437   5.224   2.059
 7514SOL    HW123441   2.446   5.163   1.980
 7514SOL    HW223442   2.360   5.286   2.044
 7515SOL     OW23443   1.228   5.762   2.427
 7515SOL    HW123444   1.132   5.786   2.418
 7515SOL    HW223445   1.238   5.662   2.423
 7516SOL     OW23446   6.644   6.390   4.374
 7516SOL    HW123447   6.737   6.424   4.355
 7516SOL    HW223448   6.598   6.454   4.436
 7517SOL     OW23449   0.118   3.046   0.909
 7517SOL    HW123450   0.090   3.139   0.884
 7517SOL    HW223451   0.204   3.049   0.960
 7518SOL     OW23452   4.128   5.459   3.503
 7518SOL    HW123453   4.039   5.422   3.479
 7518SOL    HW223454   4.170   5.402   3.574
 7519SOL     OW23455   0.542   6.705   3.251
 7519SOL    HW123456   0.562   6.796   3.215
 7519SOL    HW223457   0.467   6.710   3.316
 7520SOL     OW23458   3.382   0.024   1.681
 7520SOL    HW123459   3.443   0.056   1.608
 7520SOL    HW223460   3.407   6.954   1.707
 7521SOL     OW23461   4.733   4.727   6.134
 7521SOL    HW123462   4.761   4.784   6.211
 7521SOL    HW223463   4.743   4.631   6.158
 7522SOL     OW23464   2.411   0.023   6.623
 7522SOL    HW123465   2.449   0.103   6.576
 7522SOL    HW223466   2.448   0.018   6.715
 7523SOL     OW23467   5.481   0.485   6.108
 7523SOL    HW123468   5.526   0.572   6.128
 7523SOL    HW223469   5.387   0.501   6.081
 7524SOL     OW23470   1.349   2.097   6.687
 7524SOL    HW123471   1.372   2.006   6.723
 7524SOL    HW223472   1.379   2.167   6.753
 7525SOL     OW23473   2.617   0.103   6.810
 7525SOL    HW123474   2.619   0.066   6.903
 7525SOL    HW223475   2.658   0.193   6.809
 7526SOL     OW23476   3.672   2.967   2.408
 7526SOL    HW123477   3.759   3.016   2.406
 7526SOL    HW223478   3.652   2.933   2.316
 7527SOL     OW23479   4.176   5.479   3.213
 7527SOL    HW123480   4.159   5.501   3.309
 7527SOL    HW223481   4.127   5.544   3.154
 7528SOL     OW23482   3.887   1.982   6.541
 7528SOL    HW123483   3.899   1.882   6.539
 7528SOL    HW223484   3.848   2.009   6.629
 7529SOL     OW23485   5.757   0.337   4.397
 7529SOL    HW123486   5.739   0.384   4.311
 7529SOL    HW223487   5.748   0.238   4.383
 7530SOL     OW23488   6.519   4.310   2.317
 7530SOL    HW123489   6.516   4.311   2.417
 7530SOL    HW223490   6.460   4.237   2.282
 7531SOL     OW23491   4.591   2.497   3.945
 7531SOL    HW123492   4.548   2.466   4.029
 7531SOL    HW223493   4.611   2.419   3.886
 7532SOL     OW23494   5.658   5.343   1.638
 7532SOL    HW123495   5.663   5.287   1.721
 7532SOL    HW223496   5.603   5.296   1.569
 7533SOL     OW23497   2.413   0.844   3.223
 7533SOL    HW123498   2.481   0.878   3.288
 7533SOL    HW223499   2.425   0.888   3.134
 7534SOL     OW23500   3.524   6.482   5.981
 7534SOL    HW123501   3.615   6.505   5.947
 7534SOL    HW223502   3.529   6.463   6.079
 7535SOL     OW23503   2.914   0.884   5.521
 7535SOL    HW123504   2.951   0.828   5.595
 7535SOL    HW223505   2.985   0.947   5.487
 7536SOL     OW23506   5.484   5.266   5.111
 7536SOL    HW123507   5.525   5.183   5.073
 7536SOL    HW223508   5.452   5.325   5.037
 7537SOL     OW23509   2.707   5.717   4.173
 7537SOL    HW123510   2.760   5.737   4.256
 7537SOL    HW223511   2.735   5.778   4.100
 7538SOL     OW23512   3.475   2.817   1.949
 7538SOL    HW123513   3.425   2.777   1.872
 7538SOL    HW223514   3.414   2.873   2.004
 7539SOL     OW23515   2.144   2.552   4.040
 7539SOL    HW123516   2.168   2.481   3.974
 7539SOL    HW223517   2.152   2.517   4.133
 7540SOL     OW23518   2.683   0.258   5.301
 7540SOL    HW123519   2.656   0.164   5.281
 7540SOL    HW223520   2.696   0.269   5.399
 7541SOL     OW23521   0.038   3.849   4.479
 7541SOL    HW123522   7.000   3.928   4.487
 7541SOL    HW223523   7.018   3.769   4.521
 7542SOL     OW23524   0.807   5.450   0.170
 7542SOL    HW123525   0.756   5.521   0.121
 7542SOL    HW223526   0.903   5.453   0.144
 7543SOL     OW23527   4.118   2.276   1.308
 7543SOL    HW123528   4.038   2.321   1.346
 7543SOL    HW223529   4.116   2.178   1.332
 7544SOL     OW23530   0.184   2.413   3.498
 7544SOL    HW123531   0.237   2.331   3.517
 7544SOL    HW223532   0.236   2.474   3.439
 7545SOL     OW23533   5.553   6.250   2.712
 7545SOL    HW123534   5.618   6.192   2.760
 7545SOL    HW223535   5.598   6.336   2.686
 7546SOL     OW23536   4.083   0.849   1.527
 7546SOL    HW123537   4.064   0.793   1.607
 7546SOL    HW223538   4.096   0.945   1.554
 7547SOL     OW23539   4.513   0.203   0.616
 7547SOL    HW123540   4.534   0.115   0.659
 7547SOL    HW223541   4.567   0.212   0.533
 7548SOL     OW23542   2.969   2.034   0.340
 7548SOL    HW123543   3.030   2.101   0.299
 7548SOL    HW223544   2.982   2.034   0.440
 7549SOL     OW23545   5.703   1.488   1.309
 7549SOL    HW123546   5.681   1.558   1.377
 7549SOL    HW223547   5.619   1.441   1.281
 7550SOL     OW23548   2.405   4.484   2.067
 7550SOL    HW123549   2.326   4.543   2.051
 7550SOL    HW223550   2.469   4.530   2.128
 7551SOL     OW23551   4.818   3.987   6.642
 7551SOL    HW123552   4.879   3.918   6.602
 7551SOL    HW223553   4.820   4.070   6.586
 7552SOL     OW23554   1.737   5.855   3.978
 7552SOL    HW123555   1.830   5.865   4.012
 7552SOL    HW223556   1.673   5.896   4.043
 7553SOL     OW23557   4.399   5.057   5.764
 7553SOL    HW123558   4.353   5.071   5.852
 7553SOL    HW223559   4.495   5.084   5.772
 7554SOL     OW23560   5.223   0.188   0.974
 7554SOL    HW123561   5.170   0.125   0.918
 7554SOL    HW223562   5.163   0.262   1.007
 7555SOL     OW23563   1.680   5.258   5.257
 7555SOL    HW123564   1.700   5.160   5.258
 7555SOL    HW223565   1.756   5.309   5.296
 7556SOL     OW23566   0.471   2.419   5.605
 7556SOL    HW123567   0.377   2.395   5.580
 7556SOL    HW223568   0.531   2.410   5.526
 7557SOL     OW23569   4.837   2.867   6.196
 7557SOL    HW123570   4.748   2.903   6.224
 7557SOL    HW223571   4.879   2.818   6.272
 7558SOL     OW23572   1.905   2.848   3.483
 7558SOL    HW123573   1.859   2.818   3.567
 7558SOL    HW223574   1.995   2.804   3.478
 7559SOL     OW23575   6.384   5.295   6.937
 7559SOL    HW123576   6.331   5.307   7.021
 7559SOL    HW223577   6.325   5.259   6.865
 7560SOL     OW23578   5.035   6.235   0.379
 7560SOL    HW123579   5.035   6.205   0.475
 7560SOL    HW223580   4.940   6.249   0.349
 7561SOL     OW23581   0.771   2.861   0.478
 7561SOL    HW123582   0.771   2.781   0.418
 7561SOL    HW223583   0.831   2.844   0.556
 7562SOL     OW23584   5.679   6.132   5.003
 7562SOL    HW123585   5.674   6.090   4.912
 7562SOL    HW223586   5.708   6.063   5.069
 7563SOL     OW23587   2.657   6.307   0.653
 7563SOL    HW123588   2.726   6.250   0.611
 7563SOL    HW223589   2.575   6.253   0.672
 7564SOL     OW23590   5.755   1.414   2.753
 7564SOL    HW123591   5.672   1.469   2.751
 7564SOL    HW223592   5.830   1.467   2.713
 7565SOL     OW23593   5.603   4.663   0.241
 7565SOL    HW123594   5.694   4.638   0.207
 7565SOL    HW223595   5.611   4.709   0.330
 7566SOL     OW23596   0.276   5.407   3.472
 7566SOL    HW123597   0.328   5.326   3.447
 7566SOL    HW223598   0.178   5.386   3.471
 7567SOL     OW23599   1.734   2.586   4.729
 7567SOL    HW123600   1.747   2.584   4.828
 7567SOL    HW223601   1.818   2.558   4.683
 7568SOL     OW23602   5.444   6.162   2.951
 7568SOL    HW123603   5.534   6.150   2.907
 7568SOL    HW223604   5.410   6.254   2.931
 7569SOL     OW23605   4.401   5.015   6.828
 7569SOL    HW123606   4.367   4.960   6.903
 7569SOL    HW223607   4.490   4.981   6.798
 7570SOL     OW23608   5.457   4.719   5.181
 7570SOL    HW123609   5.461   4.635   5.234
 7570SOL    HW223610   5.365   4.730   5.142
 7571SOL     OW23611   4.937   4.901   2.249
 7571SOL    HW123612   5.035   4.902   2.267
 7571SOL    HW223613   4.887   4.898   2.336
 7572SOL     OW23614   4.911   0.929   3.156
 7572SOL    HW123615   4.948   0.986   3.082
 7572SOL    HW223616   4.947   0.960   3.244
 7573SOL     OW23617   6.422   6.518   4.581
 7573SOL    HW123618   6.382   6.593   4.635
 7573SOL    HW223619   6.444   6.441   4.641
 7574SOL     OW23620   6.819   0.844   4.438
 7574SOL    HW123621   6.802   0.777   4.510
 7574SOL    HW223622   6.917   0.856   4.427
 7575SOL     OW23623   4.307   0.352   5.773
 7575SOL    HW123624   4.313   0.338   5.872
 7575SOL    HW223625   4.361   0.282   5.726
 7576SOL     OW23626   6.335   5.548   6.577
 7576SOL    HW123627   6.301   5.535   6.484
 7576SOL    HW223628   6.264   5.525   6.643
 7577SOL     OW23629   0.072   6.742   5.964
 7577SOL    HW123630   0.059   6.660   6.019
 7577SOL    HW223631   7.017   6.804   5.979
 7578SOL     OW23632   2.789   6.048   2.920
 7578SOL    HW123633   2.739   5.964   2.897
 7578SOL    HW223634   2.741   6.096   2.994
 7579SOL     OW23635   5.136   2.282   2.206
 7579SOL    HW123636   5.180   2.199   2.239
 7579SOL    HW223637   5.187   2.319   2.128
 7580SOL     OW23638   1.108   4.032   3.935
 7580SOL    HW123639   1.137   4.087   4.013
 7580SOL    HW223640   1.164   4.055   3.856
 7581SOL     OW23641   5.829   6.796   1.130
 7581SOL    HW123642   5.736   6.831   1.122
 7581SOL    HW223643   5.865   6.816   1.221
 7582SOL     OW23644   3.172   1.502   0.514
 7582SOL    HW123645   3.240   1.503   0.441
 7582SOL    HW223646   3.097   1.564   0.490
 7583SOL     OW23647   6.203   2.676   1.667
 7583SOL    HW123648   6.209   2.756   1.607
 7583SOL    HW223649   6.201   2.706   1.762
 7584SOL     OW23650   2.921   6.639   0.570
 7584SOL    HW123651   2.912   6.541   0.588
 7584SOL    HW223652   2.833   6.676   0.541
 7585SOL     OW23653   1.920   3.335   6.336
 7585SOL    HW123654   1.825   3.359   6.314
 7585SOL    HW223655   1.966   3.416   6.372
 7586SOL     OW23656   3.635   0.860   3.583
 7586SOL    HW123657   3.689   0.912   3.648
 7586SOL    HW223658   3.554   0.822   3.629
 7587SOL     OW23659   3.190   1.651   6.760
 7587SOL    HW123660   3.213   1.741   6.796
 7587SOL    HW223661   3.242   1.633   6.677
 7588SOL     OW23662   1.505   3.283   2.544
 7588SOL    HW123663   1.437   3.224   2.588
 7588SOL    HW223664   1.475   3.303   2.450
 7589SOL     OW23665   6.901   0.007   1.025
 7589SOL    HW123666   6.892   6.948   1.081
 7589SOL    HW223667   6.844   7.020   0.943
 7590SOL     OW23668   3.764   1.980   6.808
 7590SOL    HW123669   3.759   2.006   6.904
 7590SOL    HW223670   3.675   1.996   6.765
 7591SOL     OW23671   7.020   4.585   0.508
 7591SOL    HW123672   6.920   4.583   0.503
 7591SOL    HW223673   0.035   4.598   0.416
 7592SOL     OW23674   6.787   4.088   6.202
 7592SOL    HW123675   6.758   4.128   6.288
 7592SOL    HW223676   6.884   4.107   6.187
 7593SOL     OW23677   5.772   2.650   1.077
 7593SOL    HW123678   5.860   2.625   1.118
 7593SOL    HW223679   5.698   2.603   1.126
 7594SOL     OW23680   6.784   4.811   2.614
 7594SOL    HW123681   6.756   4.762   2.532
 7594SOL    HW223682   6.736   4.899   2.619
 7595SOL     OW23683   6.802   2.439   6.027
 7595SOL    HW123684   6.861   2.518   6.011
 7595SOL    HW223685   6.820   2.369   5.957
 7596SOL     OW23686   4.068   5.684   3.060
 7596SOL    HW123687   4.081   5.782   3.043
 7596SOL    HW223688   4.060   5.636   2.972
 7597SOL     OW23689   2.633   6.025   2.456
 7597SOL    HW123690   2.563   5.955   2.471
 7597SOL    HW223691   2.600   6.091   2.389
 7598SOL     OW23692   6.730   1.465   3.130
 7598SOL    HW123693   6.709   1.455   3.033
 7598SOL    HW223694   6.706   1.558   3.159
 7599SOL     OW23695   5.748   1.569   3.257
 7599SOL    HW123696   5.775   1.512   3.335
 7599SOL    HW223697   5.815   1.642   3.245
 7600SOL     OW23698   1.912   1.335   2.314
 7600SOL    HW123699   1.899   1.263   2.381
 7600SOL    HW223700   1.827   1.349   2.263
 7601SOL     OW23701   2.067   5.506   2.451
 7601SOL    HW123702   2.154   5.542   2.484
 7601SOL    HW223703   2.043   5.550   2.365
 7602SOL     OW23704   1.148   4.410   6.318
 7602SOL    HW123705   1.087   4.331   6.312
 7602SOL    HW223706   1.199   4.419   6.232
 7603SOL     OW23707   1.931   5.308   6.148
 7603SOL    HW123708   1.945   5.215   6.115
 7603SOL    HW223709   1.859   5.352   6.094
 7604SOL     OW23710   1.771   4.164   4.148
 7604SOL    HW123711   1.828   4.115   4.082
 7604SOL    HW223712   1.677   4.167   4.115
 7605SOL     OW23713   0.797   6.731   0.656
 7605SOL    HW123714   0.821   6.802   0.722
 7605SOL    HW223715   0.870   6.663   0.652
 7606SOL     OW23716   6.737   3.135   3.804
 7606SOL    HW123717   6.701   3.051   3.763
 7606SOL    HW223718   6.836   3.140   3.792
 7607SOL     OW23719   4.699   5.424   0.634
 7607SOL    HW123720   4.635   5.449   0.706
 7607SOL    HW223721   4.683   5.482   0.554
 7608SOL     OW23722   3.159   4.031   3.222
 7608SOL    HW123723   3.178   4.128   3.240
 7608SOL    HW223724   3.120   4.021   3.131
 7609SOL     OW23725   0.172   4.097   3.837
 7609SOL    HW123726   0.249   4.055   3.885
 7609SOL    HW223727   0.100   4.118   3.903
 7610SOL     OW23728   6.136   6.928   6.876
 7610SOL    HW123729   6.160   6.933   6.779
 7610SOL    HW223730   6.199   6.985   6.929
 7611SOL     OW23731   0.480   1.500   0.515
 7611SOL    HW123732   0.534   1.452   0.584
 7611SOL    HW223733   0.507   1.596   0.513
 7612SOL     OW23734   5.012   3.213   4.697
 7612SOL    HW123735   4.985   3.193   4.791
 7612SOL    HW223736   5.112   3.221   4.691
 7613SOL     OW23737   5.915   3.415   1.505
 7613SOL    HW123738   5.984   3.386   1.571
 7613SOL    HW223739   5.824   3.405   1.546
 7614SOL     OW23740   5.282   3.500   1.046
 7614SOL    HW123741   5.209   3.440   1.078
 7614SOL    HW223742   5.370   3.467   1.081
 7615SOL     OW23743   4.855   4.004   6.276
 7615SOL    HW123744   4.928   4.026   6.211
 7615SOL    HW223745   4.896   3.970   6.361
 7616SOL     OW23746   0.032   4.691   4.672
 7616SOL    HW123747   0.088   4.613   4.699
 7616SOL    HW223748   6.966   4.659   4.641
 7617SOL     OW23749   3.449   5.388   2.895
 7617SOL    HW123750   3.461   5.289   2.906
 7617SOL    HW223751   3.365   5.406   2.844
 7618SOL     OW23752   0.276   1.960   6.029
 7618SOL    HW123753   0.367   1.939   6.064
 7618SOL    HW223754   0.241   1.881   5.979
 7619SOL     OW23755   5.641   3.477   5.333
 7619SOL    HW123756   5.595   3.417   5.399
 7619SOL    HW223757   5.588   3.480   5.248
 7620SOL     OW23758   3.970   5.254   0.504
 7620SOL    HW123759   4.067   5.270   0.487
 7620SOL    HW223760   3.917   5.334   0.476
 7621SOL     OW23761   0.271   1.723   0.305
 7621SOL    HW123762   0.276   1.633   0.348
 7621SOL    HW223763   0.323   1.723   0.220
 7622SOL     OW23764   5.088   5.646   1.826
 7622SOL    HW123765   5.099   5.678   1.731
 7622SOL    HW223766   5.177   5.645   1.871
 7623SOL     OW23767   4.739   4.504   6.700
 7623SOL    HW123768   4.815   4.450   6.664
 7623SOL    HW223769   4.688   4.450   6.767
 7624SOL     OW23770   6.867   2.379   4.925
 7624SOL    HW123771   6.936   2.445   4.952
 7624SOL    HW223772   6.862   2.375   4.825
 7625SOL     OW23773   4.839   0.580   1.336
 7625SOL    HW123774   4.808   0.672   1.311
 7625SOL    HW223775   4.771   0.513   1.306
 7626SOL     OW23776   6.630   6.799   4.168
 7626SOL    HW123777   6.681   6.759   4.092
 7626SOL    HW223778   6.616   6.897   4.152
 7627SOL     OW23779   5.385   2.979   6.677
 7627SOL    HW123780   5.332   2.894   6.680
 7627SOL    HW223781   5.459   2.974   6.744
 7628SOL     OW23782   3.643   0.439   2.530
 7628SOL    HW123783   3.736   0.436   2.495
 7628SOL    HW223784   3.616   0.534   2.547
 7629SOL     OW23785   0.054   0.147   3.211
 7629SOL    HW123786   6.997   0.144   3.151
 7629SOL    HW223787   0.121   0.212   3.176
 7630SOL     OW23788   6.461   0.011   1.337
 7630SOL    HW123789   6.379   7.015   1.284
 7630SOL    HW223790   6.441   0.077   1.408
 7631SOL     OW23791   0.575   1.030   5.426
 7631SOL    HW123792   0.488   1.056   5.383
 7631SOL    HW223793   0.586   0.931   5.422
 7632SOL     OW23794   3.695   2.785   1.774
 7632SOL    HW123795   3.631   2.791   1.851
 7632SOL    HW223796   3.715   2.689   1.754
 7633SOL     OW23797   4.551   2.037   0.932
 7633SOL    HW123798   4.544   1.989   1.019
 7633SOL    HW223799   4.531   2.134   0.945
 7634SOL     OW23800   0.657   1.785   2.664
 7634SOL    HW123801   0.563   1.783   2.699
 7634SOL    HW223802   0.663   1.847   2.586
 7635SOL     OW23803   2.821   5.819   5.387
 7635SOL    HW123804   2.803   5.904   5.336
 7635SOL    HW223805   2.734   5.778   5.414
 7636SOL     OW23806   1.497   2.389   3.496
 7636SOL    HW123807   1.416   2.337   3.471
 7636SOL    HW223808   1.479   2.487   3.486
 7637SOL     OW23809   2.670   6.242   3.099
 7637SOL    HW123810   2.729   6.310   3.055
 7637SOL    HW223811   2.576   6.254   3.068
 7638SOL     OW23812   3.672   5.888   1.391
 7638SOL    HW123813   3.687   5.794   1.361
 7638SOL    HW223814   3.679   5.950   1.312
 7639SOL     OW23815   1.578   1.978   0.689
 7639SOL    HW123816   1.542   1.926   0.612
 7639SOL    HW223817   1.655   1.928   0.730
 7640SOL     OW23818   3.360   2.112   0.242
 7640SOL    HW123819   3.383   2.028   0.194
 7640SOL    HW223820   3.377   2.100   0.340
 7641SOL     OW23821   0.831   4.118   1.744
 7641SOL    HW123822   0.750   4.175   1.753
 7641SOL    HW223823   0.913   4.175   1.752
 7642SOL     OW23824   2.761   0.772   2.235
 7642SOL    HW123825   2.844   0.819   2.204
 7642SOL    HW223826   2.743   0.694   2.175
 7643SOL     OW23827   4.762   2.857   4.458
 7643SOL    HW123828   4.859   2.856   4.483
 7643SOL    HW223829   4.751   2.909   4.373
 7644SOL     OW23830   5.685   2.471   2.373
 7644SOL    HW123831   5.700   2.565   2.402
 7644SOL    HW223832   5.772   2.423   2.370
 7645SOL     OW23833   4.165   3.843   5.269
 7645SOL    HW123834   4.251   3.800   5.297
 7645SOL    HW223835   4.170   3.941   5.287
 7646SOL     OW23836   2.144   2.693   2.440
 7646SOL    HW123837   2.190   2.666   2.355
 7646SOL    HW223838   2.211   2.695   2.514
 7647SOL     OW23839   6.594   3.474   2.293
 7647SOL    HW123840   6.615   3.569   2.316
 7647SOL    HW223841   6.572   3.467   2.196
 7648SOL     OW23842   3.355   1.702   3.636
 7648SOL    HW123843   3.292   1.691   3.713
 7648SOL    HW223844   3.437   1.647   3.652
 7649SOL     OW23845   0.965   1.303   2.794
 7649SOL    HW123846   0.991   1.345   2.881
 7649SOL    HW223847   0.884   1.246   2.807
 7650SOL     OW23848   5.014   2.670   1.715
 7650SOL    HW123849   5.038   2.603   1.784
 7650SOL    HW223850   5.024   2.762   1.753
 7651SOL     OW23851   2.174   6.992   5.004
 7651SOL    HW123852   2.249   6.927   4.999
 7651SOL    HW223853   2.107   6.972   4.933
 7652SOL     OW23854   6.739   4.163   4.694
 7652SOL    HW123855   6.642   4.176   4.676
 7652SOL    HW223856   6.778   4.246   4.733
 7653SOL     OW23857   2.969   1.607   0.364
 7653SOL    HW123858   2.882   1.571   0.399
 7653SOL    HW223859   2.951   1.675   0.293
 7654SOL     OW23860   5.474   3.112   4.036
 7654SOL    HW123861   5.501   3.196   3.990
 7654SOL    HW223862   5.463   3.039   3.968
 7655SOL     OW23863   3.538   0.466   3.427
 7655SOL    HW123864   3.587   0.390   3.384
 7655SOL    HW223865   3.582   0.552   3.403
 7656SOL     OW23866   2.172   4.899   6.522
 7656SOL    HW123867   2.145   4.966   6.452
 7656SOL    HW223868   2.097   4.834   6.536
 7657SOL     OW23869   2.458   2.665   3.842
 7657SOL    HW123870   2.423   2.699   3.930
 7657SOL    HW223871   2.401   2.589   3.812
 7658SOL     OW23872   3.548   0.312   5.883
 7658SOL    HW123873   3.460   0.284   5.845
 7658SOL    HW223874   3.540   0.320   5.982
 7659SOL     OW23875   6.180   5.542   6.837
 7659SOL    HW123876   6.220   5.588   6.916
 7659SOL    HW223877   6.123   5.466   6.868
 7660SOL     OW23878   0.258   6.789   3.716
 7660SOL    HW123879   0.166   6.794   3.754
 7660SOL    HW223880   0.317   6.855   3.762
 7661SOL     OW23881   5.550   2.453   4.913
 7661SOL    HW123882   5.522   2.426   4.821
 7661SOL    HW223883   5.509   2.391   4.980
 7662SOL     OW23884   1.016   2.212   2.455
 7662SOL    HW123885   0.916   2.212   2.456
 7662SOL    HW223886   1.050   2.300   2.489
 7663SOL     OW23887   0.745   6.756   5.643
 7663SOL    HW123888   0.800   6.703   5.708
 7663SOL    HW223889   0.739   6.851   5.674
 7664SOL     OW23890   3.881   0.192   2.470
 7664SOL    HW123891   3.914   0.124   2.535
 7664SOL    HW223892   3.895   0.284   2.508
 7665SOL     OW23893   5.070   0.249   5.403
 7665SOL    HW123894   5.056   0.348   5.398
 7665SOL    HW223895   5.062   0.209   5.312
 7666SOL     OW23896   0.896   6.473   1.691
 7666SOL    HW123897   0.953   6.417   1.751
 7666SOL    HW223898   0.891   6.431   1.601
 7667SOL     OW23899   4.338   6.153   2.082
 7667SOL    HW123900   4.431   6.177   2.056
 7667SOL    HW223901   4.309   6.211   2.159
 7668SOL     OW23902   3.269   4.363   1.218
 7668SOL    HW123903   3.334   4.305   1.268
 7668SOL    HW223904   3.302   4.376   1.124
 7669SOL     OW23905   5.623   1.768   5.999
 7669SOL    HW123906   5.650   1.752   6.094
 7669SOL    HW223907   5.691   1.825   5.954
 7670SOL     OW23908   0.661   4.588   6.653
 7670SOL    HW123909   0.688   4.546   6.566
 7670SOL    HW223910   0.566   4.618   6.646
 7671SOL     OW23911   3.839   0.626   3.905
 7671SOL    HW123912   3.810   0.544   3.954
 7671SOL    HW223913   3.912   0.672   3.956
 7672SOL     OW23914   5.825   6.758   3.095
 7672SOL    HW123915   5.779   6.687   3.041
 7672SOL    HW223916   5.758   6.803   3.153
 7673SOL     OW23917   1.882   5.363   6.846
 7673SOL    HW123918   1.806   5.298   6.836
 7673SOL    HW223919   1.951   5.324   6.906
 7674SOL     OW23920   6.161   1.954   4.117
 7674SOL    HW123921   6.137   1.876   4.059
 7674SOL    HW223922   6.077   1.996   4.151
 7675SOL     OW23923   5.307   6.886   2.634
 7675SOL    HW123924   5.343   6.799   2.599
 7675SOL    HW223925   5.243   6.924   2.567
 7676SOL     OW23926   2.125   1.972   0.225
 7676SOL    HW123927   2.216   1.971   0.266
 7676SOL    HW223928   2.118   2.050   0.163
 7677SOL     OW23929   0.182   4.062   2.129
 7677SOL    HW123930   0.194   4.025   2.221
 7677SOL    HW223931   0.179   4.162   2.134
 7678SOL     OW23932   2.532   1.542   4.575
 7678SOL    HW123933   2.625   1.520   4.605
 7678SOL    HW223934   2.473   1.556   4.654
 7679SOL     OW23935   2.710   5.788   6.520
 7679SOL    HW123936   2.671   5.793   6.612
 7679SOL    HW223937   2.678   5.865   6.466
 7680SOL     OW23938   1.651   1.681   0.376
 7680SOL    HW123939   1.682   1.623   0.452
 7680SOL    HW223940   1.726   1.740   0.347
 7681SOL     OW23941   2.692   6.749   0.463
 7681SOL    HW123942   2.720   6.790   0.376
 7681SOL    HW223943   2.652   6.819   0.522
 7682SOL     OW23944   2.982   0.351   1.753
 7682SOL    HW123945   2.958   0.344   1.849
 7682SOL    HW223946   3.039   0.273   1.727
 7683SOL     OW23947   6.380   1.938   3.750
 7683SOL    HW123948   6.468   1.926   3.703
 7683SOL    HW223949   6.333   2.019   3.714
 7684SOL     OW23950   4.243   2.141   1.643
 7684SOL    HW123951   4.184   2.121   1.565
 7684SOL    HW223952   4.208   2.221   1.692
 7685SOL     OW23953   3.225   3.380   6.948
 7685SOL    HW123954   3.272   3.463   6.981
 7685SOL    HW223955   3.144   3.407   6.896
 7686SOL     OW23956   5.732   0.033   3.022
 7686SOL    HW123957   5.698   7.012   3.105
 7686SOL    HW223958   5.831   0.039   3.026
 7687SOL     OW23959   5.876   5.133   5.006
 7687SOL    HW123960   5.858   5.088   5.094
 7687SOL    HW223961   5.870   5.067   4.932
 7688SOL     OW23962   0.580   6.691   5.267
 7688SOL    HW123963   0.539   6.737   5.189
 7688SOL    HW223964   0.531   6.716   5.350
 7689SOL     OW23965   4.854   6.737   2.656
 7689SOL    HW123966   4.927   6.771   2.716
 7689SOL    HW223967   4.891   6.665   2.597
 7690SOL     OW23968   6.575   4.811   1.472
 7690SOL    HW123969   6.539   4.902   1.493
 7690SOL    HW223970   6.598   4.765   1.558
 7691SOL     OW23971   5.314   2.652   4.099
 7691SOL    HW123972   5.336   2.706   4.180
 7691SOL    HW223973   5.220   2.672   4.070
 7692SOL     OW23974   1.146   6.214   2.068
 7692SOL    HW123975   1.065   6.272   2.063
 7692SOL    HW223976   1.165   6.175   1.977
 7693SOL     OW23977   3.252   0.241   1.455
 7693SOL    HW123978   3.294   0.324   1.494
 7693SOL    HW223979   3.210   0.188   1.529
 7694SOL     OW23980   0.569   4.717   4.338
 7694SOL    HW123981   0.532   4.715   4.431
 7694SOL    HW223982   0.579   4.623   4.304
 7695SOL     OW23983   4.311   6.137   0.694
 7695SOL    HW123984   4.215   6.144   0.666
 7695SOL    HW223985   4.326   6.194   0.775
 7696SOL     OW23986   6.798   1.278   4.586
 7696SOL    HW123987   6.805   1.215   4.664
 7696SOL    HW223988   6.723   1.341   4.602
 7697SOL     OW23989   2.969   6.839   1.524
 7697SOL    HW123990   2.990   6.754   1.572
 7697SOL    HW223991   3.042   6.860   1.459
 7698SOL     OW23992   6.515   2.267   3.637
 7698SOL    HW123993   6.416   2.267   3.654
 7698SOL    HW223994   6.532   2.294   3.543
 7699SOL     OW23995   3.281   6.113   0.597
 7699SOL    HW123996   3.208   6.161   0.548
 7699SOL    HW223997   3.240   6.043   0.655
 7700SOL     OW23998   4.997   6.286   4.569
 7700SOL    HW123999   4.977   6.272   4.666
 7700SOL    HW224000   4.968   6.378   4.542
 7701SOL     OW24001   6.889   1.657   6.914
 7701SOL    HW124002   6.905   1.560   6.897
 7701SOL    HW224003   6.829   1.694   6.843
 7702SOL     OW24004   3.024   6.483   6.275
 7702SOL    HW124005   3.088   6.411   6.251
 7702SOL    HW224006   2.941   6.474   6.219
 7703SOL     OW24007   6.508   1.057   5.110
 7703SOL    HW124008   6.432   1.019   5.162
 7703SOL    HW224009   6.588   1.064   5.169
 7704SOL     OW24010   5.458   4.681   5.587
 7704SOL    HW124011   5.381   4.740   5.560
 7704SOL    HW224012   5.485   4.624   5.510
 7705SOL     OW24013   3.838   5.106   5.572
 7705SOL    HW124014   3.814   5.134   5.479
 7705SOL    HW224015   3.933   5.131   5.592
 7706SOL     OW24016   4.437   2.414   4.425
 7706SOL    HW124017   4.359   2.357   4.399
 7706SOL    HW224018   4.476   2.457   4.343
 7707SOL     OW24019   0.933   5.469   5.985
 7707SOL    HW124020   1.000   5.465   5.910
 7707SOL    HW224021   0.895   5.378   6.001
 7708SOL     OW24022   5.839   6.747   5.598
 7708SOL    HW124023   5.846   6.752   5.697
 7708SOL    HW224024   5.745   6.765   5.570
 7709SOL     OW24025   5.822   4.203   1.656
 7709SOL    HW124026   5.784   4.116   1.627
 7709SOL    HW224027   5.753   4.275   1.645
 7710SOL     OW24028   3.781   0.578   0.829
 7710SOL    HW124029   3.776   0.669   0.789
 7710SOL    HW224030   3.689   0.539   0.834
 7711SOL     OW24031   6.045   6.331   5.281
 7711SOL    HW124032   6.103   6.254   5.258
 7711SOL    HW224033   6.086   6.384   5.355
 7712SOL     OW24034   5.424   5.633   2.420
 7712SOL    HW124035   5.499   5.686   2.459
 7712SOL    HW224036   5.438   5.536   2.440
 7713SOL     OW24037   1.591   4.988   0.627
 7713SOL    HW124038   1.557   4.929   0.554
 7713SOL    HW224039   1.685   4.963   0.649
 7714SOL     OW24040   6.657   4.491   5.460
 7714SOL    HW124041   6.562   4.522   5.451
 7714SOL    HW224042   6.690   4.515   5.552
 7715SOL     OW24043   4.454   2.022   0.007
 7715SOL    HW124044   4.501   2.044   6.945
 7715SOL    HW224045   4.365   2.067   0.010
 7716SOL     OW24046   6.632   4.635   4.038
 7716SOL    HW124047   6.668   4.567   4.103
 7716SOL    HW224048   6.616   4.722   4.086
 7717SOL     OW24049   1.294   0.973   4.733
 7717SOL    HW124050   1.304   1.056   4.678
 7717SOL    HW224051   1.364   0.907   4.705
 7718SOL     OW24052   1.782   1.673   2.756
 7718SOL    HW124053   1.743   1.688   2.847
 7718SOL    HW224054   1.726   1.719   2.688
 7719SOL     OW24055   6.548   3.811   4.459
 7719SOL    HW124056   6.596   3.766   4.534
 7719SOL    HW224057   6.613   3.863   4.404
 7720SOL     OW24058   0.602   0.756   0.138
 7720SOL    HW124059   0.693   0.750   0.098
 7720SOL    HW224060   0.594   0.687   0.211
 7721SOL     OW24061   0.331   4.896   2.669
 7721SOL    HW124062   0.374   4.837   2.736
 7721SOL    HW224063   0.231   4.885   2.673
 7722SOL     OW24064   0.396   6.015   3.333
 7722SOL    HW124065   0.384   6.062   3.245
 7722SOL    HW224066   0.307   6.002   3.377
 7723SOL     OW24067   6.539   3.668   0.012
 7723SOL    HW124068   6.574   3.584   0.054
 7723SOL    HW224069   6.492   3.646   6.950
 7724SOL     OW24070   2.591   4.579   1.754
 7724SOL    HW124071   2.501   4.588   1.796
 7724SOL    HW224072   2.653   4.647   1.792
 7725SOL     OW24073   5.663   2.981   3.418
 7725SOL    HW124074   5.637   2.915   3.489
 7725SOL    HW224075   5.683   3.069   3.459
 7726SOL     OW24076   1.639   6.228   4.918
 7726SOL    HW124077   1.647   6.140   4.965
 7726SOL    HW224078   1.544   6.258   4.919
 7727SOL     OW24079   0.345   0.847   2.886
 7727SOL    HW124080   0.428   0.800   2.915
 7727SOL    HW224081   0.307   0.898   2.963
 7728SOL     OW24082   1.194   5.184   3.239
 7728SOL    HW124083   1.141   5.102   3.259
 7728SOL    HW224084   1.250   5.207   3.319
 7729SOL     OW24085   5.790   3.094   0.570
 7729SOL    HW124086   5.726   3.017   0.570
 7729SOL    HW224087   5.741   3.178   0.593
 7730SOL     OW24088   5.818   5.989   1.482
 7730SOL    HW124089   5.754   5.923   1.520
 7730SOL    HW224090   5.870   5.947   1.408
 7731SOL     OW24091   5.974   0.952   0.971
 7731SOL    HW124092   5.990   1.041   1.012
 7731SOL    HW224093   6.016   0.881   1.027
 7732SOL     OW24094   4.329   6.669   0.359
 7732SOL    HW124095   4.325   6.614   0.442
 7732SOL    HW224096   4.247   6.654   0.304
 7733SOL     OW24097   4.473   6.703   2.364
 7733SOL    HW124098   4.426   6.709   2.277
 7733SOL    HW224099   4.473   6.608   2.396
 7734SOL     OW24100   2.225   5.451   3.682
 7734SOL    HW124101   2.203   5.496   3.596
 7734SOL    HW224102   2.147   5.396   3.712
 7735SOL     OW24103   4.606   6.206   6.162
 7735SOL    HW124104   4.648   6.271   6.098
 7735SOL    HW224105   4.559   6.257   6.234
 7736SOL     OW24106   3.650   4.050   6.903
 7736SOL    HW124107   3.605   3.989   6.968
 7736SOL    HW224108   3.629   4.019   6.810
 7737SOL     OW24109   3.921   0.785   2.261
 7737SOL    HW124110   3.855   0.736   2.205
 7737SOL    HW224111   3.890   0.786   2.356
 7738SOL     OW24112   2.507   5.576   6.844
 7738SOL    HW124113   2.521   5.542   6.751
 7738SOL    HW224114   2.525   5.674   6.847
 7739SOL     OW24115   0.942   2.396   1.854
 7739SOL    HW124116   0.916   2.319   1.913
 7739SOL    HW224117   0.864   2.456   1.840
 7740SOL     OW24118   1.784   1.048   3.076
 7740SOL    HW124119   1.839   1.108   3.018
 7740SOL    HW224120   1.833   0.961   3.089
 7741SOL     OW24121   1.122   5.330   4.838
 7741SOL    HW124122   1.093   5.266   4.767
 7741SOL    HW224123   1.043   5.356   4.894
 7742SOL     OW24124   5.576   2.398   3.787
 7742SOL    HW124125   5.491   2.399   3.734
 7742SOL    HW224126   5.589   2.487   3.830
 7743SOL     OW24127   4.865   1.806   7.009
 7743SOL    HW124128   4.960   1.795   0.015
 7743SOL    HW224129   4.805   1.810   0.066
 7744SOL     OW24130   1.270   5.997   3.367
 7744SOL    HW124131   1.329   5.928   3.409
 7744SOL    HW224132   1.184   6.003   3.418
 7745SOL     OW24133   3.075   1.124   5.480
 7745SOL    HW124134   3.129   1.161   5.404
 7745SOL    HW224135   3.035   1.199   5.532
 7746SOL     OW24136   2.725   6.133   0.135
 7746SOL    HW124137   2.824   6.117   0.141
 7746SOL    HW224138   2.679   6.085   0.210
 7747SOL     OW24139   4.791   5.853   1.562
 7747SOL    HW124140   4.753   5.917   1.495
 7747SOL    HW224141   4.883   5.881   1.586
 7748SOL     OW24142   3.663   3.099   5.409
 7748SOL    HW124143   3.736   3.125   5.473
 7748SOL    HW224144   3.600   3.036   5.454
 7749SOL     OW24145   2.813   2.774   5.355
 7749SOL    HW124146   2.752   2.829   5.411
 7749SOL    HW224147   2.901   2.764   5.401
 7750SOL     OW24148   6.790   6.335   1.574
 7750SOL    HW124149   6.799   6.399   1.650
 7750SOL    HW224150   6.844   6.253   1.593
 7751SOL     OW24151   1.212   2.055   2.528
 7751SOL    HW124152   1.151   2.122   2.484
 7751SOL    HW224153   1.307   2.081   2.511
 7752SOL     OW24154   4.981   0.035   6.027
 7752SOL    HW124155   4.999   7.004   5.944
 7752SOL    HW224156   4.902   7.020   6.074
 7753SOL     OW24157   2.441   1.075   4.401
 7753SOL    HW124158   2.421   1.154   4.343
 7753SOL    HW224159   2.429   1.101   4.497
 7754SOL     OW24160   3.723   6.266   0.999
 7754SOL    HW124161   3.735   6.348   1.056
 7754SOL    HW224162   3.627   6.258   0.972
 7755SOL     OW24163   1.548   2.428   6.142
 7755SOL    HW124164   1.557   2.512   6.196
 7755SOL    HW224165   1.616   2.361   6.173
 7756SOL     OW24166   2.933   6.511   1.610
 7756SOL    HW124167   2.840   6.524   1.575
 7756SOL    HW224168   2.938   6.425   1.660
 7757SOL     OW24169   6.031   4.873   1.514
 7757SOL    HW124170   6.064   4.833   1.428
 7757SOL    HW224171   5.945   4.829   1.540
 7758SOL     OW24172   1.904   6.993   6.113
 7758SOL    HW124173   1.865   0.013   6.194
 7758SOL    HW224174   1.834   6.941   6.064
 7759SOL     OW24175   2.298   1.452   5.314
 7759SOL    HW124176   2.238   1.528   5.290
 7759SOL    HW224177   2.366   1.439   5.242
 7760SOL     OW24178   5.225   2.604   2.363
 7760SOL    HW124179   5.291   2.635   2.294
 7760SOL    HW224180   5.143   2.570   2.317
 7761SOL     OW24181   6.560   6.182   5.104
 7761SOL    HW124182   6.552   6.258   5.039
 7761SOL    HW224183   6.470   6.160   5.141
 7762SOL     OW24184   2.717   0.414   3.710
 7762SOL    HW124185   2.805   0.458   3.691
 7762SOL    HW224186   2.713   0.327   3.662
 7763SOL     OW24187   2.575   0.087   0.146
 7763SOL    HW124188   2.512   0.046   0.211
 7763SOL    HW224189   2.551   0.183   0.132
 7764SOL     OW24190   3.508   3.794   5.819
 7764SOL    HW124191   3.524   3.705   5.776
 7764SOL    HW224192   3.513   3.785   5.918
 7765SOL     OW24193   6.185   2.901   5.084
 7765SOL    HW124194   6.272   2.904   5.035
 7765SOL    HW224195   6.188   2.963   5.162
 7766SOL     OW24196   6.814   3.593   1.185
 7766SOL    HW124197   6.718   3.567   1.196
 7766SOL    HW224198   6.861   3.582   1.273
 7767SOL     OW24199   4.064   6.527   2.284
 7767SOL    HW124200   4.010   6.579   2.217
 7767SOL    HW224201   4.060   6.572   2.373
 7768SOL     OW24202   5.089   4.841   3.675
 7768SOL    HW124203   5.131   4.751   3.667
 7768SOL    HW224204   5.060   4.872   3.584
 7769SOL     OW24205   4.295   1.640   5.151
 7769SOL    HW124206   4.199   1.655   5.129
 7769SOL    HW224207   4.302   1.576   5.228
 7770SOL     OW24208   0.341   3.485   4.419
 7770SOL    HW124209   0.355   3.582   4.440
 7770SOL    HW224210   0.424   3.448   4.377
 7771SOL     OW24211   2.867   1.610   5.721
 7771SOL    HW124212   2.928   1.613   5.800
 7771SOL    HW224213   2.772   1.614   5.752
 7772SOL     OW24214   5.648   6.802   0.688
 7772SOL    HW124215   5.613   6.791   0.595
 7772SOL    HW224216   5.747   6.817   0.684
 7773SOL     OW24217   1.762   5.513   5.610
 7773SOL    HW124218   1.687   5.447   5.614
 7773SOL    HW224219   1.819   5.493   5.530
 7774SOL     OW24220   4.765   2.562   4.608
 7774SOL    HW124221   4.769   2.638   4.543
 7774SOL    HW224222   4.672   2.556   4.646
 7775SOL     OW24223   4.362   6.519   0.076
 7775SOL    HW124224   4.366   6.477   7.008
 7775SOL    HW224225   4.274   6.498   0.118
 7776SOL     OW24226   0.669   6.002   6.697
 7776SOL    HW124227   0.666   5.925   6.634
 7776SOL    HW224228   0.764   6.016   6.728
 7777SOL     OW24229   5.871   5.595   4.671
 7777SOL    HW124230   5.862   5.628   4.766
 7777SOL    HW224231   5.781   5.591   4.629
 7778SOL     OW24232   5.673   3.940   2.111
 7778SOL    HW124233   5.738   3.877   2.068
 7778SOL    HW224234   5.647   4.011   2.045
 7779SOL     OW24235   2.535   1.119   2.197
 7779SOL    HW124236   2.631   1.140   2.180
 7779SOL    HW224237   2.479   1.156   2.123
 7780SOL     OW24238   1.250   5.211   5.176
 7780SOL    HW124239   1.288   5.211   5.269
 7780SOL    HW224240   1.151   5.194   5.182
 7781SOL     OW24241   0.899   3.473   1.061
 7781SOL    HW124242   0.862   3.466   0.968
 7781SOL    HW224243   0.826   3.500   1.124
 7782SOL     OW24244   5.257   5.291   4.029
 7782SOL    HW124245   5.204   5.374   4.010
 7782SOL    HW224246   5.243   5.263   4.124
 7783SOL     OW24247   0.667   0.350   5.655
 7783SOL    HW124248   0.651   0.253   5.636
 7783SOL    HW224249   0.628   0.373   5.744
 7784SOL     OW24250   2.974   2.389   1.634
 7784SOL    HW124251   2.930   2.413   1.721
 7784SOL    HW224252   3.050   2.327   1.652
 7785SOL     OW24253   2.373   6.495   3.968
 7785SOL    HW124254   2.448   6.534   4.023
 7785SOL    HW224255   2.412   6.445   3.890
 7786SOL     OW24256   4.296   0.673   6.582
 7786SOL    HW124257   4.234   0.737   6.626
 7786SOL    HW224258   4.262   0.652   6.490
 7787SOL     OW24259   1.919   2.949   0.103
 7787SOL    HW124260   1.937   2.938   0.005
 7787SOL    HW224261   1.822   2.933   0.121
 7788SOL     OW24262   1.081   5.335   1.665
 7788SOL    HW124263   1.137   5.253   1.654
 7788SOL    HW224264   1.128   5.400   1.726
 7789SOL     OW24265   3.210   0.082   6.555
 7789SOL    HW124266   3.223   0.156   6.621
 7789SOL    HW224267   3.150   0.012   6.595
 7790SOL     OW24268   5.458   4.886   2.437
 7790SOL    HW124269   5.420   4.847   2.521
 7790SOL    HW224270   5.555   4.860   2.429
 7791SOL     OW24271   1.821   5.175   2.232
 7791SOL    HW124272   1.734   5.147   2.191
 7791SOL    HW224273   1.846   5.111   2.305
 7792SOL     OW24274   1.480   6.625   3.415
 7792SOL    HW124275   1.509   6.554   3.479
 7792SOL    HW224276   1.410   6.682   3.458
 7793SOL     OW24277   4.379   0.999   0.258
 7793SOL    HW124278   4.422   1.078   0.215
 7793SOL    HW224279   4.437   0.919   0.246
 7794SOL     OW24280   0.183   4.315   2.226
 7794SOL    HW124281   0.111   4.378   2.198
 7794SOL    HW224282   0.272   4.348   2.195
 7795SOL     OW24283   3.373   5.379   5.230
 7795SOL    HW124284   3.288   5.381   5.283
 7795SOL    HW224285   3.376   5.296   5.175
 7796SOL     OW24286   3.377   2.519   5.913
 7796SOL    HW124287   3.446   2.566   5.969
 7796SOL    HW224288   3.416   2.496   5.824
 7797SOL     OW24289   0.832   5.501   1.102
 7797SOL    HW124290   0.733   5.508   1.087
 7797SOL    HW224291   0.862   5.577   1.160
 7798SOL     OW24292   1.673   1.509   2.531
 7798SOL    HW124293   1.729   1.536   2.453
 7798SOL    HW224294   1.630   1.589   2.572
 7799SOL     OW24295   2.067   5.668   2.752
 7799SOL    HW124296   2.136   5.738   2.735
 7799SOL    HW224297   1.976   5.708   2.743
 7800SOL     OW24298   0.764   6.356   3.197
 7800SOL    HW124299   0.679   6.325   3.154
 7800SOL    HW224300   0.824   6.277   3.212
 7801SOL     OW24301   1.412   1.281   2.963
 7801SOL    HW124302   1.411   1.313   2.868
 7801SOL    HW224303   1.334   1.220   2.978
 7802SOL     OW24304   0.071   3.412   0.164
 7802SOL    HW124305   0.037   3.503   0.143
 7802SOL    HW224306   0.060   3.393   0.261
 7803SOL     OW24307   4.757   1.779   6.752
 7803SOL    HW124308   4.792   1.794   6.844
 7803SOL    HW224309   4.832   1.788   6.686
 7804SOL     OW24310   4.076   2.080   5.251
 7804SOL    HW124311   4.089   2.062   5.153
 7804SOL    HW224312   4.050   2.175   5.264
 7805SOL     OW24313   4.928   3.776   2.532
 7805SOL    HW124314   4.932   3.814   2.624
 7805SOL    HW224315   4.924   3.676   2.538
 7806SOL     OW24316   6.146   0.811   6.760
 7806SOL    HW124317   6.086   0.891   6.771
 7806SOL    HW224318   6.216   0.832   6.691
 7807SOL     OW24319   0.793   4.203   5.179
 7807SOL    HW124320   0.722   4.134   5.163
 7807SOL    HW224321   0.792   4.270   5.104
 7808SOL     OW24322   5.512   3.281   3.038
 7808SOL    HW124323   5.479   3.294   2.945
 7808SOL    HW224324   5.523   3.370   3.082
 7809SOL     OW24325   5.075   5.214   4.512
 7809SOL    HW124326   5.149   5.278   4.535
 7809SOL    HW224327   4.989   5.264   4.502
 7810SOL     OW24328   2.784   6.416   5.532
 7810SOL    HW124329   2.780   6.494   5.595
 7810SOL    HW224330   2.704   6.418   5.473
 7811SOL     OW24331   1.070   5.151   2.153
 7811SOL    HW124332   1.040   5.068   2.106
 7811SOL    HW224333   1.165   5.139   2.183
 7812SOL     OW24334   2.039   2.932   4.955
 7812SOL    HW124335   2.095   2.923   5.038
 7812SOL    HW224336   2.099   2.927   4.875
 7813SOL     OW24337   4.409   2.249   1.260
 7813SOL    HW124338   4.481   2.283   1.200
 7813SOL    HW224339   4.332   2.313   1.258
 7814SOL     OW24340   0.061   3.844   2.769
 7814SOL    HW124341   7.022   3.851   2.848
 7814SOL    HW224342   0.039   3.761   2.718
 7815SOL     OW24343   5.764   1.724   4.639
 7815SOL    HW124344   5.844   1.672   4.668
 7815SOL    HW224345   5.773   1.819   4.671
 7816SOL     OW24346   0.451   2.534   6.450
 7816SOL    HW124347   0.425   2.584   6.367
 7816SOL    HW224348   0.378   2.543   6.518
 7817SOL     OW24349   4.465   4.206   5.265
 7817SOL    HW124350   4.369   4.191   5.290
 7817SOL    HW224351   4.523   4.148   5.322
 7818SOL     OW24352   4.587   0.924   3.062
 7818SOL    HW124353   4.537   0.966   2.987
 7818SOL    HW224354   4.685   0.937   3.048
 7819SOL     OW24355   0.440   3.873   4.282
 7819SOL    HW124356   0.479   3.800   4.226
 7819SOL    HW224357   0.471   3.863   4.376
 7820SOL     OW24358   1.867   1.018   5.774
 7820SOL    HW124359   1.857   0.935   5.828
 7820SOL    HW224360   1.846   0.999   5.678
 7821SOL     OW24361   5.722   5.912   0.674
 7821SOL    HW124362   5.785   5.847   0.717
 7821SOL    HW224363   5.773   5.991   0.641
 7822SOL     OW24364   1.615   1.720   6.141
 7822SOL    HW124365   1.584   1.644   6.199
 7822SOL    HW224366   1.546   1.739   6.072
 7823SOL     OW24367   2.124   4.100   6.376
 7823SOL    HW124368   2.137   4.175   6.311
 7823SOL    HW224369   2.188   4.026   6.354
 7824SOL     OW24370   5.836   0.202   4.822
 7824SOL    HW124371   5.848   0.297   4.794
 7824SOL    HW224372   5.803   0.148   4.745
 7825SOL     OW24373   1.836   3.085   1.433
 7825SOL    HW124374   1.852   3.034   1.349
 7825SOL    HW224375   1.888   3.171   1.430
 7826SOL     OW24376   4.865   1.996   6.222
 7826SOL    HW124377   4.914   2.059   6.163
 7826SOL    HW224378   4.880   2.021   6.318
 7827SOL     OW24379   3.201   4.614   1.004
 7827SOL    HW124380   3.197   4.539   0.938
 7827SOL    HW224381   3.199   4.701   0.954
 7828SOL     OW24382   0.044   5.266   0.641
 7828SOL    HW124383   0.019   5.319   0.560
 7828SOL    HW224384   0.099   5.187   0.614
 7829SOL     OW24385   2.086   2.927   0.843
 7829SOL    HW124386   2.185   2.919   0.848
 7829SOL    HW224387   2.058   2.929   0.747
 7830SOL     OW24388   5.454   3.890   6.130
 7830SOL    HW124389   5.547   3.894   6.168
 7830SOL    HW224390   5.446   3.811   6.069
 7831SOL     OW24391   1.255   5.242   0.358
 7831SOL    HW124392   1.351   5.234   0.386
 7831SOL    HW224393   1.197   5.216   0.435
 7832SOL     OW24394   3.562   1.474   3.946
 7832SOL    HW124395   3.605   1.564   3.948
 7832SOL    HW224396   3.563   1.438   3.853
 7833SOL     OW24397   0.540   1.026   0.132
 7833SOL    HW124398   0.533   1.067   0.041
 7833SOL    HW224399   0.561   0.929   0.124
 7834SOL     OW24400   0.691   1.848   2.935
 7834SOL    HW124401   0.697   1.831   2.837
 7834SOL    HW224402   0.783   1.848   2.975
 7835SOL     OW24403   1.962   2.244   5.016
 7835SOL    HW124404   1.952   2.326   5.072
 7835SOL    HW224405   1.887   2.239   4.950
 7836SOL     OW24406   3.543   1.689   6.347
 7836SOL    HW124407   3.585   1.738   6.423
 7836SOL    HW224408   3.484   1.752   6.295
 7837SOL     OW24409   7.017   6.518   1.323
 7837SOL    HW124410   6.934   6.469   1.350
 7837SOL    HW224411   0.043   6.465   1.254
 7838SOL     OW24412   4.412   6.183   6.564
 7838SOL    HW124413   4.511   6.177   6.575
 7838SOL    HW224414   4.368   6.104   6.608
 7839SOL     OW24415   6.466   4.684   5.525
 7839SOL    HW124416   6.388   4.741   5.499
 7839SOL    HW224417   6.490   4.702   5.621
 7840SOL     OW24418   5.149   3.716   3.786
 7840SOL    HW124419   5.183   3.691   3.877
 7840SOL    HW224420   5.191   3.802   3.757
 7841SOL     OW24421   5.515   1.252   6.783
 7841SOL    HW124422   5.540   1.340   6.742
 7841SOL    HW224423   5.528   1.257   6.882
 7842SOL     OW24424   1.865   0.981   3.465
 7842SOL    HW124425   1.868   1.079   3.449
 7842SOL    HW224426   1.946   0.952   3.516
 7843SOL     OW24427   5.877   4.600   1.736
 7843SOL    HW124428   5.791   4.548   1.733
 7843SOL    HW224429   5.929   4.582   1.653
 7844SOL     OW24430   4.519   0.015   3.547
 7844SOL    HW124431   4.543   6.996   3.634
 7844SOL    HW224432   4.602   0.044   3.500
 7845SOL     OW24433   0.494   1.372   3.828
 7845SOL    HW124434   0.520   1.468   3.821
 7845SOL    HW224435   0.396   1.365   3.844
 7846SOL     OW24436   1.761   0.556   1.903
 7846SOL    HW124437   1.691   0.567   1.973
 7846SOL    HW224438   1.784   0.459   1.893
 7847SOL     OW24439   6.801   1.598   1.718
 7847SOL    HW124440   6.768   1.649   1.639
 7847SOL    HW224441   6.847   1.660   1.781
 7848SOL     OW24442   3.055   4.216   1.021
 7848SOL    HW124443   2.998   4.278   1.076
 7848SOL    HW224444   3.124   4.175   1.079
 7849SOL     OW24445   5.222   3.964   4.052
 7849SOL    HW124446   5.230   4.040   4.116
 7849SOL    HW224447   5.313   3.926   4.033
 7850SOL     OW24448   0.557   1.641   3.864
 7850SOL    HW124449   0.502   1.722   3.845
 7850SOL    HW224450   0.651   1.668   3.885
 7851SOL     OW24451   6.655   0.162   0.667
 7851SOL    HW124452   6.558   0.188   0.659
 7851SOL    HW224453   6.666   0.101   0.746
 7852SOL     OW24454   2.657   0.297   5.971
 7852SOL    HW124455   2.601   0.376   5.947
 7852SOL    HW224456   2.599   0.215   5.974
 7853SOL     OW24457   3.919   1.671   1.943
 7853SOL    HW124458   3.870   1.749   1.906
 7853SOL    HW224459   4.018   1.689   1.940
 7854SOL     OW24460   3.439   4.800   0.954
 7854SOL    HW124461   3.398   4.875   0.903
 7854SOL    HW224462   3.485   4.737   0.891
 7855SOL     OW24463   3.690   5.758   5.823
 7855SOL    HW124464   3.777   5.773   5.870
 7855SOL    HW224465   3.622   5.823   5.857
 7856SOL     OW24466   6.050   4.694   3.710
 7856SOL    HW124467   5.958   4.731   3.719
 7856SOL    HW224468   6.078   4.697   3.614
 7857SOL     OW24469   6.337   2.752   5.711
 7857SOL    HW124470   6.314   2.676   5.772
 7857SOL    HW224471   6.384   2.716   5.630
 7858SOL     OW24472   5.044   5.162   3.822
 7858SOL    HW124473   5.138   5.180   3.848
 7858SOL    HW224474   5.007   5.086   3.875
 7859SOL     OW24475   6.846   4.329   5.818
 7859SOL    HW124476   6.800   4.412   5.786
 7859SOL    HW224477   6.792   4.286   5.890
 7860SOL     OW24478   4.002   6.387   2.773
 7860SOL    HW124479   4.079   6.416   2.717
 7860SOL    HW224480   3.997   6.445   2.855
 7861SOL     OW24481   3.920   5.431   2.282
 7861SOL    HW124482   3.860   5.500   2.241
 7861SOL    HW224483   3.994   5.476   2.331
 7862SOL     OW24484   3.121   4.577   1.702
 7862SOL    HW124485   3.048   4.555   1.767
 7862SOL    HW224486   3.160   4.492   1.667
 7863SOL     OW24487   6.638   6.794   3.792
 7863SOL    HW124488   6.553   6.802   3.844
 7863SOL    HW224489   6.680   6.705   3.812
 7864SOL     OW24490   6.571   6.363   5.868
 7864SOL    HW124491   6.648   6.425   5.854
 7864SOL    HW224492   6.584   6.281   5.812
 7865SOL     OW24493   4.799   7.020   4.282
 7865SOL    HW124494   4.842   0.035   4.364
 7865SOL    HW224495   4.840   0.039   4.201
 7866SOL     OW24496   2.299   2.180   0.612
 7866SOL    HW124497   2.283   2.272   0.649
 7866SOL    HW224498   2.387   2.146   0.644
 7867SOL     OW24499   5.390   5.321   2.460
 7867SOL    HW124500   5.415   5.300   2.365
 7867SOL    HW224501   5.290   5.324   2.468
 7868SOL     OW24502   5.929   6.982   2.598
 7868SOL    HW124503   5.962   6.915   2.532
 7868SOL    HW224504   5.924   6.939   2.689
 7869SOL     OW24505   6.253   3.626   0.152
 7869SOL    HW124506   6.168   3.672   0.179
 7869SOL    HW224507   6.233   3.559   0.080
 7870SOL     OW24508   5.204   5.565   3.904
 7870SOL    HW124509   5.217   5.657   3.938
 7870SOL    HW224510   5.113   5.557   3.862
 7871SOL     OW24511   6.083   3.743   2.571
 7871SOL    HW124512   6.110   3.787   2.485
 7871SOL    HW224513   6.014   3.674   2.552
 7872SOL     OW24514   1.331   4.575   2.537
 7872SOL    HW124515   1.295   4.656   2.582
 7872SOL    HW224516   1.420   4.551   2.576
 7873SOL     OW24517   5.182   6.927   5.091
 7873SOL    HW124518   5.210   6.990   5.164
 7873SOL    HW224519   5.257   6.917   5.025
 7874SOL     OW24520   5.737   1.376   0.412
 7874SOL    HW124521   5.709   1.470   0.430
 7874SOL    HW224522   5.746   1.362   0.313
 7875SOL     OW24523   4.033   3.374   6.765
 7875SOL    HW124524   4.093   3.393   6.843
 7875SOL    HW224525   3.951   3.326   6.797
 7876SOL     OW24526   6.953   0.034   4.869
 7876SOL    HW124527   6.920   6.970   4.833
 7876SOL    HW224528   6.915   0.050   4.959
 7877SOL     OW24529   0.066   3.239   2.598
 7877SOL    HW124530   0.117   3.222   2.683
 7877SOL    HW224531   0.130   3.262   2.525
 7878SOL     OW24532   4.917   4.928   3.898
 7878SOL    HW124533   4.988   4.897   3.835
 7878SOL    HW224534   4.829   4.890   3.870
 7879SOL     OW24535   4.356   5.901   3.598
 7879SOL    HW124536   4.425   5.829   3.607
 7879SOL    HW224537   4.275   5.877   3.650
 7880SOL     OW24538   0.585   5.385   1.098
 7880SOL    HW124539   0.591   5.286   1.102
 7880SOL    HW224540   0.526   5.419   1.171
 7881SOL     OW24541   6.351   3.363   4.782
 7881SOL    HW124542   6.402   3.345   4.698
 7881SOL    HW224543   6.311   3.454   4.778
 7882SOL     OW24544   1.734   2.838   3.258
 7882SOL    HW124545   1.790   2.861   3.338
 7882SOL    HW224546   1.729   2.738   3.249
 7883SOL     OW24547   2.291   6.790   1.104
 7883SOL    HW124548   2.253   6.742   1.183
 7883SOL    HW224549   2.225   6.856   1.068
 7884SOL     OW24550   1.991   4.166   3.811
 7884SOL    HW124551   2.040   4.249   3.840
 7884SOL    HW224552   1.918   4.191   3.748
 7885SOL     OW24553   5.969   6.442   2.480
 7885SOL    HW124554   5.904   6.500   2.430
 7885SOL    HW224555   6.006   6.494   2.557
 7886SOL     OW24556   4.536   3.530   1.410
 7886SOL    HW124557   4.471   3.507   1.339
 7886SOL    HW224558   4.590   3.450   1.435
 7887SOL     OW24559   3.541   2.506   5.408
 7887SOL    HW124560   3.524   2.411   5.434
 7887SOL    HW224561   3.454   2.552   5.391
 7888SOL     OW24562   0.166   0.259   5.041
 7888SOL    HW124563   0.244   0.228   5.095
 7888SOL    HW224564   0.121   0.179   5.000
 7889SOL     OW24565   0.326   5.049   6.712
 7889SOL    HW124566   0.303   5.030   6.807
 7889SOL    HW224567   0.243   5.075   6.662
 7890SOL     OW24568   0.401   3.615   3.915
 7890SOL    HW124569   0.462   3.558   3.861
 7890SOL    HW224570   0.445   3.640   4.001
 7891SOL     OW24571   1.081   3.892   4.250
 7891SOL    HW124572   1.150   3.965   4.243
 7891SOL    HW224573   1.092   3.828   4.174
 7892SOL     OW24574   0.980   2.414   4.038
 7892SOL    HW124575   0.989   2.397   3.940
 7892SOL    HW224576   0.889   2.386   4.069
 7893SOL     OW24577   5.976   6.636   2.062
 7893SOL    HW124578   6.067   6.655   2.026
 7893SOL    HW224579   5.925   6.581   1.996
 7894SOL     OW24580   2.901   1.137   1.164
 7894SOL    HW124581   2.893   1.186   1.078
 7894SOL    HW224582   2.814   1.092   1.185
 7895SOL     OW24583   4.200   6.491   5.290
 7895SOL    HW124584   4.179   6.530   5.201
 7895SOL    HW224585   4.184   6.560   5.361
 7896SOL     OW24586   5.837   3.621   1.352
 7896SOL    HW124587   5.866   3.542   1.406
 7896SOL    HW224588   5.917   3.673   1.322
 7897SOL     OW24589   3.315   3.251   0.554
 7897SOL    HW124590   3.270   3.323   0.606
 7897SOL    HW224591   3.302   3.163   0.599
 7898SOL     OW24592   4.087   6.749   4.075
 7898SOL    HW124593   4.023   6.739   3.999
 7898SOL    HW224594   4.112   6.845   4.085
 7899SOL     OW24595   5.909   6.710   1.470
 7899SOL    HW124596   5.901   6.809   1.475
 7899SOL    HW224597   5.972   6.678   1.542
 7900SOL     OW24598   0.504   4.330   1.385
 7900SOL    HW124599   0.455   4.378   1.313
 7900SOL    HW224600   0.602   4.349   1.378
 7901SOL     OW24601   4.992   0.940   6.195
 7901SOL    HW124602   4.962   1.020   6.143
 7901SOL    HW224603   4.938   0.860   6.168
 7902SOL     OW24604   6.450   5.922   3.303
 7902SOL    HW124605   6.373   5.892   3.245
 7902SOL    HW224606   6.471   5.851   3.370
 7903SOL     OW24607   4.490   1.587   3.032
 7903SOL    HW124608   4.457   1.681   3.036
 7903SOL    HW224609   4.498   1.551   3.126
 7904SOL     OW24610   5.559   0.808   3.375
 7904SOL    HW124611   5.568   0.903   3.403
 7904SOL    HW224612   5.648   0.774   3.344
 7905SOL     OW24613   6.123   1.622   0.861
 7905SOL    HW124614   6.210   1.643   0.815
 7905SOL    HW224615   6.131   1.642   0.959
 7906SOL     OW24616   0.989   5.794   0.323
 7906SOL    HW124617   0.972   5.891   0.301
 7906SOL    HW224618   0.950   5.737   0.251
 7907SOL     OW24619   6.533   1.039   3.204
 7907SOL    HW124620   6.627   1.011   3.186
 7907SOL    HW224621   6.533   1.131   3.243
 7908SOL     OW24622   1.264   1.300   5.820
 7908SOL    HW124623   1.320   1.249   5.887
 7908SOL    HW224624   1.182   1.247   5.799
 7909SOL     OW24625   4.679   4.201   3.814
 7909SOL    HW124626   4.597   4.241   3.857
 7909SOL    HW224627   4.736   4.274   3.778
 7910SOL     OW24628   1.532   3.428   0.812
 7910SOL    HW124629   1.502   3.448   0.719
 7910SOL    HW224630   1.576   3.509   0.851
 7911SOL     OW24631   0.787   4.063   1.473
 7911SOL    HW124632   0.801   4.104   1.563
 7911SOL    HW224633   0.768   4.135   1.405
 7912SOL     OW24634   5.379   4.110   0.767
 7912SOL    HW124635   5.339   4.022   0.795
 7912SOL    HW224636   5.478   4.105   0.773
 7913SOL     OW24637   1.135   4.244   1.367
 7913SOL    HW124638   1.105   4.201   1.281
 7913SOL    HW224639   1.083   4.327   1.383
 7914SOL     OW24640   0.317   4.524   1.147
 7914SOL    HW124641   0.289   4.566   1.060
 7914SOL    HW224642   0.313   4.424   1.138
 7915SOL     OW24643   4.648   1.940   2.887
 7915SOL    HW124644   4.747   1.937   2.877
 7915SOL    HW224645   4.605   1.883   2.817
 7916SOL     OW24646   0.480   6.438   5.312
 7916SOL    HW124647   0.520   6.523   5.278
 7916SOL    HW224648   0.552   6.380   5.350
 7917SOL     OW24649   4.359   3.081   5.449
 7917SOL    HW124650   4.326   3.146   5.381
 7917SOL    HW224651   4.420   3.014   5.406
 7918SOL     OW24652   6.762   0.744   4.923
 7918SOL    HW124653   6.670   0.784   4.934
 7918SOL    HW224654   6.829   0.803   4.968
 7919SOL     OW24655   0.857   4.101   2.143
 7919SOL    HW124656   0.938   4.091   2.085
 7919SOL    HW224657   0.885   4.111   2.238
 7920SOL     OW24658   5.390   0.258   1.848
 7920SOL    HW124659   5.290   0.249   1.846
 7920SOL    HW224660   5.421   0.263   1.943
 7921SOL     OW24661   5.573   7.019   2.291
 7921SOL    HW124662   5.538   0.030   2.378
 7921SOL    HW224663   5.670   6.998   2.299
 7922SOL     OW24664   0.792   5.934   0.029
 7922SOL    HW124665   0.877   5.950   0.078
 7922SOL    HW224666   0.793   5.987   6.967
 7923SOL     OW24667   3.316   1.632   5.629
 7923SOL    HW124668   3.228   1.675   5.649
 7923SOL    HW224669   3.347   1.580   5.708
 7924SOL     OW24670   4.636   0.380   1.255
 7924SOL    HW124671   4.570   0.436   1.306
 7924SOL    HW224672   4.590   0.301   1.215
 7925SOL     OW24673   1.233   0.082   0.981
 7925SOL    HW124674   1.279   0.146   0.919
 7925SOL    HW224675   1.221   0.125   1.070
 7926SOL     OW24676   5.205   1.757   6.789
 7926SOL    HW124677   5.297   1.767   6.828
 7926SOL    HW224678   5.183   1.837   6.733
 7927SOL     OW24679   4.854   6.906   2.085
 7927SOL    HW124680   4.938   6.877   2.131
 7927SOL    HW224681   4.788   6.832   2.088
 7928SOL     OW24682   6.899   2.002   4.010
 7928SOL    HW124683   6.892   1.902   4.005
 7928SOL    HW224684   6.954   2.027   4.090
 7929SOL     OW24685   3.816   3.883   5.654
 7929SOL    HW124686   3.732   3.933   5.631
 7929SOL    HW224687   3.829   3.884   5.753
 7930SOL     OW24688   3.906   5.312   6.514
 7930SOL    HW124689   3.883   5.253   6.591
 7930SOL    HW224690   4.001   5.294   6.486
 7931SOL     OW24691   4.188   2.842   0.808
 7931SOL    HW124692   4.282   2.834   0.776
 7931SOL    HW224693   4.186   2.837   0.908
 7932SOL     OW24694   1.279   5.343   6.660
 7932SOL    HW124695   1.241   5.361   6.569
 7932SOL    HW224696   1.266   5.246   6.682
 7933SOL     OW24697   6.449   0.687   5.961
 7933SOL    HW124698   6.466   0.771   6.013
 7933SOL    HW224699   6.476   0.608   6.016
 7934SOL     OW24700   1.676   5.192   6.825
 7934SOL    HW124701   1.628   5.208   6.739
 7934SOL    HW224702   1.612   5.202   6.901
 7935SOL     OW24703   5.387   6.227   1.554
 7935SOL    HW124704   5.469   6.204   1.502
 7935SOL    HW224705   5.404   6.214   1.652
 7936SOL     OW24706   3.072   5.714   3.080
 7936SOL    HW124707   3.073   5.658   3.163
 7936SOL    HW224708   3.095   5.808   3.102
 7937SOL     OW24709   1.280   6.012   3.918
 7937SOL    HW124710   1.275   5.947   3.842
 7937SOL    HW224711   1.238   5.972   4.000
 7938SOL     OW24712   5.583   6.115   5.435
 7938SOL    HW124713   5.675   6.155   5.440
 7938SOL    HW224714   5.589   6.023   5.396
 7939SOL     OW24715   1.312   2.231   5.675
 7939SOL    HW124716   1.273   2.172   5.604
 7939SOL    HW224717   1.281   2.202   5.765
 7940SOL     OW24718   2.755   2.312   3.008
 7940SOL    HW124719   2.800   2.325   2.920
 7940SOL    HW224720   2.665   2.357   3.007
 7941SOL     OW24721   5.537   6.729   2.746
 7941SOL    HW124722   5.565   6.825   2.753
 7941SOL    HW224723   5.481   6.716   2.664
 7942SOL     OW24724   0.862   3.440   3.301
 7942SOL    HW124725   0.780   3.392   3.334
 7942SOL    HW224726   0.899   3.392   3.222
 7943SOL     OW24727   0.764   4.568   5.638
 7943SOL    HW124728   0.776   4.485   5.692
 7943SOL    HW224729   0.845   4.583   5.581
 7944SOL     OW24730   0.621   2.847   1.430
 7944SOL    HW124731   0.621   2.874   1.527
 7944SOL    HW224732   0.678   2.910   1.378
 7945SOL     OW24733   6.050   5.676   2.246
 7945SOL    HW124734   6.104   5.760   2.253
 7945SOL    HW224735   5.957   5.697   2.217
 7946SOL     OW24736   3.442   0.685   6.030
 7946SOL    HW124737   3.463   0.736   6.113
 7946SOL    HW224738   3.519   0.693   5.966
 7947SOL     OW24739   2.399   1.718   5.292
 7947SOL    HW124740   2.388   1.817   5.297
 7947SOL    HW224741   2.461   1.687   5.363
 7948SOL     OW24742   0.644   5.428   0.822
 7948SOL    HW124743   0.663   5.432   0.920
 7948SOL    HW224744   0.721   5.384   0.775
 7949SOL     OW24745   4.365   4.316   6.240
 7949SOL    HW124746   4.412   4.352   6.322
 7949SOL    HW224747   4.432   4.302   6.167
 7950SOL     OW24748   4.661   5.890   4.385
 7950SOL    HW124749   4.572   5.921   4.353
 7950SOL    HW224750   4.684   5.804   4.339
 7951SOL     OW24751   1.573   5.129   2.136
 7951SOL    HW124752   1.501   5.195   2.159
 7951SOL    HW224753   1.553   5.089   2.047
 7952SOL     OW24754   0.179   3.158   0.435
 7952SOL    HW124755   0.221   3.230   0.490
 7952SOL    HW224756   0.247   3.119   0.373
 7953SOL     OW24757   4.649   2.178   1.869
 7953SOL    HW124758   4.581   2.108   1.892
 7953SOL    HW224759   4.734   2.159   1.918
 7954SOL     OW24760   3.557   4.456   6.459
 7954SOL    HW124761   3.464   4.493   6.458
 7954SOL    HW224762   3.623   4.531   6.448
 7955SOL     OW24763   2.329   1.476   6.681
 7955SOL    HW124764   2.294   1.462   6.774
 7955SOL    HW224765   2.347   1.387   6.639
 7956SOL     OW24766   4.768   0.952   1.820
 7956SOL    HW124767   4.759   0.975   1.917
 7956SOL    HW224768   4.677   0.949   1.778
 7957SOL     OW24769   1.631   1.303   0.483
 7957SOL    HW124770   1.584   1.235   0.538
 7957SOL    HW224771   1.642   1.387   0.536
 7958SOL     OW24772   5.019   4.416   6.036
 7958SOL    HW124773   4.959   4.381   6.108
 7958SOL    HW224774   4.973   4.492   5.989
 7959SOL     OW24775   5.423   6.806   0.153
 7959SOL    HW124776   5.445   6.742   0.079
 7959SOL    HW224777   5.346   6.862   0.126
 7960SOL     OW24778   1.731   0.946   6.123
 7960SOL    HW124779   1.652   0.930   6.183
 7960SOL    HW224780   1.734   1.042   6.098
 7961SOL     OW24781   6.763   0.548   1.019
 7961SOL    HW124782   6.754   0.618   0.948
 7961SOL    HW224783   6.686   0.555   1.083
 7962SOL     OW24784   0.652   1.266   5.564
 7962SOL    HW124785   0.627   1.197   5.497
 7962SOL    HW224786   0.569   1.312   5.596
 7963SOL     OW24787   6.306   5.643   4.367
 7963SOL    HW124788   6.283   5.639   4.465
 7963SOL    HW224789   6.399   5.609   4.353
 7964SOL     OW24790   6.534   3.434   2.998
 7964SOL    HW124791   6.571   3.346   2.970
 7964SOL    HW224792   6.437   3.424   3.021
 7965SOL     OW24793   3.948   2.258   6.443
 7965SOL    HW124794   3.951   2.191   6.516
 7965SOL    HW224795   3.859   2.253   6.396
 7966SOL     OW24796   3.091   3.247   6.144
 7966SOL    HW124797   3.093   3.188   6.064
 7966SOL    HW224798   2.999   3.248   6.183
 7967SOL     OW24799   2.732   5.715   1.834
 7967SOL    HW124800   2.814   5.711   1.890
 7967SOL    HW224801   2.735   5.643   1.764
 7968SOL     OW24802   6.214   2.326   4.607
 7968SOL    HW124803   6.146   2.255   4.625
 7968SOL    HW224804   6.170   2.416   4.609
 7969SOL     OW24805   5.983   5.891   1.180
 7969SOL    HW124806   5.920   5.966   1.158
 7969SOL    HW224807   6.057   5.889   1.113
 7970SOL     OW24808   6.430   3.885   2.044
 7970SOL    HW124809   6.399   3.801   1.999
 7970SOL    HW224810   6.526   3.901   2.023
 7971SOL     OW24811   3.321   1.849   1.280
 7971SOL    HW124812   3.387   1.898   1.222
 7971SOL    HW224813   3.311   1.756   1.247
 7972SOL     OW24814   3.224   3.565   1.318
 7972SOL    HW124815   3.232   3.633   1.391
 7972SOL    HW224816   3.201   3.476   1.359
 7973SOL     OW24817   4.645   5.052   4.200
 7973SOL    HW124818   4.605   5.082   4.287
 7973SOL    HW224819   4.743   5.036   4.213
 7974SOL     OW24820   6.133   0.953   6.135
 7974SOL    HW124821   6.198   0.898   6.083
 7974SOL    HW224822   6.157   1.050   6.127
 7975SOL     OW24823   5.451   0.274   0.870
 7975SOL    HW124824   5.386   0.221   0.926
 7975SOL    HW224825   5.503   0.336   0.929
 7976SOL     OW24826   0.897   0.373   6.028
 7976SOL    HW124827   0.984   0.417   6.007
 7976SOL    HW224828   0.906   0.274   6.016
 7977SOL     OW24829   4.102   5.965   2.990
 7977SOL    HW124830   4.062   6.033   2.929
 7977SOL    HW224831   4.120   6.007   3.079
 7978SOL     OW24832   6.867   2.596   6.594
 7978SOL    HW124833   6.805   2.631   6.523
 7978SOL    HW224834   6.955   2.571   6.553
 7979SOL     OW24835   2.693   4.748   5.516
 7979SOL    HW124836   2.730   4.826   5.466
 7979SOL    HW224837   2.687   4.669   5.455
 7980SOL     OW24838   3.334   5.605   6.915
 7980SOL    HW124839   3.298   5.697   6.931
 7980SOL    HW224840   3.406   5.609   6.845
 7981SOL     OW24841   0.965   4.532   1.846
 7981SOL    HW124842   1.034   4.480   1.897
 7981SOL    HW224843   0.955   4.492   1.754
 7982SOL     OW24844   1.356   1.786   6.391
 7982SOL    HW124845   1.350   1.694   6.350
 7982SOL    HW224846   1.306   1.787   6.478
 7983SOL     OW24847   6.351   2.397   0.507
 7983SOL    HW124848   6.449   2.384   0.525
 7983SOL    HW224849   6.321   2.333   0.437
 7984SOL     OW24850   0.336   1.210   0.345
 7984SOL    HW124851   0.347   1.111   0.344
 7984SOL    HW224852   0.273   1.237   0.417
 7985SOL     OW24853   2.850   1.824   4.606
 7985SOL    HW124854   2.751   1.815   4.617
 7985SOL    HW224855   2.895   1.789   4.688
 7986SOL     OW24856   2.818   0.929   6.312
 7986SOL    HW124857   2.739   0.895   6.363
 7986SOL    HW224858   2.816   1.029   6.310
 7987SOL     OW24859   2.116   2.585   0.076
 7987SOL    HW124860   2.100   2.566   0.173
 7987SOL    HW224861   2.039   2.550   0.022
 7988SOL     OW24862   1.539   0.989   2.876
 7988SOL    HW124863   1.558   1.010   2.781
 7988SOL    HW224864   1.493   1.067   2.919
 7989SOL     OW24865   2.722   3.030   0.323
 7989SOL    HW124866   2.652   3.100   0.336
 7989SOL    HW224867   2.732   3.013   0.225
 7990SOL     OW24868   2.257   4.799   4.573
 7990SOL    HW124869   2.206   4.835   4.495
 7990SOL    HW224870   2.352   4.781   4.546
 7991SOL     OW24871   5.884   1.632   4.216
 7991SOL    HW124872   5.933   1.667   4.136
 7991SOL    HW224873   5.839   1.546   4.192
 7992SOL     OW24874   1.418   0.471   0.578
 7992SOL    HW124875   1.324   0.436   0.586
 7992SOL    HW224876   1.444   0.515   0.664
 7993SOL     OW24877   0.291   0.009   1.058
 7993SOL    HW124878   0.358   0.048   1.122
 7993SOL    HW224879   0.238   0.082   1.016
 7994SOL     OW24880   4.089   0.134   3.591
 7994SOL    HW124881   4.173   0.153   3.540
 7994SOL    HW224882   4.110   0.074   3.669
 7995SOL     OW24883   5.594   5.749   3.134
 7995SOL    HW124884   5.509   5.800   3.132
 7995SOL    HW224885   5.618   5.719   3.041
 7996SOL     OW24886   3.746   6.178   4.310
 7996SOL    HW124887   3.708   6.119   4.381
 7996SOL    HW224888   3.841   6.154   4.293
 7997SOL     OW24889   6.781   1.327   0.177
 7997SOL    HW124890   6.858   1.335   0.240
 7997SOL    HW224891   6.757   1.417   0.142
 7998SOL     OW24892   3.694   0.585   0.142
 7998SOL    HW124893   3.723   0.639   0.063
 7998SOL    HW224894   3.623   0.634   0.192
 7999SOL     OW24895   0.860   1.201   6.060
 7999SOL    HW124896   0.827   1.157   5.976
 7999SOL    HW224897   0.782   1.238   6.111
 8000SOL     OW24898   5.070   6.509   6.655
 8000SOL    HW124899   5.019   6.432   6.695
 8000SOL    HW224900   5.168   6.491   6.663
 8001SOL     OW24901   4.062   6.221   1.900
 8001SOL    HW124902   4.098   6.312   1.878
 8001SOL    HW224903   4.124   6.174   1.962
 8002SOL     OW24904   1.249   0.500   6.245
 8002SOL    HW124905   1.323   0.435   6.261
 8002SOL    HW224906   1.215   0.534   6.333
 8003SOL     OW24907   2.433   5.770   1.817
 8003SOL    HW124908   2.511   5.708   1.810
 8003SOL    HW224909   2.378   5.765   1.733
 8004SOL     OW24910   1.429   3.698   3.251
 8004SOL    HW124911   1.482   3.768   3.202
 8004SOL    HW224912   1.484   3.660   3.325
 8005SOL     OW24913   2.802   0.515   3.330
 8005SOL    HW124914   2.874   0.448   3.312
 8005SOL    HW224915   2.820   0.559   3.418
 8006SOL     OW24916   2.023   5.649   5.383
 8006SOL    HW124917   1.961   5.707   5.436
 8006SOL    HW224918   2.113   5.647   5.427
 8007SOL     OW24919   5.696   1.653   6.225
 8007SOL    HW124920   5.706   1.744   6.266
 8007SOL    HW224921   5.636   1.597   6.282
 8008SOL     OW24922   4.046   6.143   6.469
 8008SOL    HW124923   3.972   6.136   6.402
 8008SOL    HW224924   4.026   6.218   6.532
 8009SOL     OW24925   4.798   0.501   0.737
 8009SOL    HW124926   4.830   0.443   0.663
 8009SOL    HW224927   4.705   0.475   0.762
 8010SOL     OW24928   2.177   2.244   4.808
 8010SOL    HW124929   2.191   2.146   4.800
 8010SOL    HW224930   2.118   2.263   4.886
 8011SOL     OW24931   3.450   2.126   1.202
 8011SOL    HW124932   3.441   2.063   1.124
 8011SOL    HW224933   3.446   2.220   1.169
 8012SOL     OW24934   1.707   3.297   0.003
 8012SOL    HW124935   1.804   3.281   0.024
 8012SOL    HW224936   1.685   3.255   6.938
 8013SOL     OW24937   1.235   4.877   3.195
 8013SOL    HW124938   1.237   4.791   3.247
 8013SOL    HW224939   1.325   4.920   3.198
 8014SOL     OW24940   1.700   0.275   4.682
 8014SOL    HW124941   1.606   0.303   4.664
 8014SOL    HW224942   1.747   0.258   4.596
 8015SOL     OW24943   1.885   0.245   6.236
 8015SOL    HW124944   1.972   0.197   6.251
 8015SOL    HW224945   1.872   0.261   6.138
 8016SOL     OW24946   4.207   0.924   5.467
 8016SOL    HW124947   4.224   0.935   5.565
 8016SOL    HW224948   4.128   0.980   5.440
 8017SOL     OW24949   6.416   0.228   6.617
 8017SOL    HW124950   6.487   0.162   6.642
 8017SOL    HW224951   6.389   0.280   6.698
 8018SOL     OW24952   3.264   2.614   0.511
 8018SOL    HW124953   3.231   2.688   0.453
 8018SOL    HW224954   3.350   2.579   0.474
 8019SOL     OW24955   1.926   4.845   1.238
 8019SOL    HW124956   1.831   4.862   1.213
 8019SOL    HW224957   1.969   4.930   1.268
 8020SOL     OW24958   6.554   6.891   6.342
 8020SOL    HW124959   6.639   6.842   6.360
 8020SOL    HW224960   6.518   6.865   6.253
 8021SOL     OW24961   1.427   3.052   1.354
 8021SOL    HW124962   1.507   3.077   1.298
 8021SOL    HW224963   1.401   3.131   1.410
 8022SOL     OW24964   6.113   0.516   1.954
 8022SOL    HW124965   6.084   0.533   2.048
 8022SOL    HW224966   6.184   0.446   1.953
 8023SOL     OW24967   5.654   4.648   2.306
 8023SOL    HW124968   5.566   4.601   2.314
 8023SOL    HW224969   5.728   4.581   2.319
 8024SOL     OW24970   1.045   5.174   6.473
 8024SOL    HW124971   1.129   5.122   6.455
 8024SOL    HW224972   1.051   5.218   6.562
 8025SOL     OW24973   1.982   5.813   0.736
 8025SOL    HW124974   1.993   5.820   0.835
 8025SOL    HW224975   2.050   5.872   0.692
 8026SOL     OW24976   6.819   3.782   0.983
 8026SOL    HW124977   6.817   3.706   1.048
 8026SOL    HW224978   6.725   3.814   0.968
 8027SOL     OW24979   3.517   0.084   5.267
 8027SOL    HW124980   3.472   0.173   5.272
 8027SOL    HW224981   3.611   0.092   5.302
 8028SOL     OW24982   3.550   4.952   4.879
 8028SOL    HW124983   3.476   4.962   4.813
 8028SOL    HW224984   3.548   4.860   4.920
 8029SOL     OW24985   5.332   2.660   1.984
 8029SOL    HW124986   5.396   2.666   1.908
 8029SOL    HW224987   5.247   2.617   1.954
 8030SOL     OW24988   5.996   5.542   0.079
 8030SOL    HW124989   5.942   5.607   0.026
 8030SOL    HW224990   6.043   5.591   0.153
 8031SOL     OW24991   6.985   6.143   2.665
 8031SOL    HW124992   0.013   6.215   2.712
 8031SOL    HW224993   6.955   6.075   2.732
 8032SOL     OW24994   5.579   4.016   1.846
 8032SOL    HW124995   5.499   4.075   1.840
 8032SOL    HW224996   5.600   3.977   1.756
 8033SOL     OW24997   4.635   3.213   6.942
 8033SOL    HW124998   4.729   3.234   6.914
 8033SOL    HW224999   4.616   3.117   6.926
 8034SOL     OW25000   4.687   0.172   6.121
 8034SOL    HW125001   4.638   0.257   6.137
 8034SOL    HW225002   4.748   0.153   6.198
 8035SOL     OW25003   5.109   1.947   2.092
 8035SOL    HW125004   5.084   1.987   2.004
 8035SOL    HW225005   5.026   1.933   2.147
 8036SOL     OW25006   6.162   3.859   3.905
 8036SOL    HW125007   6.155   3.810   3.819
 8036SOL    HW225008   6.136   3.955   3.892
 8037SOL     OW25009   2.282   3.083   6.903
 8037SOL    HW125010   2.285   3.177   6.868
 8037SOL    HW225011   2.354   3.071   6.971
 8038SOL     OW25012   4.855   6.951   2.484
 8038SOL    HW125013   4.851   6.871   2.544
 8038SOL    HW225014   4.772   6.954   2.428
 8039SOL     OW25015   6.685   1.503   4.729
 8039SOL    HW125016   6.702   1.468   4.821
 8039SOL    HW225017   6.612   1.571   4.732
 8040SOL     OW25018   1.054   5.812   6.849
 8040SOL    HW125019   1.147   5.794   6.817
 8040SOL    HW225020   1.036   5.759   6.931
 8041SOL     OW25021   3.025   0.975   3.039
 8041SOL    HW125022   3.016   1.060   2.988
 8041SOL    HW225023   3.049   0.994   3.134
 8042SOL     OW25024   4.029   3.612   5.372
 8042SOL    HW125025   3.990   3.617   5.464
 8042SOL    HW225026   4.067   3.700   5.346
 8043SOL     OW25027   3.442   5.258   0.813
 8043SOL    HW125028   3.471   5.263   0.908
 8043SOL    HW225029   3.417   5.349   0.780
 8044SOL     OW25030   4.234   3.647   0.767
 8044SOL    HW125031   4.202   3.732   0.726
 8044SOL    HW225032   4.187   3.570   0.726
 8045SOL     OW25033   5.891   2.255   2.357
 8045SOL    HW125034   5.989   2.237   2.350
 8045SOL    HW225035   5.840   2.171   2.337
 8046SOL     OW25036   0.942   4.307   2.574
 8046SOL    HW125037   0.977   4.249   2.501
 8046SOL    HW225038   0.985   4.397   2.569
 8047SOL     OW25039   3.618   6.097   6.546
 8047SOL    HW125040   3.582   6.025   6.606
 8047SOL    HW225041   3.631   6.180   6.600
 8048SOL     OW25042   3.729   1.679   0.239
 8048SOL    HW125043   3.718   1.688   0.140
 8048SOL    HW225044   3.673   1.748   0.285
 8049SOL     OW25045   1.109   7.019   0.493
 8049SOL    HW125046   1.020   0.028   0.525
 8049SOL    HW225047   1.161   0.073   0.456
 8050SOL     OW25048   1.467   3.116   3.632
 8050SOL    HW125049   1.546   3.075   3.679
 8050SOL    HW225050   1.498   3.160   3.548
 8051SOL     OW25051   4.946   6.274   4.848
 8051SOL    HW125052   5.011   6.344   4.879
 8051SOL    HW225053   4.939   6.202   4.917
 8052SOL     OW25054   2.918   1.736   1.393
 8052SOL    HW125055   2.968   1.726   1.479
 8052SOL    HW225056   2.878   1.828   1.388
 8053SOL     OW25057   3.650   2.858   4.955
 8053SOL    HW125058   3.652   2.894   5.048
 8053SOL    HW225059   3.740   2.823   4.930
 8054SOL     OW25060   0.001   4.270   4.823
 8054SOL    HW125061   6.967   4.352   4.816
 8054SOL    HW225062   0.035   4.245   4.732
 8055SOL     OW25063   6.428   0.831   5.566
 8055SOL    HW125064   6.354   0.786   5.517
 8055SOL    HW225065   6.443   0.922   5.528
 8056SOL     OW25066   2.773   0.978   4.848
 8056SOL    HW125067   2.817   0.966   4.937
 8056SOL    HW225068   2.729   0.893   4.820
 8057SOL     OW25069   2.705   2.244   3.270
 8057SOL    HW125070   2.786   2.241   3.328
 8057SOL    HW225071   2.732   2.265   3.176
 8058SOL     OW25072   3.859   6.973   3.171
 8058SOL    HW125073   3.834   6.883   3.208
 8058SOL    HW225074   3.776   7.021   3.143
 8059SOL     OW25075   2.242   1.104   5.038
 8059SOL    HW125076   2.330   1.067   5.067
 8059SOL    HW225077   2.251   1.202   5.019
 8060SOL     OW25078   0.389   2.217   6.363
 8060SOL    HW125079   0.432   2.305   6.340
 8060SOL    HW225080   0.312   2.201   6.302
 8061SOL     OW25081   0.563   0.230   2.399
 8061SOL    HW125082   0.625   0.307   2.417
 8061SOL    HW225083   0.574   0.162   2.470
 8062SOL     OW25084   3.922   4.978   3.756
 8062SOL    HW125085   4.013   5.018   3.763
 8062SOL    HW225086   3.923   4.902   3.692
 8063SOL     OW25087   2.480   1.600   3.085
 8063SOL    HW125088   2.504   1.695   3.065
 8063SOL    HW225089   2.528   1.571   3.168
 8064SOL     OW25090   6.013   2.567   0.664
 8064SOL    HW125091   5.941   2.546   0.730
 8064SOL    HW225092   6.100   2.532   0.698
 8065SOL     OW25093   2.916   6.229   3.964
 8065SOL    HW125094   2.940   6.275   3.879
 8065SOL    HW225095   2.973   6.148   3.977
 8066SOL     OW25096   7.003   0.493   5.781
 8066SOL    HW125097   0.044   0.535   5.716
 8066SOL    HW225098   0.028   0.472   5.866
 8067SOL     OW25099   5.197   2.757   2.581
 8067SOL    HW125100   5.198   2.847   2.537
 8067SOL    HW225101   5.214   2.686   2.512
 8068SOL     OW25102   6.541   4.406   1.481
 8068SOL    HW125103   6.550   4.374   1.575
 8068SOL    HW225104   6.492   4.492   1.479
 8069SOL     OW25105   1.650   4.772   1.246
 8069SOL    HW125106   1.640   4.837   1.171
 8069SOL    HW225107   1.627   4.680   1.215
 8070SOL     OW25108   4.109   3.294   0.422
 8070SOL    HW125109   4.073   3.283   0.329
 8070SOL    HW225110   4.136   3.390   0.435
 8071SOL     OW25111   2.875   6.781   5.286
 8071SOL    HW125112   2.789   6.739   5.256
 8071SOL    HW225113   2.932   6.802   5.205
 8072SOL     OW25114   3.426   1.938   0.984
 8072SOL    HW125115   3.471   1.979   0.905
 8072SOL    HW225116   3.373   1.858   0.954
 8073SOL     OW25117   3.797   6.358   5.539
 8073SOL    HW125118   3.774   6.451   5.569
 8073SOL    HW225119   3.896   6.350   5.529
 8074SOL     OW25120   2.832   2.359   0.497
 8074SOL    HW125121   2.893   2.280   0.490
 8074SOL    HW225122   2.881   2.435   0.539
 8075SOL     OW25123   6.642   6.926   0.887
 8075SOL    HW125124   6.552   6.945   0.848
 8075SOL    HW225125   6.646   6.831   0.917
 8076SOL     OW25126   6.095   0.090   5.521
 8076SOL    HW125127   6.074   0.072   5.618
 8076SOL    HW225128   6.028   0.154   5.484
 8077SOL     OW25129   3.600   5.985   2.657
 8077SOL    HW125130   3.627   6.064   2.711
 8077SOL    HW225131   3.641   5.902   2.697
 8078SOL     OW25132   0.871   2.029   1.180
 8078SOL    HW125133   0.909   2.100   1.239
 8078SOL    HW225134   0.945   1.979   1.136
 8079SOL     OW25135   6.501   1.621   3.331
 8079SOL    HW125136   6.456   1.587   3.249
 8079SOL    HW225137   6.460   1.709   3.358
 8080SOL     OW25138   1.084   2.052   2.801
 8080SOL    HW125139   1.041   1.969   2.839
 8080SOL    HW225140   1.096   2.041   2.703
 8081SOL     OW25141   6.112   5.560   6.196
 8081SOL    HW125142   6.189   5.504   6.228
 8081SOL    HW225143   6.063   5.511   6.124
 8082SOL     OW25144   3.584   0.699   2.569
 8082SOL    HW125145   3.662   0.761   2.562
 8082SOL    HW225146   3.511   0.742   2.622
 8083SOL     OW25147   5.088   2.622   3.578
 8083SOL    HW125148   5.119   2.715   3.558
 8083SOL    HW225149   5.112   2.562   3.501
 8084SOL     OW25150   3.582   0.224   6.477
 8084SOL    HW125151   3.558   0.232   6.574
 8084SOL    HW225152   3.531   0.291   6.424
 8085SOL     OW25153   5.749   5.927   2.198
 8085SOL    HW125154   5.692   5.909   2.278
 8085SOL    HW225155   5.733   6.020   2.165
 8086SOL     OW25156   6.593   0.824   1.829
 8086SOL    HW125157   6.667   0.854   1.889
 8086SOL    HW225158   6.532   0.763   1.880
 8087SOL     OW25159   1.606   0.256   0.292
 8087SOL    HW125160   1.576   0.241   0.386
 8087SOL    HW225161   1.541   0.314   0.244
 8088SOL     OW25162   5.989   0.745   1.405
 8088SOL    HW125163   6.077   0.735   1.450
 8088SOL    HW225164   5.917   0.753   1.473
 8089SOL     OW25165   5.258   2.563   0.116
 8089SOL    HW125166   5.274   2.465   0.113
 8089SOL    HW225167   5.346   2.611   0.114
 8090SOL     OW25168   3.508   0.878   6.263
 8090SOL    HW125169   3.572   0.914   6.195
 8090SOL    HW225170   3.513   0.933   6.346
 8091SOL     OW25171   1.824   3.922   4.848
 8091SOL    HW125172   1.857   3.828   4.862
 8091SOL    HW225173   1.761   3.924   4.770
 8092SOL     OW25174   5.411   1.817   5.565
 8092SOL    HW125175   5.419   1.801   5.663
 8092SOL    HW225176   5.377   1.734   5.520
 8093SOL     OW25177   2.817   5.564   3.241
 8093SOL    HW125178   2.778   5.481   3.281
 8093SOL    HW225179   2.808   5.560   3.141
 8094SOL     OW25180   6.910   3.305   4.703
 8094SOL    HW125181   6.856   3.222   4.689
 8094SOL    HW225182   6.983   3.310   4.635
 8095SOL     OW25183   1.000   4.475   4.866
 8095SOL    HW125184   0.953   4.430   4.942
 8095SOL    HW225185   0.961   4.565   4.852
 8096SOL     OW25186   2.355   0.305   2.418
 8096SOL    HW125187   2.299   0.237   2.372
 8096SOL    HW225188   2.321   0.319   2.511
 8097SOL     OW25189   4.389   0.196   4.983
 8097SOL    HW125190   4.357   0.271   4.925
 8097SOL    HW225191   4.399   0.229   5.077
 8098SOL     OW25192   1.781   6.465   3.533
 8098SOL    HW125193   1.835   6.390   3.496
 8098SOL    HW225194   1.689   6.432   3.554
 8099SOL     OW25195   4.251   6.078   4.168
 8099SOL    HW125196   4.224   6.032   4.083
 8099SOL    HW225197   4.284   6.170   4.148
 8100SOL     OW25198   0.135   0.349   6.822
 8100SOL    HW125199   0.173   0.335   6.731
 8100SOL    HW225200   0.171   0.281   6.886
 8101SOL     OW25201   1.569   5.774   1.270
 8101SOL    HW125202   1.569   5.846   1.340
 8101SOL    HW225203   1.579   5.685   1.314
 8102SOL     OW25204   0.340   3.648   3.531
 8102SOL    HW125205   0.321   3.700   3.448
 8102SOL    HW225206   0.430   3.674   3.566
 8103SOL     OW25207   3.153   6.896   1.321
 8103SOL    HW125208   3.188   6.979   1.280
 8103SOL    HW225209   3.085   6.855   1.261
 8104SOL     OW25210   1.723   0.811   6.511
 8104SOL    HW125211   1.696   0.721   6.546
 8104SOL    HW225212   1.784   0.855   6.577
 8105SOL     OW25213   0.086   3.708   3.166
 8105SOL    HW125214   0.092   3.611   3.142
 8105SOL    HW225215   7.022   3.745   3.133
 8106SOL     OW25216   3.200   5.440   3.354
 8106SOL    HW125217   3.215   5.401   3.263
 8106SOL    HW225218   3.287   5.474   3.390
 8107SOL     OW25219   0.751   5.333   4.048
 8107SOL    HW125220   0.658   5.369   4.044
 8107SOL    HW225221   0.814   5.408   4.069
 8108SOL     OW25222   6.605   2.854   6.494
 8108SOL    HW125223   6.525   2.886   6.443
 8108SOL    HW225224   6.596   2.882   6.590
 8109SOL     OW25225   6.787   3.846   6.082
 8109SOL    HW125226   6.800   3.938   6.117
 8109SOL    HW225227   6.760   3.784   6.156
 8110SOL     OW25228   3.750   5.629   2.194
 8110SOL    HW125229   3.717   5.709   2.143
 8110SOL    HW225230   3.672   5.577   2.229
 8111SOL     OW25231   4.833   1.010   4.647
 8111SOL    HW125232   4.780   0.988   4.729
 8111SOL    HW225233   4.899   1.082   4.669
 8112SOL     OW25234   2.506   2.523   4.361
 8112SOL    HW125235   2.563   2.495   4.438
 8112SOL    HW225236   2.410   2.522   4.390
 8113SOL     OW25237   0.981   3.611   0.761
 8113SOL    HW125238   0.977   3.689   0.823
 8113SOL    HW225239   1.069   3.564   0.773
 8114SOL     OW25240   1.309   4.029   2.597
 8114SOL    HW125241   1.211   4.023   2.577
 8114SOL    HW225242   1.346   3.936   2.603
 8115SOL     OW25243   3.899   6.850   6.493
 8115SOL    HW125244   3.896   6.949   6.506
 8115SOL    HW225245   3.857   6.827   6.405
 8116SOL     OW25246   4.422   4.785   0.576
 8116SOL    HW125247   4.383   4.872   0.545
 8116SOL    HW225248   4.386   4.763   0.667
 8117SOL     OW25249   1.960   0.142   3.367
 8117SOL    HW125250   1.879   0.201   3.370
 8117SOL    HW225251   1.971   0.106   3.274
 8118SOL     OW25252   5.150   4.167   6.594
 8118SOL    HW125253   5.071   4.220   6.627
 8118SOL    HW225254   5.154   4.080   6.643
 8119SOL     OW25255   5.313   5.286   6.507
 8119SOL    HW125256   5.371   5.213   6.471
 8119SOL    HW225257   5.308   5.277   6.607
 8120SOL     OW25258   3.407   4.673   1.192
 8120SOL    HW125259   3.326   4.623   1.161
 8120SOL    HW225260   3.443   4.729   1.117
 8121SOL     OW25261   0.288   4.993   1.857
 8121SOL    HW125262   0.338   5.066   1.902
 8121SOL    HW225263   0.200   4.979   1.903
 8122SOL     OW25264   0.109   4.534   3.288
 8122SOL    HW125265   0.014   4.503   3.299
 8122SOL    HW225266   0.116   4.590   3.206
 8123SOL     OW25267   6.704   1.910   6.231
 8123SOL    HW125268   6.630   1.926   6.296
 8123SOL    HW225269   6.792   1.925   6.276
 8124SOL     OW25270   4.967   6.151   1.697
 8124SOL    HW125271   4.945   6.223   1.631
 8124SOL    HW225272   5.034   6.186   1.763
 8125SOL     OW25273   1.697   1.660   3.002
 8125SOL    HW125274   1.689   1.561   3.014
 8125SOL    HW225275   1.764   1.695   3.067
 8126SOL     OW25276   5.283   4.470   3.167
 8126SOL    HW125277   5.255   4.565   3.178
 8126SOL    HW225278   5.202   4.411   3.170
 8127SOL     OW25279   2.846   3.669   6.181
 8127SOL    HW125280   2.941   3.670   6.152
 8127SOL    HW225281   2.787   3.654   6.102
 8128SOL     OW25282   2.896   2.211   2.322
 8128SOL    HW125283   2.946   2.242   2.241
 8128SOL    HW225284   2.888   2.287   2.388
 8129SOL     OW25285   3.644   1.821   5.884
 8129SOL    HW125286   3.635   1.914   5.849
 8129SOL    HW225287   3.658   1.758   5.807
 8130SOL     OW25288   0.548   4.056   6.759
 8130SOL    HW125289   0.550   3.998   6.840
 8130SOL    HW225290   0.478   4.127   6.771
 8131SOL     OW25291   2.363   2.262   1.662
 8131SOL    HW125292   2.437   2.282   1.597
 8131SOL    HW225293   2.309   2.185   1.628
 8132SOL     OW25294   5.474   6.610   5.391
 8132SOL    HW125295   5.440   6.611   5.485
 8132SOL    HW225296   5.506   6.702   5.367
 8133SOL     OW25297   3.272   5.291   2.418
 8133SOL    HW125298   3.196   5.235   2.452
 8133SOL    HW225299   3.247   5.388   2.425
 8134SOL     OW25300   7.005   2.091   6.224
 8134SOL    HW125301   0.068   2.139   6.209
 8134SOL    HW225302   6.939   2.153   6.268
 8135SOL     OW25303   2.927   6.743   1.191
 8135SOL    HW125304   2.887   6.743   1.099
 8135SOL    HW225305   2.855   6.756   1.259
 8136SOL     OW25306   4.490   5.779   3.101
 8136SOL    HW125307   4.460   5.847   3.168
 8136SOL    HW225308   4.523   5.825   3.019
 8137SOL     OW25309   2.912   1.606   5.348
 8137SOL    HW125310   3.007   1.591   5.375
 8137SOL    HW225311   2.905   1.694   5.301
 8138SOL     OW25312   5.571   0.917   0.832
 8138SOL    HW125313   5.485   0.900   0.880
 8138SOL    HW225314   5.612   0.830   0.806
 8139SOL     OW25315   0.130   0.631   1.943
 8139SOL    HW125316   0.229   0.637   1.947
 8139SOL    HW225317   0.094   0.615   2.035
 8140SOL     OW25318   5.770   0.443   6.645
 8140SOL    HW125319   5.677   0.423   6.613
 8140SOL    HW225320   5.780   0.542   6.656
 8141SOL     OW25321   4.351   5.276   4.596
 8141SOL    HW125322   4.272   5.315   4.644
 8141SOL    HW225323   4.428   5.270   4.660
 8142SOL     OW25324   0.281   5.627   6.995
 8142SOL    HW125325   0.367   5.669   6.966
 8142SOL    HW225326   0.251   5.669   0.058
 8143SOL     OW25327   5.773   3.911   0.850
 8143SOL    HW125328   5.750   3.833   0.908
 8143SOL    HW225329   5.799   3.989   0.907
 8144SOL     OW25330   5.879   5.895   6.590
 8144SOL    HW125331   5.951   5.886   6.658
 8144SOL    HW225332   5.921   5.905   6.499
 8145SOL     OW25333   5.338   5.909   1.274
 8145SOL    HW125334   5.240   5.891   1.279
 8145SOL    HW225335   5.354   6.001   1.238
 8146SOL     OW25336   3.722   0.775   4.566
 8146SOL    HW125337   3.683   0.768   4.474
 8146SOL    HW225338   3.666   0.720   4.629
 8147SOL     OW25339   6.046   2.029   1.367
 8147SOL    HW125340   6.102   1.978   1.432
 8147SOL    HW225341   5.951   1.997   1.372
 8148SOL     OW25342   5.081   4.696   0.929
 8148SOL    HW125343   5.076   4.637   0.849
 8148SOL    HW225344   5.034   4.652   1.005
 8149SOL     OW25345   2.552   6.109   1.933
 8149SOL    HW125346   2.516   6.048   2.003
 8149SOL    HW225347   2.500   6.194   1.933
 8150SOL     OW25348   0.527   4.352   0.523
 8150SOL    HW125349   0.513   4.256   0.497
 8150SOL    HW225350   0.617   4.362   0.565
 8151SOL     OW25351   6.559   1.982   1.254
 8151SOL    HW125352   6.626   1.913   1.226
 8151SOL    HW225353   6.476   1.973   1.199
 8152SOL     OW25354   0.187   1.715   2.526
 8152SOL    HW125355   0.221   1.706   2.433
 8152SOL    HW225356   0.260   1.750   2.585
 8153SOL     OW25357   3.602   0.056   3.221
 8153SOL    HW125358   3.511   0.038   3.260
 8153SOL    HW225359   3.634   0.145   3.253
 8154SOL     OW25360   3.048   5.680   3.351
 8154SOL    HW125361   3.089   5.611   3.410
 8154SOL    HW225362   2.961   5.646   3.315
 8155SOL     OW25363   2.206   3.877   1.807
 8155SOL    HW125364   2.284   3.866   1.745
 8155SOL    HW225365   2.132   3.923   1.759
 8156SOL     OW25366   5.591   6.711   6.940
 8156SOL    HW125367   5.532   6.705   6.860
 8156SOL    HW225368   5.674   6.761   6.917
 8157SOL     OW25369   6.403   5.142   6.463
 8157SOL    HW125370   6.470   5.105   6.527
 8157SOL    HW225371   6.448   5.161   6.376
 8158SOL     OW25372   6.567   5.422   1.240
 8158SOL    HW125373   6.475   5.451   1.265
 8158SOL    HW225374   6.576   5.324   1.251
 8159SOL     OW25375   2.629   6.173   2.711
 8159SOL    HW125376   2.688   6.139   2.785
 8159SOL    HW225377   2.669   6.148   2.623
 8160SOL     OW25378   4.856   1.023   2.476
 8160SOL    HW125379   4.849   1.075   2.391
 8160SOL    HW225380   4.791   1.060   2.543
 8161SOL     OW25381   4.998   1.566   6.887
 8161SOL    HW125382   5.005   1.652   6.937
 8161SOL    HW225383   5.027   1.491   6.946
 8162SOL     OW25384   5.941   6.788   5.907
 8162SOL    HW125385   5.997   6.706   5.918
 8162SOL    HW225386   5.982   6.862   5.960
 8163SOL     OW25387   2.747   3.734   5.367
 8163SOL    HW125388   2.771   3.817   5.317
 8163SOL    HW225389   2.808   3.660   5.340
 8164SOL     OW25390   5.994   3.173   0.404
 8164SOL    HW125391   5.926   3.122   0.455
 8164SOL    HW225392   6.045   3.232   0.467
 8165SOL     OW25393   0.602   5.276   6.818
 8165SOL    HW125394   0.602   5.183   6.781
 8165SOL    HW225395   0.606   5.342   6.743
 8166SOL     OW25396   2.300   0.209   2.060
 8166SOL    HW125397   2.321   0.124   2.011
 8166SOL    HW225398   2.249   0.189   2.143
 8167SOL     OW25399   6.046   0.768   4.294
 8167SOL    HW125400   6.069   0.674   4.319
 8167SOL    HW225401   6.098   0.794   4.212
 8168SOL     OW25402   2.784   1.609   3.965
 8168SOL    HW125403   2.775   1.608   3.866
 8168SOL    HW225404   2.814   1.700   3.995
 8169SOL     OW25405   5.371   2.996   1.232
 8169SOL    HW125406   5.281   2.954   1.245
 8169SOL    HW225407   5.440   2.924   1.221
 8170SOL     OW25408   1.633   5.775   2.912
 8170SOL    HW125409   1.609   5.722   2.831
 8170SOL    HW225410   1.549   5.798   2.962
 8171SOL     OW25411   1.129   1.442   0.153
 8171SOL    HW125412   1.173   1.531   0.148
 8171SOL    HW225413   1.067   1.430   0.075
 8172SOL     OW25414   1.054   1.064   2.061
 8172SOL    HW125415   1.142   1.019   2.078
 8172SOL    HW225416   1.060   1.160   2.090
 8173SOL     OW25417   4.000   1.810   0.897
 8173SOL    HW125418   4.054   1.825   0.813
 8173SOL    HW225419   3.976   1.898   0.937
 8174SOL     OW25420   5.161   2.473   0.824
 8174SOL    HW125421   5.196   2.484   0.917
 8174SOL    HW225422   5.107   2.554   0.799
 8175SOL     OW25423   0.237   3.186   6.060
 8175SOL    HW125424   0.329   3.167   6.093
 8175SOL    HW225425   0.234   3.174   5.960
 8176SOL     OW25426   2.458   5.106   2.299
 8176SOL    HW125427   2.462   5.122   2.201
 8176SOL    HW225428   2.372   5.142   2.336
 8177SOL     OW25429   2.406   6.117   4.392
 8177SOL    HW125430   2.393   6.179   4.315
 8177SOL    HW225431   2.431   6.169   4.473
 8178SOL     OW25432   2.331   6.663   6.538
 8178SOL    HW125433   2.317   6.759   6.563
 8178SOL    HW225434   2.292   6.604   6.609
 8179SOL     OW25435   4.004   2.667   6.386
 8179SOL    HW125436   3.985   2.624   6.298
 8179SOL    HW225437   3.965   2.759   6.387
 8180SOL     OW25438   6.876   0.187   4.471
 8180SOL    HW125439   6.877   0.208   4.569
 8180SOL    HW225440   6.789   0.145   4.447
 8181SOL     OW25441   2.360   1.856   2.050
 8181SOL    HW125442   2.434   1.806   2.006
 8181SOL    HW225443   2.273   1.812   2.030
 8182SOL     OW25444   3.629   1.781   6.930
 8182SOL    HW125445   3.649   1.698   6.878
 8182SOL    HW225446   3.711   1.839   6.933
 8183SOL     OW25447   0.845   2.434   4.927
 8183SOL    HW125448   0.871   2.462   5.020
 8183SOL    HW225449   0.857   2.511   4.865
 8184SOL     OW25450   5.066   1.567   5.608
 8184SOL    HW125451   5.059   1.602   5.702
 8184SOL    HW225452   4.982   1.590   5.558
 8185SOL     OW25453   2.914   0.118   0.228
 8185SOL    HW125454   2.816   0.123   0.245
 8185SOL    HW225455   2.937   0.027   0.193
 8186SOL     OW25456   3.771   6.077   6.321
 8186SOL    HW125457   3.726   6.092   6.409
 8186SOL    HW225458   3.754   5.983   6.290
 8187SOL     OW25459   1.608   2.546   5.680
 8187SOL    HW125460   1.524   2.495   5.661
 8187SOL    HW225461   1.648   2.513   5.765
 8188SOL     OW25462   5.169   2.044   2.618
 8188SOL    HW125463   5.265   2.022   2.635
 8188SOL    HW225464   5.163   2.119   2.552
 8189SOL     OW25465   5.262   4.713   2.093
 8189SOL    HW125466   5.256   4.745   1.998
 8189SOL    HW225467   5.230   4.786   2.154
 8190SOL     OW25468   5.050   5.516   4.333
 8190SOL    HW125469   5.018   5.587   4.396
 8190SOL    HW225470   4.975   5.453   4.312
 8191SOL     OW25471   3.152   5.199   3.712
 8191SOL    HW125472   3.130   5.261   3.787
 8191SOL    HW225473   3.248   5.210   3.686
 8192SOL     OW25474   3.358   6.160   0.106
 8192SOL    HW125475   3.446   6.192   0.140
 8192SOL    HW225476   3.313   6.235   0.057
 8193SOL     OW25477   6.935   0.237   3.958
 8193SOL    HW125478   6.934   0.331   3.992
 8193SOL    HW225479   6.918   0.174   4.034
 8194SOL     OW25480   6.286   2.549   0.748
 8194SOL    HW125481   6.355   2.566   0.818
 8194SOL    HW225482   6.327   2.498   0.672
 8195SOL     OW25483   1.149   0.374   0.562
 8195SOL    HW125484   1.053   0.361   0.587
 8195SOL    HW225485   1.154   0.407   0.467
 8196SOL     OW25486   3.477   0.393   5.337
 8196SOL    HW125487   3.451   0.386   5.241
 8196SOL    HW225488   3.406   0.441   5.388
 8197SOL     OW25489   4.815   1.296   5.872
 8197SOL    HW125490   4.764   1.225   5.822
 8197SOL    HW225491   4.769   1.384   5.859
 8198SOL     OW25492   2.714   6.688   3.048
 8198SOL    HW125493   2.758   6.729   2.968
 8198SOL    HW225494   2.697   6.758   3.117
 8199SOL     OW25495   6.932   3.789   0.472
 8199SOL    HW125496   6.945   3.797   0.571
 8199SOL    HW225497   7.017   3.755   0.430
 8200SOL     OW25498   4.764   4.214   1.370
 8200SOL    HW125499   4.804   4.269   1.444
 8200SOL    HW225500   4.726   4.129   1.408
 8201SOL     OW25501   5.081   0.708   4.525
 8201SOL    HW125502   5.131   0.646   4.464
 8201SOL    HW225503   5.054   0.790   4.474
 8202SOL     OW25504   0.948   5.756   3.979
 8202SOL    HW125505   1.023   5.817   4.003
 8202SOL    HW225506   0.957   5.727   3.884
 8203SOL     OW25507   4.569   3.359   0.146
 8203SOL    HW125508   4.509   3.318   0.215
 8203SOL    HW225509   4.582   3.296   0.070
 8204SOL     OW25510   3.462   5.538   1.047
 8204SOL    HW125511   3.456   5.602   1.123
 8204SOL    HW225512   3.391   5.468   1.057
 8205SOL     OW25513   6.829   4.854   1.950
 8205SOL    HW125514   6.763   4.878   1.879
 8205SOL    HW225515   6.889   4.782   1.916
 8206SOL     OW25516   2.926   2.292   5.553
 8206SOL    HW125517   2.836   2.277   5.594
 8206SOL    HW225518   2.920   2.280   5.454
 8207SOL     OW25519   3.511   4.538   5.355
 8207SOL    HW125520   3.522   4.443   5.326
 8207SOL    HW225521   3.550   4.550   5.447
 8208SOL     OW25522   2.717   6.321   1.323
 8208SOL    HW125523   2.740   6.399   1.381
 8208SOL    HW225524   2.721   6.237   1.378
 8209SOL     OW25525   1.064   1.869   5.313
 8209SOL    HW125526   1.146   1.880   5.256
 8209SOL    HW225527   1.014   1.788   5.284
 8210SOL     OW25528   3.541   0.456   0.429
 8210SOL    HW125529   3.588   0.534   0.387
 8210SOL    HW225530   3.531   0.473   0.527
 8211SOL     OW25531   3.500   4.149   3.691
 8211SOL    HW125532   3.419   4.155   3.633
 8211SOL    HW225533   3.484   4.198   3.777
 8212SOL     OW25534   3.263   0.713   0.955
 8212SOL    HW125535   3.362   0.718   0.944
 8212SOL    HW225536   3.234   0.774   1.029
 8213SOL     OW25537   5.023   4.959   3.431
 8213SOL    HW125538   4.953   4.939   3.362
 8213SOL    HW225539   5.000   5.043   3.479
 8214SOL     OW25540   2.138   6.363   4.040
 8214SOL    HW125541   2.131   6.307   3.957
 8214SOL    HW225542   2.209   6.432   4.028
 8215SOL     OW25543   4.041   5.006   0.572
 8215SOL    HW125544   3.966   4.942   0.591
 8215SOL    HW225545   4.003   5.098   0.558
 8216SOL     OW25546   5.173   0.333   2.945
 8216SOL    HW125547   5.215   0.252   2.906
 8216SOL    HW225548   5.076   0.337   2.919
 8217SOL     OW25549   2.375   4.264   1.917
 8217SOL    HW125550   2.468   4.244   1.888
 8217SOL    HW225551   2.375   4.345   1.975
 8218SOL     OW25552   1.468   0.185   4.432
 8218SOL    HW125553   1.424   0.192   4.342
 8218SOL    HW225554   1.554   0.134   4.422
 8219SOL     OW25555   2.809   4.077   0.872
 8219SOL    HW125556   2.868   4.144   0.916
 8219SOL    HW225557   2.833   3.985   0.906
 8220SOL     OW25558   3.334   4.211   5.342
 8220SOL    HW125559   3.322   4.169   5.432
 8220SOL    HW225560   3.431   4.215   5.319
 8221SOL     OW25561   6.113   4.284   3.205
 8221SOL    HW125562   6.174   4.348   3.160
 8221SOL    HW225563   6.147   4.262   3.296
 8222SOL     OW25564   5.370   1.902   0.611
 8222SOL    HW125565   5.460   1.938   0.635
 8222SOL    HW225566   5.338   1.840   0.682
 8223SOL     OW25567   0.518   5.175   5.795
 8223SOL    HW125568   0.596   5.235   5.813
 8223SOL    HW225569   0.466   5.211   5.717
 8224SOL     OW25570   4.714   1.669   1.358
 8224SOL    HW125571   4.719   1.709   1.449
 8224SOL    HW225572   4.786   1.707   1.300
 8225SOL     OW25573   3.764   0.498   1.226
 8225SOL    HW125574   3.787   0.405   1.197
 8225SOL    HW225575   3.737   0.498   1.322
 8226SOL     OW25576   3.539   0.699   0.609
 8226SOL    HW125577   3.440   0.687   0.615
 8226SOL    HW225578   3.573   0.738   0.695
 8227SOL     OW25579   6.860   1.556   2.346
 8227SOL    HW125580   6.951   1.594   2.365
 8227SOL    HW225581   6.835   1.575   2.252
 8228SOL     OW25582   6.956   0.988   5.667
 8228SOL    HW125583   6.885   0.976   5.736
 8228SOL    HW225584   6.970   1.086   5.651
 8229SOL     OW25585   4.562   4.216   1.208
 8229SOL    HW125586   4.525   4.130   1.172
 8229SOL    HW225587   4.633   4.196   1.276
 8230SOL     OW25588   3.441   6.933   5.724
 8230SOL    HW125589   3.443   6.922   5.624
 8230SOL    HW225590   3.423   6.844   5.766
 8231SOL     OW25591   3.153   1.778   2.446
 8231SOL    HW125592   3.098   1.822   2.517
 8231SOL    HW225593   3.233   1.835   2.425
 8232SOL     OW25594   5.074   1.660   2.339
 8232SOL    HW125595   5.172   1.657   2.317
 8232SOL    HW225596   5.051   1.750   2.376
 8233SOL     OW25597   1.251   0.582   5.628
 8233SOL    HW125598   1.208   0.666   5.596
 8233SOL    HW225599   1.223   0.506   5.570
 8234SOL     OW25600   3.627   2.899   0.101
 8234SOL    HW125601   3.705   2.847   0.064
 8234SOL    HW225602   3.561   2.837   0.141
 8235SOL     OW25603   0.462   4.299   0.212
 8235SOL    HW125604   0.490   4.380   0.265
 8235SOL    HW225605   0.540   4.265   0.160
 8236SOL     OW25606   0.185   5.610   5.626
 8236SOL    HW125607   0.091   5.602   5.592
 8236SOL    HW225608   0.245   5.639   5.550
 8237SOL     OW25609   4.249   5.784   5.811
 8237SOL    HW125610   4.194   5.701   5.813
 8237SOL    HW225611   4.212   5.847   5.743
 8238SOL     OW25612   0.814   5.444   6.884
 8238SOL    HW125613   0.788   5.529   6.929
 8238SOL    HW225614   0.736   5.382   6.881
 8239SOL     OW25615   0.244   1.240   4.909
 8239SOL    HW125616   0.288   1.227   4.820
 8239SOL    HW225617   0.312   1.227   4.981
 8240SOL     OW25618   3.154   3.338   2.941
 8240SOL    HW125619   3.178   3.432   2.963
 8240SOL    HW225620   3.169   3.280   3.021
 8241SOL     OW25621   1.560   3.566   6.456
 8241SOL    HW125622   1.461   3.556   6.466
 8241SOL    HW225623   1.584   3.663   6.456
 8242SOL     OW25624   1.272   3.671   4.696
 8242SOL    HW125625   1.236   3.591   4.743
 8242SOL    HW225626   1.368   3.685   4.722
 8243SOL     OW25627   0.354   3.928   6.482
 8243SOL    HW125628   0.433   3.920   6.542
 8243SOL    HW225629   0.384   3.928   6.386
 8244SOL     OW25630   0.873   0.365   3.637
 8244SOL    HW125631   0.911   0.308   3.564
 8244SOL    HW225632   0.843   0.452   3.600
 8245SOL     OW25633   4.230   1.872   3.369
 8245SOL    HW125634   4.229   1.806   3.444
 8245SOL    HW225635   4.169   1.841   3.296
 8246SOL     OW25636   0.825   4.524   6.030
 8246SOL    HW125637   0.923   4.514   6.008
 8246SOL    HW225638   0.811   4.505   6.127
 8247SOL     OW25639   2.742   5.785   3.635
 8247SOL    HW125640   2.720   5.788   3.538
 8247SOL    HW225641   2.761   5.690   3.662
 8248SOL     OW25642   0.833   6.039   4.704
 8248SOL    HW125643   0.773   5.963   4.682
 8248SOL    HW225644   0.783   6.106   4.759
 8249SOL     OW25645   2.413   1.396   5.067
 8249SOL    HW125646   2.471   1.324   5.107
 8249SOL    HW225647   2.455   1.485   5.083
 8250SOL     OW25648   3.127   1.830   0.708
 8250SOL    HW125649   3.029   1.818   0.695
 8250SOL    HW225650   3.145   1.922   0.743
 8251SOL     OW25651   6.166   1.447   4.338
 8251SOL    HW125652   6.163   1.452   4.238
 8251SOL    HW225653   6.186   1.538   4.375
 8252SOL     OW25654   3.085   2.212   6.855
 8252SOL    HW125655   3.138   2.292   6.826
 8252SOL    HW225656   3.013   2.241   6.918
 8253SOL     OW25657   4.113   5.757   6.523
 8253SOL    HW125658   4.075   5.811   6.598
 8253SOL    HW225659   4.039   5.715   6.471
 8254SOL     OW25660   6.010   4.970   6.282
 8254SOL    HW125661   6.026   4.890   6.223
 8254SOL    HW225662   5.956   4.942   6.362
 8255SOL     OW25663   0.840   0.104   6.063
 8255SOL    HW125664   0.819   0.046   6.142
 8255SOL    HW225665   0.821   0.054   5.979
 8256SOL     OW25666   6.973   0.287   3.498
 8256SOL    HW125667   6.888   0.249   3.535
 8256SOL    HW225668   6.990   0.247   3.407
 8257SOL     OW25669   5.611   4.036   4.178
 8257SOL    HW125670   5.565   4.121   4.206
 8257SOL    HW225671   5.609   3.971   4.254
 8258SOL     OW25672   5.480   2.632   1.751
 8258SOL    HW125673   5.497   2.704   1.683
 8258SOL    HW225674   5.568   2.593   1.780
 8259SOL     OW25675   4.050   1.775   5.200
 8259SOL    HW125676   4.039   1.698   5.263
 8259SOL    HW225677   4.025   1.860   5.246
 8260SOL     OW25678   2.090   6.465   1.150
 8260SOL    HW125679   2.185   6.466   1.119
 8260SOL    HW225680   2.087   6.482   1.249
 8261SOL     OW25681   5.284   6.675   2.912
 8261SOL    HW125682   5.359   6.691   2.847
 8261SOL    HW225683   5.197   6.700   2.869
 8262SOL     OW25684   0.931   4.638   0.525
 8262SOL    HW125685   0.855   4.695   0.494
 8262SOL    HW225686   0.985   4.607   0.447
 8263SOL     OW25687   0.108   2.847   6.609
 8263SOL    HW125688   0.103   2.871   6.706
 8263SOL    HW225689   0.021   2.872   6.564
 8264SOL     OW25690   1.502   6.448   1.304
 8264SOL    HW125691   1.409   6.446   1.341
 8264SOL    HW225692   1.504   6.500   1.219
 8265SOL     OW25693   4.315   0.411   1.596
 8265SOL    HW125694   4.238   0.351   1.618
 8265SOL    HW225695   4.399   0.372   1.634
 8266SOL     OW25696   2.697   0.439   4.529
 8266SOL    HW125697   2.606   0.401   4.544
 8266SOL    HW225698   2.754   0.422   4.610
 8267SOL     OW25699   1.415   5.127   1.879
 8267SOL    HW125700   1.420   5.170   1.789
 8267SOL    HW225701   1.454   5.035   1.874
 8268SOL     OW25702   2.432   4.118   6.596
 8268SOL    HW125703   2.458   4.113   6.499
 8268SOL    HW225704   2.342   4.077   6.608
 8269SOL     OW25705   4.716   2.668   2.671
 8269SOL    HW125706   4.712   2.708   2.580
 8269SOL    HW225707   4.810   2.640   2.692
 8270SOL     OW25708   2.420   6.151   5.853
 8270SOL    HW125709   2.472   6.111   5.928
 8270SOL    HW225710   2.452   6.244   5.836
 8271SOL     OW25711   6.301   0.106   4.021
 8271SOL    HW125712   6.299   0.194   3.973
 8271SOL    HW225713   6.235   0.043   3.980
 8272SOL     OW25714   0.736   0.675   2.757
 8272SOL    HW125715   0.730   0.695   2.660
 8272SOL    HW225716   0.751   0.760   2.808
 8273SOL     OW25717   3.392   0.256   0.184
 8273SOL    HW125718   3.372   0.319   0.258
 8273SOL    HW225719   3.485   0.271   0.151
 8274SOL     OW25720   3.673   4.498   0.090
 8274SOL    HW125721   3.629   4.571   0.038
 8274SOL    HW225722   3.671   4.414   0.036
 8275SOL     OW25723   5.730   6.998   4.724
 8275SOL    HW125724   5.757   6.924   4.786
 8275SOL    HW225725   5.631   7.002   4.718
 8276SOL     OW25726   6.512   2.404   5.902
 8276SOL    HW125727   6.531   2.347   5.821
 8276SOL    HW225728   6.530   2.351   5.985
 8277SOL     OW25729   2.494   5.742   5.117
 8277SOL    HW125730   2.449   5.814   5.170
 8277SOL    HW225731   2.589   5.767   5.099
 8278SOL     OW25732   3.100   1.541   6.370
 8278SOL    HW125733   3.118   1.465   6.308
 8278SOL    HW225734   3.028   1.515   6.435
 8279SOL     OW25735   5.530   5.010   0.135
 8279SOL    HW125736   5.497   4.921   0.165
 8279SOL    HW225737   5.453   5.065   0.101
 8280SOL     OW25738   4.795   2.728   0.200
 8280SOL    HW125739   4.778   2.737   0.102
 8280SOL    HW225740   4.854   2.803   0.230
 8281SOL     OW25741   1.768   4.119   0.803
 8281SOL    HW125742   1.745   4.178   0.881
 8281SOL    HW225743   1.759   4.172   0.719
 8282SOL     OW25744   2.654   2.121   1.226
 8282SOL    HW125745   2.556   2.106   1.221
 8282SOL    HW225746   2.675   2.213   1.193
 8283SOL     OW25747   0.299   5.146   3.551
 8283SOL    HW125748   0.283   5.048   3.539
 8283SOL    HW225749   0.213   5.195   3.543
 8284SOL     OW25750   1.934   3.023   2.600
 8284SOL    HW125751   1.998   3.058   2.532
 8284SOL    HW225752   1.862   3.091   2.617
 8285SOL     OW25753   3.115   3.778   6.432
 8285SOL    HW125754   3.104   3.689   6.388
 8285SOL    HW225755   3.065   3.847   6.379
 8286SOL     OW25756   5.552   1.256   4.964
 8286SOL    HW125757   5.478   1.293   4.907
 8286SOL    HW225758   5.631   1.235   4.906
 8287SOL     OW25759   1.486   6.886   4.436
 8287SOL    HW125760   1.497   6.800   4.386
 8287SOL    HW225761   1.394   6.892   4.474
 8288SOL     OW25762   1.816   2.517   2.723
 8288SOL    HW125763   1.820   2.579   2.645
 8288SOL    HW225764   1.850   2.564   2.805
 8289SOL     OW25765   6.372   0.699   6.299
 8289SOL    HW125766   6.391   0.609   6.338
 8289SOL    HW225767   6.290   0.694   6.242
 8290SOL     OW25768   3.907   3.116   1.566
 8290SOL    HW125769   3.878   3.210   1.547
 8290SOL    HW225770   3.982   3.091   1.505
 8291SOL     OW25771   5.805   6.520   6.607
 8291SOL    HW125772   5.868   6.512   6.530
 8291SOL    HW225773   5.850   6.571   6.681
 8292SOL     OW25774   2.514   5.319   5.995
 8292SOL    HW125775   2.474   5.227   5.986
 8292SOL    HW225776   2.594   5.326   5.937
 8293SOL     OW25777   1.968   4.903   1.680
 8293SOL    HW125778   2.045   4.840   1.678
 8293SOL    HW225779   1.903   4.879   1.608
 8294SOL     OW25780   6.036   3.524   5.331
 8294SOL    HW125781   6.117   3.466   5.331
 8294SOL    HW225782   5.981   3.505   5.249
 8295SOL     OW25783   4.878   4.002   2.379
 8295SOL    HW125784   4.845   3.968   2.291
 8295SOL    HW225785   4.872   3.930   2.448
 8296SOL     OW25786   4.146   5.562   0.037
 8296SOL    HW125787   4.186   5.503   6.990
 8296SOL    HW225788   4.211   5.634   0.062
 8297SOL     OW25789   6.166   4.209   2.554
 8297SOL    HW125790   6.090   4.147   2.574
 8297SOL    HW225791   6.228   4.166   2.488
 8298SOL     OW25792   0.789   0.791   6.289
 8298SOL    HW125793   0.860   0.772   6.221
 8298SOL    HW225794   0.799   0.884   6.323
 8299SOL     OW25795   0.207   3.670   1.148
 8299SOL    HW125796   0.163   3.584   1.120
 8299SOL    HW225797   0.220   3.728   1.069
 8300SOL     OW25798   6.309   6.680   4.772
 8300SOL    HW125799   6.302   6.773   4.738
 8300SOL    HW225800   6.382   6.675   4.840
 8301SOL     OW25801   4.493   0.117   6.607
 8301SOL    HW125802   4.456   0.118   6.515
 8301SOL    HW225803   4.556   0.193   6.619
 8302SOL     OW25804   3.218   6.798   5.059
 8302SOL    HW125805   3.132   6.846   5.042
 8302SOL    HW225806   3.294   6.863   5.058
 8303SOL     OW25807   0.162   0.339   2.793
 8303SOL    HW125808   0.130   0.245   2.783
 8303SOL    HW225809   0.234   0.357   2.726
 8304SOL     OW25810   5.944   3.999   2.617
 8304SOL    HW125811   5.849   3.970   2.605
 8304SOL    HW225812   6.001   3.919   2.637
 8305SOL     OW25813   4.668   5.316   3.871
 8305SOL    HW125814   4.662   5.408   3.911
 8305SOL    HW225815   4.688   5.323   3.774
 8306SOL     OW25816   6.462   1.361   2.617
 8306SOL    HW125817   6.476   1.312   2.532
 8306SOL    HW225818   6.421   1.300   2.685
 8307SOL     OW25819   2.091   5.074   1.255
 8307SOL    HW125820   2.151   5.025   1.319
 8307SOL    HW225821   2.089   5.171   1.280
 8308SOL     OW25822   1.401   4.705   0.128
 8308SOL    HW125823   1.314   4.752   0.111
 8308SOL    HW225824   1.476   4.757   0.087
 8309SOL     OW25825   6.313   5.257   4.509
 8309SOL    HW125826   6.370   5.195   4.563
 8309SOL    HW225827   6.256   5.311   4.571
 8310SOL     OW25828   0.898   6.042   0.794
 8310SOL    HW125829   0.959   5.963   0.806
 8310SOL    HW225830   0.880   6.083   0.884
 8311SOL     OW25831   5.229   6.940   4.249
 8311SOL    HW125832   5.228   6.921   4.151
 8311SOL    HW225833   5.251   0.013   4.264
 8312SOL     OW25834   5.630   0.550   0.457
 8312SOL    HW125835   5.608   0.548   0.555
 8312SOL    HW225836   5.552   0.516   0.405
 8313SOL     OW25837   4.282   7.000   5.136
 8313SOL    HW125838   4.292   7.015   5.234
 8313SOL    HW225839   4.302   0.062   5.087
 8314SOL     OW25840   5.618   6.327   6.675
 8314SOL    HW125841   5.654   6.236   6.653
 8314SOL    HW225842   5.684   6.396   6.647
 8315SOL     OW25843   3.709   3.549   3.331
 8315SOL    HW125844   3.722   3.570   3.234
 8315SOL    HW225845   3.744   3.458   3.351
 8316SOL     OW25846   1.147   3.412   6.656
 8316SOL    HW125847   1.208   3.362   6.717
 8316SOL    HW225848   1.099   3.347   6.596
 8317SOL     OW25849   2.099   1.974   4.503
 8317SOL    HW125850   2.183   1.921   4.512
 8317SOL    HW225851   2.022   1.919   4.533
 8318SOL     OW25852   4.612   1.197   6.230
 8318SOL    HW125853   4.525   1.210   6.182
 8318SOL    HW225854   4.675   1.147   6.171
 8319SOL     OW25855   1.347   6.916   6.029
 8319SOL    HW125856   1.265   6.955   5.989
 8319SOL    HW225857   1.349   6.936   6.127
 8320SOL     OW25858   3.708   3.697   3.652
 8320SOL    HW125859   3.642   3.657   3.589
 8320SOL    HW225860   3.665   3.773   3.702
 8321SOL     OW25861   0.081   0.164   6.091
 8321SOL    HW125862   0.104   0.258   6.068
 8321SOL    HW225863   7.017   0.139   6.050
 8322SOL     OW25864   0.136   0.969   0.548
 8322SOL    HW125865   0.094   1.041   0.493
 8322SOL    HW225866   0.204   0.920   0.493
 8323SOL     OW25867   4.398   4.502   1.096
 8323SOL    HW125868   4.400   4.402   1.094
 8323SOL    HW225869   4.303   4.534   1.094
 8324SOL     OW25870   5.883   0.384   0.028
 8324SOL    HW125871   5.878   0.483   0.010
 8324SOL    HW225872   5.794   0.343   0.011
 8325SOL     OW25873   1.349   4.798   5.284
 8325SOL    HW125874   1.397   4.860   5.223
 8325SOL    HW225875   1.399   4.712   5.291
 8326SOL     OW25876   3.941   3.783   0.034
 8326SOL    HW125877   4.026   3.811   7.011
 8326SOL    HW225878   3.963   3.722   0.111
 8327SOL     OW25879   0.581   0.726   5.461
 8327SOL    HW125880   0.500   0.714   5.519
 8327SOL    HW225881   0.619   0.637   5.437
 8328SOL     OW25882   1.307   6.597   5.700
 8328SOL    HW125883   1.221   6.548   5.711
 8328SOL    HW225884   1.357   6.598   5.787
 8329SOL     OW25885   0.517   2.955   4.941
 8329SOL    HW125886   0.438   2.957   4.881
 8329SOL    HW225887   0.506   2.882   5.008
 8330SOL     OW25888   3.795   0.892   6.432
 8330SOL    HW125889   3.763   0.942   6.352
 8330SOL    HW225890   3.836   0.805   6.403
 8331SOL     OW25891   2.767   1.867   0.418
 8331SOL    HW125892   2.740   1.806   0.343
 8331SOL    HW225893   2.835   1.932   0.386
 8332SOL     OW25894   5.506   5.741   1.936
 8332SOL    HW125895   5.446   5.670   1.900
 8332SOL    HW225896   5.598   5.703   1.951
 8333SOL     OW25897   1.916   5.159   0.643
 8333SOL    HW125898   1.952   5.176   0.552
 8333SOL    HW225899   1.968   5.212   0.710
 8334SOL     OW25900   2.911   1.845   6.532
 8334SOL    HW125901   2.947   1.833   6.625
 8334SOL    HW225902   2.811   1.842   6.533
 8335SOL     OW25903   4.577   2.966   6.884
 8335SOL    HW125904   4.526   2.886   6.918
 8335SOL    HW225905   4.613   2.946   6.793
 8336SOL     OW25906   1.059   3.907   2.636
 8336SOL    HW125907   0.973   3.874   2.596
 8336SOL    HW225908   1.043   3.994   2.682
 8337SOL     OW25909   0.986   0.301   4.819
 8337SOL    HW125910   1.083   0.297   4.795
 8337SOL    HW225911   0.973   0.263   4.911
 8338SOL     OW25912   4.026   4.925   2.390
 8338SOL    HW125913   4.106   4.957   2.340
 8338SOL    HW225914   4.024   4.969   2.480
 8339SOL     OW25915   6.361   0.686   0.812
 8339SOL    HW125916   6.409   0.632   0.743
 8339SOL    HW225917   6.322   0.767   0.770
 8340SOL     OW25918   4.993   3.813   0.099
 8340SOL    HW125919   4.920   3.797   0.032
 8340SOL    HW225920   4.975   3.898   0.147
 8341SOL     OW25921   3.340   0.558   6.556
 8341SOL    HW125922   3.249   0.600   6.545
 8341SOL    HW225923   3.341   0.469   6.510
 8342SOL     OW25924   3.409   6.361   0.508
 8342SOL    HW125925   3.506   6.367   0.534
 8342SOL    HW225926   3.376   6.267   0.523
 8343SOL     OW25927   6.619   5.619   4.369
 8343SOL    HW125928   6.601   5.597   4.465
 8343SOL    HW225929   6.706   5.579   4.341
 8344SOL     OW25930   0.597   5.069   4.578
 8344SOL    HW125931   0.560   5.058   4.486
 8344SOL    HW225932   0.522   5.075   4.644
 8345SOL     OW25933   5.242   1.625   3.300
 8345SOL    HW125934   5.239   1.712   3.350
 8345SOL    HW225935   5.152   1.603   3.265
 8346SOL     OW25936   3.908   3.342   6.348
 8346SOL    HW125937   3.876   3.425   6.395
 8346SOL    HW225938   3.900   3.354   6.249
 8347SOL     OW25939   2.907   6.157   6.159
 8347SOL    HW125940   2.997   6.195   6.178
 8347SOL    HW225941   2.894   6.074   6.213
 8348SOL     OW25942   2.670   6.568   1.483
 8348SOL    HW125943   2.700   6.644   1.425
 8348SOL    HW225944   2.578   6.587   1.518
 8349SOL     OW25945   0.902   6.445   1.281
 8349SOL    HW125946   0.950   6.521   1.326
 8349SOL    HW225947   0.835   6.482   1.216
 8350SOL     OW25948   2.972   6.868   6.594
 8350SOL    HW125949   2.981   6.830   6.686
 8350SOL    HW225950   2.998   6.799   6.527
 8351SOL     OW25951   5.612   5.694   3.825
 8351SOL    HW125952   5.614   5.634   3.745
 8351SOL    HW225953   5.616   5.789   3.796
 8352SOL     OW25954   2.435   6.438   2.652
 8352SOL    HW125955   2.382   6.432   2.567
 8352SOL    HW225956   2.486   6.353   2.665
 8353SOL     OW25957   2.159   3.952   1.415
 8353SOL    HW125958   2.068   3.928   1.382
 8353SOL    HW225959   2.196   4.027   1.360
 8354SOL     OW25960   3.668   6.712   4.204
 8354SOL    HW125961   3.736   6.675   4.141
 8354SOL    HW225962   3.578   6.676   4.181
 8355SOL     OW25963   1.991   0.665   6.157
 8355SOL    HW125964   1.948   0.741   6.108
 8355SOL    HW225965   1.937   0.641   6.237
 8356SOL     OW25966   1.213   5.109   1.594
 8356SOL    HW125967   1.152   5.040   1.554
 8356SOL    HW225968   1.296   5.116   1.538
 8357SOL     OW25969   3.641   5.511   5.914
 8357SOL    HW125970   3.648   5.600   5.868
 8357SOL    HW225971   3.639   5.439   5.845
 8358SOL     OW25972   0.762   3.302   5.178
 8358SOL    HW125973   0.693   3.343   5.238
 8358SOL    HW225974   0.850   3.349   5.191
 8359SOL     OW25975   2.404   1.264   4.602
 8359SOL    HW125976   2.319   1.280   4.653
 8359SOL    HW225977   2.421   1.340   4.540
 8360SOL     OW25978   4.796   6.710   0.771
 8360SOL    HW125979   4.863   6.750   0.710
 8360SOL    HW225980   4.810   6.745   0.864
 8361SOL     OW25981   2.802   0.084   6.607
 8361SOL    HW125982   2.867   0.009   6.597
 8361SOL    HW225983   2.762   0.081   6.699
 8362SOL     OW25984   6.115   2.219   0.709
 8362SOL    HW125985   6.117   2.283   0.632
 8362SOL    HW225986   6.029   2.229   0.759
 8363SOL     OW25987   4.985   1.779   0.643
 8363SOL    HW125988   4.962   1.707   0.709
 8363SOL    HW225989   4.996   1.866   0.691
 8364SOL     OW25990   0.666   3.462   3.727
 8364SOL    HW125991   0.659   3.363   3.711
 8364SOL    HW225992   0.614   3.511   3.658
 8365SOL     OW25993   1.741   2.068   2.796
 8365SOL    HW125994   1.722   2.100   2.888
 8365SOL    HW225995   1.824   2.012   2.797
 8366SOL     OW25996   3.880   5.135   0.998
 8366SOL    HW125997   3.855   5.176   1.086
 8366SOL    HW225998   3.979   5.143   0.984
 8367SOL     OW25999   3.185   4.832   5.121
 8367SOL    HW126000   3.137   4.769   5.181
 8367SOL    HW226001   3.259   4.876   5.171
 8368SOL     OW26002   1.252   6.066   6.809
 8368SOL    HW126003   1.243   6.127   6.730
 8368SOL    HW226004   1.289   5.978   6.779
 8369SOL     OW26005   0.847   0.946   0.741
 8369SOL    HW126006   0.863   0.895   0.656
 8369SOL    HW226007   0.923   1.009   0.756
 8370SOL     OW26008   2.633   1.361   6.386
 8370SOL    HW126009   2.566   1.333   6.455
 8370SOL    HW226010   2.600   1.441   6.337
 8371SOL     OW26011   1.587   3.397   6.064
 8371SOL    HW126012   1.633   3.364   5.981
 8371SOL    HW226013   1.634   3.362   6.144
 8372SOL     OW26014   2.159   5.727   2.002
 8372SOL    HW126015   2.105   5.807   1.974
 8372SOL    HW226016   2.231   5.711   1.934
 8373SOL     OW26017   1.326   1.225   4.595
 8373SOL    HW126018   1.301   1.306   4.648
 8373SOL    HW226019   1.426   1.217   4.592
 8374SOL     OW26020   0.874   0.647   4.551
 8374SOL    HW126021   0.891   0.658   4.453
 8374SOL    HW226022   0.808   0.572   4.566
 8375SOL     OW26023   3.275   0.272   5.811
 8375SOL    HW126024   3.246   0.336   5.882
 8375SOL    HW226025   3.260   0.178   5.842
 8376SOL     OW26026   1.742   1.165   4.256
 8376SOL    HW126027   1.801   1.118   4.322
 8376SOL    HW226028   1.766   1.262   4.253
 8377SOL     OW26029   5.955   5.382   0.316
 8377SOL    HW126030   5.959   5.440   0.235
 8377SOL    HW226031   5.887   5.418   0.380
 8378SOL     OW26032   5.445   5.076   3.281
 8378SOL    HW126033   5.363   5.122   3.245
 8378SOL    HW226034   5.510   5.145   3.313
 8379SOL     OW26035   4.906   2.297   1.674
 8379SOL    HW126036   4.896   2.381   1.620
 8379SOL    HW226037   4.836   2.232   1.646
 8380SOL     OW26038   0.482   6.647   6.399
 8380SOL    HW126039   0.549   6.590   6.447
 8380SOL    HW226040   0.518   6.740   6.390
 8381SOL     OW26041   7.023   2.277   3.322
 8381SOL    HW126042   6.936   2.318   3.295
 8381SOL    HW226043   0.041   2.332   3.395
 8382SOL     OW26044   2.667   0.436   0.903
 8382SOL    HW126045   2.575   0.416   0.938
 8382SOL    HW226046   2.677   0.534   0.889
 8383SOL     OW26047   2.763   0.525   5.195
 8383SOL    HW126048   2.743   0.430   5.219
 8383SOL    HW226049   2.741   0.584   5.273
 8384SOL     OW26050   6.817   1.208   0.668
 8384SOL    HW126051   6.719   1.193   0.682
 8384SOL    HW226052   6.848   1.150   0.592
 8385SOL     OW26053   4.700   2.024   0.479
 8385SOL    HW126054   4.798   2.028   0.457
 8385SOL    HW226055   4.686   1.964   0.558
 8386SOL     OW26056   1.622   5.550   1.431
 8386SOL    HW126057   1.566   5.565   1.513
 8386SOL    HW226058   1.683   5.473   1.447
 8387SOL     OW26059   1.730   1.518   1.597
 8387SOL    HW126060   1.774   1.503   1.686
 8387SOL    HW226061   1.726   1.431   1.547
 8388SOL     OW26062   1.611   0.387   1.098
 8388SOL    HW126063   1.675   0.446   1.148
 8388SOL    HW226064   1.571   0.320   1.161
 8389SOL     OW26065   0.869   3.447   3.916
 8389SOL    HW126066   0.843   3.543   3.925
 8389SOL    HW226067   0.811   3.403   3.848
 8390SOL     OW26068   3.876   0.184   6.742
 8390SOL    HW126069   3.869   0.091   6.777
 8390SOL    HW226070   3.794   0.236   6.769
 8391SOL     OW26071   5.249   5.265   0.914
 8391SOL    HW126072   5.341   5.298   0.895
 8391SOL    HW226073   5.235   5.260   1.013
 8392SOL     OW26074   6.918   5.461   5.576
 8392SOL    HW126075   6.994   5.405   5.610
 8392SOL    HW226076   6.845   5.463   5.644
 8393SOL     OW26077   6.869   0.605   3.602
 8393SOL    HW126078   6.914   0.674   3.660
 8393SOL    HW226079   6.890   0.514   3.637
 8394SOL     OW26080   0.520   1.974   1.812
 8394SOL    HW126081   0.484   1.989   1.720
 8394SOL    HW226082   0.604   1.921   1.806
 8395SOL     OW26083   1.592   0.013   4.110
 8395SOL    HW126084   1.569   6.950   4.063
 8395SOL    HW226085   1.511   0.072   4.113
 8396SOL     OW26086   4.666   4.345   2.233
 8396SOL    HW126087   4.762   4.362   2.210
 8396SOL    HW226088   4.617   4.315   2.151
 8397SOL     OW26089   2.638   0.337   3.034
 8397SOL    HW126090   2.730   0.371   3.014
 8397SOL    HW226091   2.612   0.365   3.127
 8398SOL     OW26092   3.422   1.887   0.069
 8398SOL    HW126093   3.337   1.870   0.019
 8398SOL    HW226094   3.497   1.839   0.024
 8399SOL     OW26095   6.925   6.647   6.904
 8399SOL    HW126096   6.878   6.734   6.918
 8399SOL    HW226097   6.911   6.617   6.809
 8400SOL     OW26098   1.341   0.730   3.398
 8400SOL    HW126099   1.308   0.773   3.314
 8400SOL    HW226100   1.426   0.682   3.380
 8401SOL     OW26101   3.842   2.891   6.372
 8401SOL    HW126102   3.893   2.975   6.391
 8401SOL    HW226103   3.831   2.879   6.273
 8402SOL     OW26104   3.035   1.835   6.018
 8402SOL    HW126105   3.081   1.759   5.971
 8402SOL    HW226106   3.102   1.907   6.036
 8403SOL     OW26107   0.283   2.059   3.553
 8403SOL    HW126108   0.274   2.021   3.645
 8403SOL    HW226109   0.367   2.112   3.547
 8404SOL     OW26110   5.843   5.845   7.000
 8404SOL    HW126111   5.895   5.815   6.920
 8404SOL    HW226112   5.748   5.861   6.973
 8405SOL     OW26113   2.091   1.426   6.933
 8405SOL    HW126114   2.067   1.480   6.853
 8405SOL    HW226115   2.038   1.456   7.012
 8406SOL     OW26116   3.553   0.677   1.161
 8406SOL    HW126117   3.564   0.743   1.235
 8406SOL    HW226118   3.627   0.610   1.164
 8407SOL     OW26119   5.890   6.085   4.581
 8407SOL    HW126120   5.927   6.173   4.610
 8407SOL    HW226121   5.932   6.058   4.495
 8408SOL     OW26122   4.851   1.775   3.292
 8408SOL    HW126123   4.895   1.863   3.312
 8408SOL    HW226124   4.752   1.788   3.287
 8409SOL     OW26125   6.290   2.435   3.876
 8409SOL    HW126126   6.266   2.435   3.974
 8409SOL    HW226127   6.206   2.437   3.822
 8410SOL     OW26128   4.257   0.641   1.789
 8410SOL    HW126129   4.165   0.635   1.750
 8410SOL    HW226130   4.267   0.729   1.835
 8411SOL     OW26131   1.623   5.632   4.249
 8411SOL    HW126132   1.588   5.543   4.222
 8411SOL    HW226133   1.720   5.625   4.272
 8412SOL     OW26134   4.156   1.666   1.626
 8412SOL    HW126135   4.138   1.764   1.614
 8412SOL    HW226136   4.171   1.624   1.537
 8413SOL     OW26137   5.458   4.429   0.143
 8413SOL    HW126138   5.377   4.435   0.202
 8413SOL    HW226139   5.537   4.467   0.190
 8414SOL     OW26140   4.392   6.964   2.553
 8414SOL    HW126141   4.436   6.923   2.473
 8414SOL    HW226142   4.462   6.994   2.617
 8415SOL     OW26143   6.796   5.497   3.826
 8415SOL    HW126144   6.746   5.423   3.871
 8415SOL    HW226145   6.891   5.470   3.811
 8416SOL     OW26146   5.037   4.576   3.520
 8416SOL    HW126147   5.080   4.488   3.502
 8416SOL    HW226148   4.980   4.602   3.442
 8417SOL     OW26149   1.479   5.432   5.359
 8417SOL    HW126150   1.408   5.453   5.291
 8417SOL    HW226151   1.534   5.355   5.327
 8418SOL     OW26152   6.093   5.269   1.801
 8418SOL    HW126153   6.192   5.281   1.794
 8418SOL    HW226154   6.072   5.181   1.843
 8419SOL     OW26155   4.399   0.940   2.354
 8419SOL    HW126156   4.443   0.878   2.418
 8419SOL    HW226157   4.323   0.987   2.399
 8420SOL     OW26158   3.538   0.133   1.103
 8420SOL    HW126159   3.609   0.182   1.154
 8420SOL    HW226160   3.574   0.104   1.015
 8421SOL     OW26161   2.850   6.412   0.846
 8421SOL    HW126162   2.865   6.385   0.751
 8421SOL    HW226163   2.755   6.440   0.858
 8422SOL     OW26164   4.742   6.196   1.519
 8422SOL    HW126165   4.696   6.221   1.604
 8422SOL    HW226166   4.800   6.272   1.489
 8423SOL     OW26167   4.044   3.576   6.017
 8423SOL    HW126168   4.123   3.631   6.044
 8423SOL    HW226169   3.962   3.610   6.063
 8424SOL     OW26170   2.510   2.613   3.088
 8424SOL    HW126171   2.597   2.655   3.111
 8424SOL    HW226172   2.455   2.601   3.171
 8425SOL     OW26173   6.064   5.657   1.333
 8425SOL    HW126174   6.067   5.745   1.286
 8425SOL    HW226175   6.006   5.594   1.282
 8426SOL     OW26176   3.786   2.899   4.504
 8426SOL    HW126177   3.774   2.944   4.416
 8426SOL    HW226178   3.880   2.869   4.514
 8427SOL     OW26179   1.936   3.968   6.073
 8427SOL    HW126180   1.935   3.941   5.977
 8427SOL    HW226181   2.024   3.945   6.114
 8428SOL     OW26182   6.368   4.595   1.632
 8428SOL    HW126183   6.458   4.582   1.673
 8428SOL    HW226184   6.344   4.692   1.635
 8429SOL     OW26185   2.172   4.648   4.031
 8429SOL    HW126186   2.128   4.730   3.995
 8429SOL    HW226187   2.131   4.625   4.120
 8430SOL     OW26188   4.452   5.535   3.232
 8430SOL    HW126189   4.355   5.514   3.216
 8430SOL    HW226190   4.483   5.605   3.169
 8431SOL     OW26191   2.398   5.051   1.032
 8431SOL    HW126192   2.390   5.086   0.938
 8431SOL    HW226193   2.331   5.097   1.090
 8432SOL     OW26194   4.694   5.859   5.410
 8432SOL    HW126195   4.675   5.922   5.336
 8432SOL    HW226196   4.614   5.854   5.471
 8433SOL     OW26197   6.777   2.696   6.334
 8433SOL    HW126198   6.708   2.753   6.378
 8433SOL    HW226199   6.820   2.747   6.260
 8434SOL     OW26200   2.758   0.201   4.794
 8434SOL    HW126201   2.666   0.162   4.792
 8434SOL    HW226202   2.757   0.283   4.851
 8435SOL     OW26203   4.874   1.082   0.826
 8435SOL    HW126204   4.819   1.146   0.774
 8435SOL    HW226205   4.814   1.020   0.877
 8436SOL     OW26206   3.056   6.447   4.393
 8436SOL    HW126207   3.141   6.415   4.436
 8436SOL    HW226208   3.059   6.429   4.295
 8437SOL     OW26209   2.344   0.286   2.713
 8437SOL    HW126210   2.387   0.359   2.766
 8437SOL    HW226211   2.247   0.306   2.702
 8438SOL     OW26212   3.228   5.037   2.193
 8438SOL    HW126213   3.181   4.954   2.163
 8438SOL    HW226214   3.240   5.033   2.293
 8439SOL     OW26215   6.710   5.659   1.149
 8439SOL    HW126216   6.630   5.601   1.165
 8439SOL    HW226217   6.682   5.755   1.150
 8440SOL     OW26218   0.470   1.365   3.396
 8440SOL    HW126219   0.394   1.416   3.436
 8440SOL    HW226220   0.531   1.333   3.468
 8441SOL     OW26221   6.442   6.368   6.999
 8441SOL    HW126222   6.525   6.315   6.984
 8441SOL    HW226223   6.416   6.362   0.073
 8442SOL     OW26224   3.389   2.976   5.947
 8442SOL    HW126225   3.419   2.923   5.867
 8442SOL    HW226226   3.363   3.068   5.918
 8443SOL     OW26227   1.270   6.791   3.167
 8443SOL    HW126228   1.203   6.745   3.225
 8443SOL    HW226229   1.301   6.875   3.213
 8444SOL     OW26230   3.444   5.814   3.736
 8444SOL    HW126231   3.446   5.858   3.826
 8444SOL    HW226232   3.376   5.740   3.736
 8445SOL     OW26233   3.507   5.199   1.940
 8445SOL    HW126234   3.568   5.165   1.868
 8445SOL    HW226235   3.412   5.184   1.911
 8446SOL     OW26236   5.372   5.734   0.920
 8446SOL    HW126237   5.338   5.663   0.983
 8446SOL    HW226238   5.364   5.701   0.826
 8447SOL     OW26239   5.883   2.034   1.970
 8447SOL    HW126240   5.818   2.056   1.897
 8447SOL    HW226241   5.951   2.106   1.976
 8448SOL     OW26242   6.187   3.968   5.316
 8448SOL    HW126243   6.285   3.991   5.312
 8448SOL    HW226244   6.151   3.997   5.405
 8449SOL     OW26245   6.978   2.893   4.721
 8449SOL    HW126246   7.022   2.948   4.792
 8449SOL    HW226247   6.889   2.862   4.753
 8450SOL     OW26248   1.309   6.039   1.900
 8450SOL    HW126249   1.348   6.050   1.809
 8450SOL    HW226250   1.381   6.043   1.968
 8451SOL     OW26251   4.658   2.623   0.588
 8451SOL    HW126252   4.659   2.710   0.539
 8451SOL    HW226253   4.636   2.549   0.525
 8452SOL     OW26254   0.152   0.222   1.336
 8452SOL    HW126255   0.162   0.301   1.396
 8452SOL    HW226256   0.189   0.141   1.380
 8453SOL     OW26257   6.415   4.302   6.288
 8453SOL    HW126258   6.499   4.273   6.333
 8453SOL    HW226259   6.357   4.222   6.270
 8454SOL     OW26260   1.034   5.538   0.928
 8454SOL    HW126261   0.948   5.542   0.978
 8454SOL    HW226262   1.023   5.479   0.848
 8455SOL     OW26263   4.800   2.210   1.172
 8455SOL    HW126264   4.712   2.236   1.135
 8455SOL    HW226265   4.802   2.112   1.190
 8456SOL     OW26266   5.244   4.742   3.133
 8456SOL    HW126267   5.145   4.752   3.135
 8456SOL    HW226268   5.285   4.793   3.208
 8457SOL     OW26269   6.637   6.674   5.828
 8457SOL    HW126270   6.643   6.763   5.783
 8457SOL    HW226271   6.541   6.647   5.834
 8458SOL     OW26272   2.518   1.090   6.763
 8458SOL    HW126273   2.616   1.098   6.783
 8458SOL    HW226274   2.465   1.114   6.844
 8459SOL     OW26275   3.068   0.083   1.017
 8459SOL    HW126276   2.979   0.127   1.021
 8459SOL    HW226277   3.130   0.124   1.084
 8460SOL     OW26278   4.210   2.380   5.910
 8460SOL    HW126279   4.310   2.375   5.913
 8460SOL    HW226280   4.173   2.364   6.002
 8461SOL     OW26281   0.712   3.889   2.175
 8461SOL    HW126282   0.756   3.970   2.135
 8461SOL    HW226283   0.615   3.889   2.149
 8462SOL     OW26284   3.500   2.528   0.387
 8462SOL    HW126285   3.472   2.474   0.307
 8462SOL    HW226286   3.598   2.545   0.383
 8463SOL     OW26287   6.831   1.004   0.393
 8463SOL    HW126288   6.850   0.911   0.424
 8463SOL    HW226289   6.917   1.048   0.366
 8464SOL     OW26290   6.882   4.584   5.331
 8464SOL    HW126291   6.804   4.579   5.394
 8464SOL    HW226292   6.873   4.513   5.261
 8465SOL     OW26293   3.123   2.326   0.870
 8465SOL    HW126294   3.108   2.425   0.865
 8465SOL    HW226295   3.127   2.299   0.966
 8466SOL     OW26296   5.962   6.486   5.067
 8466SOL    HW126297   5.997   6.412   5.125
 8466SOL    HW226298   5.871   6.461   5.034
 8467SOL     OW26299   3.978   0.846   0.991
 8467SOL    HW126300   3.925   0.914   1.041
 8467SOL    HW226301   3.995   0.767   1.050
 8468SOL     OW26302   4.657   2.986   0.192
 8468SOL    HW126303   4.626   3.016   0.102
 8468SOL    HW226304   4.757   2.977   0.192
 8469SOL     OW26305   2.555   1.665   5.733
 8469SOL    HW126306   2.591   1.734   5.670
 8469SOL    HW226307   2.456   1.674   5.738
 8470SOL     OW26308   1.209   5.066   6.800
 8470SOL    HW126309   1.173   4.982   6.759
 8470SOL    HW226310   1.291   5.044   6.853
 8471SOL     OW26311   4.065   0.352   5.642
 8471SOL    HW126312   4.042   0.440   5.601
 8471SOL    HW226313   4.159   0.355   5.678
 8472SOL     OW26314   6.075   0.605   5.233
 8472SOL    HW126315   6.045   0.511   5.251
 8472SOL    HW226316   6.028   0.639   5.151
 8473SOL     OW26317   6.246   5.624   0.897
 8473SOL    HW126318   6.153   5.592   0.914
 8473SOL    HW226319   6.311   5.552   0.919
 8474SOL     OW26320   3.623   3.468   1.930
 8474SOL    HW126321   3.617   3.568   1.936
 8474SOL    HW226322   3.531   3.429   1.933
 8475SOL     OW26323   0.012   2.541   3.114
 8475SOL    HW126324   0.033   2.446   3.137
 8475SOL    HW226325   0.003   2.594   3.197
 8476SOL     OW26326   6.990   1.944   0.859
 8476SOL    HW126327   0.005   1.950   0.767
 8476SOL    HW226328   7.005   2.031   0.906
 8477SOL     OW26329   4.386   6.626   2.679
 8477SOL    HW126330   4.319   6.689   2.638
 8477SOL    HW226331   4.338   6.543   2.710
 8478SOL     OW26332   1.120   0.795   5.514
 8478SOL    HW126333   1.021   0.802   5.499
 8478SOL    HW226334   1.163   0.884   5.499
 8479SOL     OW26335   1.439   3.742   0.912
 8479SOL    HW126336   1.532   3.770   0.887
 8479SOL    HW226337   1.413   3.783   0.999
 8480SOL     OW26338   5.139   3.349   6.931
 8480SOL    HW126339   5.179   3.366   7.021
 8480SOL    HW226340   5.205   3.299   6.875
 8481SOL     OW26341   4.497   2.139   4.853
 8481SOL    HW126342   4.596   2.121   4.847
 8481SOL    HW226343   4.458   2.144   4.761
 8482SOL     OW26344   5.188   0.217   2.279
 8482SOL    HW126345   5.158   0.197   2.186
 8482SOL    HW226346   5.109   0.236   2.337
 8483SOL     OW26347   3.327   5.748   2.661
 8483SOL    HW126348   3.281   5.772   2.576
 8483SOL    HW226349   3.298   5.810   2.734
 8484SOL     OW26350   6.473   6.349   4.168
 8484SOL    HW126351   6.434   6.258   4.183
 8484SOL    HW226352   6.521   6.378   4.251
 8485SOL     OW26353   3.791   2.667   0.064
 8485SOL    HW126354   3.879   2.679   0.020
 8485SOL    HW226355   3.720   2.656   7.018
 8486SOL     OW26356   2.269   1.464   2.528
 8486SOL    HW126357   2.291   1.496   2.620
 8486SOL    HW226358   2.240   1.368   2.532
 8487SOL     OW26359   6.058   2.548   6.072
 8487SOL    HW126360   6.078   2.644   6.091
 8487SOL    HW226361   5.960   2.536   6.056
 8488SOL     OW26362   5.441   6.494   2.050
 8488SOL    HW126363   5.375   6.434   2.005
 8488SOL    HW226364   5.428   6.588   2.018
 8489SOL     OW26365   6.185   1.431   1.753
 8489SOL    HW126366   6.257   1.434   1.823
 8489SOL    HW226367   6.177   1.521   1.711
 8490SOL     OW26368   3.049   6.659   5.605
 8490SOL    HW126369   3.060   6.668   5.704
 8490SOL    HW226370   3.129   6.612   5.567
 8491SOL     OW26371   1.786   6.241   2.212
 8491SOL    HW126372   1.712   6.228   2.146
 8491SOL    HW226373   1.779   6.173   2.285
 8492SOL     OW26374   5.627   4.252   4.805
 8492SOL    HW126375   5.569   4.244   4.886
 8492SOL    HW226376   5.722   4.233   4.830
 8493SOL     OW26377   2.151   2.352   6.137
 8493SOL    HW126378   2.060   2.335   6.097
 8493SOL    HW226379   2.156   2.309   6.227
 8494SOL     OW26380   4.332   5.582   1.950
 8494SOL    HW126381   4.364   5.657   1.891
 8494SOL    HW226382   4.232   5.584   1.954
 8495SOL     OW26383   0.163   5.027   1.481
 8495SOL    HW126384   0.189   4.947   1.426
 8495SOL    HW226385   0.245   5.072   1.515
 8496SOL     OW26386   0.106   1.352   2.769
 8496SOL    HW126387   0.204   1.373   2.768
 8496SOL    HW226388   0.054   1.435   2.746
 8497SOL     OW26389   0.114   1.699   3.400
 8497SOL    HW126390   0.094   1.644   3.319
 8497SOL    HW226391   0.046   1.678   3.471
 8498SOL     OW26392   6.779   6.863   3.012
 8498SOL    HW126393   6.680   6.858   3.025
 8498SOL    HW226394   6.806   6.957   2.991
 8499SOL     OW26395   1.449   3.624   6.958
 8499SOL    HW126396   1.510   3.678   6.901
 8499SOL    HW226397   1.358   3.666   6.960
 8500SOL     OW26398   1.700   6.117   5.956
 8500SOL    HW126399   1.672   6.161   5.870
 8500SOL    HW226400   1.641   6.148   6.030
 8501SOL     OW26401   0.201   2.748   5.763
 8501SOL    HW126402   0.258   2.667   5.779
 8501SOL    HW226403   0.259   2.825   5.738
 8502SOL     OW26404   0.576   2.930   1.688
 8502SOL    HW126405   0.596   3.020   1.725
 8502SOL    HW226406   0.477   2.921   1.674
 8503SOL     OW26407   0.878   5.777   4.827
 8503SOL    HW126408   0.813   5.734   4.765
 8503SOL    HW226409   0.832   5.802   4.912
 8504SOL     OW26410   1.884   5.400   2.092
 8504SOL    HW126411   1.876   5.308   2.132
 8504SOL    HW226412   1.864   5.395   1.995
 8505SOL     OW26413   6.675   3.468   3.226
 8505SOL    HW126414   6.619   3.526   3.286
 8505SOL    HW226415   6.625   3.450   3.142
 8506SOL     OW26416   1.249   1.759   6.641
 8506SOL    HW126417   1.150   1.773   6.646
 8506SOL    HW226418   1.291   1.784   6.728
 8507SOL     OW26419   3.687   6.801   5.436
 8507SOL    HW126420   3.705   6.793   5.338
 8507SOL    HW226421   3.589   6.809   5.452
 8508SOL     OW26422   4.470   1.928   5.553
 8508SOL    HW126423   4.395   1.992   5.569
 8508SOL    HW226424   4.544   1.975   5.505
 8509SOL     OW26425   5.379   0.609   3.283
 8509SOL    HW126426   5.289   0.648   3.300
 8509SOL    HW226427   5.450   0.673   3.312
 8510SOL     OW26428   5.936   4.258   2.756
 8510SOL    HW126429   5.900   4.180   2.706
 8510SOL    HW226430   6.028   4.237   2.790
 8511SOL     OW26431   6.320   3.607   2.627
 8511SOL    HW126432   6.403   3.646   2.588
 8511SOL    HW226433   6.243   3.670   2.612
 8512SOL     OW26434   3.163   0.834   2.847
 8512SOL    HW126435   3.100   0.766   2.887
 8512SOL    HW226436   3.153   0.920   2.896
 8513SOL     OW26437   0.039   5.260   0.968
 8513SOL    HW126438   0.049   5.263   0.869
 8513SOL    HW226439   0.081   5.342   1.009
 8514SOL     OW26440   2.501   0.740   4.086
 8514SOL    HW126441   2.567   0.692   4.028
 8514SOL    HW226442   2.506   0.838   4.068
 8515SOL     OW26443   5.069   2.600   1.235
 8515SOL    HW126444   5.047   2.687   1.280
 8515SOL    HW226445   4.985   2.546   1.226
 8516SOL     OW26446   0.249   1.724   2.254
 8516SOL    HW126447   0.253   1.747   2.157
 8516SOL    HW226448   0.225   1.627   2.264
 8517SOL     OW26449   0.560   2.884   5.233
 8517SOL    HW126450   0.580   2.835   5.318
 8517SOL    HW226451   0.568   2.982   5.249
 8518SOL     OW26452   4.787   4.233   6.512
 8518SOL    HW126453   4.832   4.219   6.424
 8518SOL    HW226454   4.709   4.294   6.501
 8519SOL     OW26455   1.477   5.411   1.974
 8519SOL    HW126456   1.388   5.378   1.943
 8519SOL    HW226457   1.465   5.496   2.024
 8520SOL     OW26458   3.698   1.155   0.876
 8520SOL    HW126459   3.793   1.132   0.855
 8520SOL    HW226460   3.663   1.219   0.808
 8521SOL     OW26461   1.783   5.507   5.962
 8521SOL    HW126462   1.793   5.596   6.005
 8521SOL    HW226463   1.708   5.510   5.895
 8522SOL     OW26464   1.121   5.572   2.106
 8522SOL    HW126465   1.197   5.634   2.088
 8522SOL    HW226466   1.103   5.516   2.025
 8523SOL     OW26467   2.972   6.375   6.933
 8523SOL    HW126468   2.906   6.300   6.934
 8523SOL    HW226469   2.934   6.453   6.884
 8524SOL     OW26470   1.357   3.015   4.538
 8524SOL    HW126471   1.429   2.957   4.501
 8524SOL    HW226472   1.336   2.987   4.631
 8525SOL     OW26473   5.954   4.173   3.638
 8525SOL    HW126474   5.929   4.119   3.558
 8525SOL    HW226475   6.036   4.227   3.618
 8526SOL     OW26476   2.498   4.055   0.862
 8526SOL    HW126477   2.595   4.077   0.867
 8526SOL    HW226478   2.466   4.022   0.951
 8527SOL     OW26479   3.430   0.356   5.079
 8527SOL    HW126480   3.504   0.289   5.070
 8527SOL    HW226481   3.347   0.320   5.036
 8528SOL     OW26482   5.004   3.099   6.182
 8528SOL    HW126483   4.941   3.022   6.172
 8528SOL    HW226484   4.955   3.178   6.218
 8529SOL     OW26485   1.390   6.964   6.852
 8529SOL    HW126486   1.441   6.882   6.828
 8529SOL    HW226487   1.440   7.015   6.923
 8530SOL     OW26488   1.014   4.971   6.193
 8530SOL    HW126489   1.013   5.059   6.146
 8530SOL    HW226490   0.935   4.965   6.255
 8531SOL     OW26491   5.782   4.468   2.704
 8531SOL    HW126492   5.844   4.398   2.741
 8531SOL    HW226493   5.752   4.440   2.613
 8532SOL     OW26494   4.249   5.040   5.058
 8532SOL    HW126495   4.181   5.090   5.112
 8532SOL    HW226496   4.205   5.002   4.976
 8533SOL     OW26497   1.904   0.680   5.592
 8533SOL    HW126498   1.860   0.596   5.562
 8533SOL    HW226499   1.836   0.741   5.632
 8534SOL     OW26500   6.975   4.180   3.412
 8534SOL    HW126501   0.050   4.162   3.423
 8534SOL    HW226502   6.944   4.239   3.486
 8535SOL     OW26503   0.647   2.272   4.817
 8535SOL    HW126504   0.686   2.225   4.738
 8535SOL    HW226505   0.719   2.321   4.866
 8536SOL     OW26506   6.180   1.917   4.893
 8536SOL    HW126507   6.265   1.955   4.929
 8536SOL    HW226508   6.159   1.831   4.939
 8537SOL     OW26509   6.352   1.697   0.743
 8537SOL    HW126510   6.399   1.626   0.690
 8537SOL    HW226511   6.411   1.776   0.753
 8538SOL     OW26512   0.468   0.651   4.863
 8538SOL    HW126513   0.543   0.629   4.801
 8538SOL    HW226514   0.505   0.686   4.949
 8539SOL     OW26515   6.150   2.255   2.258
 8539SOL    HW126516   6.233   2.309   2.276
 8539SOL    HW226517   6.132   2.253   2.160
 8540SOL     OW26518   3.540   1.677   0.759
 8540SOL    HW126519   3.615   1.721   0.808
 8540SOL    HW226520   3.455   1.687   0.811
 8541SOL     OW26521   2.525   1.845   4.764
 8541SOL    HW126522   2.484   1.936   4.771
 8541SOL    HW226523   2.464   1.778   4.806
 8542SOL     OW26524   2.891   4.505   6.935
 8542SOL    HW126525   2.985   4.500   6.900
 8542SOL    HW226526   2.835   4.554   6.869
 8543SOL     OW26527   2.612   1.597   5.427
 8543SOL    HW126528   2.663   1.665   5.480
 8543SOL    HW226529   2.673   1.521   5.404
 8544SOL     OW26530   5.291   3.263   4.695
 8544SOL    HW126531   5.338   3.315   4.766
 8544SOL    HW226532   5.299   3.311   4.608
 8545SOL     OW26533   3.308   6.377   4.754
 8545SOL    HW126534   3.307   6.279   4.731
 8545SOL    HW226535   3.227   6.399   4.808
 8546SOL     OW26536   6.100   0.463   1.153
 8546SOL    HW126537   6.170   0.501   1.213
 8546SOL    HW226538   6.127   0.371   1.124
 8547SOL     OW26539   0.230   0.559   5.317
 8547SOL    HW126540   0.215   0.462   5.334
 8547SOL    HW226541   0.142   0.607   5.315
 8548SOL     OW26542   0.354   3.174   5.327
 8548SOL    HW126543   0.287   3.233   5.283
 8548SOL    HW226544   0.379   3.100   5.264
 8549SOL     OW26545   0.669   2.636   3.908
 8549SOL    HW126546   0.631   2.634   4.000
 8549SOL    HW226547   0.701   2.544   3.883
 8550SOL     OW26548   1.163   3.810   6.079
 8550SOL    HW126549   1.226   3.747   6.032
 8550SOL    HW226550   1.206   3.900   6.088
 8551SOL     OW26551   3.054   2.780   6.758
 8551SOL    HW126552   3.132   2.823   6.804
 8551SOL    HW226553   3.031   2.833   6.676
 8552SOL     OW26554   2.854   0.362   2.487
 8552SOL    HW126555   2.766   0.330   2.451
 8552SOL    HW226556   2.838   0.413   2.572
 8553SOL     OW26557   4.251   4.387   0.285
 8553SOL    HW126558   4.257   4.442   0.368
 8553SOL    HW226559   4.178   4.423   0.226
 8554SOL     OW26560   0.749   5.957   1.742
 8554SOL    HW126561   0.678   6.008   1.790
 8554SOL    HW226562   0.754   5.987   1.647
 8555SOL     OW26563   4.070   1.754   3.180
 8555SOL    HW126564   4.095   1.680   3.244
 8555SOL    HW226565   3.978   1.738   3.146
 8556SOL     OW26566   1.859   6.095   5.634
 8556SOL    HW126567   1.924   6.112   5.559
 8556SOL    HW226568   1.891   6.017   5.688
 8557SOL     OW26569   6.502   0.977   1.152
 8557SOL    HW126570   6.566   1.031   1.097
 8557SOL    HW226571   6.500   1.013   1.246
 8558SOL     OW26572   1.999   5.492   3.257
 8558SOL    HW126573   1.924   5.552   3.226
 8558SOL    HW226574   2.001   5.410   3.201
 8559SOL     OW26575   1.797   6.206   2.570
 8559SOL    HW126576   1.833   6.205   2.663
 8559SOL    HW226577   1.781   6.300   2.541
 8560SOL     OW26578   0.928   5.673   1.306
 8560SOL    HW126579   0.993   5.748   1.289
 8560SOL    HW226580   0.974   5.601   1.358
 8561SOL     OW26581   3.707   6.647   3.715
 8561SOL    HW126582   3.650   6.725   3.741
 8561SOL    HW226583   3.656   6.562   3.728
 8562SOL     OW26584   3.869   6.914   0.027
 8562SOL    HW126585   3.892   6.912   6.953
 8562SOL    HW226586   3.883   7.007   0.062
 8563SOL     OW26587   0.719   4.662   1.922
 8563SOL    HW126588   0.672   4.653   2.009
 8563SOL    HW226589   0.803   4.607   1.924
 8564SOL     OW26590   3.549   6.432   5.694
 8564SOL    HW126591   3.573   6.473   5.606
 8564SOL    HW226592   3.607   6.470   5.765
 8565SOL     OW26593   3.827   5.431   1.643
 8565SOL    HW126594   3.828   5.397   1.737
 8565SOL    HW226595   3.903   5.390   1.592
 8566SOL     OW26596   2.138   0.412   1.962
 8566SOL    HW126597   2.217   0.359   1.992
 8566SOL    HW226598   2.169   0.498   1.922
 8567SOL     OW26599   1.308   1.990   1.958
 8567SOL    HW126600   1.298   2.086   1.932
 8567SOL    HW226601   1.229   1.961   2.011
 8568SOL     OW26602   6.020   1.223   0.784
 8568SOL    HW126603   5.958   1.260   0.853
 8568SOL    HW226604   6.034   1.291   0.712
 8569SOL     OW26605   5.157   1.778   6.299
 8569SOL    HW126606   5.064   1.813   6.314
 8569SOL    HW226607   5.152   1.682   6.271
 8570SOL     OW26608   1.273   1.773   4.312
 8570SOL    HW126609   1.278   1.699   4.379
 8570SOL    HW226610   1.270   1.861   4.360
 8571SOL     OW26611   0.902   0.303   4.555
 8571SOL    HW126612   0.977   0.296   4.488
 8571SOL    HW226613   0.939   0.296   4.648
 8572SOL     OW26614   1.874   4.168   4.950
 8572SOL    HW126615   1.871   4.075   4.913
 8572SOL    HW226616   1.785   4.212   4.935
 8573SOL     OW26617   2.821   5.795   6.154
 8573SOL    HW126618   2.855   5.833   6.239
 8573SOL    HW226619   2.733   5.749   6.170
 8574SOL     OW26620   6.298   6.649   6.215
 8574SOL    HW126621   6.369   6.583   6.241
 8574SOL    HW226622   6.226   6.649   6.285
 8575SOL     OW26623   3.318   1.504   3.334
 8575SOL    HW126624   3.345   1.600   3.346
 8575SOL    HW226625   3.313   1.460   3.423
 8576SOL     OW26626   1.813   4.870   3.818
 8576SOL    HW126627   1.781   4.964   3.815
 8576SOL    HW226628   1.735   4.809   3.833
 8577SOL     OW26629   1.429   0.278   6.221
 8577SOL    HW126630   1.487   0.232   6.154
 8577SOL    HW226631   1.335   0.246   6.212
 8578SOL     OW26632   6.724   5.085   5.858
 8578SOL    HW126633   6.756   5.173   5.891
 8578SOL    HW226634   6.791   5.047   5.795
 8579SOL     OW26635   1.153   5.826   1.950
 8579SOL    HW126636   1.220   5.898   1.936
 8579SOL    HW226637   1.066   5.866   1.979
 8580SOL     OW26638   2.049   5.728   0.995
 8580SOL    HW126639   2.096   5.644   1.024
 8580SOL    HW226640   1.956   5.729   1.032
 8581SOL     OW26641   4.035   4.688   1.374
 8581SOL    HW126642   4.091   4.608   1.398
 8581SOL    HW226643   3.941   4.672   1.403
 8582SOL     OW26644   4.581   4.735   5.626
 8582SOL    HW126645   4.569   4.706   5.532
 8582SOL    HW226646   4.541   4.826   5.639
 8583SOL     OW26647   3.143   6.881   2.809
 8583SOL    HW126648   3.156   6.789   2.846
 8583SOL    HW226649   3.048   6.908   2.819
 8584SOL     OW26650   0.378   6.980   5.305
 8584SOL    HW126651   0.474   6.992   5.331
 8584SOL    HW226652   0.371   6.914   5.230
 8585SOL     OW26653   6.241   1.089   0.800
 8585SOL    HW126654   6.270   1.104   0.894
 8585SOL    HW226655   6.152   1.134   0.785
 8586SOL     OW26656   4.023   6.674   1.670
 8586SOL    HW126657   4.045   6.738   1.596
 8586SOL    HW226658   4.018   6.724   1.757
 8587SOL     OW26659   1.195   1.240   5.087
 8587SOL    HW126660   1.162   1.212   5.177
 8587SOL    HW226661   1.207   1.340   5.086
 8588SOL     OW26662   5.016   0.928   0.123
 8588SOL    HW126663   4.970   0.857   0.071
 8588SOL    HW226664   5.029   1.009   0.066
 8589SOL     OW26665   6.509   2.588   5.546
 8589SOL    HW126666   6.575   2.512   5.550
 8589SOL    HW226667   6.423   2.555   5.508
 8590SOL     OW26668   0.563   1.171   2.721
 8590SOL    HW126669   0.503   1.100   2.682
 8590SOL    HW226670   0.612   1.133   2.800
 8591SOL     OW26671   0.232   4.140   0.542
 8591SOL    HW126672   0.236   4.095   0.453
 8591SOL    HW226673   0.316   4.122   0.593
 8592SOL     OW26674   0.265   2.502   6.880
 8592SOL    HW126675   0.266   2.562   6.800
 8592SOL    HW226676   0.306   2.550   6.958
 8593SOL     OW26677   2.977   1.188   6.732
 8593SOL    HW126678   3.068   1.146   6.739
 8593SOL    HW226679   2.985   1.276   6.686
 8594SOL     OW26680   6.290   2.563   5.880
 8594SOL    HW126681   6.256   2.589   5.970
 8594SOL    HW226682   6.369   2.502   5.890
 8595SOL     OW26683   6.209   1.022   3.398
 8595SOL    HW126684   6.261   0.962   3.459
 8595SOL    HW226685   6.206   1.114   3.438
 8596SOL     OW26686   1.610   4.682   3.141
 8596SOL    HW126687   1.661   4.768   3.147
 8596SOL    HW226688   1.657   4.611   3.194
 8597SOL     OW26689   5.582   2.143   1.197
 8597SOL    HW126690   5.659   2.090   1.163
 8597SOL    HW226691   5.512   2.081   1.232
 8598SOL     OW26692   5.555   7.006   5.630
 8598SOL    HW126693   5.521   6.933   5.688
 8598SOL    HW226694   5.559   0.068   5.682
 8599SOL     OW26695   1.318   2.561   4.523
 8599SOL    HW126696   1.316   2.599   4.616
 8599SOL    HW226697   1.256   2.612   4.464
 8600SOL     OW26698   5.165   3.414   0.180
 8600SOL    HW126699   5.246   3.399   0.238
 8600SOL    HW226700   5.111   3.489   0.217
 8601SOL     OW26701   0.353   1.849   3.805
 8601SOL    HW126702   0.426   1.918   3.817
 8601SOL    HW226703   0.282   1.864   3.873
 8602SOL     OW26704   2.576   6.207   2.237
 8602SOL    HW126705   2.598   6.216   2.140
 8602SOL    HW226706   2.481   6.178   2.247
 8603SOL     OW26707   5.552   0.018   0.173
 8603SOL    HW126708   5.648   7.015   0.177
 8603SOL    HW226709   5.495   6.959   0.178
 8604SOL     OW26710   0.776   2.687   5.881
 8604SOL    HW126711   0.788   2.611   5.817
 8604SOL    HW226712   0.827   2.767   5.849
 8605SOL     OW26713   1.281   5.420   3.569
 8605SOL    HW126714   1.195   5.369   3.562
 8605SOL    HW226715   1.318   5.410   3.661
 8606SOL     OW26716   2.116   2.204   0.096
 8606SOL    HW126717   2.123   2.191   7.020
 8606SOL    HW226718   2.153   2.294   0.120
 8607SOL     OW26719   2.673   4.222   6.731
 8607SOL    HW126720   2.724   4.145   6.768
 8607SOL    HW226721   2.588   4.190   6.691
 8608SOL     OW26722   1.957   4.625   2.311
 8608SOL    HW126723   1.989   4.619   2.405
 8608SOL    HW226724   2.002   4.703   2.266
 8609SOL     OW26725   5.177   0.335   3.764
 8609SOL    HW126726   5.084   0.300   3.751
 8609SOL    HW226727   5.219   0.354   3.676
 8610SOL     OW26728   6.637   0.771   3.171
 8610SOL    HW126729   6.721   0.777   3.117
 8610SOL    HW226730   6.564   0.822   3.126
 8611SOL     OW26731   3.083   1.188   4.145
 8611SOL    HW126732   3.070   1.099   4.189
 8611SOL    HW226733   3.175   1.192   4.105
 8612SOL     OW26734   2.424   3.482   1.429
 8612SOL    HW126735   2.448   3.513   1.521
 8612SOL    HW226736   2.493   3.514   1.364
 8613SOL     OW26737   3.147   2.086   1.332
 8613SOL    HW126738   3.061   2.038   1.346
 8613SOL    HW226739   3.221   2.020   1.319
 8614SOL     OW26740   1.446   2.862   3.273
 8614SOL    HW126741   1.421   2.816   3.188
 8614SOL    HW226742   1.546   2.871   3.278
 8615SOL     OW26743   4.687   2.089   5.492
 8615SOL    HW126744   4.672   2.167   5.552
 8615SOL    HW226745   4.770   2.104   5.438
 8616SOL     OW26746   2.861   4.787   1.755
 8616SOL    HW126747   2.817   4.845   1.823
 8616SOL    HW226748   2.866   4.693   1.790
 8617SOL     OW26749   6.054   1.109   3.787
 8617SOL    HW126750   6.028   1.203   3.809
 8617SOL    HW226751   5.985   1.046   3.821
 8618SOL     OW26752   6.303   4.388   1.079
 8618SOL    HW126753   6.223   4.343   1.119
 8618SOL    HW226754   6.277   4.432   0.993
 8619SOL     OW26755   3.961   5.075   3.019
 8619SOL    HW126756   3.918   5.133   3.088
 8619SOL    HW226757   4.059   5.095   3.015
 8620SOL     OW26758   2.268   6.361   4.569
 8620SOL    HW126759   2.287   6.433   4.636
 8620SOL    HW226760   2.275   6.399   4.477
 8621SOL     OW26761   4.985   2.878   2.211
 8621SOL    HW126762   4.979   2.955   2.275
 8621SOL    HW226763   4.973   2.911   2.117
 8622SOL     OW26764   5.167   4.293   1.819
 8622SOL    HW126765   5.075   4.310   1.784
 8622SOL    HW226766   5.222   4.376   1.811
 8623SOL     OW26767   0.760   4.415   5.014
 8623SOL    HW126768   0.748   4.450   4.921
 8623SOL    HW226769   0.707   4.472   5.077
 8624SOL     OW26770   2.991   3.808   5.936
 8624SOL    HW126771   2.979   3.791   5.838
 8624SOL    HW226772   2.904   3.838   5.975
 8625SOL     OW26773   4.758   0.311   5.367
 8625SOL    HW126774   4.713   0.329   5.454
 8625SOL    HW226775   4.807   0.224   5.372
 8626SOL     OW26776   3.834   3.296   6.933
 8626SOL    HW126777   3.746   3.318   6.975
 8626SOL    HW226778   3.841   3.197   6.920
 8627SOL     OW26779   2.767   1.905   1.904
 8627SOL    HW126780   2.746   1.936   1.997
 8627SOL    HW226781   2.697   1.839   1.874
 8628SOL     OW26782   6.402   6.840   6.696
 8628SOL    HW126783   6.458   6.919   6.719
 8628SOL    HW226784   6.409   6.771   6.768
 8629SOL     OW26785   1.744   6.548   5.391
 8629SOL    HW126786   1.763   6.646   5.398
 8629SOL    HW226787   1.826   6.500   5.360
 8630SOL     OW26788   4.967   3.387   3.912
 8630SOL    HW126789   4.938   3.480   3.890
 8630SOL    HW226790   4.900   3.322   3.878
 8631SOL     OW26791   1.222   5.785   6.154
 8631SOL    HW126792   1.142   5.725   6.155
 8631SOL    HW226793   1.203   5.868   6.207
 8632SOL     OW26794   3.949   4.452   5.425
 8632SOL    HW126795   3.907   4.399   5.499
 8632SOL    HW226796   3.966   4.392   5.347
 8633SOL     OW26797   5.518   2.883   5.755
 8633SOL    HW126798   5.425   2.869   5.720
 8633SOL    HW226799   5.514   2.933   5.842
 8634SOL     OW26800   4.839   4.180   6.853
 8634SOL    HW126801   4.750   4.220   6.876
 8634SOL    HW226802   4.827   4.110   6.783
 8635SOL     OW26803   5.623   2.829   6.769
 8635SOL    HW126804   5.670   2.785   6.846
 8635SOL    HW226805   5.690   2.879   6.714
 8636SOL     OW26806   5.179   6.194   1.031
 8636SOL    HW126807   5.166   6.099   1.001
 8636SOL    HW226808   5.179   6.198   1.131
 8637SOL     OW26809   1.949   1.606   6.754
 8637SOL    HW126810   1.854   1.580   6.742
 8637SOL    HW226811   1.955   1.686   6.814
 8638SOL     OW26812   3.988   2.351   5.352
 8638SOL    HW126813   4.041   2.414   5.296
 8638SOL    HW226814   3.991   2.381   5.448
 8639SOL     OW26815   4.381   3.561   6.563
 8639SOL    HW126816   4.309   3.512   6.514
 8639SOL    HW226817   4.422   3.500   6.631
 8640SOL     OW26818   3.900   3.827   0.948
 8640SOL    HW126819   3.810   3.831   0.905
 8640SOL    HW226820   3.969   3.858   0.882
 8641SOL     OW26821   3.853   5.025   4.256
 8641SOL    HW126822   3.762   5.060   4.232
 8641SOL    HW226823   3.922   5.073   4.203
 8642SOL     OW26824   0.918   0.048   3.533
 8642SOL    HW126825   0.843   0.016   3.475
 8642SOL    HW226826   0.915   0.001   3.621
 8643SOL     OW26827   2.103   0.432   0.123
 8643SOL    HW126828   2.029   0.490   0.089
 8643SOL    HW226829   2.178   0.489   0.156
 8644SOL     OW26830   5.525   2.692   6.093
 8644SOL    HW126831   5.539   2.791   6.089
 8644SOL    HW226832   5.452   2.672   6.158
 8645SOL     OW26833   4.547   4.799   1.663
 8645SOL    HW126834   4.619   4.738   1.694
 8645SOL    HW226835   4.577   4.848   1.581
 8646SOL     OW26836   0.599   1.555   6.826
 8646SOL    HW126837   0.676   1.568   6.763
 8646SOL    HW226838   0.630   1.503   6.906
 8647SOL     OW26839   2.432   5.308   0.478
 8647SOL    HW126840   2.527   5.330   0.500
 8647SOL    HW226841   2.425   5.210   0.457
 8648SOL     OW26842   6.327   0.093   0.462
 8648SOL    HW126843   6.377   0.007   0.471
 8648SOL    HW226844   6.376   0.166   0.510
 8649SOL     OW26845   6.024   5.940   0.547
 8649SOL    HW126846   5.955   6.006   0.519
 8649SOL    HW226847   6.106   5.988   0.577
 8650SOL     OW26848   1.799   6.766   5.010
 8650SOL    HW126849   1.756   6.844   5.055
 8650SOL    HW226850   1.731   6.718   4.955
 8651SOL     OW26851   4.019   1.583   1.328
 8651SOL    HW126852   3.980   1.545   1.412
 8651SOL    HW226853   3.984   1.532   1.249
 8652SOL     OW26854   0.985   5.005   3.399
 8652SOL    HW126855   1.022   4.922   3.441
 8652SOL    HW226856   0.889   4.990   3.375
 8653SOL     OW26857   6.484   1.402   5.964
 8653SOL    HW126858   6.534   1.464   6.025
 8653SOL    HW226859   6.482   1.311   6.005
 8654SOL     OW26860   0.379   5.084   1.622
 8654SOL    HW126861   0.432   5.167   1.641
 8654SOL    HW226862   0.333   5.055   1.706
 8655SOL     OW26863   5.661   0.045   4.384
 8655SOL    HW126864   5.751   0.014   4.415
 8655SOL    HW226865   5.598   6.991   4.384
 8656SOL     OW26866   6.196   1.340   2.123
 8656SOL    HW126867   6.139   1.369   2.046
 8656SOL    HW226868   6.292   1.357   2.101
 8657SOL     OW26869   5.556   5.888   0.301
 8657SOL    HW126870   5.570   5.970   0.356
 8657SOL    HW226871   5.645   5.854   0.269
 8658SOL     OW26872   6.606   5.524   0.065
 8658SOL    HW126873   6.535   5.504   0.133
 8658SOL    HW226874   6.573   5.496   6.997
 8659SOL     OW26875   4.963   2.039   2.813
 8659SOL    HW126876   4.979   2.121   2.868
 8659SOL    HW226877   5.028   2.036   2.737
 8660SOL     OW26878   0.021   3.028   2.302
 8660SOL    HW126879   0.096   2.999   2.361
 8660SOL    HW226880   6.978   3.081   2.355
 8661SOL     OW26881   6.102   3.959   1.997
 8661SOL    HW126882   6.196   3.955   1.963
 8661SOL    HW226883   6.050   4.027   1.945
 8662SOL     OW26884   3.901   5.889   2.221
 8662SOL    HW126885   3.838   5.959   2.255
 8662SOL    HW226886   3.854   5.800   2.220
 8663SOL     OW26887   2.829   5.581   2.427
 8663SOL    HW126888   2.814   5.642   2.505
 8663SOL    HW226889   2.796   5.625   2.344
 8664SOL     OW26890   2.323   5.056   1.863
 8664SOL    HW126891   2.226   5.083   1.869
 8664SOL    HW226892   2.330   4.957   1.872
 8665SOL     OW26893   6.212   5.650   4.627
 8665SOL    HW126894   6.246   5.604   4.709
 8665SOL    HW226895   6.113   5.635   4.620
 8666SOL     OW26896   5.577   0.213   4.148
 8666SOL    HW126897   5.580   0.172   4.239
 8666SOL    HW226898   5.525   0.299   4.152
 8667SOL     OW26899   5.013   1.763   4.227
 8667SOL    HW126900   4.943   1.694   4.247
 8667SOL    HW226901   5.098   1.717   4.203
 8668SOL     OW26902   5.160   3.633   4.556
 8668SOL    HW126903   5.070   3.615   4.518
 8668SOL    HW226904   5.230   3.596   4.495
 8669SOL     OW26905   0.548   6.252   6.357
 8669SOL    HW126906   0.498   6.200   6.426
 8669SOL    HW226907   0.646   6.249   6.378
 8670SOL     OW26908   4.452   5.176   6.197
 8670SOL    HW126909   4.443   5.245   6.269
 8670SOL    HW226910   4.435   5.085   6.235
 8671SOL     OW26911   0.690   1.651   2.182
 8671SOL    HW126912   0.601   1.610   2.162
 8671SOL    HW226913   0.706   1.647   2.281
 8672SOL     OW26914   0.716   6.935   3.384
 8672SOL    HW126915   0.708   6.867   3.456
 8672SOL    HW226916   0.715   6.889   3.295
 8673SOL     OW26917   6.461   1.662   0.171
 8673SOL    HW126918   6.398   1.599   0.217
 8673SOL    HW226919   6.411   1.742   0.138
 8674SOL     OW26920   6.143   5.147   2.757
 8674SOL    HW126921   6.135   5.144   2.857
 8674SOL    HW226922   6.213   5.214   2.732
 8675SOL     OW26923   4.432   0.982   5.133
 8675SOL    HW126924   4.447   1.064   5.079
 8675SOL    HW226925   4.392   1.007   5.221
 8676SOL     OW26926   5.064   0.174   2.043
 8676SOL    HW126927   4.975   0.207   2.074
 8676SOL    HW226928   5.056   0.079   2.011
 8677SOL     OW26929   1.522   5.922   5.521
 8677SOL    HW126930   1.516   5.864   5.440
 8677SOL    HW226931   1.554   5.867   5.598
 8678SOL     OW26932   1.227   0.340   0.825
 8678SOL    HW126933   1.203   0.424   0.875
 8678SOL    HW226934   1.175   0.336   0.740
 8679SOL     OW26935   1.573   1.201   3.567
 8679SOL    HW126936   1.622   1.288   3.573
 8679SOL    HW226937   1.492   1.204   3.625
 8680SOL     OW26938   6.406   2.961   6.919
 8680SOL    HW126939   6.400   3.061   6.924
 8680SOL    HW226940   6.327   2.921   6.966
 8681SOL     OW26941   4.814   5.559   1.513
 8681SOL    HW126942   4.798   5.658   1.504
 8681SOL    HW226943   4.733   5.509   1.483
 8682SOL     OW26944   6.665   0.458   1.721
 8682SOL    HW126945   6.609   0.507   1.788
 8682SOL    HW226946   6.761   0.483   1.732
 8683SOL     OW26947   1.580   2.761   5.518
 8683SOL    HW126948   1.601   2.690   5.585
 8683SOL    HW226949   1.576   2.720   5.427
 8684SOL     OW26950   6.727   2.714   4.732
 8684SOL    HW126951   6.721   2.726   4.831
 8684SOL    HW226952   6.667   2.639   4.704
 8685SOL     OW26953   5.411   3.110   6.425
 8685SOL    HW126954   5.510   3.120   6.438
 8685SOL    HW226955   5.374   3.048   6.495
 8686SOL     OW26956   6.381   0.235   1.541
 8686SOL    HW126957   6.447   0.292   1.492
 8686SOL    HW226958   6.358   0.278   1.628
 8687SOL     OW26959   5.577   5.098   2.769
 8687SOL    HW126960   5.480   5.106   2.793
 8687SOL    HW226961   5.601   5.001   2.762
 8688SOL     OW26962   1.198   4.123   6.541
 8688SOL    HW126963   1.153   4.127   6.453
 8688SOL    HW226964   1.289   4.081   6.530
 8689SOL     OW26965   4.381   2.947   0.195
 8689SOL    HW126966   4.352   3.040   0.217
 8689SOL    HW226967   4.480   2.940   0.204
 8690SOL     OW26968   0.927   3.270   2.967
 8690SOL    HW126969   0.831   3.276   2.939
 8690SOL    HW226970   0.955   3.174   2.970
 8691SOL     OW26971   3.486   2.019   5.602
 8691SOL    HW126972   3.485   1.961   5.521
 8691SOL    HW226973   3.421   1.983   5.670
 8692SOL     OW26974   3.768   0.890   4.952
 8692SOL    HW126975   3.863   0.874   4.928
 8692SOL    HW226976   3.734   0.970   4.902
 8693SOL     OW26977   6.619   0.492   6.425
 8693SOL    HW126978   6.678   0.431   6.477
 8693SOL    HW226979   6.549   0.439   6.377
 8694SOL     OW26980   5.931   1.533   4.729
 8694SOL    HW126981   6.027   1.534   4.701
 8694SOL    HW226982   5.926   1.514   4.827
 8695SOL     OW26983   3.618   3.346   6.448
 8695SOL    HW126984   3.626   3.422   6.512
 8695SOL    HW226985   3.709   3.316   6.421
 8696SOL     OW26986   3.113   5.901   5.473
 8696SOL    HW126987   3.112   5.915   5.572
 8696SOL    HW226988   3.020   5.887   5.440
 8697SOL     OW26989   0.451   3.926   6.197
 8697SOL    HW126990   0.489   4.016   6.174
 8697SOL    HW226991   0.354   3.925   6.174
 8698SOL     OW26992   5.060   6.456   5.017
 8698SOL    HW126993   5.041   6.548   4.983
 8698SOL    HW226994   5.123   6.409   4.955
 8699SOL     OW26995   1.717   3.275   5.512
 8699SOL    HW126996   1.797   3.287   5.572
 8699SOL    HW226997   1.713   3.180   5.481
 8700SOL     OW26998   1.035   0.644   4.941
 8700SOL    HW126999   0.965   0.709   4.916
 8700SOL    HW227000   1.089   0.680   5.018
 8701SOL     OW27001   1.529   1.271   0.226
 8701SOL    HW127002   1.556   1.337   0.156
 8701SOL    HW227003   1.562   1.301   0.315
 8702SOL     OW27004   5.202   5.180   1.817
 8702SOL    HW127005   5.206   5.221   1.909
 8702SOL    HW227006   5.151   5.241   1.756
 8703SOL     OW27007   2.956   4.748   0.069
 8703SOL    HW127008   2.937   4.655   0.039
 8703SOL    HW227009   2.887   4.810   0.033
 8704SOL     OW27010   6.252   4.259   3.430
 8704SOL    HW127011   6.324   4.202   3.469
 8704SOL    HW227012   6.245   4.344   3.482
 8705SOL     OW27013   4.226   1.931   6.236
 8705SOL    HW127014   4.199   1.835   6.242
 8705SOL    HW227015   4.305   1.940   6.174
 8706SOL     OW27016   5.215   1.823   0.296
 8706SOL    HW127017   5.132   1.776   0.323
 8706SOL    HW227018   5.221   1.911   0.344
 8707SOL     OW27019   1.290   2.405   4.067
 8707SOL    HW127020   1.253   2.467   4.137
 8707SOL    HW227021   1.324   2.322   4.111
 8708SOL     OW27022   4.064   1.560   3.732
 8708SOL    HW127023   4.006   1.533   3.655
 8708SOL    HW227024   4.075   1.483   3.794
 8709SOL     OW27025   6.837   6.715   6.623
 8709SOL    HW127026   6.805   6.739   6.531
 8709SOL    HW227027   6.765   6.664   6.671
 8710SOL     OW27028   2.407   2.693   3.541
 8710SOL    HW127029   2.425   2.603   3.502
 8710SOL    HW227030   2.451   2.701   3.631
 8711SOL     OW27031   1.576   6.852   2.986
 8711SOL    HW127032   1.656   6.880   2.933
 8711SOL    HW227033   1.493   6.863   2.930
 8712SOL     OW27034   3.514   1.718   4.393
 8712SOL    HW127035   3.582   1.652   4.360
 8712SOL    HW227036   3.560   1.801   4.422
 8713SOL     OW27037   6.554   4.051   1.751
 8713SOL    HW127038   6.591   4.138   1.782
 8713SOL    HW227039   6.629   3.990   1.725
 8714SOL     OW27040   1.173   0.214   6.195
 8714SOL    HW127041   1.121   0.168   6.123
 8714SOL    HW227042   1.157   0.313   6.190
 8715SOL     OW27043   4.398   1.684   0.687
 8715SOL    HW127044   4.387   1.778   0.655
 8715SOL    HW227045   4.329   1.663   0.756
 8716SOL     OW27046   0.672   6.668   0.971
 8716SOL    HW127047   0.657   6.640   1.065
 8716SOL    HW227048   0.628   6.603   0.909
 8717SOL     OW27049   2.572   3.488   5.537
 8717SOL    HW127050   2.633   3.459   5.463
 8717SOL    HW227051   2.478   3.461   5.515
 8718SOL     OW27052   1.909   2.631   5.653
 8718SOL    HW127053   1.915   2.576   5.569
 8718SOL    HW227054   1.819   2.618   5.695
 8719SOL     OW27055   3.789   0.906   0.265
 8719SOL    HW127056   3.761   0.988   0.314
 8719SOL    HW227057   3.720   0.834   0.278
 8720SOL     OW27058   0.529   6.475   5.922
 8720SOL    HW127059   0.541   6.384   5.881
 8720SOL    HW227060   0.483   6.466   6.010
 8721SOL     OW27061   6.251   0.618   0.199
 8721SOL    HW127062   6.291   0.530   0.175
 8721SOL    HW227063   6.324   0.684   0.217
 8722SOL     OW27064   3.756   1.124   0.400
 8722SOL    HW127065   3.812   1.205   0.382
 8722SOL    HW227066   3.660   1.145   0.381
 8723SOL     OW27067   5.790   0.252   2.660
 8723SOL    HW127068   5.835   0.178   2.609
 8723SOL    HW227069   5.781   0.332   2.601
 8724SOL     OW27070   5.801   0.293   4.007
 8724SOL    HW127071   5.870   0.225   4.033
 8724SOL    HW227072   5.714   0.272   4.052
 8725SOL     OW27073   0.703   6.065   5.343
 8725SOL    HW127074   0.675   6.142   5.400
 8725SOL    HW227075   0.797   6.078   5.313
 8726SOL     OW27076   6.835   0.917   0.870
 8726SOL    HW127077   6.826   1.009   0.906
 8726SOL    HW227078   6.752   0.892   0.821
 8727SOL     OW27079   6.016   6.577   0.437
 8727SOL    HW127080   6.049   6.517   0.510
 8727SOL    HW227081   6.092   6.633   0.403
 8728SOL     OW27082   5.430   1.526   2.064
 8728SOL    HW127083   5.419   1.475   2.149
 8728SOL    HW227084   5.451   1.621   2.084
 8729SOL     OW27085   3.206   5.068   5.593
 8729SOL    HW127086   3.110   5.080   5.619
 8729SOL    HW227087   3.265   5.097   5.668
 8730SOL     OW27088   5.144   4.341   3.470
 8730SOL    HW127089   5.234   4.366   3.433
 8730SOL    HW227090   5.149   4.252   3.514
 8731SOL     OW27091   1.022   3.644   3.374
 8731SOL    HW127092   1.072   3.676   3.294
 8731SOL    HW227093   0.961   3.569   3.348
 8732SOL     OW27094   5.488   4.272   2.286
 8732SOL    HW127095   5.440   4.192   2.247
 8732SOL    HW227096   5.562   4.299   2.225
 8733SOL     OW27097   1.035   5.666   0.083
 8733SOL    HW127098   1.066   5.580   0.122
 8733SOL    HW227099   1.111   5.731   0.078
 8734SOL     OW27100   6.975   3.392   2.797
 8734SOL    HW127101   6.994   3.322   2.729
 8734SOL    HW227102   6.896   3.365   2.852
 8735SOL     OW27103   1.070   3.123   5.158
 8735SOL    HW127104   0.995   3.089   5.214
 8735SOL    HW227105   1.123   3.190   5.210
 8736SOL     OW27106   6.930   5.463   2.406
 8736SOL    HW127107   6.842   5.423   2.429
 8736SOL    HW227108   6.968   5.509   2.486
 8737SOL     OW27109   2.728   6.528   0.032
 8737SOL    HW127110   2.687   6.617   0.012
 8737SOL    HW227111   2.656   6.460   0.046
 8738SOL     OW27112   2.205   6.144   3.607
 8738SOL    HW127113   2.253   6.058   3.626
 8738SOL    HW227114   2.163   6.139   3.517
 8739SOL     OW27115   5.579   4.999   5.834
 8739SOL    HW127116   5.602   4.929   5.767
 8739SOL    HW227117   5.594   4.964   5.926
 8740SOL     OW27118   3.865   2.093   2.865
 8740SOL    HW127119   3.845   2.116   2.960
 8740SOL    HW227120   3.962   2.070   2.856
 8741SOL     OW27121   2.458   0.506   2.882
 8741SOL    HW127122   2.525   0.439   2.915
 8741SOL    HW227123   2.502   0.596   2.877
 8742SOL     OW27124   4.314   0.062   1.622
 8742SOL    HW127125   4.274   0.106   1.542
 8742SOL    HW227126   4.385   0.121   1.661
 8743SOL     OW27127   2.157   0.707   1.126
 8743SOL    HW127128   2.248   0.741   1.105
 8743SOL    HW227129   2.147   0.613   1.092
 8744SOL     OW27130   4.450   3.034   0.588
 8744SOL    HW127131   4.400   2.975   0.651
 8744SOL    HW227132   4.447   3.128   0.622
 8745SOL     OW27133   6.590   2.291   6.352
 8745SOL    HW127134   6.684   2.326   6.349
 8745SOL    HW227135   6.562   2.281   6.447
 8746SOL     OW27136   4.818   6.018   4.564
 8746SOL    HW127137   4.748   6.071   4.611
 8746SOL    HW227138   4.775   5.958   4.496
 8747SOL     OW27139   0.418   1.490   2.483
 8747SOL    HW127140   0.400   1.521   2.577
 8747SOL    HW227141   0.480   1.412   2.486
 8748SOL     OW27142   0.872   2.314   4.561
 8748SOL    HW127143   0.825   2.399   4.585
 8748SOL    HW227144   0.895   2.315   4.463
 8749SOL     OW27145   1.745   0.939   5.516
 8749SOL    HW127146   1.767   0.870   5.447
 8749SOL    HW227147   1.769   1.029   5.482
 8750SOL     OW27148   3.797   3.476   5.825
 8750SOL    HW127149   3.814   3.483   5.924
 8750SOL    HW227150   3.860   3.411   5.785
 8751SOL     OW27151   6.982   1.183   1.485
 8751SOL    HW127152   6.938   1.273   1.488
 8751SOL    HW227153   6.958   1.137   1.399
 8752SOL     OW27154   4.081   3.056   0.050
 8752SOL    HW127155   4.022   3.050   6.992
 8752SOL    HW227156   4.175   3.073   0.021
 8753SOL     OW27157   2.628   2.622   6.254
 8753SOL    HW127158   2.548   2.647   6.308
 8753SOL    HW227159   2.700   2.588   6.314
 8754SOL     OW27160   2.850   4.227   5.641
 8754SOL    HW127161   2.815   4.181   5.559
 8754SOL    HW227162   2.940   4.189   5.664
 8755SOL     OW27163   2.476   0.510   1.624
 8755SOL    HW127164   2.545   0.523   1.553
 8755SOL    HW227165   2.486   0.582   1.693
 8756SOL     OW27166   0.900   3.006   3.410
 8756SOL    HW127167   0.848   3.089   3.391
 8756SOL    HW227168   0.997   3.028   3.413
 8757SOL     OW27169   5.202   5.742   6.700
 8757SOL    HW127170   5.149   5.815   6.744
 8757SOL    HW227171   5.161   5.720   6.612
 8758SOL     OW27172   4.791   6.051   3.172
 8758SOL    HW127173   4.732   6.004   3.238
 8758SOL    HW227174   4.742   6.128   3.133
 8759SOL     OW27175   6.431   2.681   6.800
 8759SOL    HW127176   6.360   2.707   6.734
 8759SOL    HW227177   6.433   2.749   6.874
 8760SOL     OW27178   2.703   1.070   4.444
 8760SOL    HW127179   2.611   1.090   4.411
 8760SOL    HW227180   2.705   1.072   4.544
 8761SOL     OW27181   6.313   1.824   1.447
 8761SOL    HW127182   6.365   1.909   1.449
 8761SOL    HW227183   6.372   1.750   1.412
 8762SOL     OW27184   1.182   6.094   4.333
 8762SOL    HW127185   1.195   6.035   4.413
 8762SOL    HW227186   1.211   6.187   4.355
 8763SOL     OW27187   6.060   0.319   5.233
 8763SOL    HW127188   6.004   0.298   5.313
 8763SOL    HW227189   6.044   0.252   5.161
 8764SOL     OW27190   4.300   6.213   5.799
 8764SOL    HW127191   4.326   6.130   5.847
 8764SOL    HW227192   4.344   6.216   5.710
 8765SOL     OW27193   5.265   1.393   4.518
 8765SOL    HW127194   5.289   1.448   4.598
 8765SOL    HW227195   5.330   1.318   4.508
 8766SOL     OW27196   4.023   4.265   5.216
 8766SOL    HW127197   4.076   4.338   5.173
 8766SOL    HW227198   3.963   4.223   5.149
 8767SOL     OW27199   4.582   6.257   3.097
 8767SOL    HW127200   4.512   6.308   3.047
 8767SOL    HW227201   4.587   6.290   3.191
 8768SOL     OW27202   1.187   2.581   1.305
 8768SOL    HW127203   1.090   2.590   1.326
 8768SOL    HW227204   1.201   2.506   1.241
 8769SOL     OW27205   0.353   1.431   1.932
 8769SOL    HW127206   0.256   1.409   1.925
 8769SOL    HW227207   0.407   1.357   1.891
 8770SOL     OW27208   5.254   4.534   2.442
 8770SOL    HW127209   5.279   4.579   2.527
 8770SOL    HW227210   5.176   4.581   2.401
 8771SOL     OW27211   0.688   2.884   6.333
 8771SOL    HW127212   0.591   2.861   6.320
 8771SOL    HW227213   0.744   2.804   6.315
 8772SOL     OW27214   4.809   0.657   5.811
 8772SOL    HW127215   4.776   0.685   5.721
 8772SOL    HW227216   4.909   0.656   5.812
 8773SOL     OW27217   5.376   2.666   2.757
 8773SOL    HW127218   5.320   2.711   2.688
 8773SOL    HW227219   5.377   2.567   2.740
 8774SOL     OW27220   0.864   0.699   0.254
 8774SOL    HW127221   0.864   0.615   0.199
 8774SOL    HW227222   0.860   0.675   0.351
 8775SOL     OW27223   5.081   1.121   5.552
 8775SOL    HW127224   5.031   1.148   5.634
 8775SOL    HW227225   5.045   1.171   5.473
 8776SOL     OW27226   5.045   3.196   1.599
 8776SOL    HW127227   5.032   3.177   1.502
 8776SOL    HW227228   5.032   3.294   1.616
 8777SOL     OW27229   6.617   3.730   3.980
 8777SOL    HW127230   6.613   3.677   4.065
 8777SOL    HW227231   6.533   3.782   3.969
 8778SOL     OW27232   5.094   3.430   5.312
 8778SOL    HW127233   5.077   3.524   5.338
 8778SOL    HW227234   5.109   3.425   5.213
 8779SOL     OW27235   2.194   5.260   2.267
 8779SOL    HW127236   2.159   5.288   2.357
 8779SOL    HW227237   2.188   5.336   2.203
 8780SOL     OW27238   0.610   6.933   3.076
 8780SOL    HW127239   0.693   6.976   3.039
 8780SOL    HW227240   0.556   6.896   3.000
 8781SOL     OW27241   4.705   6.947   3.759
 8781SOL    HW127242   4.708   6.876   3.829
 8781SOL    HW227243   4.795   6.954   3.715
 8782SOL     OW27244   6.004   1.234   1.842
 8782SOL    HW127245   6.045   1.307   1.788
 8782SOL    HW227246   5.927   1.194   1.792
 8783SOL     OW27247   6.465   4.143   4.576
 8783SOL    HW127248   6.437   4.098   4.491
 8783SOL    HW227249   6.426   4.094   4.654
 8784SOL     OW27250   6.595   6.431   6.382
 8784SOL    HW127251   6.693   6.416   6.386
 8784SOL    HW227252   6.567   6.449   6.288
 8785SOL     OW27253   6.583   5.515   6.265
 8785SOL    HW127254   6.555   5.589   6.326
 8785SOL    HW227255   6.568   5.542   6.170
 8786SOL     OW27256   3.397   1.013   1.836
 8786SOL    HW127257   3.432   0.985   1.925
 8786SOL    HW227258   3.467   1.066   1.787
 8787SOL     OW27259   3.102   0.790   2.554
 8787SOL    HW127260   3.007   0.792   2.521
 8787SOL    HW227261   3.106   0.833   2.644
 8788SOL     OW27262   6.668   1.357   5.339
 8788SOL    HW127263   6.600   1.429   5.323
 8788SOL    HW227264   6.750   1.397   5.380
 8789SOL     OW27265   6.635   4.781   5.284
 8789SOL    HW127266   6.586   4.748   5.364
 8789SOL    HW227267   6.700   4.712   5.252
 8790SOL     OW27268   6.598   1.235   6.705
 8790SOL    HW127269   6.602   1.330   6.676
 8790SOL    HW227270   6.554   1.180   6.634
 8791SOL     OW27271   4.808   6.604   4.815
 8791SOL    HW127272   4.907   6.597   4.809
 8791SOL    HW227273   4.783   6.686   4.866
 8792SOL     OW27274   3.088   5.112   2.592
 8792SOL    HW127275   3.027   5.097   2.669
 8792SOL    HW227276   3.054   5.063   2.512
 8793SOL     OW27277   0.947   4.866   3.662
 8793SOL    HW127278   0.917   4.814   3.742
 8793SOL    HW227279   0.867   4.897   3.610
 8794SOL     OW27280   5.767   1.271   3.636
 8794SOL    HW127281   5.797   1.181   3.667
 8794SOL    HW227282   5.672   1.286   3.665
 8795SOL     OW27283   1.779   4.996   4.947
 8795SOL    HW127284   1.744   4.943   4.870
 8795SOL    HW227285   1.706   5.054   4.984
 8796SOL     OW27286   5.868   2.954   3.222
 8796SOL    HW127287   5.803   2.960   3.298
 8796SOL    HW227288   5.856   3.032   3.162
 8797SOL     OW27289   6.871   0.055   5.123
 8797SOL    HW127290   6.871   0.097   5.214
 8797SOL    HW227291   6.777   0.042   5.093
 8798SOL     OW27292   4.154   5.796   6.178
 8798SOL    HW127293   4.248   5.762   6.191
 8798SOL    HW227294   4.089   5.721   6.196
 8799SOL     OW27295   2.987   4.975   2.390
 8799SOL    HW127296   2.900   5.008   2.426
 8799SOL    HW227297   2.977   4.879   2.362
 8800SOL     OW27298   5.595   5.474   5.793
 8800SOL    HW127299   5.564   5.484   5.888
 8800SOL    HW227300   5.553   5.545   5.736
 8801SOL     OW27301   6.260   1.742   4.407
 8801SOL    HW127302   6.313   1.813   4.361
 8801SOL    HW227303   6.266   1.755   4.506
 8802SOL     OW27304   1.549   5.522   5.809
 8802SOL    HW127305   1.469   5.505   5.866
 8802SOL    HW227306   1.520   5.554   5.719
 8803SOL     OW27307   6.963   0.098   7.007
 8803SOL    HW127308   6.919   0.008   7.008
 8803SOL    HW227309   6.935   0.148   6.925
 8804SOL     OW27310   2.264   6.056   1.211
 8804SOL    HW127311   2.325   6.040   1.133
 8804SOL    HW227312   2.187   6.111   1.182
 8805SOL     OW27313   3.700   5.137   3.653
 8805SOL    HW127314   3.691   5.059   3.592
 8805SOL    HW227315   3.779   5.124   3.713
 8806SOL     OW27316   2.010   4.696   1.019
 8806SOL    HW127317   1.944   4.631   0.981
 8806SOL    HW227318   1.963   4.763   1.075
 8807SOL     OW27319   4.259   1.248   6.936
 8807SOL    HW127320   4.245   1.158   6.977
 8807SOL    HW227321   4.272   1.316   7.009
 8808SOL     OW27322   0.163   1.855   6.280
 8808SOL    HW127323   0.203   1.906   6.204
 8808SOL    HW227324   0.124   1.919   6.347
 8809SOL     OW27325   2.467   4.405   3.356
 8809SOL    HW127326   2.438   4.357   3.439
 8809SOL    HW227327   2.413   4.372   3.279
 8810SOL     OW27328   5.470   1.485   5.673
 8810SOL    HW127329   5.385   1.500   5.623
 8810SOL    HW227330   5.490   1.387   5.675
 8811SOL     OW27331   3.471   0.516   2.794
 8811SOL    HW127332   3.479   0.437   2.732
 8811SOL    HW227333   3.447   0.597   2.741
 8812SOL     OW27334   2.939   0.497   0.462
 8812SOL    HW127335   2.991   0.572   0.502
 8812SOL    HW227336   2.904   0.438   0.535
 8813SOL     OW27337   2.157   5.251   2.935
 8813SOL    HW127338   2.226   5.312   2.974
 8813SOL    HW227339   2.178   5.234   2.839
 8814SOL     OW27340   6.234   6.587   0.671
 8814SOL    HW127341   6.287   6.633   0.601
 8814SOL    HW227342   6.281   6.503   0.699
 8815SOL     OW27343   5.968   6.597   1.027
 8815SOL    HW127344   5.920   6.679   1.058
 8815SOL    HW227345   6.037   6.623   0.959
 8816SOL     OW27346   1.065   0.155   6.733
 8816SOL    HW127347   1.041   0.062   6.760
 8816SOL    HW227348   0.982   0.206   6.711
 8817SOL     OW27349   0.199   3.982   4.297
 8817SOL    HW127350   0.292   3.947   4.299
 8817SOL    HW227351   0.145   3.937   4.368
 8818SOL     OW27352   1.517   6.398   3.597
 8818SOL    HW127353   1.425   6.436   3.606
 8818SOL    HW227354   1.514   6.299   3.612
 8819SOL     OW27355   6.293   4.463   5.735
 8819SOL    HW127356   6.246   4.516   5.805
 8819SOL    HW227357   6.363   4.519   5.692
 8820SOL     OW27358   3.082   1.429   4.567
 8820SOL    HW127359   3.106   1.502   4.632
 8820SOL    HW227360   2.984   1.411   4.572
 8821SOL     OW27361   0.648   6.269   0.560
 8821SOL    HW127362   0.571   6.331   0.573
 8821SOL    HW227363   0.618   6.189   0.507
 8822SOL     OW27364   0.648   0.171   3.321
 8822SOL    HW127365   0.671   0.076   3.341
 8822SOL    HW227366   0.731   0.226   3.324
 8823SOL     OW27367   2.728   0.896   3.061
 8823SOL    HW127368   2.688   0.987   3.056
 8823SOL    HW227369   2.827   0.901   3.051
 8824SOL     OW27370   1.311   0.948   1.039
 8824SOL    HW127371   1.370   1.029   1.031
 8824SOL    HW227372   1.359   0.877   1.090
 8825SOL     OW27373   0.662   0.872   2.002
 8825SOL    HW127374   0.720   0.946   1.969
 8825SOL    HW227375   0.598   0.907   2.071
 8826SOL     OW27376   1.174   3.397   0.726
 8826SOL    HW127377   1.118   3.368   0.649
 8826SOL    HW227378   1.212   3.316   0.772
 8827SOL     OW27379   3.888   7.022   3.481
 8827SOL    HW127380   3.960   0.048   3.529
 8827SOL    HW227381   3.897   0.013   3.382
 8828SOL     OW27382   3.782   5.145   0.071
 8828SOL    HW127383   3.729   5.209   0.016
 8828SOL    HW227384   3.836   5.195   0.138
 8829SOL     OW27385   5.891   1.523   1.634
 8829SOL    HW127386   5.796   1.494   1.619
 8829SOL    HW227387   5.906   1.611   1.589
 8830SOL     OW27388   2.320   1.487   2.837
 8830SOL    HW127389   2.352   1.479   2.932
 8830SOL    HW227390   2.226   1.521   2.837
 8831SOL     OW27391   5.756   2.958   2.899
 8831SOL    HW127392   5.731   3.024   2.969
 8831SOL    HW227393   5.853   2.934   2.909
 8832SOL     OW27394   0.231   6.493   4.524
 8832SOL    HW127395   0.250   6.524   4.431
 8832SOL    HW227396   0.306   6.519   4.585
 8833SOL     OW27397   4.018   4.031   6.786
 8833SOL    HW127398   3.995   4.125   6.811
 8833SOL    HW227399   4.061   3.986   6.865
 8834SOL     OW27400   5.958   4.124   4.537
 8834SOL    HW127401   5.956   4.047   4.601
 8834SOL    HW227402   6.023   4.192   4.568
 8835SOL     OW27403   5.667   1.050   6.320
 8835SOL    HW127404   5.642   0.955   6.305
 8835SOL    HW227405   5.589   1.100   6.358
 8836SOL     OW27406   4.957   2.087   0.373
 8836SOL    HW127407   5.048   2.074   0.413
 8836SOL    HW227408   4.951   2.178   0.334
 8837SOL     OW27409   7.019   0.064   1.594
 8837SOL    HW127410   0.045   0.133   1.648
 8837SOL    HW227411   6.920   0.078   1.605
 8838SOL     OW27412   1.263   4.795   2.654
 8838SOL    HW127413   1.275   4.882   2.606
 8838SOL    HW227414   1.288   4.806   2.750
 8839SOL     OW27415   3.948   6.232   2.339
 8839SOL    HW127416   3.982   6.259   2.249
 8839SOL    HW227417   4.024   6.204   2.397
 8840SOL     OW27418   6.436   0.009   2.147
 8840SOL    HW127419   6.442   6.977   2.064
 8840SOL    HW227420   6.352   7.009   2.196
 8841SOL     OW27421   5.961   1.598   2.760
 8841SOL    HW127422   5.980   1.579   2.856
 8841SOL    HW227423   6.034   1.558   2.703
 8842SOL     OW27424   3.517   3.685   3.447
 8842SOL    HW127425   3.572   3.617   3.398
 8842SOL    HW227426   3.568   3.771   3.450
 8843SOL     OW27427   1.641   3.649   4.103
 8843SOL    HW127428   1.695   3.630   4.185
 8843SOL    HW227429   1.546   3.666   4.129
 8844SOL     OW27430   6.855   1.430   4.945
 8844SOL    HW127431   6.909   1.362   4.896
 8844SOL    HW227432   6.907   1.464   5.024
 8845SOL     OW27433   2.047   4.166   0.845
 8845SOL    HW127434   1.949   4.160   0.830
 8845SOL    HW227435   2.071   4.121   0.931
 8846SOL     OW27436   4.588   4.802   4.108
 8846SOL    HW127437   4.665   4.739   4.124
 8846SOL    HW227438   4.613   4.894   4.138
 8847SOL     OW27439   1.739   1.526   3.830
 8847SOL    HW127440   1.823   1.545   3.778
 8847SOL    HW227441   1.744   1.572   3.919
 8848SOL     OW27442   2.989   1.731   2.233
 8848SOL    HW127443   3.058   1.744   2.305
 8848SOL    HW227444   2.943   1.818   2.215
 8849SOL     OW27445   3.261   4.914   3.224
 8849SOL    HW127446   3.253   5.011   3.249
 8849SOL    HW227447   3.346   4.899   3.175
 8850SOL     OW27448   3.305   1.715   0.886
 8850SOL    HW127449   3.236   1.737   0.817
 8850SOL    HW227450   3.286   1.625   0.925
 8851SOL     OW27451   1.330   4.575   2.271
 8851SOL    HW127452   1.328   4.578   2.371
 8851SOL    HW227453   1.302   4.663   2.234
 8852SOL     OW27454   4.355   3.112   5.884
 8852SOL    HW127455   4.420   3.186   5.865
 8852SOL    HW227456   4.309   3.085   5.799
 8853SOL     OW27457   2.909   0.725   4.833
 8853SOL    HW127458   2.822   0.675   4.840
 8853SOL    HW227459   2.951   0.733   4.923
 8854SOL     OW27460   2.423   0.407   6.596
 8854SOL    HW127461   2.438   0.425   6.693
 8854SOL    HW227462   2.477   0.327   6.569
 8855SOL     OW27463   0.133   6.518   0.446
 8855SOL    HW127464   0.089   6.519   0.356
 8855SOL    HW227465   0.096   6.591   0.503
 8856SOL     OW27466   5.477   0.179   5.835
 8856SOL    HW127467   5.478   0.272   5.799
 8856SOL    HW227468   5.407   0.171   5.906
 8857SOL     OW27469   6.233   2.156   3.692
 8857SOL    HW127470   6.181   2.223   3.744
 8857SOL    HW227471   6.221   2.174   3.594
 8858SOL     OW27472   1.857   2.994   5.702
 8858SOL    HW127473   1.919   3.069   5.680
 8858SOL    HW227474   1.836   2.943   5.618
 8859SOL     OW27475   0.160   6.871   4.892
 8859SOL    HW127476   0.086   6.938   4.895
 8859SOL    HW227477   0.136   6.799   4.826
 8860SOL     OW27478   1.987   4.509   2.901
 8860SOL    HW127479   2.021   4.535   2.992
 8860SOL    HW227480   2.063   4.479   2.845
 8861SOL     OW27481   3.588   2.268   6.025
 8861SOL    HW127482   3.515   2.309   5.971
 8861SOL    HW227483   3.622   2.186   5.979
 8862SOL     OW27484   6.488   1.343   3.648
 8862SOL    HW127485   6.542   1.274   3.601
 8862SOL    HW227486   6.413   1.300   3.697
 8863SOL     OW27487   1.587   6.014   4.599
 8863SOL    HW127488   1.681   5.982   4.613
 8863SOL    HW227489   1.589   6.100   4.547
 8864SOL     OW27490   2.478   3.422   6.301
 8864SOL    HW127491   2.540   3.493   6.333
 8864SOL    HW227492   2.417   3.394   6.375
 8865SOL     OW27493   3.212   1.945   5.386
 8865SOL    HW127494   3.289   1.883   5.397
 8865SOL    HW227495   3.206   1.975   5.291
 8866SOL     OW27496   5.310   6.879   3.995
 8866SOL    HW127497   5.347   6.953   3.940
 8866SOL    HW227498   5.246   6.825   3.940
 8867SOL     OW27499   5.217   3.250   3.046
 8867SOL    HW127500   5.310   3.285   3.063
 8867SOL    HW227501   5.215   3.152   3.063
 8868SOL     OW27502   6.099   3.337   0.572
 8868SOL    HW127503   6.085   3.317   0.669
 8868SOL    HW227504   6.196   3.352   0.555
 8869SOL     OW27505   4.531   5.718   3.627
 8869SOL    HW127506   4.515   5.678   3.717
 8869SOL    HW227507   4.547   5.645   3.560
 8870SOL     OW27508   4.397   6.940   0.392
 8870SOL    HW127509   4.465   6.986   0.335
 8870SOL    HW227510   4.394   6.843   0.369
 8871SOL     OW27511   2.831   0.782   3.989
 8871SOL    HW127512   2.777   0.852   4.035
 8871SOL    HW227513   2.775   0.700   3.974
 8872SOL     OW27514   1.589   4.363   4.686
 8872SOL    HW127515   1.548   4.425   4.619
 8872SOL    HW227516   1.688   4.371   4.683
 8873SOL     OW27517   0.114   5.655   1.844
 8873SOL    HW127518   0.031   5.600   1.853
 8873SOL    HW227519   0.134   5.701   1.931
 8874SOL     OW27520   2.455   6.058   1.014
 8874SOL    HW127521   2.464   6.154   1.041
 8874SOL    HW227522   2.533   6.007   1.049
 8875SOL     OW27523   0.136   3.307   5.188
 8875SOL    HW127524   0.090   3.382   5.235
 8875SOL    HW227525   0.131   3.320   5.089
 8876SOL     OW27526   1.375   0.219   4.172
 8876SOL    HW127527   1.420   0.267   4.096
 8876SOL    HW227528   1.279   0.205   4.150
 8877SOL     OW27529   2.447   1.408   4.339
 8877SOL    HW127530   2.531   1.426   4.287
 8877SOL    HW227531   2.442   1.470   4.417
 8878SOL     OW27532   0.405   5.533   0.621
 8878SOL    HW127533   0.353   5.515   0.538
 8878SOL    HW227534   0.382   5.466   0.691
 8879SOL     OW27535   5.474   5.285   1.165
 8879SOL    HW127536   5.481   5.247   1.257
 8879SOL    HW227537   5.378   5.304   1.143
 8880SOL     OW27538   6.879   5.948   4.318
 8880SOL    HW127539   6.826   5.901   4.247
 8880SOL    HW227540   6.855   5.911   4.407
 8881SOL     OW27541   5.939   0.042   4.543
 8881SOL    HW127542   5.857   0.014   4.593
 8881SOL    HW227543   6.013   0.062   4.608
 8882SOL     OW27544   5.626   1.457   0.764
 8882SOL    HW127545   5.581   1.368   0.769
 8882SOL    HW227546   5.599   1.504   0.680
 8883SOL     OW27547   0.930   0.575   5.290
 8883SOL    HW127548   0.897   0.662   5.253
 8883SOL    HW227549   0.859   0.536   5.350
 8884SOL     OW27550   5.743   5.266   6.552
 8884SOL    HW127551   5.715   5.361   6.567
 8884SOL    HW227552   5.703   5.208   6.624
 8885SOL     OW27553   0.115   3.436   1.073
 8885SOL    HW127554   0.154   3.348   1.099
 8885SOL    HW227555   0.046   3.423   1.003
 8886SOL     OW27556   3.181   6.803   5.359
 8886SOL    HW127557   3.198   6.761   5.270
 8886SOL    HW227558   3.210   6.741   5.431
 8887SOL     OW27559   3.121   0.958   1.278
 8887SOL    HW127560   3.055   0.994   1.212
 8887SOL    HW227561   3.213   0.984   1.251
 8888SOL     OW27562   1.607   1.709   1.323
 8888SOL    HW127563   1.686   1.741   1.374
 8888SOL    HW227564   1.529   1.699   1.384
 8889SOL     OW27565   5.121   6.289   5.489
 8889SOL    HW127566   5.199   6.351   5.493
 8889SOL    HW227567   5.131   6.219   5.560
 8890SOL     OW27568   6.189   5.634   4.116
 8890SOL    HW127569   6.235   5.645   4.204
 8890SOL    HW227570   6.115   5.568   4.125
 8891SOL     OW27571   5.628   3.566   5.738
 8891SOL    HW127572   5.635   3.490   5.674
 8891SOL    HW227573   5.710   3.569   5.796
 8892SOL     OW27574   3.567   5.299   3.238
 8892SOL    HW127575   3.536   5.255   3.323
 8892SOL    HW227576   3.546   5.396   3.241
 8893SOL     OW27577   1.378   0.494   2.229
 8893SOL    HW127578   1.398   0.485   2.327
 8893SOL    HW227579   1.348   0.405   2.194
 8894SOL     OW27580   4.034   2.926   5.918
 8894SOL    HW127581   4.071   2.839   5.887
 8894SOL    HW227582   3.974   2.964   5.847
 8895SOL     OW27583   6.436   1.571   1.428
 8895SOL    HW127584   6.451   1.560   1.330
 8895SOL    HW227585   6.475   1.493   1.477
 8896SOL     OW27586   1.775   3.589   4.874
 8896SOL    HW127587   1.862   3.587   4.825
 8896SOL    HW227588   1.791   3.592   4.972
 8897SOL     OW27589   2.451   2.389   2.941
 8897SOL    HW127590   2.427   2.368   2.846
 8897SOL    HW227591   2.465   2.487   2.952
 8898SOL     OW27592   6.050   3.569   4.669
 8898SOL    HW127593   6.134   3.557   4.616
 8898SOL    HW227594   6.065   3.540   4.763
 8899SOL     OW27595   1.520   5.152   0.448
 8899SOL    HW127596   1.566   5.104   0.523
 8899SOL    HW227597   1.581   5.220   0.408
 8900SOL     OW27598   5.754   3.161   3.085
 8900SOL    HW127599   5.662   3.197   3.070
 8900SOL    HW227600   5.817   3.203   3.020
 8901SOL     OW27601   2.514   1.016   4.137
 8901SOL    HW127602   2.465   1.011   4.224
 8901SOL    HW227603   2.610   1.038   4.154
 8902SOL     OW27604   3.461   6.495   6.940
 8902SOL    HW127605   3.445   6.530   6.848
 8902SOL    HW227606   3.484   6.398   6.935
 8903SOL     OW27607   0.890   1.246   4.713
 8903SOL    HW127608   0.885   1.215   4.617
 8903SOL    HW227609   0.981   1.227   4.749
 8904SOL     OW27610   6.372   5.737   3.725
 8904SOL    HW127611   6.457   5.727   3.778
 8904SOL    HW227612   6.297   5.758   3.787
 8905SOL     OW27613   2.250   4.164   4.597
 8905SOL    HW127614   2.252   4.064   4.601
 8905SOL    HW227615   2.249   4.200   4.690
 8906SOL     OW27616   0.249   6.551   6.515
 8906SOL    HW127617   0.226   6.631   6.571
 8906SOL    HW227618   0.320   6.575   6.450
 8907SOL     OW27619   3.301   1.825   4.866
 8907SOL    HW127620   3.291   1.789   4.958
 8907SOL    HW227621   3.287   1.924   4.867
 8908SOL     OW27622   1.518   3.034   6.286
 8908SOL    HW127623   1.593   3.005   6.226
 8908SOL    HW227624   1.538   3.004   6.380
 8909SOL     OW27625   1.717   1.012   5.041
 8909SOL    HW127626   1.634   1.048   5.083
 8909SOL    HW227627   1.796   1.061   5.077
 8910SOL     OW27628   1.303   2.715   5.745
 8910SOL    HW127629   1.216   2.688   5.704
 8910SOL    HW227630   1.367   2.741   5.672
 8911SOL     OW27631   4.107   2.230   4.836
 8911SOL    HW127632   4.145   2.310   4.882
 8911SOL    HW227633   4.007   2.230   4.848
 8912SOL     OW27634   4.625   1.885   0.719
 8912SOL    HW127635   4.578   1.923   0.799
 8912SOL    HW227636   4.609   1.787   0.714
 8913SOL     OW27637   4.293   4.993   0.448
 8913SOL    HW127638   4.351   5.072   0.433
 8913SOL    HW227639   4.204   5.023   0.483
 8914SOL     OW27640   4.152   0.584   4.275
 8914SOL    HW127641   4.195   0.662   4.322
 8914SOL    HW227642   4.081   0.545   4.334
 8915SOL     OW27643   0.904   2.390   3.778
 8915SOL    HW127644   0.901   2.453   3.701
 8915SOL    HW227645   0.919   2.297   3.744
 8916SOL     OW27646   0.567   3.482   1.723
 8916SOL    HW127647   0.606   3.473   1.632
 8916SOL    HW227648   0.500   3.410   1.739
 8917SOL     OW27649   6.011   4.066   6.095
 8917SOL    HW127650   6.093   4.121   6.109
 8917SOL    HW227651   6.019   3.981   6.148
 8918SOL     OW27652   6.872   4.369   1.513
 8918SOL    HW127653   6.775   4.385   1.497
 8918SOL    HW227654   6.908   4.441   1.573
 8919SOL     OW27655   4.548   4.257   0.386
 8919SOL    HW127656   4.519   4.309   0.467
 8919SOL    HW227657   4.477   4.190   0.362
 8920SOL     OW27658   0.970   6.838   6.465
 8920SOL    HW127659   1.024   6.921   6.479
 8920SOL    HW227660   1.000   6.791   6.382
 8921SOL     OW27661   2.031   2.102   2.975
 8921SOL    HW127662   2.126   2.089   3.005
 8921SOL    HW227663   1.998   2.018   2.931
 8922SOL     OW27664   3.256   5.118   1.829
 8922SOL    HW127665   3.159   5.128   1.853
 8922SOL    HW227666   3.291   5.032   1.866
 8923SOL     OW27667   1.318   3.938   5.818
 8923SOL    HW127668   1.268   4.006   5.764
 8923SOL    HW227669   1.406   3.977   5.847
 8924SOL     OW27670   3.567   5.700   5.429
 8924SOL    HW127671   3.476   5.658   5.435
 8924SOL    HW227672   3.632   5.633   5.393
 8925SOL     OW27673   1.074   0.558   2.586
 8925SOL    HW127674   1.174   0.558   2.597
 8925SOL    HW227675   1.047   0.479   2.531
 8926SOL     OW27676   6.186   3.526   6.715
 8926SOL    HW127677   6.145   3.556   6.629
 8926SOL    HW227678   6.194   3.427   6.716
 8927SOL     OW27679   1.209   1.850   4.649
 8927SOL    HW127680   1.223   1.759   4.611
 8927SOL    HW227681   1.129   1.849   4.709
 8928SOL     OW27682   6.499   0.691   5.274
 8928SOL    HW127683   6.478   0.681   5.177
 8928SOL    HW227684   6.414   0.708   5.325
 8929SOL     OW27685   0.236   3.333   4.010
 8929SOL    HW127686   0.260   3.300   3.919
 8929SOL    HW227687   0.250   3.432   4.013
 8930SOL     OW27688   2.326   4.293   4.066
 8930SOL    HW127689   2.304   4.225   3.996
 8930SOL    HW227690   2.319   4.252   4.157
 8931SOL     OW27691   3.259   2.648   0.780
 8931SOL    HW127692   3.276   2.637   0.682
 8931SOL    HW227693   3.163   2.669   0.795
 8932SOL     OW27694   5.416   0.463   0.310
 8932SOL    HW127695   5.399   0.365   0.322
 8932SOL    HW227696   5.419   0.484   0.212
 8933SOL     OW27697   0.873   2.013   5.584
 8933SOL    HW127698   0.838   2.055   5.500
 8933SOL    HW227699   0.891   2.084   5.652
 8934SOL     OW27700   3.110   5.171   3.425
 8934SOL    HW127701   3.124   5.265   3.392
 8934SOL    HW227702   3.128   5.168   3.523
 8935SOL     OW27703   5.337   4.098   1.784
 8935SOL    HW127704   5.291   4.016   1.748
 8935SOL    HW227705   5.271   4.172   1.794
 8936SOL     OW27706   1.204   3.031   0.979
 8936SOL    HW127707   1.113   3.069   0.995
 8936SOL    HW227708   1.215   2.949   1.034
 8937SOL     OW27709   0.447   0.416   4.183
 8937SOL    HW127710   0.363   0.439   4.132
 8937SOL    HW227711   0.443   0.456   4.274
 8938SOL     OW27712   0.053   1.126   0.329
 8938SOL    HW127713   0.102   1.053   0.282
 8938SOL    HW227714   0.029   1.198   0.263
 8939SOL     OW27715   6.261   3.452   4.386
 8939SOL    HW127716   6.235   3.431   4.292
 8939SOL    HW227717   6.261   3.551   4.400
 8940SOL     OW27718   5.517   1.766   1.174
 8940SOL    HW127719   5.563   1.711   1.105
 8940SOL    HW227720   5.447   1.823   1.130
 8941SOL     OW27721   5.472   2.609   2.215
 8941SOL    HW127722   5.508   2.676   2.150
 8941SOL    HW227723   5.545   2.582   2.278
 8942SOL     OW27724   1.246   5.444   4.510
 8942SOL    HW127725   1.212   5.351   4.498
 8942SOL    HW227726   1.190   5.491   4.579
 8943SOL     OW27727   4.115   4.967   0.830
 8943SOL    HW127728   4.124   5.058   0.870
 8943SOL    HW227729   4.104   4.974   0.731
 8944SOL     OW27730   4.914   5.065   4.239
 8944SOL    HW127731   4.943   4.970   4.224
 8944SOL    HW227732   4.993   5.119   4.268
 8945SOL     OW27733   6.778   2.190   4.615
 8945SOL    HW127734   6.804   2.263   4.552
 8945SOL    HW227735   6.684   2.161   4.597
 8946SOL     OW27736   3.612   0.762   4.273
 8946SOL    HW127737   3.622   0.712   4.187
 8946SOL    HW227738   3.518   0.755   4.305
 8947SOL     OW27739   2.116   3.387   6.131
 8947SOL    HW127740   2.038   3.449   6.119
 8947SOL    HW227741   2.090   3.314   6.195
 8948SOL     OW27742   6.025   6.154   3.057
 8948SOL    HW127743   6.081   6.158   3.140
 8948SOL    HW227744   5.936   6.198   3.075
 8949SOL     OW27745   4.059   5.777   0.700
 8949SOL    HW127746   4.013   5.836   0.633
 8949SOL    HW227747   3.990   5.729   0.754
 8950SOL     OW27748   4.482   3.250   1.317
 8950SOL    HW127749   4.566   3.270   1.367
 8950SOL    HW227750   4.410   3.224   1.381
 8951SOL     OW27751   1.929   1.129   4.460
 8951SOL    HW127752   1.916   1.228   4.460
 8951SOL    HW227753   1.936   1.096   4.554
 8952SOL     OW27754   0.802   5.292   3.132
 8952SOL    HW127755   0.829   5.199   3.157
 8952SOL    HW227756   0.807   5.351   3.213
 8953SOL     OW27757   1.631   4.223   1.011
 8953SOL    HW127758   1.677   4.227   1.100
 8953SOL    HW227759   1.533   4.207   1.024
 8954SOL     OW27760   0.160   6.898   4.024
 8954SOL    HW127761   0.258   6.907   4.006
 8954SOL    HW227762   0.114   6.863   3.942
 8955SOL     OW27763   0.094   3.591   2.656
 8955SOL    HW127764   0.051   3.527   2.720
 8955SOL    HW227765   0.039   3.596   2.572
 8956SOL     OW27766   1.002   0.833   5.788
 8956SOL    HW127767   1.089   0.810   5.746
 8956SOL    HW227768   0.929   0.779   5.746
 8957SOL     OW27769   2.497   4.884   1.282
 8957SOL    HW127770   2.429   4.852   1.349
 8957SOL    HW227771   2.453   4.948   1.218
 8958SOL     OW27772   0.961   2.304   5.482
 8958SOL    HW127773   0.977   2.286   5.579
 8958SOL    HW227774   1.024   2.376   5.450
 8959SOL     OW27775   1.772   3.371   2.523
 8959SOL    HW127776   1.809   3.397   2.434
 8959SOL    HW227777   1.675   3.351   2.514
 8960SOL     OW27778   6.010   5.625   3.460
 8960SOL    HW127779   5.936   5.689   3.440
 8960SOL    HW227780   6.026   5.622   3.559
 8961SOL     OW27781   4.049   1.809   3.862
 8961SOL    HW127782   4.028   1.718   3.826
 8961SOL    HW227783   3.970   1.845   3.912
 8962SOL     OW27784   0.082   5.887   1.347
 8962SOL    HW127785   0.007   5.822   1.360
 8962SOL    HW227786   0.124   5.908   1.435
 8963SOL     OW27787   3.301   6.522   5.099
 8963SOL    HW127788   3.215   6.487   5.060
 8963SOL    HW227789   3.301   6.622   5.094
 8964SOL     OW27790   5.445   3.700   2.917
 8964SOL    HW127791   5.536   3.737   2.937
 8964SOL    HW227792   5.402   3.757   2.847
 8965SOL     OW27793   3.519   5.082   0.599
 8965SOL    HW127794   3.443   5.026   0.565
 8965SOL    HW227795   3.494   5.122   0.687
 8966SOL     OW27796   6.926   4.784   6.772
 8966SOL    HW127797   6.938   4.689   6.742
 8966SOL    HW227798   6.840   4.792   6.822
 8967SOL     OW27799   4.173   1.387   3.136
 8967SOL    HW127800   4.076   1.394   3.113
 8967SOL    HW227801   4.188   1.424   3.227
 8968SOL     OW27802   3.151   5.786   2.454
 8968SOL    HW127803   3.149   5.788   2.354
 8968SOL    HW227804   3.086   5.854   2.489
 8969SOL     OW27805   0.459   0.603   3.569
 8969SOL    HW127806   0.437   0.550   3.487
 8969SOL    HW227807   0.383   0.598   3.633
 8970SOL     OW27808   1.555   2.338   0.571
 8970SOL    HW127809   1.616   2.271   0.528
 8970SOL    HW227810   1.608   2.403   0.624
 8971SOL     OW27811   5.346   6.922   2.154
 8971SOL    HW127812   5.414   6.953   2.220
 8971SOL    HW227813   5.278   6.994   2.139
 8972SOL     OW27814   4.963   4.011   0.300
 8972SOL    HW127815   4.868   3.979   0.301
 8972SOL    HW227816   4.988   4.041   0.392
 8973SOL     OW27817   0.334   2.953   2.206
 8973SOL    HW127818   0.260   2.990   2.149
 8973SOL    HW227819   0.303   2.948   2.301
 8974SOL     OW27820   1.922   3.970   3.976
 8974SOL    HW127821   1.999   3.958   4.038
 8974SOL    HW227822   1.943   4.040   3.908
 8975SOL     OW27823   1.050   6.914   6.791
 8975SOL    HW127824   1.111   6.845   6.752
 8975SOL    HW227825   0.966   6.869   6.823
 8976SOL     OW27826   7.018   6.413   0.768
 8976SOL    HW127827   0.021   6.489   0.709
 8976SOL    HW227828   6.943   6.442   0.828
 8977SOL     OW27829   6.823   3.886   6.516
 8977SOL    HW127830   6.753   3.877   6.445
 8977SOL    HW227831   6.824   3.980   6.550
 8978SOL     OW27832   5.080   6.652   4.728
 8978SOL    HW127833   5.075   6.752   4.731
 8978SOL    HW227834   5.042   6.619   4.642
 8979SOL     OW27835   1.309   5.459   5.979
 8979SOL    HW127836   1.226   5.434   5.929
 8979SOL    HW227837   1.284   5.498   6.068
 8980SOL     OW27838   5.421   2.286   5.665
 8980SOL    HW127839   5.343   2.227   5.688
 8980SOL    HW227840   5.420   2.305   5.566
 8981SOL     OW27841   4.912   1.910   5.643
 8981SOL    HW127842   4.882   1.976   5.713
 8981SOL    HW227843   4.942   1.959   5.562
 8982SOL     OW27844   6.950   1.990   1.318
 8982SOL    HW127845   6.926   2.050   1.394
 8982SOL    HW227846   7.017   2.036   1.259
 8983SOL     OW27847   0.899   5.428   1.488
 8983SOL    HW127848   0.820   5.372   1.466
 8983SOL    HW227849   0.951   5.385   1.562
 8984SOL     OW27850   6.134   0.084   4.737
 8984SOL    HW127851   6.141   0.034   4.824
 8984SOL    HW227852   6.132   0.183   4.756
 8985SOL     OW27853   3.118   2.303   1.165
 8985SOL    HW127854   3.121   2.216   1.214
 8985SOL    HW227855   3.102   2.377   1.230
 8986SOL     OW27856   5.525   4.594   2.758
 8986SOL    HW127857   5.556   4.514   2.707
 8986SOL    HW227858   5.433   4.577   2.794
 8987SOL     OW27859   2.871   0.845   1.016
 8987SOL    HW127860   2.796   0.899   1.055
 8987SOL    HW227861   2.937   0.823   1.087
 8988SOL     OW27862   1.615   5.490   0.180
 8988SOL    HW127863   1.629   5.545   0.098
 8988SOL    HW227864   1.560   5.541   0.246
 8989SOL     OW27865   4.925   3.323   2.798
 8989SOL    HW127866   4.934   3.301   2.895
 8989SOL    HW227867   4.831   3.308   2.769
 8990SOL     OW27868   1.956   5.928   1.967
 8990SOL    HW127869   1.954   6.028   1.974
 8990SOL    HW227870   1.885   5.889   2.026
 8991SOL     OW27871   2.432   2.001   1.450
 8991SOL    HW127872   2.334   2.001   1.431
 8991SOL    HW227873   2.471   2.089   1.422
 8992SOL     OW27874   0.198   2.626   0.534
 8992SOL    HW127875   0.219   2.719   0.504
 8992SOL    HW227876   0.151   2.630   0.622
 8993SOL     OW27877   5.017   2.487   2.743
 8993SOL    HW127878   5.005   2.583   2.766
 8993SOL    HW227879   5.107   2.456   2.773
 8994SOL     OW27880   1.738   5.480   3.729
 8994SOL    HW127881   1.691   5.468   3.817
 8994SOL    HW227882   1.820   5.422   3.726
 8995SOL     OW27883   1.368   2.460   5.304
 8995SOL    HW127884   1.293   2.512   5.346
 8995SOL    HW227885   1.331   2.400   5.234
 8996SOL     OW27886   0.499   3.973   1.841
 8996SOL    HW127887   0.479   3.882   1.804
 8996SOL    HW227888   0.536   4.031   1.770
 8997SOL     OW27889   4.936   0.735   6.638
 8997SOL    HW127890   4.988   0.748   6.722
 8997SOL    HW227891   4.929   0.638   6.616
 8998SOL     OW27892   0.315   1.974   4.697
 8998SOL    HW127893   0.325   1.878   4.670
 8998SOL    HW227894   0.267   2.024   4.625
 8999SOL     OW27895   4.744   0.802   0.057
 8999SOL    HW127896   4.740   0.772   0.152
 8999SOL    HW227897   4.725   0.725   7.019
 9000SOL     OW27898   2.943   3.968   6.256
 9000SOL    HW127899   2.871   3.951   6.189
 9000SOL    HW227900   2.901   3.993   6.344
 9001SOL     OW27901   1.427   5.372   2.881
 9001SOL    HW127902   1.407   5.285   2.927
 9001SOL    HW227903   1.355   5.392   2.815
 9002SOL     OW27904   0.697   5.386   5.705
 9002SOL    HW127905   0.784   5.349   5.670
 9002SOL    HW227906   0.680   5.475   5.662
 9003SOL     OW27907   5.884   2.748   1.582
 9003SOL    HW127908   5.971   2.780   1.620
 9003SOL    HW227909   5.842   2.822   1.529
 9004SOL     OW27910   4.736   6.111   1.882
 9004SOL    HW127911   4.690   6.191   1.844
 9004SOL    HW227912   4.801   6.075   1.815
 9005SOL     OW27913   5.784   1.955   3.512
 9005SOL    HW127914   5.799   2.047   3.548
 9005SOL    HW227915   5.770   1.961   3.413
 9006SOL     OW27916   1.218   5.965   0.698
 9006SOL    HW127917   1.263   6.009   0.775
 9006SOL    HW227918   1.168   5.885   0.730
 9007SOL     OW27919   3.671   5.563   3.633
 9007SOL    HW127920   3.621   5.503   3.695
 9007SOL    HW227921   3.757   5.591   3.676
 9008SOL     OW27922   6.109   5.673   3.002
 9008SOL    HW127923   6.184   5.610   2.981
 9008SOL    HW227924   6.023   5.623   3.009
 9009SOL     OW27925   3.386   6.737   0.629
 9009SOL    HW127926   3.289   6.714   0.617
 9009SOL    HW227927   3.394   6.805   0.702
 9010SOL     OW27928   0.486   6.672   4.919
 9010SOL    HW127929   0.436   6.743   4.969
 9010SOL    HW227930   0.564   6.712   4.872
 9011SOL     OW27931   3.853   2.584   1.288
 9011SOL    HW127932   3.795   2.539   1.220
 9011SOL    HW227933   3.948   2.559   1.272
 9012SOL     OW27934   2.778   4.989   0.602
 9012SOL    HW127935   2.768   4.895   0.569
 9012SOL    HW227936   2.746   4.994   0.697
 9013SOL     OW27937   6.219   6.185   5.112
 9013SOL    HW127938   6.126   6.179   5.076
 9013SOL    HW227939   6.265   6.097   5.099
 9014SOL     OW27940   1.234   1.745   0.662
 9014SOL    HW127941   1.228   1.817   0.731
 9014SOL    HW227942   1.150   1.745   0.607
 9015SOL     OW27943   6.056   0.679   7.012
 9015SOL    HW127944   6.097   0.703   6.924
 9015SOL    HW227945   6.126   0.640   0.049
 9016SOL     OW27946   5.835   6.269   5.896
 9016SOL    HW127947   5.908   6.237   5.834
 9016SOL    HW227948   5.877   6.316   5.973
 9017SOL     OW27949   5.415   2.098   3.226
 9017SOL    HW127950   5.459   2.050   3.302
 9017SOL    HW227951   5.482   2.116   3.154
 9018SOL     OW27952   3.970   1.485   5.596
 9018SOL    HW127953   3.922   1.559   5.643
 9018SOL    HW227954   3.985   1.409   5.660
 9019SOL     OW27955   1.877   6.595   0.372
 9019SOL    HW127956   1.833   6.586   0.283
 9019SOL    HW227957   1.813   6.638   0.437
 9020SOL     OW27958   1.754   3.584   2.120
 9020SOL    HW127959   1.794   3.505   2.166
 9020SOL    HW227960   1.781   3.583   2.023
 9021SOL     OW27961   6.384   0.253   3.739
 9021SOL    HW127962   6.392   0.295   3.648
 9021SOL    HW227963   6.444   0.173   3.744
 9022SOL     OW27964   2.740   0.920   0.559
 9022SOL    HW127965   2.799   0.840   0.567
 9022SOL    HW227966   2.744   0.973   0.643
 9023SOL     OW27967   3.863   3.203   3.081
 9023SOL    HW127968   3.836   3.234   2.989
 9023SOL    HW227969   3.955   3.236   3.101
 9024SOL     OW27970   2.073   5.662   6.248
 9024SOL    HW127971   2.108   5.570   6.237
 9024SOL    HW227972   1.973   5.660   6.258
 9025SOL     OW27973   6.678   5.908   0.904
 9025SOL    HW127974   6.645   5.911   0.998
 9025SOL    HW227975   6.638   5.983   0.852
 9026SOL     OW27976   3.807   3.349   3.566
 9026SOL    HW127977   3.708   3.340   3.579
 9026SOL    HW227978   3.833   3.304   3.481
 9027SOL     OW27979   3.107   1.915   3.977
 9027SOL    HW127980   3.134   1.934   4.072
 9027SOL    HW227981   3.143   1.825   3.950
 9028SOL     OW27982   2.324   4.566   6.722
 9028SOL    HW127983   2.387   4.506   6.770
 9028SOL    HW227984   2.370   4.607   6.643
 9029SOL     OW27985   3.861   5.270   4.601
 9029SOL    HW127986   3.877   5.327   4.521
 9029SOL    HW227987   3.899   5.179   4.585
 9030SOL     OW27988   2.151   1.213   2.541
 9030SOL    HW127989   2.060   1.196   2.504
 9030SOL    HW227990   2.171   1.145   2.612
 9031SOL     OW27991   3.555   5.137   5.483
 9031SOL    HW127992   3.654   5.120   5.491
 9031SOL    HW227993   3.528   5.127   5.387
 9032SOL     OW27994   3.880   2.810   0.784
 9032SOL    HW127995   3.832   2.747   0.723
 9032SOL    HW227996   3.978   2.793   0.778
 9033SOL     OW27997   1.370   3.544   3.887
 9033SOL    HW127998   1.278   3.504   3.890
 9033SOL    HW227999   1.402   3.562   3.980
 9034SOL     OW28000   2.650   6.344   5.005
 9034SOL    HW128001   2.669   6.376   4.912
 9034SOL    HW228002   2.552   6.345   5.021
 9035SOL     OW28003   0.311   6.477   4.983
 9035SOL    HW128004   0.301   6.496   5.080
 9035SOL    HW228005   0.384   6.534   4.945
 9036SOL     OW28006   1.624   2.071   4.400
 9036SOL    HW128007   1.528   2.064   4.427
 9036SOL    HW228008   1.673   2.129   4.466
 9037SOL     OW28009   1.638   3.326   6.316
 9037SOL    HW128010   1.590   3.238   6.323
 9037SOL    HW228011   1.578   3.399   6.350
 9038SOL     OW28012   5.054   0.312   5.966
 9038SOL    HW128013   5.039   0.306   5.867
 9038SOL    HW228014   5.007   0.236   6.012
 9039SOL     OW28015   1.764   4.663   4.973
 9039SOL    HW128016   1.838   4.619   4.921
 9039SOL    HW228017   1.803   4.721   5.044
 9040SOL     OW28018   2.877   1.689   3.703
 9040SOL    HW128019   2.925   1.618   3.650
 9040SOL    HW228020   2.919   1.778   3.684
 9041SOL     OW28021   1.041   1.758   1.791
 9041SOL    HW128022   1.068   1.675   1.743
 9041SOL    HW228023   1.004   1.824   1.725
 9042SOL     OW28024   2.744   6.415   3.558
 9042SOL    HW128025   2.806   6.451   3.627
 9042SOL    HW228026   2.796   6.390   3.476
 9043SOL     OW28027   2.326   1.328   5.561
 9043SOL    HW128028   2.350   1.354   5.468
 9043SOL    HW228029   2.403   1.348   5.622
 9044SOL     OW28030   6.319   1.176   1.059
 9044SOL    HW128031   6.228   1.178   1.099
 9044SOL    HW228032   6.370   1.099   1.097
 9045SOL     OW28033   3.175   1.363   1.959
 9045SOL    HW128034   3.167   1.366   1.859
 9045SOL    HW228035   3.164   1.456   1.996
 9046SOL     OW28036   3.388   4.090   4.505
 9046SOL    HW128037   3.453   4.022   4.537
 9046SOL    HW228038   3.315   4.101   4.572
 9047SOL     OW28039   1.423   4.153   5.370
 9047SOL    HW128040   1.411   4.105   5.456
 9047SOL    HW228041   1.361   4.115   5.301
 9048SOL     OW28042   7.020   3.140   6.164
 9048SOL    HW128043   0.093   3.166   6.166
 9048SOL    HW228044   6.973   3.181   6.242
 9049SOL     OW28045   4.811   6.460   6.958
 9049SOL    HW128046   4.897   6.511   6.964
 9049SOL    HW228047   4.742   6.517   6.913
 9050SOL     OW28048   1.322   5.480   6.362
 9050SOL    HW128049   1.254   5.507   6.294
 9050SOL    HW228050   1.392   5.423   6.319
 9051SOL     OW28051   4.449   6.259   0.947
 9051SOL    HW128052   4.372   6.232   1.004
 9051SOL    HW228053   4.508   6.180   0.930
 9052SOL     OW28054   2.219   4.223   4.325
 9052SOL    HW128055   2.229   4.198   4.421
 9052SOL    HW228056   2.122   4.238   4.305
 9053SOL     OW28057   2.180   1.847   3.656
 9053SOL    HW128058   2.263   1.888   3.619
 9053SOL    HW228059   2.184   1.748   3.644
 9054SOL     OW28060   1.884   0.736   2.048
 9054SOL    HW128061   1.867   0.826   2.007
 9054SOL    HW228062   1.831   0.667   1.999
 9055SOL     OW28063   0.192   4.074   3.553
 9055SOL    HW128064   0.264   4.007   3.535
 9055SOL    HW228065   0.179   4.083   3.652
 9056SOL     OW28066   5.225   0.478   2.033
 9056SOL    HW128067   5.261   0.548   1.971
 9056SOL    HW228068   5.144   0.436   1.992
 9057SOL     OW28069   6.426   5.042   6.195
 9057SOL    HW128070   6.521   5.062   6.218
 9057SOL    HW228071   6.382   4.992   6.270
 9058SOL     OW28072   2.326   1.587   4.060
 9058SOL    HW128073   2.239   1.584   4.012
 9058SOL    HW228074   2.386   1.514   4.027
 9059SOL     OW28075   0.092   0.790   3.326
 9059SOL    HW128076   0.029   0.713   3.331
 9059SOL    HW228077   0.042   0.875   3.345
 9060SOL     OW28078   6.660   3.997   2.419
 9060SOL    HW128079   6.609   4.062   2.363
 9060SOL    HW228080   6.608   3.977   2.502
 9061SOL     OW28081   4.377   5.506   2.480
 9061SOL    HW128082   4.388   5.466   2.389
 9061SOL    HW228083   4.377   5.606   2.471
 9062SOL     OW28084   1.006   4.659   2.507
 9062SOL    HW128085   1.099   4.629   2.531
 9062SOL    HW228086   1.012   4.740   2.449
 9063SOL     OW28087   3.093   0.429   2.399
 9063SOL    HW128088   3.002   0.398   2.426
 9063SOL    HW228089   3.152   0.349   2.384
 9064SOL     OW28090   6.274   4.483   4.316
 9064SOL    HW128091   6.180   4.460   4.338
 9064SOL    HW228092   6.296   4.451   4.224
 9065SOL     OW28093   2.974   5.938   6.353
 9065SOL    HW128094   2.940   5.901   6.440
 9065SOL    HW228095   3.063   5.981   6.367
 9066SOL     OW28096   5.851   0.356   6.397
 9066SOL    HW128097   5.800   0.369   6.482
 9066SOL    HW228098   5.948   0.373   6.413
 9067SOL     OW28099   5.971   6.159   4.997
 9067SOL    HW128100   5.885   6.148   5.048
 9067SOL    HW228101   5.996   6.072   4.956
 9068SOL     OW28102   3.056   0.613   5.371
 9068SOL    HW128103   2.996   0.684   5.408
 9068SOL    HW228104   3.150   0.630   5.399
 9069SOL     OW28105   3.790   2.117   2.236
 9069SOL    HW128106   3.762   2.161   2.150
 9069SOL    HW228107   3.881   2.150   2.262
 9070SOL     OW28108   1.000   3.193   6.045
 9070SOL    HW128109   1.042   3.108   6.076
 9070SOL    HW228110   1.061   3.270   6.063
 9071SOL     OW28111   5.163   6.986   0.112
 9071SOL    HW128112   5.132   0.058   0.102
 9071SOL    HW228113   5.087   6.924   0.093
 9072SOL     OW28114   5.008   6.977   1.614
 9072SOL    HW128115   4.917   7.017   1.599
 9072SOL    HW228116   5.061   6.982   1.529
 9073SOL     OW28117   3.463   6.828   1.168
 9073SOL    HW128118   3.453   6.900   1.100
 9073SOL    HW228119   3.385   6.831   1.231
 9074SOL     OW28120   1.919   0.790   1.526
 9074SOL    HW128121   1.866   0.710   1.555
 9074SOL    HW228122   1.990   0.761   1.463
 9075SOL     OW28123   0.494   0.235   1.718
 9075SOL    HW128124   0.407   0.280   1.741
 9075SOL    HW228125   0.568   0.302   1.718
 9076SOL     OW28126   5.030   1.832   4.817
 9076SOL    HW128127   5.014   1.928   4.795
 9076SOL    HW228128   5.128   1.818   4.834
 9077SOL     OW28129   5.084   1.260   6.573
 9077SOL    HW128130   5.133   1.229   6.491
 9077SOL    HW228131   5.124   1.219   6.654
 9078SOL     OW28132   4.743   3.778   0.003
 9078SOL    HW128133   4.711   3.722   0.080
 9078SOL    HW228134   4.681   3.856   7.014
 9079SOL     OW28135   1.846   6.968   4.612
 9079SOL    HW128136   1.854   6.891   4.548
 9079SOL    HW228137   1.750   6.994   4.622
 9080SOL     OW28138   6.249   2.686   0.014
 9080SOL    HW128139   6.235   2.672   0.112
 9080SOL    HW228140   6.233   2.600   6.989
 9081SOL     OW28141   3.254   0.648   2.374
 9081SOL    HW128142   3.209   0.710   2.438
 9081SOL    HW228143   3.218   0.556   2.386
 9082SOL     OW28144   2.203   6.093   5.516
 9082SOL    HW128145   2.211   6.035   5.597
 9082SOL    HW228146   2.251   6.179   5.532
 9083SOL     OW28147   3.594   4.576   5.868
 9083SOL    HW128148   3.573   4.535   5.956
 9083SOL    HW228149   3.525   4.548   5.800
 9084SOL     OW28150   1.586   2.437   6.621
 9084SOL    HW128151   1.603   2.508   6.552
 9084SOL    HW228152   1.585   2.347   6.577
 9085SOL     OW28153   1.811   5.450   1.236
 9085SOL    HW128154   1.853   5.398   1.310
 9085SOL    HW228155   1.767   5.532   1.273
 9086SOL     OW28156   6.288   4.151   1.433
 9086SOL    HW128157   6.345   4.205   1.372
 9086SOL    HW228158   6.291   4.055   1.405
 9087SOL     OW28159   4.838   3.319   1.905
 9087SOL    HW128160   4.788   3.235   1.930
 9087SOL    HW228161   4.858   3.371   1.988
 9088SOL     OW28162   6.682   6.530   0.664
 9088SOL    HW128163   6.742   6.455   0.638
 9088SOL    HW228164   6.631   6.505   0.746
 9089SOL     OW28165   3.894   6.198   5.997
 9089SOL    HW128166   3.870   6.178   5.902
 9089SOL    HW228167   3.845   6.136   6.058
 9090SOL     OW28168   5.153   6.998   3.675
 9090SOL    HW128169   5.168   6.900   3.685
 9090SOL    HW228170   5.209   0.010   3.600
 9091SOL     OW28171   2.686   3.355   0.587
 9091SOL    HW128172   2.690   3.454   0.603
 9091SOL    HW228173   2.772   3.314   0.617
 9092SOL     OW28174   0.349   1.679   6.832
 9092SOL    HW128175   0.310   1.643   6.916
 9092SOL    HW228176   0.440   1.640   6.817
 9093SOL     OW28177   1.494   6.077   6.361
 9093SOL    HW128178   1.531   6.157   6.406
 9093SOL    HW228179   1.542   5.995   6.393
 9094SOL     OW28180   0.275   5.559   2.822
 9094SOL    HW128181   0.200   5.606   2.776
 9094SOL    HW228182   0.339   5.626   2.859
 9095SOL     OW28183   3.827   3.720   6.147
 9095SOL    HW128184   3.917   3.734   6.189
 9095SOL    HW228185   3.821   3.773   6.062
 9096SOL     OW28186   5.572   3.987   2.371
 9096SOL    HW128187   5.534   4.079   2.361
 9096SOL    HW228188   5.628   3.966   2.291
 9097SOL     OW28189   0.768   2.889   6.867
 9097SOL    HW128190   0.856   2.917   6.907
 9097SOL    HW228191   0.784   2.845   6.779
 9098SOL     OW28192   3.905   3.055   6.863
 9098SOL    HW128193   3.816   3.012   6.848
 9098SOL    HW228194   3.963   3.041   6.782
 9099SOL     OW28195   3.961   4.053   0.742
 9099SOL    HW128196   3.952   4.146   0.707
 9099SOL    HW228197   3.881   3.999   0.714
 9100SOL     OW28198   1.206   3.378   3.020
 9100SOL    HW128199   1.169   3.454   3.073
 9100SOL    HW228200   1.151   3.365   2.938
 9101SOL     OW28201   2.290   2.869   3.202
 9101SOL    HW128202   2.384   2.877   3.171
 9101SOL    HW228203   2.232   2.931   3.149
 9102SOL     OW28204   3.111   6.926   1.976
 9102SOL    HW128205   3.050   6.917   1.897
 9102SOL    HW228206   3.070   6.880   2.055
 9103SOL     OW28207   6.611   4.139   0.164
 9103SOL    HW128208   6.688   4.190   0.203
 9103SOL    HW228209   6.630   4.041   0.168
 9104SOL     OW28210   4.750   6.567   3.233
 9104SOL    HW128211   4.683   6.544   3.163
 9104SOL    HW228212   4.800   6.484   3.261
 9105SOL     OW28213   1.753   1.102   0.811
 9105SOL    HW128214   1.818   1.165   0.853
 9105SOL    HW228215   1.689   1.153   0.754
 9106SOL     OW28216   6.528   4.377   0.721
 9106SOL    HW128217   6.537   4.457   0.661
 9106SOL    HW228218   6.610   4.368   0.777
 9107SOL     OW28219   3.200   0.494   5.966
 9107SOL    HW128220   3.102   0.503   5.986
 9107SOL    HW228221   3.253   0.541   6.036
 9108SOL     OW28222   5.101   3.885   6.011
 9108SOL    HW128223   5.082   3.966   6.067
 9108SOL    HW228224   5.055   3.806   6.051
 9109SOL     OW28225   0.780   2.802   2.802
 9109SOL    HW128226   0.793   2.807   2.703
 9109SOL    HW228227   0.865   2.825   2.848
 9110SOL     OW28228   1.922   4.323   4.312
 9110SOL    HW128229   1.872   4.352   4.394
 9110SOL    HW228230   1.858   4.281   4.247
 9111SOL     OW28231   4.238   2.728   0.115
 9111SOL    HW128232   4.294   2.811   0.111
 9111SOL    HW228233   4.202   2.716   0.208
 9112SOL     OW28234   0.970   5.164   5.193
 9112SOL    HW128235   0.980   5.077   5.145
 9112SOL    HW228236   0.875   5.176   5.221
 9113SOL     OW28237   4.733   7.015   1.544
 9113SOL    HW128238   4.716   6.927   1.499
 9113SOL    HW228239   4.697   7.012   1.637
 9114SOL     OW28240   1.577   4.673   1.690
 9114SOL    HW128241   1.646   4.737   1.658
 9114SOL    HW228242   1.550   4.612   1.615
 9115SOL     OW28243   1.117   4.885   5.118
 9115SOL    HW128244   1.167   4.893   5.032
 9115SOL    HW228245   1.181   4.864   5.192
 9116SOL     OW28246   6.409   1.040   0.048
 9116SOL    HW128247   6.377   1.128   0.014
 9116SOL    HW228248   6.507   1.046   0.068
 9117SOL     OW28249   5.862   2.857   0.332
 9117SOL    HW128250   5.801   2.812   0.397
 9117SOL    HW228251   5.820   2.857   0.241
 9118SOL     OW28252   6.590   4.907   0.244
 9118SOL    HW128253   6.659   4.976   0.222
 9118SOL    HW228254   6.557   4.921   0.337
 9119SOL     OW28255   4.541   0.239   1.715
 9119SOL    HW128256   4.627   0.291   1.711
 9119SOL    HW228257   4.523   0.212   1.810
 9120SOL     OW28258   6.001   2.066   6.397
 9120SOL    HW128259   5.902   2.082   6.403
 9120SOL    HW228260   6.048   2.154   6.390
 9121SOL     OW28261   2.472   2.360   5.400
 9121SOL    HW128262   2.535   2.380   5.325
 9121SOL    HW228263   2.378   2.365   5.367
 9122SOL     OW28264   2.147   4.329   2.319
 9122SOL    HW128265   2.096   4.259   2.269
 9122SOL    HW228266   2.088   4.408   2.335
 9123SOL     OW28267   3.178   0.191   4.340
 9123SOL    HW128268   3.241   0.166   4.267
 9123SOL    HW228269   3.133   0.109   4.375
 9124SOL     OW28270   5.786   6.564   0.021
 9124SOL    HW128271   5.707   6.615   7.013
 9124SOL    HW228272   5.839   6.618   0.086
 9125SOL     OW28273   5.395   4.324   1.530
 9125SOL    HW128274   5.315   4.264   1.527
 9125SOL    HW228275   5.373   4.406   1.584
 9126SOL     OW28276   6.044   2.964   1.694
 9126SOL    HW128277   6.061   2.987   1.790
 9126SOL    HW228278   5.959   3.007   1.664
 9127SOL     OW28279   6.184   1.218   6.052
 9127SOL    HW128280   6.145   1.310   6.048
 9127SOL    HW228281   6.159   1.167   5.970
 9128SOL     OW28282   5.414   1.742   5.823
 9128SOL    HW128283   5.429   1.649   5.790
 9128SOL    HW228284   5.478   1.763   5.896
 9129SOL     OW28285   0.285   2.518   0.878
 9129SOL    HW128286   0.306   2.421   0.861
 9129SOL    HW228287   0.301   2.539   0.975
 9130SOL     OW28288   0.349   3.185   0.683
 9130SOL    HW128289   0.411   3.116   0.646
 9130SOL    HW228290   0.346   3.178   0.783
 9131SOL     OW28291   6.216   3.055   5.313
 9131SOL    HW128292   6.259   3.143   5.332
 9131SOL    HW228293   6.259   2.984   5.370
 9132SOL     OW28294   1.214   5.478   4.226
 9132SOL    HW128295   1.209   5.445   4.320
 9132SOL    HW228296   1.301   5.524   4.211
 9133SOL     OW28297   3.936   5.881   2.548
 9133SOL    HW128298   3.913   5.913   2.456
 9133SOL    HW228299   3.877   5.927   2.615
 9134SOL     OW28300   4.992   5.375   0.570
 9134SOL    HW128301   4.905   5.403   0.609
 9134SOL    HW228302   4.998   5.275   0.567
 9135SOL     OW28303   6.504   6.589   1.598
 9135SOL    HW128304   6.480   6.576   1.502
 9135SOL    HW228305   6.591   6.638   1.605
 9136SOL     OW28306   5.700   5.268   6.253
 9136SOL    HW128307   5.668   5.239   6.343
 9136SOL    HW228308   5.708   5.368   6.251
 9137SOL     OW28309   4.696   1.407   1.319
 9137SOL    HW128310   4.704   1.506   1.332
 9137SOL    HW228311   4.640   1.388   1.238
 9138SOL     OW28312   0.383   5.567   5.818
 9138SOL    HW128313   0.325   5.565   5.737
 9138SOL    HW228314   0.375   5.481   5.868
 9139SOL     OW28315   2.735   1.622   4.297
 9139SOL    HW128316   2.777   1.713   4.298
 9139SOL    HW228317   2.797   1.557   4.341
 9140SOL     OW28318   6.525   3.705   3.031
 9140SOL    HW128319   6.499   3.724   3.125
 9140SOL    HW228320   6.513   3.608   3.011
 9141SOL     OW28321   6.030   0.132   0.093
 9141SOL    HW128322   6.101   0.133   0.164
 9141SOL    HW228323   5.985   0.221   0.089
 9142SOL     OW28324   0.453   2.615   1.541
 9142SOL    HW128325   0.542   2.568   1.542
 9142SOL    HW228326   0.466   2.709   1.507
 9143SOL     OW28327   6.600   3.417   0.268
 9143SOL    HW128328   6.697   3.394   0.272
 9143SOL    HW228329   6.584   3.501   0.319
 9144SOL     OW28330   2.199   5.260   5.312
 9144SOL    HW128331   2.249   5.332   5.361
 9144SOL    HW228332   2.184   5.288   5.218
 9145SOL     OW28333   0.225   5.476   0.385
 9145SOL    HW128334   0.250   5.546   0.318
 9145SOL    HW228335   0.168   5.516   0.457
 9146SOL     OW28336   5.433   2.651   3.035
 9146SOL    HW128337   5.397   2.661   2.942
 9146SOL    HW228338   5.484   2.565   3.042
 9147SOL     OW28339   5.753   0.455   4.680
 9147SOL    HW128340   5.731   0.431   4.585
 9147SOL    HW228341   5.779   0.551   4.684
 9148SOL     OW28342   5.150   5.928   1.009
 9148SOL    HW128343   5.210   5.855   0.976
 9148SOL    HW228344   5.098   5.896   1.088
 9149SOL     OW28345   6.192   3.535   3.402
 9149SOL    HW128346   6.235   3.584   3.326
 9149SOL    HW228347   6.253   3.461   3.432
 9150SOL     OW28348   3.000   5.414   1.791
 9150SOL    HW128349   3.049   5.338   1.747
 9150SOL    HW228350   2.909   5.382   1.819
 9151SOL     OW28351   2.197   4.588   3.207
 9151SOL    HW128352   2.189   4.489   3.196
 9151SOL    HW228353   2.217   4.609   3.303
 9152SOL     OW28354   1.890   4.390   4.604
 9152SOL    HW128355   1.894   4.290   4.603
 9152SOL    HW228356   1.982   4.426   4.619
 9153SOL     OW28357   1.271   3.537   6.439
 9153SOL    HW128358   1.225   3.480   6.507
 9153SOL    HW228359   1.243   3.509   6.347
 9154SOL     OW28360   4.060   4.691   0.044
 9154SOL    HW128361   4.152   4.724   0.062
 9154SOL    HW228362   4.034   4.624   0.114
 9155SOL     OW28363   1.473   3.987   2.122
 9155SOL    HW128364   1.394   3.963   2.179
 9155SOL    HW228365   1.444   3.994   2.027
 9156SOL     OW28366   1.329   2.106   0.270
 9156SOL    HW128367   1.284   2.105   0.359
 9156SOL    HW228368   1.280   2.167   0.208
 9157SOL     OW28369   0.024   4.117   6.127
 9157SOL    HW128370   0.073   4.204   6.134
 9157SOL    HW228371   7.013   4.105   6.034
 9158SOL     OW28372   5.501   3.144   4.469
 9158SOL    HW128373   5.479   3.231   4.513
 9158SOL    HW228374   5.584   3.106   4.511
 9159SOL     OW28375   1.873   0.564   2.546
 9159SOL    HW128376   1.936   0.636   2.576
 9159SOL    HW228377   1.921   0.502   2.484
 9160SOL     OW28378   5.599   6.869   5.395
 9160SOL    HW128379   5.677   6.906   5.344
 9160SOL    HW228380   5.577   6.929   5.472
 9161SOL     OW28381   4.789   4.142   4.517
 9161SOL    HW128382   4.759   4.213   4.454
 9161SOL    HW228383   4.771   4.171   4.611
 9162SOL     OW28384   4.648   1.262   3.984
 9162SOL    HW128385   4.699   1.248   4.069
 9162SOL    HW228386   4.550   1.253   4.002
 9163SOL     OW28387   1.526   2.771   4.667
 9163SOL    HW128388   1.449   2.722   4.706
 9163SOL    HW228389   1.612   2.729   4.699
 9164SOL     OW28390   2.104   0.033   6.858
 9164SOL    HW128391   2.136   0.124   6.885
 9164SOL    HW228392   2.143   6.988   6.921
 9165SOL     OW28393   5.999   1.423   5.865
 9165SOL    HW128394   5.960   1.350   5.920
 9165SOL    HW228395   6.064   1.475   5.919
 9166SOL     OW28396   3.717   6.103   1.660
 9166SOL    HW128397   3.785   6.110   1.586
 9166SOL    HW228398   3.752   6.150   1.741
 9167SOL     OW28399   1.998   2.863   6.181
 9167SOL    HW128400   1.970   2.865   6.085
 9167SOL    HW228401   2.021   2.769   6.208
 9168SOL     OW28402   6.967   7.016   6.369
 9168SOL    HW128403   0.042   7.001   6.380
 9168SOL    HW228404   6.952   0.074   6.312
 9169SOL     OW28405   5.813   6.949   5.222
 9169SOL    HW128406   5.882   6.893   5.268
 9169SOL    HW228407   5.859   7.016   5.163
 9170SOL     OW28408   1.493   6.229   6.911
 9170SOL    HW128409   1.415   6.177   6.874
 9170SOL    HW228410   1.570   6.167   6.925
 9171SOL     OW28411   4.302   4.774   0.882
 9171SOL    HW128412   4.235   4.848   0.882
 9171SOL    HW228413   4.363   4.784   0.960
 9172SOL     OW28414   4.485   1.265   2.207
 9172SOL    HW128415   4.542   1.294   2.130
 9172SOL    HW228416   4.444   1.176   2.187
 9173SOL     OW28417   6.399   3.568   6.040
 9173SOL    HW128418   6.450   3.527   5.965
 9173SOL    HW228419   6.458   3.578   6.119
 9174SOL     OW28420   6.100   4.255   1.225
 9174SOL    HW128421   6.110   4.205   1.311
 9174SOL    HW228422   6.100   4.190   1.149
 9175SOL     OW28423   0.566   0.044   5.646
 9175SOL    HW128424   0.610   0.019   5.732
 9175SOL    HW228425   0.482   7.015   5.634
 9176SOL     OW28426   2.396   1.095   3.908
 9176SOL    HW128427   2.300   1.068   3.914
 9176SOL    HW228428   2.448   1.049   3.980
 9177SOL     OW28429   1.115   4.468   4.559
 9177SOL    HW128430   1.092   4.403   4.631
 9177SOL    HW228431   1.126   4.559   4.598
 9178SOL     OW28432   1.601   5.587   0.455
 9178SOL    HW128433   1.527   5.534   0.498
 9178SOL    HW228434   1.689   5.555   0.491
 9179SOL     OW28435   2.308   4.226   3.561
 9179SOL    HW128436   2.276   4.134   3.580
 9179SOL    HW228437   2.371   4.255   3.633
 9180SOL     OW28438   6.623   2.609   3.282
 9180SOL    HW128439   6.657   2.517   3.261
 9180SOL    HW228440   6.671   2.676   3.224
 9181SOL     OW28441   5.663   2.675   5.012
 9181SOL    HW128442   5.623   2.595   4.966
 9181SOL    HW228443   5.647   2.756   4.956
 9182SOL     OW28444   2.707   6.791   2.259
 9182SOL    HW128445   2.644   6.865   2.283
 9182SOL    HW228446   2.755   6.761   2.341
 9183SOL     OW28447   4.681   4.872   0.571
 9183SOL    HW128448   4.587   4.839   0.559
 9183SOL    HW228449   4.689   4.918   0.660
 9184SOL     OW28450   4.936   2.343   0.310
 9184SOL    HW128451   5.014   2.382   0.358
 9184SOL    HW228452   4.858   2.404   0.319
 9185SOL     OW28453   4.978   6.729   5.098
 9185SOL    HW128454   4.900   6.762   5.046
 9185SOL    HW228455   5.054   6.794   5.091
 9186SOL     OW28456   5.794   5.759   4.889
 9186SOL    HW128457   5.847   5.840   4.864
 9186SOL    HW228458   5.702   5.787   4.916
 9187SOL     OW28459   2.758   2.399   0.239
 9187SOL    HW128460   2.793   2.378   0.330
 9187SOL    HW228461   2.721   2.492   0.238
 9188SOL     OW28462   1.689   6.939   1.092
 9188SOL    HW128463   1.696   6.848   1.049
 9188SOL    HW228464   1.717   6.932   1.188
 9189SOL     OW28465   2.822   5.965   2.225
 9189SOL    HW128466   2.820   6.029   2.149
 9189SOL    HW228467   2.817   6.015   2.311
 9190SOL     OW28468   1.835   4.621   5.556
 9190SOL    HW128469   1.809   4.608   5.461
 9190SOL    HW228470   1.888   4.705   5.566
 9191SOL     OW28471   6.186   1.492   6.498
 9191SOL    HW128472   6.186   1.570   6.436
 9191SOL    HW228473   6.113   1.428   6.472
 9192SOL     OW28474   0.686   2.391   6.074
 9192SOL    HW128475   0.742   2.331   6.131
 9192SOL    HW228476   0.705   2.487   6.097
 9193SOL     OW28477   3.641   4.145   5.906
 9193SOL    HW128478   3.547   4.139   5.875
 9193SOL    HW228479   3.672   4.240   5.904
 9194SOL     OW28480   3.387   1.165   3.365
 9194SOL    HW128481   3.328   1.204   3.294
 9194SOL    HW228482   3.401   1.232   3.438
 9195SOL     OW28483   0.441   2.355   2.874
 9195SOL    HW128484   0.356   2.392   2.910
 9195SOL    HW228485   0.500   2.430   2.843
 9196SOL     OW28486   5.826   0.461   3.443
 9196SOL    HW128487   5.833   0.473   3.542
 9196SOL    HW228488   5.806   0.550   3.400
 9197SOL     OW28489   1.708   5.075   1.488
 9197SOL    HW128490   1.610   5.083   1.504
 9197SOL    HW228491   1.737   4.980   1.506
 9198SOL     OW28492   6.428   4.577   6.377
 9198SOL    HW128493   6.396   4.490   6.337
 9198SOL    HW228494   6.458   4.561   6.471
 9199SOL     OW28495   0.687   3.619   5.123
 9199SOL    HW128496   0.616   3.641   5.190
 9199SOL    HW228497   0.645   3.578   5.042
 9200SOL     OW28498   3.204   6.285   6.818
 9200SOL    HW128499   3.136   6.318   6.883
 9200SOL    HW228500   3.204   6.344   6.737
 9201SOL     OW28501   0.630   3.281   0.313
 9201SOL    HW128502   0.538   3.263   0.278
 9201SOL    HW228503   0.689   3.310   0.238
 9202SOL     OW28504   0.736   6.429   2.837
 9202SOL    HW128505   0.777   6.341   2.859
 9202SOL    HW228506   0.684   6.421   2.752
 9203SOL     OW28507   0.139   3.373   5.686
 9203SOL    HW128508   0.107   3.284   5.655
 9203SOL    HW228509   0.239   3.376   5.680
 9204SOL     OW28510   4.595   2.920   5.510
 9204SOL    HW128511   4.642   3.008   5.505
 9204SOL    HW228512   4.662   2.849   5.536
 9205SOL     OW28513   5.181   6.108   3.015
 9205SOL    HW128514   5.113   6.174   2.983
 9205SOL    HW228515   5.266   6.121   2.964
 9206SOL     OW28516   3.459   4.928   3.494
 9206SOL    HW128517   3.462   5.022   3.460
 9206SOL    HW228518   3.552   4.891   3.499
 9207SOL     OW28519   5.531   4.592   6.114
 9207SOL    HW128520   5.443   4.594   6.067
 9207SOL    HW228521   5.560   4.497   6.128
 9208SOL     OW28522   5.645   4.559   3.760
 9208SOL    HW128523   5.554   4.597   3.769
 9208SOL    HW228524   5.639   4.469   3.716
 9209SOL     OW28525   4.265   0.738   0.480
 9209SOL    HW128526   4.239   0.781   0.394
 9209SOL    HW228527   4.316   0.654   0.461
 9210SOL     OW28528   0.798   1.548   1.834
 9210SOL    HW128529   0.814   1.475   1.901
 9210SOL    HW228530   0.803   1.510   1.742
 9211SOL     OW28531   6.740   2.889   5.940
 9211SOL    HW128532   6.679   2.945   5.884
 9211SOL    HW228533   6.753   2.800   5.896
 9212SOL     OW28534   4.260   5.333   4.105
 9212SOL    HW128535   4.263   5.354   4.203
 9212SOL    HW228536   4.347   5.292   4.078
 9213SOL     OW28537   5.400   3.764   5.157
 9213SOL    HW128538   5.495   3.779   5.130
 9213SOL    HW228539   5.340   3.824   5.104
 9214SOL     OW28540   6.999   3.908   5.704
 9214SOL    HW128541   0.046   3.957   5.653
 9214SOL    HW228542   6.930   3.872   5.641
 9215SOL     OW28543   1.597   3.010   1.974
 9215SOL    HW128544   1.530   3.011   1.899
 9215SOL    HW228545   1.680   3.058   1.945
 9216SOL     OW28546   3.576   7.003   2.255
 9216SOL    HW128547   3.535   6.963   2.174
 9216SOL    HW228548   3.673   7.022   2.238
 9217SOL     OW28549   6.873   3.081   6.775
 9217SOL    HW128550   6.789   3.036   6.804
 9217SOL    HW228551   6.881   3.075   6.675
 9218SOL     OW28552   2.247   0.982   6.979
 9218SOL    HW128553   2.150   0.991   6.958
 9218SOL    HW228554   2.292   1.071   6.974
 9219SOL     OW28555   5.869   3.548   0.215
 9219SOL    HW128556   5.932   3.624   0.228
 9219SOL    HW228557   5.863   3.525   0.118
 9220SOL     OW28558   1.151   6.165   1.621
 9220SOL    HW128559   1.159   6.068   1.643
 9220SOL    HW228560   1.057   6.186   1.593
 9221SOL     OW28561   2.302   0.577   3.236
 9221SOL    HW128562   2.337   0.670   3.230
 9221SOL    HW228563   2.378   0.515   3.256
 9222SOL     OW28564   2.551   6.076   6.086
 9222SOL    HW128565   2.557   5.977   6.097
 9222SOL    HW228566   2.614   6.106   6.014
 9223SOL     OW28567   1.024   2.245   4.328
 9223SOL    HW128568   0.985   2.166   4.281
 9223SOL    HW228569   1.027   2.323   4.266
 9224SOL     OW28570   1.348   5.415   3.840
 9224SOL    HW128571   1.275   5.360   3.882
 9224SOL    HW228572   1.324   5.512   3.848
 9225SOL     OW28573   3.129   6.303   6.502
 9225SOL    HW128574   3.113   6.390   6.549
 9225SOL    HW228575   3.053   6.285   6.439
 9226SOL     OW28576   6.088   6.320   1.429
 9226SOL    HW128577   6.101   6.413   1.461
 9226SOL    HW228578   6.035   6.321   1.343
 9227SOL     OW28579   1.942   5.544   0.674
 9227SOL    HW128580   1.956   5.641   0.693
 9227SOL    HW228581   2.031   5.501   0.655
 9228SOL     OW28582   2.147   2.045   5.945
 9228SOL    HW128583   2.080   2.044   5.871
 9228SOL    HW228584   2.192   2.134   5.949
 9229SOL     OW28585   0.947   6.100   5.254
 9229SOL    HW128586   1.018   6.030   5.263
 9229SOL    HW228587   0.988   6.187   5.229
 9230SOL     OW28588   5.323   2.394   3.203
 9230SOL    HW128589   5.332   2.304   3.246
 9230SOL    HW228590   5.227   2.411   3.182
 9231SOL     OW28591   0.529   3.026   4.481
 9231SOL    HW128592   0.452   3.019   4.417
 9231SOL    HW228593   0.505   2.981   4.566
 9232SOL     OW28594   4.060   5.455   0.819
 9232SOL    HW128595   4.132   5.478   0.753
 9232SOL    HW228596   3.988   5.524   0.814
 9233SOL     OW28597   5.737   5.455   2.027
 9233SOL    HW128598   5.772   5.545   2.053
 9233SOL    HW228599   5.795   5.417   1.955
 9234SOL     OW28600   3.517   5.905   6.731
 9234SOL    HW128601   3.425   5.945   6.735
 9234SOL    HW228602   3.510   5.807   6.711
 9235SOL     OW28603   1.335   3.299   3.383
 9235SOL    HW128604   1.429   3.280   3.411
 9235SOL    HW228605   1.300   3.223   3.328
 9236SOL     OW28606   1.942   4.247   5.906
 9236SOL    HW128607   1.930   4.298   5.821
 9236SOL    HW228608   2.030   4.199   5.904
 9237SOL     OW28609   0.803   6.274   4.191
 9237SOL    HW128610   0.710   6.298   4.163
 9237SOL    HW228611   0.817   6.176   4.177
 9238SOL     OW28612   2.459   1.748   0.076
 9238SOL    HW128613   2.423   1.834   0.040
 9238SOL    HW228614   2.385   1.682   0.084
 9239SOL     OW28615   6.900   3.811   6.925
 9239SOL    HW128616   6.820   3.809   6.865
 9239SOL    HW228617   6.894   3.889   6.987
 9240SOL     OW28618   4.761   1.839   2.038
 9240SOL    HW128619   4.834   1.882   2.092
 9240SOL    HW228620   4.677   1.893   2.047
 9241SOL     OW28621   1.101   5.435   5.772
 9241SOL    HW128622   1.157   5.353   5.760
 9241SOL    HW228623   1.072   5.468   5.682
 9242SOL     OW28624   0.835   4.904   6.987
 9242SOL    HW128625   0.867   4.997   6.967
 9242SOL    HW228626   0.830   4.852   6.902
 9243SOL     OW28627   0.154   6.219   1.378
 9243SOL    HW128628   0.155   6.122   1.404
 9243SOL    HW228629   0.099   6.230   1.295
 9244SOL     OW28630   3.951   5.724   6.916
 9244SOL    HW128631   3.986   5.803   6.865
 9244SOL    HW228632   4.028   5.667   6.946
 9245SOL     OW28633   1.731   5.058   3.135
 9245SOL    HW128634   1.808   5.113   3.168
 9245SOL    HW228635   1.766   4.978   3.088
 9246SOL     OW28636   6.684   5.377   2.498
 9246SOL    HW128637   6.629   5.294   2.498
 9246SOL    HW228638   6.651   5.440   2.428
 9247SOL     OW28639   1.317   0.034   3.002
 9247SOL    HW128640   1.359   0.122   3.025
 9247SOL    HW228641   1.363   6.984   3.054
 9248SOL     OW28642   2.361   2.131   4.475
 9248SOL    HW128643   2.343   2.033   4.487
 9248SOL    HW228644   2.347   2.156   4.379
 9249SOL     OW28645   3.567   3.705   0.454
 9249SOL    HW128646   3.508   3.644   0.401
 9249SOL    HW228647   3.516   3.787   0.479
 9250SOL     OW28648   5.507   3.038   3.717
 9250SOL    HW128649   5.415   3.043   3.679
 9250SOL    HW228650   5.531   3.125   3.760
 9251SOL     OW28651   4.057   1.752   2.810
 9251SOL    HW128652   4.052   1.834   2.868
 9251SOL    HW228653   4.026   1.775   2.718
 9252SOL     OW28654   5.034   7.021   3.928
 9252SOL    HW128655   5.090   7.016   3.845
 9252SOL    HW228656   5.035   6.932   3.974
 9253SOL     OW28657   5.692   6.486   5.505
 9253SOL    HW128658   5.625   6.510   5.435
 9253SOL    HW228659   5.651   6.495   5.596
 9254SOL     OW28660   6.433   5.036   3.156
 9254SOL    HW128661   6.435   4.936   3.153
 9254SOL    HW228662   6.485   5.072   3.078
 9255SOL     OW28663   4.529   4.076   0.059
 9255SOL    HW128664   4.512   4.174   0.073
 9255SOL    HW228665   4.533   4.056   6.984
 9256SOL     OW28666   3.501   0.228   2.861
 9256SOL    HW128667   3.426   0.222   2.795
 9256SOL    HW228668   3.485   0.306   2.922
 9257SOL     OW28669   0.271   4.090   3.226
 9257SOL    HW128670   0.173   4.084   3.209
 9257SOL    HW228671   0.291   4.176   3.273
 9258SOL     OW28672   3.051   3.070   2.246
 9258SOL    HW128673   3.014   3.163   2.242
 9258SOL    HW228674   3.042   3.033   2.338
 9259SOL     OW28675   1.225   2.235   0.493
 9259SOL    HW128676   1.260   2.186   0.573
 9259SOL    HW228677   1.265   2.327   0.489
 9260SOL     OW28678   5.637   1.338   4.674
 9260SOL    HW128679   5.603   1.431   4.663
 9260SOL    HW228680   5.720   1.340   4.730
 9261SOL     OW28681   3.009   1.007   0.454
 9261SOL    HW128682   3.023   1.104   0.433
 9261SOL    HW228683   2.967   0.961   0.375
 9262SOL     OW28684   0.092   4.318   5.650
 9262SOL    HW128685   0.052   4.303   5.559
 9262SOL    HW228686   0.029   4.372   5.706
 9263SOL     OW28687   5.067   6.646   1.094
 9263SOL    HW128688   5.137   6.709   1.062
 9263SOL    HW228689   5.084   6.555   1.057
 9264SOL     OW28690   4.457   5.225   0.371
 9264SOL    HW128691   4.554   5.218   0.390
 9264SOL    HW228692   4.439   5.203   0.275
 9265SOL     OW28693   4.076   1.726   0.625
 9265SOL    HW128694   4.075   1.671   0.542
 9265SOL    HW228695   4.075   1.823   0.600
 9266SOL     OW28696   2.405   6.898   1.363
 9266SOL    HW128697   2.379   6.807   1.332
 9266SOL    HW228698   2.405   6.961   1.285
 9267SOL     OW28699   6.715   3.119   4.572
 9267SOL    HW128700   6.691   3.022   4.564
 9267SOL    HW228701   6.769   3.147   4.492
 9268SOL     OW28702   0.968   4.935   2.035
 9268SOL    HW128703   0.871   4.960   2.045
 9268SOL    HW228704   0.976   4.858   1.972
 9269SOL     OW28705   3.216   1.555   6.031
 9269SOL    HW128706   3.264   1.479   6.074
 9269SOL    HW228707   3.119   1.531   6.020
 9270SOL     OW28708   4.439   6.475   5.927
 9270SOL    HW128709   4.387   6.395   5.898
 9270SOL    HW228710   4.425   6.489   6.025
 9271SOL     OW28711   6.549   6.856   0.081
 9271SOL    HW128712   6.552   6.782   0.015
 9271SOL    HW228713   6.454   6.876   0.105
 9272SOL     OW28714   1.157   5.906   4.570
 9272SOL    HW128715   1.250   5.877   4.590
 9272SOL    HW228716   1.131   5.981   4.632
 9273SOL     OW28717   6.062   6.642   3.169
 9273SOL    HW128718   6.034   6.593   3.251
 9273SOL    HW228719   5.984   6.695   3.134
 9274SOL     OW28720   6.747   1.969   6.691
 9274SOL    HW128721   6.689   1.970   6.773
 9274SOL    HW228722   6.804   2.051   6.689
 9275SOL     OW28723   0.130   0.909   0.191
 9275SOL    HW128724   0.121   0.827   0.248
 9275SOL    HW228725   0.140   0.882   0.096
 9276SOL     OW28726   1.849   3.688   1.856
 9276SOL    HW128727   1.942   3.656   1.870
 9276SOL    HW228728   1.798   3.620   1.803
 9277SOL     OW28729   4.587   4.005   6.807
 9277SOL    HW128730   4.498   4.021   6.764
 9277SOL    HW228731   4.658   4.009   6.738
 9278SOL     OW28732   1.818   0.329   5.989
 9278SOL    HW128733   1.772   0.408   5.949
 9278SOL    HW228734   1.905   0.313   5.942
 9279SOL     OW28735   4.615   0.660   1.937
 9279SOL    HW128736   4.622   0.685   1.841
 9279SOL    HW228737   4.581   0.738   1.990
 9280SOL     OW28738   1.895   1.855   3.214
 9280SOL    HW128739   1.943   1.935   3.252
 9280SOL    HW228740   1.958   1.802   3.158
 9281SOL     OW28741   2.563   4.218   0.429
 9281SOL    HW128742   2.493   4.217   0.499
 9281SOL    HW228743   2.523   4.191   0.341
 9282SOL     OW28744   4.830   1.139   3.827
 9282SOL    HW128745   4.908   1.107   3.881
 9282SOL    HW228746   4.762   1.179   3.888
 9283SOL     OW28747   5.294   0.694   4.075
 9283SOL    HW128748   5.270   0.653   3.987
 9283SOL    HW228749   5.272   0.630   4.148
 9284SOL     OW28750   3.346   3.268   5.870
 9284SOL    HW128751   3.261   3.215   5.867
 9284SOL    HW228752   3.382   3.278   5.777
 9285SOL     OW28753   4.805   2.554   0.807
 9285SOL    HW128754   4.751   2.569   0.724
 9285SOL    HW228755   4.799   2.458   0.835
 9286SOL     OW28756   5.111   5.867   0.527
 9286SOL    HW128757   5.153   5.859   0.437
 9286SOL    HW228758   5.145   5.950   0.572
 9287SOL     OW28759   3.387   5.179   0.064
 9287SOL    HW128760   3.409   5.142   6.997
 9287SOL    HW228761   3.435   5.126   0.134
 9288SOL     OW28762   4.875   1.279   3.598
 9288SOL    HW128763   4.842   1.230   3.678
 9288SOL    HW228764   4.869   1.378   3.613
 9289SOL     OW28765   3.823   1.284   2.349
 9289SOL    HW128766   3.785   1.242   2.267
 9289SOL    HW228767   3.751   1.333   2.398
 9290SOL     OW28768   5.174   1.419   3.079
 9290SOL    HW128769   5.151   1.494   3.142
 9290SOL    HW228770   5.111   1.420   3.002
 9291SOL     OW28771   1.436   6.423   4.049
 9291SOL    HW128772   1.432   6.334   4.004
 9291SOL    HW228773   1.500   6.419   4.126
 9292SOL     OW28774   1.704   3.137   6.788
 9292SOL    HW128775   1.761   3.071   6.836
 9292SOL    HW228776   1.625   3.090   6.748
 9293SOL     OW28777   5.002   3.530   6.797
 9293SOL    HW128778   5.038   3.461   6.858
 9293SOL    HW228779   5.076   3.589   6.765
 9294SOL     OW28780   4.768   0.523   5.180
 9294SOL    HW128781   4.670   0.540   5.171
 9294SOL    HW228782   4.785   0.468   5.262
 9295SOL     OW28783   5.569   2.198   4.575
 9295SOL    HW128784   5.534   2.214   4.482
 9295SOL    HW228785   5.518   2.255   4.639
 9296SOL     OW28786   0.975   6.290   6.934
 9296SOL    HW128787   0.917   6.307   7.014
 9296SOL    HW228788   1.070   6.309   6.958
 9297SOL     OW28789   6.457   0.306   0.906
 9297SOL    HW128790   6.545   0.279   0.944
 9297SOL    HW228791   6.390   0.315   0.980
 9298SOL     OW28792   0.684   0.034   5.375
 9298SOL    HW128793   0.660   0.046   5.472
 9298SOL    HW228794   0.684   0.123   5.330
 9299SOL     OW28795   0.508   2.451   5.226
 9299SOL    HW128796   0.539   2.518   5.158
 9299SOL    HW228797   0.475   2.369   5.179
 9300SOL     OW28798   0.396   4.838   5.758
 9300SOL    HW128799   0.428   4.933   5.760
 9300SOL    HW228800   0.414   4.795   5.846
 9301SOL     OW28801   5.273   5.051   3.670
 9301SOL    HW128802   5.204   5.050   3.742
 9301SOL    HW228803   5.230   5.031   3.582
 9302SOL     OW28804   2.207   2.943   3.907
 9302SOL    HW128805   2.169   3.013   3.967
 9302SOL    HW228806   2.262   2.879   3.961
 9303SOL     OW28807   2.820   4.346   1.120
 9303SOL    HW128808   2.774   4.288   1.188
 9303SOL    HW228809   2.827   4.439   1.155
 9304SOL     OW28810   4.089   5.060   1.673
 9304SOL    HW128811   4.183   5.027   1.668
 9304SOL    HW228812   4.058   5.059   1.768
 9305SOL     OW28813   3.340   1.450   0.734
 9305SOL    HW128814   3.377   1.357   0.731
 9305SOL    HW228815   3.278   1.464   0.656
 9306SOL     OW28816   0.320   5.375   4.827
 9306SOL    HW128817   0.227   5.382   4.792
 9306SOL    HW228818   0.373   5.454   4.796
 9307SOL     OW28819   1.972   3.378   1.861
 9307SOL    HW128820   1.997   3.376   1.764
 9307SOL    HW228821   2.055   3.381   1.917
 9308SOL     OW28822   1.907   3.485   0.221
 9308SOL    HW128823   1.908   3.393   0.181
 9308SOL    HW228824   1.816   3.524   0.210
 9309SOL     OW28825   3.562   4.446   6.114
 9309SOL    HW128826   3.514   4.498   6.186
 9309SOL    HW228827   3.638   4.396   6.155
 9310SOL     OW28828   4.691   5.209   6.601
 9310SOL    HW128829   4.660   5.279   6.665
 9310SOL    HW228830   4.790   5.217   6.588
 9311SOL     OW28831   4.334   5.079   2.015
 9311SOL    HW128832   4.402   5.006   2.006
 9311SOL    HW228833   4.347   5.146   1.943
 9312SOL     OW28834   1.233   3.615   1.163
 9312SOL    HW128835   1.195   3.543   1.105
 9312SOL    HW228836   1.330   3.598   1.179
 9313SOL     OW28837   0.207   0.855   1.409
 9313SOL    HW128838   0.235   0.858   1.505
 9313SOL    HW228839   0.107   0.851   1.404
 9314SOL     OW28840   5.037   4.901   6.483
 9314SOL    HW128841   5.051   4.931   6.578
 9314SOL    HW228842   5.008   4.978   6.427
 9315SOL     OW28843   5.971   0.726   5.015
 9315SOL    HW128844   5.883   0.740   5.061
 9315SOL    HW228845   6.011   0.815   4.994
 9316SOL     OW28846   4.882   6.144   5.929
 9316SOL    HW128847   4.848   6.236   5.910
 9316SOL    HW228848   4.877   6.088   5.847
 9317SOL     OW28849   5.428   5.281   3.659
 9317SOL    HW128850   5.394   5.190   3.636
 9317SOL    HW228851   5.451   5.285   3.756
 9318SOL     OW28852   5.750   0.726   5.830
 9318SOL    HW128853   5.767   0.793   5.903
 9318SOL    HW228854   5.773   0.635   5.863
 9319SOL     OW28855   2.014   3.045   6.865
 9319SOL    HW128856   1.992   3.105   6.788
 9319SOL    HW228857   2.113   3.046   6.881
 9320SOL     OW28858   3.694   0.243   5.068
 9320SOL    HW128859   3.749   0.206   5.144
 9320SOL    HW228860   3.700   0.181   4.990
 9321SOL     OW28861   0.043   0.364   3.746
 9321SOL    HW128862   7.005   0.343   3.823
 9321SOL    HW228863   0.007   0.322   3.663
 9322SOL     OW28864   0.473   3.252   6.897
 9322SOL    HW128865   0.552   3.294   6.944
 9322SOL    HW228866   0.390   3.270   6.950
 9323SOL     OW28867   1.431   0.823   5.995
 9323SOL    HW128868   1.449   0.736   5.950
 9323SOL    HW228869   1.389   0.806   6.085
 9324SOL     OW28870   0.998   4.178   1.125
 9324SOL    HW128871   0.953   4.089   1.114
 9324SOL    HW228872   0.983   4.233   1.042
 9325SOL     OW28873   5.592   1.043   0.152
 9325SOL    HW128874   5.552   0.955   0.125
 9325SOL    HW228875   5.618   1.039   0.249
 9326SOL     OW28876   2.208   5.369   0.647
 9326SOL    HW128877   2.270   5.338   0.575
 9326SOL    HW228878   2.240   5.457   0.683
 9327SOL     OW28879   5.373   0.888   2.612
 9327SOL    HW128880   5.299   0.914   2.549
 9327SOL    HW228881   5.439   0.963   2.618
 9328SOL     OW28882   2.377   1.024   5.301
 9328SOL    HW128883   2.289   1.060   5.332
 9328SOL    HW228884   2.417   0.967   5.373
 9329SOL     OW28885   6.041   3.720   1.029
 9329SOL    HW128886   5.987   3.648   0.985
 9329SOL    HW228887   5.988   3.761   1.103
 9330SOL     OW28888   6.590   0.219   5.921
 9330SOL    HW128889   6.685   0.231   5.891
 9330SOL    HW228890   6.531   0.205   5.841
 9331SOL     OW28891   2.434   1.058   0.318
 9331SOL    HW128892   2.366   1.026   0.384
 9331SOL    HW228893   2.419   1.155   0.299
 9332SOL     OW28894   4.255   4.273   1.370
 9332SOL    HW128895   4.347   4.236   1.382
 9332SOL    HW228896   4.236   4.286   1.273
 9333SOL     OW28897   4.172   4.157   0.114
 9333SOL    HW128898   4.222   4.217   0.177
 9333SOL    HW228899   4.143   4.075   0.164
 9334SOL     OW28900   5.573   6.203   3.199
 9334SOL    HW128901   5.511   6.179   3.123
 9334SOL    HW228902   5.532   6.172   3.285
 9335SOL     OW28903   0.980   1.134   6.741
 9335SOL    HW128904   1.034   1.053   6.719
 9335SOL    HW228905   1.020   1.214   6.696
 9336SOL     OW28906   3.247   5.724   5.918
 9336SOL    HW128907   3.202   5.657   5.859
 9336SOL    HW228908   3.211   5.716   6.011
 9337SOL     OW28909   4.191   1.806   4.847
 9337SOL    HW128910   4.197   1.826   4.749
 9337SOL    HW228911   4.097   1.781   4.870
 9338SOL     OW28912   5.396   0.350   2.161
 9338SOL    HW128913   5.337   0.403   2.100
 9338SOL    HW228914   5.339   0.294   2.222
 9339SOL     OW28915   6.124   6.659   1.309
 9339SOL    HW128916   6.144   6.668   1.211
 9339SOL    HW228917   6.027   6.676   1.325
 9340SOL     OW28918   4.483   4.424   3.891
 9340SOL    HW128919   4.422   4.467   3.957
 9340SOL    HW228920   4.447   4.437   3.799
 9341SOL     OW28921   0.703   5.881   1.010
 9341SOL    HW128922   0.657   5.814   1.068
 9341SOL    HW228923   0.673   5.869   0.915
 9342SOL     OW28924   2.685   6.327   4.129
 9342SOL    HW128925   2.636   6.284   4.052
 9342SOL    HW228926   2.782   6.333   4.106
 9343SOL     OW28927   5.342   4.080   2.174
 9343SOL    HW128928   5.256   4.071   2.225
 9343SOL    HW228929   5.337   4.023   2.092
 9344SOL     OW28930   4.550   6.569   3.039
 9344SOL    HW128931   4.564   6.637   2.968
 9344SOL    HW228932   4.453   6.564   3.063
 9345SOL     OW28933   6.734   5.711   2.012
 9345SOL    HW128934   6.812   5.715   2.074
 9345SOL    HW228935   6.650   5.729   2.063
 9346SOL     OW28936   5.592   1.195   0.989
 9346SOL    HW128937   5.540   1.121   0.946
 9346SOL    HW228938   5.689   1.179   0.977
 9347SOL     OW28939   2.904   3.850   0.225
 9347SOL    HW128940   2.850   3.898   0.155
 9347SOL    HW228941   2.889   3.752   0.217
 9348SOL     OW28942   3.027   6.641   2.373
 9348SOL    HW128943   2.947   6.616   2.427
 9348SOL    HW228944   3.061   6.561   2.324
 9349SOL     OW28945   6.640   5.063   2.944
 9349SOL    HW128946   6.676   5.010   2.867
 9349SOL    HW228947   6.633   5.159   2.917
 9350SOL     OW28948   6.977   2.809   5.298
 9350SOL    HW128949   7.007   2.904   5.286
 9350SOL    HW228950   0.020   2.747   5.256
 9351SOL     OW28951   3.039   6.986   0.011
 9351SOL    HW128952   3.071   6.930   0.088
 9351SOL    HW228953   2.989   6.928   6.970
 9352SOL     OW28954   3.330   1.602   6.519
 9352SOL    HW128955   3.247   1.599   6.463
 9352SOL    HW228956   3.402   1.649   6.469
 9353SOL     OW28957   0.356   4.261   1.075
 9353SOL    HW128958   0.431   4.237   1.136
 9353SOL    HW228959   0.383   4.245   0.980
 9354SOL     OW28960   0.704   1.546   6.411
 9354SOL    HW128961   0.604   1.541   6.399
 9354SOL    HW228962   0.726   1.623   6.471
 9355SOL     OW28963   0.236   2.178   4.518
 9355SOL    HW128964   0.314   2.194   4.457
 9355SOL    HW228965   0.155   2.221   4.480
 9356SOL     OW28966   4.690   6.649   2.092
 9356SOL    HW128967   4.595   6.665   2.066
 9356SOL    HW228968   4.693   6.596   2.177
 9357SOL     OW28969   1.890   3.527   6.073
 9357SOL    HW128970   1.883   3.586   6.153
 9357SOL    HW228971   1.803   3.527   6.023
 9358SOL     OW28972   6.975   3.095   1.710
 9358SOL    HW128973   6.989   3.011   1.762
 9358SOL    HW228974   6.980   3.074   1.612
 9359SOL     OW28975   1.677   4.221   5.638
 9359SOL    HW128976   1.767   4.203   5.597
 9359SOL    HW228977   1.614   4.148   5.613
 9360SOL     OW28978   0.589   4.416   6.863
 9360SOL    HW128979   0.630   4.479   6.797
 9360SOL    HW228980   0.531   4.351   6.815
 9361SOL     OW28981   1.557   5.588   2.735
 9361SOL    HW128982   1.462   5.620   2.734
 9361SOL    HW228983   1.559   5.490   2.755
 9362SOL     OW28984   1.847   2.273   2.657
 9362SOL    HW128985   1.801   2.207   2.716
 9362SOL    HW228986   1.839   2.364   2.696
 9363SOL     OW28987   3.065   5.927   1.944
 9363SOL    HW128988   3.130   5.936   1.868
 9363SOL    HW228989   2.972   5.928   1.908
 9364SOL     OW28990   2.935   2.906   6.542
 9364SOL    HW128991   2.970   2.992   6.579
 9364SOL    HW228992   2.897   2.923   6.450
 9365SOL     OW28993   2.824   2.105   4.092
 9365SOL    HW128994   2.900   2.167   4.114
 9365SOL    HW228995   2.748   2.122   4.155
 9366SOL     OW28996   3.701   5.265   6.303
 9366SOL    HW128997   3.730   5.329   6.374
 9366SOL    HW228998   3.731   5.299   6.213
 9367SOL     OW28999   6.857   6.687   2.492
 9367SOL    HW129000   6.915   6.758   2.531
 9367SOL    HW229001   6.832   6.712   2.398
 9368SOL     OW29002   3.707   0.731   3.071
 9368SOL    HW129003   3.711   0.637   3.038
 9368SOL    HW229004   3.684   0.732   3.168
 9369SOL     OW29005   6.863   6.839   3.603
 9369SOL    HW129006   6.769   6.859   3.630
 9369SOL    HW229007   6.864   6.812   3.507
 9370SOL     OW29008   5.486   0.234   4.510
 9370SOL    HW129009   5.556   0.165   4.489
 9370SOL    HW229010   5.398   0.189   4.525
 9371SOL     OW29011   2.448   5.035   0.445
 9371SOL    HW129012   2.469   4.966   0.514
 9371SOL    HW229013   2.410   4.990   0.364
 9372SOL     OW29014   4.884   6.500   1.272
 9372SOL    HW129015   4.822   6.462   1.203
 9372SOL    HW229016   4.939   6.572   1.230
 9373SOL     OW29017   4.839   2.524   1.569
 9373SOL    HW129018   4.885   2.601   1.612
 9373SOL    HW229019   4.821   2.543   1.473
 9374SOL     OW29020   0.471   2.447   0.367
 9374SOL    HW129021   0.543   2.514   0.346
 9374SOL    HW229022   0.472   2.427   0.465
 9375SOL     OW29023   0.655   1.883   1.104
 9375SOL    HW129024   0.736   1.941   1.115
 9375SOL    HW229025   0.573   1.940   1.110
 9376SOL     OW29026   2.331   4.210   1.560
 9376SOL    HW129027   2.423   4.187   1.591
 9376SOL    HW229028   2.267   4.197   1.635
 9377SOL     OW29029   1.699   5.137   3.518
 9377SOL    HW129030   1.685   5.235   3.501
 9377SOL    HW229031   1.792   5.112   3.492
 9378SOL     OW29032   2.629   1.520   3.319
 9378SOL    HW129033   2.580   1.566   3.392
 9378SOL    HW229034   2.727   1.517   3.341
 9379SOL     OW29035   5.144   0.236   5.715
 9379SOL    HW129036   5.225   0.291   5.734
 9379SOL    HW229037   5.105   0.262   5.627
 9380SOL     OW29038   4.179   5.456   5.357
 9380SOL    HW129039   4.126   5.425   5.279
 9380SOL    HW229040   4.247   5.523   5.326
 9381SOL     OW29041   5.131   3.154   5.755
 9381SOL    HW129042   5.146   3.253   5.751
 9381SOL    HW229043   5.035   3.135   5.775
 9382SOL     OW29044   4.214   7.012   4.130
 9382SOL    HW129045   4.252   6.975   4.214
 9382SOL    HW229046   4.241   0.085   4.121
 9383SOL     OW29047   5.746   5.031   4.449
 9383SOL    HW129048   5.836   5.031   4.406
 9383SOL    HW229049   5.734   4.946   4.501
 9384SOL     OW29050   4.280   6.853   1.795
 9384SOL    HW129051   4.300   6.934   1.739
 9384SOL    HW229052   4.191   6.865   1.838
 9385SOL     OW29053   4.400   1.528   3.905
 9385SOL    HW129054   4.499   1.523   3.920
 9385SOL    HW229055   4.380   1.521   3.807
 9386SOL     OW29056   3.166   6.141   5.356
 9386SOL    HW129057   3.174   6.051   5.398
 9386SOL    HW229058   3.167   6.131   5.256
 9387SOL     OW29059   2.460   2.253   0.312
 9387SOL    HW129060   2.515   2.247   0.396
 9387SOL    HW229061   2.520   2.241   0.233
 9388SOL     OW29062   2.448   6.134   3.370
 9388SOL    HW129063   2.530   6.083   3.344
 9388SOL    HW229064   2.475   6.213   3.426
 9389SOL     OW29065   2.976   0.343   3.209
 9389SOL    HW129066   3.069   0.309   3.225
 9389SOL    HW229067   2.960   0.352   3.111
 9390SOL     OW29068   5.567   4.816   6.486
 9390SOL    HW129069   5.500   4.751   6.450
 9390SOL    HW229070   5.650   4.811   6.432
 9391SOL     OW29071   0.868   0.382   6.302
 9391SOL    HW129072   0.920   0.457   6.343
 9391SOL    HW229073   0.900   0.367   6.209
 9392SOL     OW29074   5.356   5.196   5.336
 9392SOL    HW129075   5.381   5.211   5.241
 9392SOL    HW229076   5.439   5.180   5.391
 9393SOL     OW29077   2.556   6.966   5.729
 9393SOL    HW129078   2.505   6.907   5.792
 9393SOL    HW229079   2.501   0.024   5.709
 9394SOL     OW29080   6.535   0.765   1.403
 9394SOL    HW129081   6.479   0.823   1.462
 9394SOL    HW229082   6.521   0.791   1.308
 9395SOL     OW29083   2.600   1.004   0.884
 9395SOL    HW129084   2.509   1.000   0.842
 9395SOL    HW229085   2.662   1.054   0.825
 9396SOL     OW29086   1.999   4.411   4.894
 9396SOL    HW129087   1.954   4.329   4.930
 9396SOL    HW229088   2.088   4.386   4.855
 9397SOL     OW29089   2.749   6.196   5.939
 9397SOL    HW129090   2.808   6.199   6.020
 9397SOL    HW229091   2.798   6.235   5.861
 9398SOL     OW29092   5.791   1.264   6.200
 9398SOL    HW129093   5.709   1.321   6.195
 9398SOL    HW229094   5.770   1.180   6.248
 9399SOL     OW29095   0.930   2.958   4.885
 9399SOL    HW129096   0.912   2.914   4.973
 9399SOL    HW229097   0.986   3.039   4.899
 9400SOL     OW29098   4.780   0.819   1.231
 9400SOL    HW129099   4.710   0.858   1.172
 9400SOL    HW229100   4.790   0.875   1.313
 9401SOL     OW29101   6.655   2.191   2.795
 9401SOL    HW129102   6.663   2.095   2.765
 9401SOL    HW229103   6.678   2.251   2.718
 9402SOL     OW29104   1.462   4.209   3.112
 9402SOL    HW129105   1.525   4.265   3.166
 9402SOL    HW229106   1.376   4.198   3.163
 9403SOL     OW29107   6.212   1.721   1.707
 9403SOL    HW129108   6.255   1.760   1.788
 9403SOL    HW229109   6.262   1.751   1.625
 9404SOL     OW29110   0.714   2.053   1.434
 9404SOL    HW129111   0.691   1.961   1.469
 9404SOL    HW229112   0.786   2.045   1.366
 9405SOL     OW29113   2.238   4.083   3.922
 9405SOL    HW129114   2.145   4.105   3.895
 9405SOL    HW229115   2.239   3.994   3.968
 9406SOL     OW29116   0.707   2.627   6.930
 9406SOL    HW129117   0.684   2.720   6.902
 9406SOL    HW229118   0.633   2.589   6.986
 9407SOL     OW29119   2.712   5.227   4.071
 9407SOL    HW129120   2.803   5.252   4.103
 9407SOL    HW229121   2.710   5.230   3.971
 9408SOL     OW29122   6.892   2.921   6.151
 9408SOL    HW129123   6.940   3.006   6.170
 9408SOL    HW229124   6.856   2.922   6.058
 9409SOL     OW29125   6.629   6.108   1.506
 9409SOL    HW129126   6.560   6.084   1.575
 9409SOL    HW229127   6.678   6.191   1.535
 9410SOL     OW29128   3.218   0.390   1.970
 9410SOL    HW129129   3.121   0.385   1.992
 9410SOL    HW229130   3.251   0.299   1.946
 9411SOL     OW29131   3.704   2.971   3.051
 9411SOL    HW129132   3.778   3.037   3.068
 9411SOL    HW229133   3.671   2.934   3.138
 9412SOL     OW29134   1.715   0.782   2.304
 9412SOL    HW129135   1.796   0.783   2.245
 9412SOL    HW229136   1.742   0.803   2.398
 9413SOL     OW29137   4.778   4.897   3.268
 9413SOL    HW129138   4.715   4.848   3.329
 9413SOL    HW229139   4.726   4.962   3.213
 9414SOL     OW29140   3.044   1.473   3.609
 9414SOL    HW129141   3.142   1.455   3.604
 9414SOL    HW229142   3.003   1.412   3.677
 9415SOL     OW29143   2.348   6.902   2.281
 9415SOL    HW129144   2.405   6.906   2.364
 9415SOL    HW229145   2.272   6.840   2.297
 9416SOL     OW29146   0.326   1.083   6.123
 9416SOL    HW129147   0.357   0.995   6.159
 9416SOL    HW229148   0.287   1.138   6.197
 9417SOL     OW29149   3.568   0.030   0.844
 9417SOL    HW129150   3.506   6.974   0.844
 9417SOL    HW229151   3.532   0.100   0.782
 9418SOL     OW29152   2.291   1.220   1.674
 9418SOL    HW129153   2.340   1.232   1.588
 9418SOL    HW229154   2.328   1.142   1.724
 9419SOL     OW29155   1.515   3.869   6.144
 9419SOL    HW129156   1.598   3.883   6.197
 9419SOL    HW229157   1.439   3.918   6.187
 9420SOL     OW29158   5.965   4.384   0.266
 9420SOL    HW129159   6.034   4.364   0.196
 9420SOL    HW229160   6.011   4.417   0.349
 9421SOL     OW29161   2.757   5.780   5.081
 9421SOL    HW129162   2.790   5.874   5.075
 9421SOL    HW229163   2.832   5.720   5.108
 9422SOL     OW29164   2.663   5.995   3.239
 9422SOL    HW129165   2.730   5.988   3.313
 9422SOL    HW229166   2.679   6.079   3.188
 9423SOL     OW29167   4.111   6.375   3.431
 9423SOL    HW129168   4.128   6.312   3.507
 9423SOL    HW229169   4.184   6.443   3.427
 9424SOL     OW29170   5.290   2.100   4.758
 9424SOL    HW129171   5.329   2.054   4.838
 9424SOL    HW229172   5.266   2.032   4.689
 9425SOL     OW29173   5.661   4.390   1.598
 9425SOL    HW129174   5.719   4.398   1.517
 9425SOL    HW229175   5.567   4.370   1.569
 9426SOL     OW29176   3.361   1.247   6.318
 9426SOL    HW129177   3.377   1.164   6.372
 9426SOL    HW229178   3.272   1.241   6.273
 9427SOL     OW29179   2.563   5.505   2.908
 9427SOL    HW129180   2.637   5.570   2.892
 9427SOL    HW229181   2.475   5.551   2.897
 9428SOL     OW29182   0.098   6.981   0.554
 9428SOL    HW129183   0.115   6.938   0.643
 9428SOL    HW229184   0.177   0.013   0.529
 9429SOL     OW29185   2.099   3.148   4.038
 9429SOL    HW129186   2.013   3.164   3.990
 9429SOL    HW229187   2.090   3.178   4.133
 9430SOL     OW29188   0.358   2.348   4.727
 9430SOL    HW129189   0.298   2.299   4.664
 9430SOL    HW229190   0.453   2.330   4.703
 9431SOL     OW29191   6.444   4.672   1.297
 9431SOL    HW129192   6.501   4.737   1.348
 9431SOL    HW229193   6.352   4.711   1.284
 9432SOL     OW29194   6.417   0.828   4.331
 9432SOL    HW129195   6.338   0.853   4.275
 9432SOL    HW229196   6.435   0.730   4.322
 9433SOL     OW29197   3.310   6.725   2.430
 9433SOL    HW129198   3.214   6.699   2.421
 9433SOL    HW229199   3.320   6.824   2.416
 9434SOL     OW29200   5.383   6.007   2.697
 9434SOL    HW129201   5.367   5.929   2.757
 9434SOL    HW229202   5.447   6.070   2.742
 9435SOL     OW29203   6.939   1.850   2.909
 9435SOL    HW129204   6.858   1.818   2.957
 9435SOL    HW229205   6.966   1.940   2.943
 9436SOL     OW29206   1.615   1.780   2.585
 9436SOL    HW129207   1.647   1.849   2.520
 9436SOL    HW229208   1.518   1.794   2.604
 9437SOL     OW29209   6.969   6.096   3.397
 9437SOL    HW129210   6.918   6.029   3.343
 9437SOL    HW229211   6.973   6.183   3.348
 9438SOL     OW29212   1.125   7.010   1.877
 9438SOL    HW129213   1.044   7.016   1.935
 9438SOL    HW229214   1.154   0.079   1.852
 9439SOL     OW29215   1.103   2.631   0.908
 9439SOL    HW129216   1.172   2.698   0.936
 9439SOL    HW229217   1.142   2.539   0.913
 9440SOL     OW29218   4.110   4.736   3.190
 9440SOL    HW129219   4.152   4.672   3.253
 9440SOL    HW229220   4.113   4.828   3.228
 9441SOL     OW29221   6.526   5.239   5.756
 9441SOL    HW129222   6.606   5.184   5.778
 9441SOL    HW229223   6.556   5.328   5.721
 9442SOL     OW29224   5.046   3.432   1.763
 9442SOL    HW129225   5.112   3.457   1.834
 9442SOL    HW229226   4.974   3.375   1.803
 9443SOL     OW29227   2.499   5.595   0.421
 9443SOL    HW129228   2.430   5.525   0.439
 9443SOL    HW229229   2.482   5.637   0.332
 9444SOL     OW29230   1.469   4.079   0.699
 9444SOL    HW129231   1.541   4.111   0.760
 9444SOL    HW229232   1.396   4.147   0.695
 9445SOL     OW29233   6.875   3.715   3.537
 9445SOL    HW129234   6.937   3.640   3.559
 9445SOL    HW229235   6.795   3.711   3.598
 9446SOL     OW29236   6.989   5.783   4.907
 9446SOL    HW129237   6.978   5.752   5.002
 9446SOL    HW229238   6.919   5.740   4.850
 9447SOL     OW29239   5.523   4.857   3.703
 9447SOL    HW129240   5.484   4.777   3.658
 9447SOL    HW229241   5.452   4.905   3.754
 9448SOL     OW29242   6.501   0.425   6.094
 9448SOL    HW129243   6.439   0.404   6.169
 9448SOL    HW229244   6.517   0.343   6.040
 9449SOL     OW29245   6.334   0.025   0.014
 9449SOL    HW129246   6.417   0.078   7.018
 9449SOL    HW229247   6.276   0.075   0.078
 9450SOL     OW29248   2.226   5.520   3.421
 9450SOL    HW129249   2.160   5.526   3.347
 9450SOL    HW229250   2.289   5.445   3.405
 9451SOL     OW29251   3.732   5.507   5.333
 9451SOL    HW129252   3.789   5.470   5.406
 9451SOL    HW229253   3.743   5.450   5.251
 9452SOL     OW29254   0.975   4.086   0.317
 9452SOL    HW129255   0.978   4.132   0.228
 9452SOL    HW229256   1.024   4.140   0.385
 9453SOL     OW29257   2.928   5.470   2.822
 9453SOL    HW129258   2.955   5.485   2.727
 9453SOL    HW229259   2.911   5.559   2.866
 9454SOL     OW29260   3.495   3.758   6.129
 9454SOL    HW129261   3.426   3.686   6.126
 9454SOL    HW229262   3.578   3.724   6.172
 9455SOL     OW29263   2.311   2.080   3.306
 9455SOL    HW129264   2.215   2.054   3.308
 9455SOL    HW229265   2.327   2.149   3.236
 9456SOL     OW29266   6.592   3.557   0.594
 9456SOL    HW129267   6.525   3.484   0.608
 9456SOL    HW229268   6.553   3.644   0.624
 9457SOL     OW29269   1.053   4.816   4.730
 9457SOL    HW129270   1.071   4.805   4.632
 9457SOL    HW229271   1.136   4.844   4.776
 9458SOL     OW29272   0.792   3.701   6.829
 9458SOL    HW129273   0.838   3.619   6.793
 9458SOL    HW229274   0.753   3.679   6.919
 9459SOL     OW29275   5.592   4.802   4.113
 9459SOL    HW129276   5.673   4.853   4.144
 9459SOL    HW229277   5.572   4.826   4.018
 9460SOL     OW29278   2.025   3.622   4.768
 9460SOL    HW129279   2.094   3.555   4.743
 9460SOL    HW229280   2.067   3.694   4.823
 9461SOL     OW29281   0.730   1.814   1.782
 9461SOL    HW129282   0.807   1.877   1.770
 9461SOL    HW229283   0.762   1.731   1.828
 9462SOL     OW29284   1.376   2.666   3.478
 9462SOL    HW129285   1.339   2.712   3.559
 9462SOL    HW229286   1.423   2.733   3.420
 9463SOL     OW29287   5.353   6.785   1.346
 9463SOL    HW129288   5.325   6.691   1.324
 9463SOL    HW229289   5.436   6.782   1.401
 9464SOL     OW29290   6.252   0.238   0.256
 9464SOL    HW129291   6.284   0.187   0.336
 9464SOL    HW229292   6.198   0.316   0.285
 9465SOL     OW29293   0.332   3.321   1.790
 9465SOL    HW129294   0.295   3.319   1.883
 9465SOL    HW229295   0.334   3.228   1.753
 9466SOL     OW29296   3.484   4.410   5.653
 9466SOL    HW129297   3.385   4.402   5.639
 9466SOL    HW229298   3.526   4.319   5.648
 9467SOL     OW29299   0.840   2.982   0.981
 9467SOL    HW129300   0.902   3.058   0.998
 9467SOL    HW229301   0.771   3.010   0.914
 9468SOL     OW29302   5.986   3.801   6.945
 9468SOL    HW129303   6.065   3.792   7.006
 9468SOL    HW229304   6.017   3.805   6.851
 9469SOL     OW29305   0.524   5.685   1.184
 9469SOL    HW129306   0.511   5.612   1.251
 9469SOL    HW229307   0.440   5.737   1.174
 9470SOL     OW29308   4.748   3.594   6.831
 9470SOL    HW129309   4.749   3.666   6.900
 9470SOL    HW229310   4.842   3.572   6.804
 9471SOL     OW29311   6.470   2.062   4.659
 9471SOL    HW129312   6.442   2.111   4.577
 9471SOL    HW229313   6.460   2.121   4.739
 9472SOL     OW29314   0.236   3.698   5.560
 9472SOL    HW129315   0.287   3.675   5.643
 9472SOL    HW229316   0.220   3.797   5.557
 9473SOL     OW29317   3.207   4.710   0.158
 9473SOL    HW129318   3.114   4.717   0.122
 9473SOL    HW229319   3.207   4.651   0.238
 9474SOL     OW29320   6.220   3.656   1.927
 9474SOL    HW129321   6.170   3.654   2.014
 9474SOL    HW229322   6.250   3.563   1.903
 9475SOL     OW29323   4.029   3.553   0.963
 9475SOL    HW129324   3.970   3.486   0.918
 9475SOL    HW229325   4.097   3.586   0.898
 9476SOL     OW29326   4.026   3.930   4.544
 9476SOL    HW129327   4.059   3.960   4.634
 9476SOL    HW229328   4.053   3.834   4.529
 9477SOL     OW29329   0.290   2.577   1.144
 9477SOL    HW129330   0.230   2.632   1.202
 9477SOL    HW229331   0.380   2.620   1.138
 9478SOL     OW29332   5.499   3.399   0.765
 9478SOL    HW129333   5.579   3.410   0.706
 9478SOL    HW229334   5.439   3.479   0.755
 9479SOL     OW29335   4.395   6.527   0.905
 9479SOL    HW129336   4.472   6.578   0.943
 9479SOL    HW229337   4.405   6.430   0.928
 9480SOL     OW29338   6.588   5.203   0.423
 9480SOL    HW129339   6.573   5.301   0.411
 9480SOL    HW229340   6.675   5.188   0.469
 9481SOL     OW29341   4.875   2.385   2.536
 9481SOL    HW129342   4.951   2.412   2.595
 9481SOL    HW229343   4.808   2.332   2.590
 9482SOL     OW29344   0.034   0.558   3.017
 9482SOL    HW129345   0.070   0.542   2.925
 9482SOL    HW229346   0.108   0.548   3.083
 9483SOL     OW29347   1.836   0.957   0.568
 9483SOL    HW129348   1.901   1.025   0.534
 9483SOL    HW229349   1.789   0.994   0.648
 9484SOL     OW29350   3.701   0.101   4.739
 9484SOL    HW129351   3.670   0.194   4.723
 9484SOL    HW229352   3.776   0.079   4.676
 9485SOL     OW29353   0.580   1.649   1.240
 9485SOL    HW129354   0.602   1.738   1.200
 9485SOL    HW229355   0.569   1.581   1.168
 9486SOL     OW29356   4.611   6.042   0.846
 9486SOL    HW129357   4.619   5.965   0.909
 9486SOL    HW229358   4.639   6.013   0.754
 9487SOL     OW29359   3.343   4.045   3.456
 9487SOL    HW129360   3.326   3.979   3.528
 9487SOL    HW229361   3.283   4.026   3.378
 9488SOL     OW29362   2.658   0.039   0.843
 9488SOL    HW129363   2.733   0.096   0.876
 9488SOL    HW229364   2.575   0.059   0.895
 9489SOL     OW29365   5.187   3.887   1.378
 9489SOL    HW129366   5.098   3.931   1.388
 9489SOL    HW229367   5.220   3.899   1.284
 9490SOL     OW29368   6.527   5.716   3.469
 9490SOL    HW129369   6.486   5.734   3.559
 9490SOL    HW229370   6.459   5.675   3.409
 9491SOL     OW29371   5.478   5.394   3.895
 9491SOL    HW129372   5.473   5.493   3.884
 9491SOL    HW229373   5.398   5.362   3.944
 9492SOL     OW29374   3.320   3.352   4.852
 9492SOL    HW129375   3.365   3.357   4.763
 9492SOL    HW229376   3.234   3.301   4.843
 9493SOL     OW29377   3.153   5.802   4.707
 9493SOL    HW129378   3.233   5.830   4.762
 9493SOL    HW229379   3.073   5.853   4.738
 9494SOL     OW29380   5.725   3.031   2.401
 9494SOL    HW129381   5.784   3.036   2.481
 9494SOL    HW229382   5.636   2.994   2.427
 9495SOL     OW29383   6.682   1.841   3.027
 9495SOL    HW129384   6.594   1.846   2.980
 9495SOL    HW229385   6.674   1.780   3.106
 9496SOL     OW29386   5.655   3.422   1.610
 9496SOL    HW129387   5.583   3.491   1.604
 9496SOL    HW229388   5.630   3.354   1.679
 9497SOL     OW29389   4.820   5.851   4.786
 9497SOL    HW129390   4.828   5.908   4.704
 9497SOL    HW229391   4.766   5.898   4.855
 9498SOL     OW29392   6.190   4.921   4.691
 9498SOL    HW129393   6.162   5.006   4.647
 9498SOL    HW229394   6.138   4.845   4.652
 9499SOL     OW29395   1.510   6.445   5.448
 9499SOL    HW129396   1.522   6.359   5.497
 9499SOL    HW229397   1.600   6.484   5.427
 9500SOL     OW29398   4.123   6.514   0.223
 9500SOL    HW129399   4.085   6.596   0.181
 9500SOL    HW229400   4.050   6.464   0.271
 9501SOL     OW29401   2.118   1.309   4.676
 9501SOL    HW129402   2.126   1.211   4.689
 9501SOL    HW229403   2.113   1.354   4.765
 9502SOL     OW29404   5.975   3.208   5.272
 9502SOL    HW129405   5.932   3.173   5.355
 9502SOL    HW229406   6.044   3.143   5.241
 9503SOL     OW29407   6.653   2.222   0.279
 9503SOL    HW129408   6.670   2.123   0.278
 9503SOL    HW229409   6.740   2.271   0.275
 9504SOL     OW29410   6.650   3.577   1.558
 9504SOL    HW129411   6.623   3.656   1.503
 9504SOL    HW229412   6.648   3.495   1.501
 9505SOL     OW29413   4.866   4.224   5.395
 9505SOL    HW129414   4.850   4.322   5.407
 9505SOL    HW229415   4.870   4.203   5.297
 9506SOL     OW29416   1.653   2.770   0.742
 9506SOL    HW129417   1.677   2.864   0.719
 9506SOL    HW229418   1.723   2.708   0.707
 9507SOL     OW29419   0.075   0.933   2.028
 9507SOL    HW129420   0.101   0.920   1.933
 9507SOL    HW229421   0.146   0.894   2.087
 9508SOL     OW29422   6.088   1.927   2.510
 9508SOL    HW129423   6.122   1.833   2.506
 9508SOL    HW229424   6.075   1.961   2.417
 9509SOL     OW29425   0.026   1.190   3.785
 9509SOL    HW129426   0.074   1.254   3.846
 9509SOL    HW229427   6.952   1.213   3.780
 9510SOL     OW29428   1.555   4.286   3.859
 9510SOL    HW129429   1.614   4.312   3.783
 9510SOL    HW229430   1.464   4.327   3.846
 9511SOL     OW29431   2.157   0.495   0.951
 9511SOL    HW129432   2.061   0.474   0.967
 9511SOL    HW229433   2.164   0.584   0.906
 9512SOL     OW29434   0.062   2.019   0.609
 9512SOL    HW129435   0.037   2.098   0.664
 9512SOL    HW229436   0.020   2.026   0.519
 9513SOL     OW29437   2.855   3.998   6.774
 9513SOL    HW129438   2.826   3.952   6.858
 9513SOL    HW229439   2.954   4.010   6.775
 9514SOL     OW29440   2.234   4.941   6.810
 9514SOL    HW129441   2.317   4.898   6.846
 9514SOL    HW229442   2.221   4.913   6.715
 9515SOL     OW29443   1.550   6.220   2.088
 9515SOL    HW129444   1.484   6.281   2.045
 9515SOL    HW229445   1.504   6.163   2.156
 9516SOL     OW29446   5.842   4.599   0.160
 9516SOL    HW129447   5.880   4.520   0.208
 9516SOL    HW229448   5.903   4.678   0.174
 9517SOL     OW29449   1.736   4.156   1.293
 9517SOL    HW129450   1.750   4.200   1.381
 9517SOL    HW229451   1.687   4.070   1.305
 9518SOL     OW29452   1.916   1.492   0.543
 9518SOL    HW129453   1.916   1.525   0.448
 9518SOL    HW229454   1.974   1.550   0.599
 9519SOL     OW29455   3.313   2.968   5.046
 9519SOL    HW129456   3.269   2.994   4.960
 9519SOL    HW229457   3.362   3.047   5.083
 9520SOL     OW29458   2.613   1.147   3.037
 9520SOL    HW129459   2.647   1.229   2.990
 9520SOL    HW229460   2.527   1.170   3.084
 9521SOL     OW29461   5.058   5.693   2.659
 9521SOL    HW129462   5.046   5.655   2.567
 9521SOL    HW229463   5.000   5.774   2.670
 9522SOL     OW29464   3.140   5.659   1.438
 9522SOL    HW129465   3.178   5.622   1.523
 9522SOL    HW229466   3.040   5.648   1.440
 9523SOL     OW29467   3.301   5.255   4.943
 9523SOL    HW129468   3.359   5.216   5.015
 9523SOL    HW229469   3.253   5.181   4.896
 9524SOL     OW29470   3.710   2.484   1.082
 9524SOL    HW129471   3.723   2.498   0.984
 9524SOL    HW229472   3.757   2.401   1.111
 9525SOL     OW29473   2.577   2.774   6.025
 9525SOL    HW129474   2.522   2.848   6.065
 9525SOL    HW229475   2.609   2.713   6.098
 9526SOL     OW29476   5.038   5.921   1.571
 9526SOL    HW129477   5.005   6.013   1.591
 9526SOL    HW229478   5.136   5.916   1.589
 9527SOL     OW29479   0.777   0.419   2.402
 9527SOL    HW129480   0.796   0.511   2.367
 9527SOL    HW229481   0.862   0.376   2.431
 9528SOL     OW29482   6.831   0.385   0.594
 9528SOL    HW129483   6.756   0.321   0.578
 9528SOL    HW229484   6.896   0.380   0.518
 9529SOL     OW29485   6.438   3.091   5.542
 9529SOL    HW129486   6.412   3.184   5.567
 9529SOL    HW229487   6.537   3.084   5.536
 9530SOL     OW29488   2.143   3.152   3.319
 9530SOL    HW129489   2.190   3.084   3.375
 9530SOL    HW229490   2.047   3.158   3.348
 9531SOL     OW29491   3.968   5.546   2.835
 9531SOL    HW129492   3.868   5.539   2.843
 9531SOL    HW229493   3.996   5.509   2.746
 9532SOL     OW29494   0.464   6.427   1.801
 9532SOL    HW129495   0.436   6.483   1.722
 9532SOL    HW229496   0.397   6.437   1.874
 9533SOL     OW29497   0.229   0.693   4.732
 9533SOL    HW129498   0.248   0.702   4.634
 9533SOL    HW229499   0.311   0.714   4.785
 9534SOL     OW29500   5.522   3.029   5.156
 9534SOL    HW129501   5.552   3.057   5.065
 9534SOL    HW229502   5.437   2.977   5.149
 9535SOL     OW29503   2.602   1.395   5.645
 9535SOL    HW129504   2.587   1.494   5.653
 9535SOL    HW229505   2.641   1.375   5.555
 9536SOL     OW29506   3.017   4.706   5.310
 9536SOL    HW129507   2.967   4.648   5.246
 9536SOL    HW229508   2.954   4.768   5.355
 9537SOL     OW29509   2.546   6.971   2.076
 9537SOL    HW129510   2.522   6.897   2.013
 9537SOL    HW229511   2.468   6.993   2.134
 9538SOL     OW29512   6.386   1.894   4.244
 9538SOL    HW129513   6.463   1.916   4.184
 9538SOL    HW229514   6.302   1.933   4.206
 9539SOL     OW29515   1.907   3.995   5.548
 9539SOL    HW129516   1.925   4.092   5.533
 9539SOL    HW229517   1.979   3.941   5.504
 9540SOL     OW29518   4.743   4.177   4.790
 9540SOL    HW129519   4.803   4.182   4.870
 9540SOL    HW229520   4.650   4.202   4.816
 9541SOL     OW29521   2.426   1.923   5.866
 9541SOL    HW129522   2.384   1.951   5.779
 9541SOL    HW229523   2.357   1.883   5.925
 9542SOL     OW29524   4.942   3.818   5.153
 9542SOL    HW129525   4.899   3.741   5.105
 9542SOL    HW229526   4.939   3.801   5.251
 9543SOL     OW29527   3.863   0.570   4.319
 9543SOL    HW129528   3.769   0.598   4.339
 9543SOL    HW229529   3.861   0.485   4.267
 9544SOL     OW29530   6.456   1.119   2.320
 9544SOL    HW129531   6.539   1.071   2.349
 9544SOL    HW229532   6.480   1.213   2.293
 9545SOL     OW29533   6.483   5.411   3.770
 9545SOL    HW129534   6.484   5.489   3.833
 9545SOL    HW229535   6.474   5.445   3.676
 9546SOL     OW29536   1.853   2.916   6.537
 9546SOL    HW129537   1.924   2.869   6.589
 9546SOL    HW229538   1.895   2.989   6.483
 9547SOL     OW29539   2.050   6.127   4.130
 9547SOL    HW129540   2.109   6.208   4.133
 9547SOL    HW229541   1.964   6.150   4.084
 9548SOL     OW29542   6.541   6.060   4.635
 9548SOL    HW129543   6.552   6.028   4.730
 9548SOL    HW229544   6.453   6.106   4.626
 9549SOL     OW29545   2.800   4.092   1.290
 9549SOL    HW129546   2.718   4.137   1.325
 9549SOL    HW229547   2.880   4.148   1.311
 9550SOL     OW29548   6.956   1.363   6.542
 9550SOL    HW129549   6.983   1.317   6.457
 9550SOL    HW229550   6.945   1.461   6.524
 9551SOL     OW29551   0.054   0.016   4.428
 9551SOL    HW129552   0.140   0.035   4.476
 9551SOL    HW229553   7.012   0.090   4.445
 9552SOL     OW29554   0.730   6.442   2.170
 9552SOL    HW129555   0.816   6.437   2.118
 9552SOL    HW229556   0.654   6.449   2.106
 9553SOL     OW29557   6.265   3.939   6.622
 9553SOL    HW129558   6.172   3.916   6.651
 9553SOL    HW229559   6.326   3.939   6.702
 9554SOL     OW29560   2.506   0.627   1.257
 9554SOL    HW129561   2.602   0.640   1.285
 9554SOL    HW229562   2.493   0.664   1.165
 9555SOL     OW29563   0.313   1.813   0.567
 9555SOL    HW129564   0.307   1.808   0.468
 9555SOL    HW229565   0.229   1.776   0.608
 9556SOL     OW29566   2.121   2.147   1.221
 9556SOL    HW129567   2.044   2.084   1.226
 9556SOL    HW229568   2.186   2.115   1.152
 9557SOL     OW29569   6.299   0.656   2.396
 9557SOL    HW129570   6.302   0.728   2.327
 9557SOL    HW229571   6.340   0.690   2.481
 9558SOL     OW29572   6.027   5.295   4.024
 9558SOL    HW129573   5.950   5.335   3.974
 9558SOL    HW229574   6.099   5.270   3.960
 9559SOL     OW29575   6.978   3.513   1.779
 9559SOL    HW129576   0.039   3.489   1.731
 9559SOL    HW229577   6.951   3.606   1.756
 9560SOL     OW29578   1.291   1.545   2.581
 9560SOL    HW129579   1.215   1.525   2.519
 9560SOL    HW229580   1.292   1.642   2.603
 9561SOL     OW29581   2.347   6.498   1.109
 9561SOL    HW129582   2.360   6.573   1.044
 9561SOL    HW229583   2.344   6.535   1.202
 9562SOL     OW29584   2.915   6.334   5.093
 9562SOL    HW129585   2.911   6.336   5.193
 9562SOL    HW229586   2.822   6.336   5.056
 9563SOL     OW29587   6.328   5.936   6.823
 9563SOL    HW129588   6.328   6.035   6.808
 9563SOL    HW229589   6.418   5.908   6.858
 9564SOL     OW29590   2.887   0.356   6.475
 9564SOL    HW129591   2.856   0.279   6.531
 9564SOL    HW229592   2.947   0.323   6.403
 9565SOL     OW29593   4.387   6.039   4.911
 9565SOL    HW129594   4.415   6.013   4.819
 9565SOL    HW229595   4.327   5.969   4.949
 9566SOL     OW29596   3.203   4.534   0.358
 9566SOL    HW129597   3.116   4.486   0.373
 9566SOL    HW229598   3.274   4.491   0.413
 9567SOL     OW29599   6.354   5.542   6.030
 9567SOL    HW129600   6.352   5.446   6.059
 9567SOL    HW229601   6.352   5.601   6.111
 9568SOL     OW29602   4.336   3.032   6.424
 9568SOL    HW129603   4.374   3.100   6.486
 9568SOL    HW229604   4.314   3.075   6.336
 9569SOL     OW29605   6.561   1.165   0.729
 9569SOL    HW129606   6.485   1.222   0.698
 9569SOL    HW229607   6.546   1.071   0.697
 9570SOL     OW29608   0.908   2.028   1.750
 9570SOL    HW129609   1.002   2.034   1.718
 9570SOL    HW229610   0.898   2.079   1.835
 9571SOL     OW29611   2.965   3.470   0.256
 9571SOL    HW129612   2.869   3.457   0.232
 9571SOL    HW229613   3.023   3.412   0.199
 9572SOL     OW29614   1.719   5.390   0.648
 9572SOL    HW129615   1.756   5.299   0.629
 9572SOL    HW229616   1.794   5.452   0.672
 9573SOL     OW29617   0.551   1.291   6.657
 9573SOL    HW129618   0.498   1.375   6.646
 9573SOL    HW229619   0.646   1.309   6.635
 9574SOL     OW29620   3.938   3.220   5.141
 9574SOL    HW129621   3.883   3.294   5.180
 9574SOL    HW229622   3.890   3.133   5.152
 9575SOL     OW29623   5.593   0.538   0.707
 9575SOL    HW129624   5.502   0.517   0.745
 9575SOL    HW229625   5.638   0.606   0.764
 9576SOL     OW29626   3.353   1.794   3.381
 9576SOL    HW129627   3.343   1.785   3.480
 9576SOL    HW229628   3.409   1.875   3.361
 9577SOL     OW29629   1.442   0.873   2.501
 9577SOL    HW129630   1.515   0.814   2.465
 9577SOL    HW229631   1.482   0.956   2.539
 9578SOL     OW29632   6.266   3.424   3.021
 9578SOL    HW129633   6.198   3.426   2.947
 9578SOL    HW229634   6.230   3.371   3.097
 9579SOL     OW29635   1.301   6.305   2.586
 9579SOL    HW129636   1.360   6.226   2.568
 9579SOL    HW229637   1.353   6.375   2.634
 9580SOL     OW29638   5.564   3.569   6.997
 9580SOL    HW129639   5.554   3.530   0.066
 9580SOL    HW229640   5.554   3.496   6.929
 9581SOL     OW29641   2.389   4.700   6.483
 9581SOL    HW129642   2.447   4.711   6.402
 9581SOL    HW229643   2.352   4.789   6.510
 9582SOL     OW29644   4.369   4.634   4.085
 9582SOL    HW129645   4.343   4.664   4.177
 9582SOL    HW229646   4.402   4.713   4.033
 9583SOL     OW29647   2.026   3.267   1.503
 9583SOL    HW129648   2.096   3.293   1.569
 9583SOL    HW229649   2.068   3.214   1.429
 9584SOL     OW29650   6.051   5.805   6.785
 9584SOL    HW129651   6.132   5.832   6.835
 9584SOL    HW229652   6.047   5.705   6.778
 9585SOL     OW29653   6.471   0.455   2.346
 9585SOL    HW129654   6.390   0.512   2.362
 9585SOL    HW229655   6.504   0.420   2.434
 9586SOL     OW29656   6.142   3.743   2.909
 9586SOL    HW129657   6.210   3.696   2.966
 9586SOL    HW229658   6.072   3.784   2.968
 9587SOL     OW29659   6.029   0.063   1.787
 9587SOL    HW129660   5.960   0.135   1.801
 9587SOL    HW229661   6.081   0.051   1.871
 9588SOL     OW29662   0.240   1.191   1.421
 9588SOL    HW129663   0.288   1.140   1.492
 9588SOL    HW229664   0.145   1.162   1.418
 9589SOL     OW29665   2.408   5.711   0.151
 9589SOL    HW129666   2.376   5.806   0.150
 9589SOL    HW229667   2.337   5.652   0.113
 9590SOL     OW29668   0.406   4.100   2.301
 9590SOL    HW129669   0.473   4.118   2.229
 9590SOL    HW229670   0.364   4.187   2.330
 9591SOL     OW29671   2.921   5.791   0.638
 9591SOL    HW129672   2.864   5.751   0.566
 9591SOL    HW229673   2.867   5.856   0.691
 9592SOL     OW29674   4.233   5.279   2.559
 9592SOL    HW129675   4.303   5.208   2.546
 9592SOL    HW229676   4.279   5.366   2.577
 9593SOL     OW29677   5.009   2.114   4.688
 9593SOL    HW129678   4.993   2.071   4.599
 9593SOL    HW229679   5.105   2.141   4.696
 9594SOL     OW29680   6.986   6.393   3.299
 9594SOL    HW129681   0.054   6.411   3.337
 9594SOL    HW229682   6.918   6.400   3.371
 9595SOL     OW29683   2.074   5.405   5.116
 9595SOL    HW129684   2.083   5.417   5.017
 9595SOL    HW229685   2.028   5.485   5.155
 9596SOL     OW29686   0.174   4.552   6.015
 9596SOL    HW129687   0.153   4.632   5.959
 9596SOL    HW229688   0.266   4.519   5.994
 9597SOL     OW29689   0.189   4.042   1.649
 9597SOL    HW129690   0.168   3.988   1.731
 9597SOL    HW229691   0.104   4.058   1.598
 9598SOL     OW29692   0.482   4.023   5.323
 9598SOL    HW129693   0.507   4.046   5.417
 9598SOL    HW229694   0.430   4.098   5.282
 9599SOL     OW29695   3.681   0.522   5.195
 9599SOL    HW129696   3.695   0.448   5.129
 9599SOL    HW229697   3.614   0.493   5.263
 9600SOL     OW29698   1.568   6.970   5.844
 9600SOL    HW129699   1.577   0.010   5.766
 9600SOL    HW229700   1.485   6.991   5.895
 9601SOL     OW29701   6.197   4.084   6.378
 9601SOL    HW129702   6.224   4.025   6.302
 9601SOL    HW229703   6.231   4.046   6.463
 9602SOL     OW29704   6.670   5.105   6.230
 9602SOL    HW129705   6.723   5.056   6.299
 9602SOL    HW229706   6.705   5.198   6.220
 9603SOL     OW29707   2.110   6.880   4.350
 9603SOL    HW129708   2.150   6.894   4.441
 9603SOL    HW229709   2.012   6.862   4.359
 9604SOL     OW29710   5.295   0.890   0.233
 9604SOL    HW129711   5.205   0.879   0.193
 9604SOL    HW229712   5.362   0.839   0.179
 9605SOL     OW29713   1.283   4.920   5.753
 9605SOL    HW129714   1.336   4.900   5.835
 9605SOL    HW229715   1.257   4.835   5.707
 9606SOL     OW29716   0.778   6.822   4.080
 9606SOL    HW129717   0.812   6.915   4.087
 9606SOL    HW229718   0.769   6.782   4.171
 9607SOL     OW29719   0.811   1.112   1.930
 9607SOL    HW129720   0.889   1.060   1.964
 9607SOL    HW229721   0.819   1.208   1.960
 9608SOL     OW29722   6.686   7.007   2.758
 9608SOL    HW129723   6.757   6.944   2.726
 9608SOL    HW229724   6.613   6.955   2.803
 9609SOL     OW29725   1.282   4.094   4.449
 9609SOL    HW129726   1.199   4.105   4.504
 9609SOL    HW229727   1.359   4.074   4.508
 9610SOL     OW29728   1.236   3.022   5.961
 9610SOL    HW129729   1.271   3.116   5.963
 9610SOL    HW229730   1.270   2.976   5.879
 9611SOL     OW29731   7.006   6.846   1.465
 9611SOL    HW129732   7.006   6.768   1.527
 9611SOL    HW229733   7.002   6.931   1.518
 9612SOL     OW29734   6.731   2.747   0.356
 9612SOL    HW129735   6.768   2.696   0.434
 9612SOL    HW229736   6.655   2.696   0.316
 9613SOL     OW29737   5.596   6.481   4.138
 9613SOL    HW129738   5.664   6.483   4.212
 9613SOL    HW229739   5.534   6.558   4.148
 9614SOL     OW29740   4.176   3.400   1.873
 9614SOL    HW129741   4.183   3.300   1.879
 9614SOL    HW229742   4.224   3.433   1.792
 9615SOL     OW29743   2.411   5.331   3.393
 9615SOL    HW129744   2.391   5.242   3.433
 9615SOL    HW229745   2.491   5.371   3.438
 9616SOL     OW29746   4.103   3.108   1.382
 9616SOL    HW129747   4.078   3.013   1.367
 9616SOL    HW229748   4.047   3.166   1.323
 9617SOL     OW29749   1.104   3.365   3.522
 9617SOL    HW129750   1.167   3.315   3.462
 9617SOL    HW229751   1.072   3.447   3.475
 9618SOL     OW29752   3.529   0.579   6.747
 9618SOL    HW129753   3.443   0.573   6.698
 9618SOL    HW229754   3.580   0.659   6.717
 9619SOL     OW29755   1.344   6.300   0.657
 9619SOL    HW129756   1.303   6.218   0.697
 9619SOL    HW229757   1.303   6.317   0.568
 9620SOL     OW29758   4.168   0.979   7.008
 9620SOL    HW129759   4.187   0.883   6.985
 9620SOL    HW229760   4.070   0.990   0.004
 9621SOL     OW29761   1.601   0.607   2.133
 9621SOL    HW129762   1.506   0.580   2.145
 9621SOL    HW229763   1.624   0.677   2.201
 9622SOL     OW29764   6.806   0.793   6.668
 9622SOL    HW129765   6.848   0.884   6.669
 9622SOL    HW229766   6.876   0.723   6.683
 9623SOL     OW29767   5.058   5.330   6.834
 9623SOL    HW129768   4.989   5.258   6.845
 9623SOL    HW229769   5.052   5.367   6.742
 9624SOL     OW29770   5.198   5.098   5.536
 9624SOL    HW129771   5.151   5.147   5.609
 9624SOL    HW229772   5.274   5.154   5.502
 9625SOL     OW29773   5.000   4.364   6.741
 9625SOL    HW129774   4.943   4.292   6.779
 9625SOL    HW229775   5.033   4.423   6.814
 9626SOL     OW29776   1.957   4.820   4.167
 9626SOL    HW129777   1.883   4.787   4.108
 9626SOL    HW229778   1.998   4.742   4.215
 9627SOL     OW29779   1.229   4.428   5.184
 9627SOL    HW129780   1.271   4.340   5.164
 9627SOL    HW229781   1.272   4.500   5.129
 9628SOL     OW29782   6.091   4.403   0.513
 9628SOL    HW129783   6.167   4.339   0.503
 9628SOL    HW229784   6.039   4.380   0.596
 9629SOL     OW29785   6.545   6.615   3.348
 9629SOL    HW129786   6.446   6.630   3.354
 9629SOL    HW229787   6.572   6.546   3.415
 9630SOL     OW29788   5.863   5.955   5.507
 9630SOL    HW129789   5.961   5.941   5.515
 9630SOL    HW229790   5.843   6.053   5.510
 9631SOL     OW29791   4.131   0.983   1.775
 9631SOL    HW129792   4.132   1.082   1.789
 9631SOL    HW229793   4.199   0.940   1.834
 9632SOL     OW29794   1.695   5.578   1.785
 9632SOL    HW129795   1.675   5.486   1.818
 9632SOL    HW229796   1.622   5.608   1.723
 9633SOL     OW29797   3.834   3.379   1.488
 9633SOL    HW129798   3.920   3.427   1.470
 9633SOL    HW229799   3.771   3.392   1.411
 9634SOL     OW29800   6.118   4.600   2.956
 9634SOL    HW129801   6.174   4.611   2.875
 9634SOL    HW229802   6.045   4.669   2.957
 9635SOL     OW29803   0.055   4.749   5.037
 9635SOL    HW129804   0.139   4.746   5.091
 9635SOL    HW229805   7.015   4.816   5.077
 9636SOL     OW29806   3.875   1.028   6.103
 9636SOL    HW129807   3.836   1.070   6.185
 9636SOL    HW229808   3.850   0.931   6.100
 9637SOL     OW29809   2.835   3.680   1.532
 9637SOL    HW129810   2.752   3.624   1.525
 9637SOL    HW229811   2.833   3.751   1.461
 9638SOL     OW29812   0.173   3.903   6.175
 9638SOL    HW129813   0.115   3.981   6.154
 9638SOL    HW229814   0.140   3.856   6.257
 9639SOL     OW29815   4.496   2.622   1.710
 9639SOL    HW129816   4.548   2.673   1.779
 9639SOL    HW229817   4.500   2.524   1.730
 9640SOL     OW29818   3.730   1.200   1.969
 9640SOL    HW129819   3.820   1.241   1.983
 9640SOL    HW229820   3.698   1.158   2.054
 9641SOL     OW29821   4.889   5.677   2.897
 9641SOL    HW129822   4.902   5.777   2.900
 9641SOL    HW229823   4.924   5.641   2.811
 9642SOL     OW29824   1.074   0.310   4.328
 9642SOL    HW129825   1.111   0.383   4.270
 9642SOL    HW229826   1.063   0.227   4.275
 9643SOL     OW29827   4.793   4.161   3.532
 9643SOL    HW129828   4.751   4.100   3.599
 9643SOL    HW229829   4.839   4.236   3.579
 9644SOL     OW29830   1.630   5.987   5.096
 9644SOL    HW129831   1.630   5.898   5.050
 9644SOL    HW229832   1.684   5.982   5.179
 9645SOL     OW29833   1.181   4.079   5.236
 9645SOL    HW129834   1.098   4.099   5.287
 9645SOL    HW229835   1.161   4.015   5.162
 9646SOL     OW29836   2.207   6.416   3.555
 9646SOL    HW129837   2.189   6.404   3.457
 9646SOL    HW229838   2.202   6.327   3.601
 9647SOL     OW29839   6.883   6.630   2.930
 9647SOL    HW129840   6.851   6.713   2.975
 9647SOL    HW229841   6.982   6.624   2.938
 9648SOL     OW29842   5.407   3.285   1.180
 9648SOL    HW129843   5.390   3.188   1.195
 9648SOL    HW229844   5.472   3.319   1.248
 9649SOL     OW29845   2.330   3.699   6.593
 9649SOL    HW129846   2.237   3.694   6.627
 9649SOL    HW229847   2.363   3.607   6.571
 9650SOL     OW29848   5.793   5.021   3.329
 9650SOL    HW129849   5.842   5.096   3.374
 9650SOL    HW229850   5.787   5.040   3.231
 9651SOL     OW29851   3.652   1.572   1.218
 9651SOL    HW129852   3.664   1.668   1.244
 9651SOL    HW229853   3.588   1.529   1.282
 9652SOL     OW29854   0.526   4.563   1.699
 9652SOL    HW129855   0.507   4.639   1.761
 9652SOL    HW229856   0.509   4.476   1.746
 9653SOL     OW29857   4.244   4.518   5.963
 9653SOL    HW129858   4.304   4.488   5.889
 9653SOL    HW229859   4.284   4.597   6.008
 9654SOL     OW29860   3.381   3.431   2.360
 9654SOL    HW129861   3.373   3.333   2.343
 9654SOL    HW229862   3.304   3.478   2.317
 9655SOL     OW29863   0.593   1.771   0.635
 9655SOL    HW129864   0.616   1.730   0.723
 9655SOL    HW229865   0.495   1.792   0.632
 9656SOL     OW29866   4.407   2.057   0.600
 9656SOL    HW129867   4.437   2.146   0.567
 9656SOL    HW229868   4.477   2.019   0.661
 9657SOL     OW29869   5.177   4.402   3.941
 9657SOL    HW129870   5.266   4.393   3.987
 9657SOL    HW229871   5.161   4.322   3.883
 9658SOL     OW29872   5.467   2.119   2.282
 9658SOL    HW129873   5.522   2.164   2.211
 9658SOL    HW229874   5.524   2.058   2.336
 9659SOL     OW29875   1.884   1.863   0.402
 9659SOL    HW129876   1.838   1.917   0.473
 9659SOL    HW229877   1.929   1.925   0.338
 9660SOL     OW29878   0.705   0.290   1.377
 9660SOL    HW129879   0.608   0.298   1.397
 9660SOL    HW229880   0.754   0.368   1.416
 9661SOL     OW29881   4.478   5.668   1.468
 9661SOL    HW129882   4.503   5.573   1.485
 9661SOL    HW229883   4.534   5.728   1.524
 9662SOL     OW29884   5.298   3.658   0.324
 9662SOL    HW129885   5.230   3.700   0.385
 9662SOL    HW229886   5.323   3.568   0.360
 9663SOL     OW29887   0.366   4.391   3.075
 9663SOL    HW129888   0.342   4.356   3.166
 9663SOL    HW229889   0.298   4.361   3.009
 9664SOL     OW29890   5.534   3.989   4.942
 9664SOL    HW129891   5.598   4.016   4.870
 9664SOL    HW229892   5.454   4.049   4.941
 9665SOL     OW29893   6.056   6.176   5.776
 9665SOL    HW129894   6.061   6.077   5.780
 9665SOL    HW229895   6.148   6.214   5.773
 9666SOL     OW29896   6.282   4.115   1.822
 9666SOL    HW129897   6.280   4.183   1.748
 9666SOL    HW229898   6.377   4.084   1.835
 9667SOL     OW29899   4.201   3.943   0.936
 9667SOL    HW129900   4.299   3.961   0.942
 9667SOL    HW229901   4.174   3.937   0.840
 9668SOL     OW29902   1.681   1.414   6.224
 9668SOL    HW129903   1.774   1.401   6.257
 9668SOL    HW229904   1.643   1.327   6.194
 9669SOL     OW29905   2.565   6.794   1.042
 9669SOL    HW129906   2.560   6.785   0.943
 9669SOL    HW229907   2.473   6.798   1.080
 9670SOL     OW29908   0.190   5.725   5.202
 9670SOL    HW129909   0.135   5.642   5.195
 9670SOL    HW229910   0.229   5.748   5.113
 9671SOL     OW29911   0.144   4.999   0.311
 9671SOL    HW129912   0.111   4.951   0.230
 9671SOL    HW229913   0.150   5.097   0.293
 9672SOL     OW29914   1.819   4.865   2.985
 9672SOL    HW129915   1.910   4.857   3.026
 9672SOL    HW229916   1.826   4.848   2.887
 9673SOL     OW29917   3.674   3.904   1.147
 9673SOL    HW129918   3.734   3.963   1.200
 9673SOL    HW229919   3.726   3.861   1.073
 9674SOL     OW29920   3.693   6.175   3.070
 9674SOL    HW129921   3.615   6.172   3.132
 9674SOL    HW229922   3.776   6.147   3.119
 9675SOL     OW29923   4.887   3.202   6.861
 9675SOL    HW129924   4.944   3.279   6.891
 9675SOL    HW229925   4.883   3.200   6.762
 9676SOL     OW29926   1.496   3.364   5.383
 9676SOL    HW129927   1.475   3.434   5.451
 9676SOL    HW229928   1.580   3.317   5.409
 9677SOL     OW29929   6.817   5.359   6.226
 9677SOL    HW129930   6.872   5.360   6.309
 9677SOL    HW229931   6.741   5.424   6.236
 9678SOL     OW29932   3.290   3.978   4.221
 9678SOL    HW129933   3.191   3.966   4.216
 9678SOL    HW229934   3.314   4.028   4.304
 9679SOL     OW29935   3.014   1.148   4.462
 9679SOL    HW129936   3.051   1.076   4.404
 9679SOL    HW229937   2.914   1.143   4.463
 9680SOL     OW29938   4.526   0.004   5.570
 9680SOL    HW129939   4.476   0.017   5.655
 9680SOL    HW229940   4.570   6.937   5.570
 9681SOL     OW29941   3.215   2.094   0.751
 9681SOL    HW129942   3.176   2.182   0.780
 9681SOL    HW229943   3.291   2.070   0.812
 9682SOL     OW29944   4.778   3.988   3.924
 9682SOL    HW129945   4.759   3.991   4.023
 9682SOL    HW229946   4.763   4.079   3.885
 9683SOL     OW29947   3.105   5.977   0.727
 9683SOL    HW129948   3.056   5.896   0.694
 9683SOL    HW229949   3.102   5.978   0.827
 9684SOL     OW29950   0.570   3.878   4.818
 9684SOL    HW129951   0.591   3.793   4.867
 9684SOL    HW229952   0.482   3.913   4.849
 9685SOL     OW29953   4.730   3.212   0.505
 9685SOL    HW129954   4.659   3.164   0.454
 9685SOL    HW229955   4.781   3.271   0.444
 9686SOL     OW29956   1.043   3.064   6.856
 9686SOL    HW129957   1.073   3.011   6.935
 9686SOL    HW229958   1.106   3.140   6.841
 9687SOL     OW29959   6.401   0.772   2.046
 9687SOL    HW129960   6.318   0.742   2.000
 9687SOL    HW229961   6.377   0.821   2.130
 9688SOL     OW29962   0.813   3.390   0.790
 9688SOL    HW129963   0.889   3.453   0.776
 9688SOL    HW229964   0.750   3.397   0.713
 9689SOL     OW29965   0.885   4.020   6.572
 9689SOL    HW129966   0.898   3.923   6.550
 9689SOL    HW229967   0.923   4.039   6.662
 9690SOL     OW29968   4.418   6.199   5.547
 9690SOL    HW129969   4.517   6.191   5.536
 9690SOL    HW229970   4.381   6.257   5.475
 9691SOL     OW29971   3.068   4.077   1.998
 9691SOL    HW129972   3.048   3.983   2.026
 9691SOL    HW229973   2.992   4.136   2.022
 9692SOL     OW29974   4.810   6.076   1.114
 9692SOL    HW129975   4.720   6.031   1.112
 9692SOL    HW229976   4.856   6.062   1.026
 9693SOL     OW29977   5.724   4.250   3.313
 9693SOL    HW129978   5.664   4.220   3.239
 9693SOL    HW229979   5.775   4.331   3.284
 9694SOL     OW29980   3.755   1.001   2.175
 9694SOL    HW129981   3.698   1.011   2.256
 9694SOL    HW229982   3.831   0.939   2.196
 9695SOL     OW29983   6.933   2.721   3.382
 9695SOL    HW129984   6.964   2.816   3.394
 9695SOL    HW229985   6.872   2.716   3.303
 9696SOL     OW29986   6.049   2.273   1.974
 9696SOL    HW129987   6.099   2.256   1.889
 9696SOL    HW229988   6.020   2.369   1.976
 9697SOL     OW29989   0.479   6.484   0.762
 9697SOL    HW129990   0.423   6.410   0.726
 9697SOL    HW229991   0.566   6.448   0.795
 9698SOL     OW29992   5.514   2.994   6.003
 9698SOL    HW129993   5.568   3.069   5.966
 9698SOL    HW229994   5.446   3.030   6.067
 9699SOL     OW29995   0.504   5.684   0.223
 9699SOL    HW129996   0.413   5.644   0.234
 9699SOL    HW229997   0.565   5.649   0.294
 9700SOL     OW29998   6.355   5.535   4.843
 9700SOL    HW129999   6.420   5.460   4.831
 9700SOL    HW230000   6.356   5.565   4.939
 9701SOL     OW30001   4.338   3.939   5.803
 9701SOL    HW130002   4.373   3.884   5.879
 9701SOL    HW230003   4.414   3.972   5.748
 9702SOL     OW30004   4.185   2.393   0.028
 9702SOL    HW130005   4.137   2.306   0.018
 9702SOL    HW230006   4.227   2.418   6.963
 9703SOL     OW30007   5.014   3.807   4.139
 9703SOL    HW130008   5.087   3.864   4.102
 9703SOL    HW230009   4.986   3.740   4.070
 9704SOL     OW30010   3.555   5.626   2.559
 9704SOL    HW130011   3.576   5.698   2.494
 9704SOL    HW230012   3.486   5.658   2.623
 9705SOL     OW30013   5.459   4.462   5.801
 9705SOL    HW130014   5.430   4.526   5.730
 9705SOL    HW230015   5.406   4.478   5.884
 9706SOL     OW30016   2.776   2.163   1.590
 9706SOL    HW130017   2.780   2.149   1.689
 9706SOL    HW230018   2.841   2.233   1.563
 9707SOL     OW30019   5.393   5.128   2.278
 9707SOL    HW130020   5.303   5.110   2.237
 9707SOL    HW230021   5.421   5.048   2.332
 9708SOL     OW30022   0.902   1.525   3.178
 9708SOL    HW130023   0.876   1.581   3.100
 9708SOL    HW230024   0.827   1.464   3.203
 9709SOL     OW30025   5.585   4.676   1.954
 9709SOL    HW130026   5.610   4.582   1.931
 9709SOL    HW230027   5.609   4.694   2.050
 9710SOL     OW30028   6.365   0.738   1.103
 9710SOL    HW130029   6.388   0.704   1.012
 9710SOL    HW230030   6.425   0.815   1.126
 9711SOL     OW30031   3.872   5.600   6.477
 9711SOL    HW130032   3.913   5.512   6.502
 9711SOL    HW230033   3.871   5.609   6.377
 9712SOL     OW30034   5.708   3.218   0.214
 9712SOL    HW130035   5.702   3.193   0.117
 9712SOL    HW230036   5.791   3.179   0.253
 9713SOL     OW30037   2.755   5.470   3.643
 9713SOL    HW130038   2.655   5.459   3.649
 9713SOL    HW230039   2.789   5.508   3.729
 9714SOL     OW30040   4.059   6.571   6.157
 9714SOL    HW130041   4.134   6.610   6.210
 9714SOL    HW230042   4.091   6.489   6.109
 9715SOL     OW30043   6.075   4.305   6.716
 9715SOL    HW130044   6.043   4.283   6.808
 9715SOL    HW230045   5.998   4.305   6.653
 9716SOL     OW30046   3.492   4.777   0.221
 9716SOL    HW130047   3.539   4.767   0.133
 9716SOL    HW230048   3.400   4.740   0.213
 9717SOL     OW30049   4.694   6.222   6.557
 9717SOL    HW130050   4.773   6.218   6.619
 9717SOL    HW230051   4.704   6.301   6.496
 9718SOL     OW30052   4.902   2.819   1.358
 9718SOL    HW130053   4.854   2.767   1.287
 9718SOL    HW230054   4.853   2.810   1.445
 9719SOL     OW30055   5.212   6.861   5.913
 9719SOL    HW130056   5.180   6.838   6.005
 9719SOL    HW230057   5.136   6.855   5.848
 9720SOL     OW30058   0.851   3.476   2.544
 9720SOL    HW130059   0.901   3.433   2.469
 9720SOL    HW230060   0.754   3.482   2.521
 9721SOL     OW30061   0.092   1.270   0.011
 9721SOL    HW130062   0.056   1.330   0.082
 9721SOL    HW230063   0.044   1.287   6.948
 9722SOL     OW30064   3.281   0.831   5.331
 9722SOL    HW130065   3.233   0.824   5.244
 9722SOL    HW230066   3.343   0.909   5.330
 9723SOL     OW30067   4.657   5.680   4.186
 9723SOL    HW130068   4.641   5.583   4.166
 9723SOL    HW230069   4.735   5.712   4.133
 9724SOL     OW30070   1.561   4.447   0.120
 9724SOL    HW130071   1.606   4.442   0.209
 9724SOL    HW230072   1.506   4.530   0.115
 9725SOL     OW30073   4.010   6.509   6.488
 9725SOL    HW130074   4.066   6.572   6.433
 9725SOL    HW230075   3.957   6.450   6.427
 9726SOL     OW30076   4.808   1.810   4.627
 9726SOL    HW130077   4.725   1.766   4.660
 9726SOL    HW230078   4.888   1.774   4.676
 9727SOL     OW30079   1.112   2.072   6.508
 9727SOL    HW130080   1.091   2.167   6.487
 9727SOL    HW230081   1.186   2.068   6.575
 9728SOL     OW30082   0.291   1.716   4.974
 9728SOL    HW130083   0.224   1.648   5.003
 9728SOL    HW230084   0.284   1.731   4.876
 9729SOL     OW30085   1.632   4.666   3.763
 9729SOL    HW130086   1.701   4.597   3.784
 9729SOL    HW230087   1.629   4.681   3.664
 9730SOL     OW30088   1.278   4.596   3.407
 9730SOL    HW130089   1.250   4.667   3.472
 9730SOL    HW230090   1.362   4.554   3.439
 9731SOL     OW30091   5.003   5.390   1.640
 9731SOL    HW130092   4.935   5.442   1.588
 9731SOL    HW230093   4.963   5.359   1.726
 9732SOL     OW30094   1.054   3.534   2.024
 9732SOL    HW130095   1.040   3.617   1.971
 9732SOL    HW230096   1.036   3.454   1.967
 9733SOL     OW30097   5.640   5.338   6.980
 9733SOL    HW130098   5.732   5.369   7.002
 9733SOL    HW230099   5.584   5.340   0.040
 9734SOL     OW30100   6.640   6.965   0.362
 9734SOL    HW130101   6.654   6.916   0.276
 9734SOL    HW230102   6.669   0.037   0.352
 9735SOL     OW30103   1.214   3.028   3.351
 9735SOL    HW130104   1.211   3.009   3.449
 9735SOL    HW230105   1.288   2.976   3.309
 9736SOL     OW30106   5.699   1.943   6.291
 9736SOL    HW130107   5.604   1.930   6.320
 9736SOL    HW230108   5.716   2.040   6.273
 9737SOL     OW30109   5.346   2.392   2.721
 9737SOL    HW130110   5.371   2.328   2.794
 9737SOL    HW230111   5.358   2.348   2.632
 9738SOL     OW30112   1.887   6.463   0.959
 9738SOL    HW130113   1.926   6.401   0.891
 9738SOL    HW230114   1.956   6.486   1.028
 9739SOL     OW30115   5.034   5.551   0.310
 9739SOL    HW130116   4.949   5.544   0.362
 9739SOL    HW230117   5.030   5.632   0.251
 9740SOL     OW30118   0.094   1.533   3.096
 9740SOL    HW130119   0.040   1.567   3.019
 9740SOL    HW230120   0.037   1.477   3.155
 9741SOL     OW30121   2.557   0.956   3.454
 9741SOL    HW130122   2.627   0.884   3.456
 9741SOL    HW230123   2.600   1.044   3.477
 9742SOL     OW30124   4.271   1.340   0.605
 9742SOL    HW130125   4.338   1.266   0.618
 9742SOL    HW230126   4.296   1.394   0.525
 9743SOL     OW30127   6.653   4.131   2.862
 9743SOL    HW130128   6.747   4.156   2.840
 9743SOL    HW230129   6.641   4.131   2.961
 9744SOL     OW30130   1.826   0.181   2.594
 9744SOL    HW130131   1.783   0.212   2.679
 9744SOL    HW230132   1.882   0.100   2.612
 9745SOL     OW30133   4.605   2.941   6.291
 9745SOL    HW130134   4.565   3.013   6.349
 9745SOL    HW230135   4.545   2.923   6.214
 9746SOL     OW30136   5.380   6.636   5.627
 9746SOL    HW130137   5.283   6.645   5.606
 9746SOL    HW230138   5.402   6.691   5.708
 9747SOL     OW30139   3.117   2.120   1.958
 9747SOL    HW130140   3.170   2.160   1.884
 9747SOL    HW230141   3.058   2.190   1.998
 9748SOL     OW30142   6.842   6.631   3.353
 9748SOL    HW130143   6.743   6.623   3.340
 9748SOL    HW230144   6.888   6.569   3.289
 9749SOL     OW30145   0.723   1.015   3.787
 9749SOL    HW130146   0.818   1.018   3.817
 9749SOL    HW230147   0.717   0.977   3.695
 9750SOL     OW30148   5.832   5.295   3.407
 9750SOL    HW130149   5.875   5.360   3.345
 9750SOL    HW230150   5.734   5.289   3.387
 9751SOL     OW30151   1.997   6.964   0.643
 9751SOL    HW130152   2.048   6.898   0.587
 9751SOL    HW230153   2.012   6.944   0.739
 9752SOL     OW30154   4.594   1.677   5.462
 9752SOL    HW130155   4.568   1.773   5.465
 9752SOL    HW230156   4.531   1.627   5.403
 9753SOL     OW30157   0.728   5.257   6.041
 9753SOL    HW130158   0.655   5.297   5.986
 9753SOL    HW230159   0.752   5.167   6.003
 9754SOL     OW30160   3.003   0.782   0.583
 9754SOL    HW130161   3.096   0.768   0.617
 9754SOL    HW230162   3.000   0.867   0.530
 9755SOL     OW30163   2.958   3.866   4.551
 9755SOL    HW130164   2.952   3.776   4.509
 9755SOL    HW230165   2.965   3.856   4.650
 9756SOL     OW30166   6.387   2.586   6.442
 9756SOL    HW130167   6.390   2.563   6.344
 9756SOL    HW230168   6.450   2.526   6.492
 9757SOL     OW30169   5.804   4.595   4.963
 9757SOL    HW130170   5.815   4.500   4.989
 9757SOL    HW230171   5.889   4.645   4.980
 9758SOL     OW30172   1.977   1.229   0.657
 9758SOL    HW130173   1.929   1.314   0.633
 9758SOL    HW230174   2.007   1.183   0.574
 9759SOL     OW30175   1.002   1.102   0.344
 9759SOL    HW130176   0.915   1.060   0.371
 9759SOL    HW230177   1.068   1.093   0.419
 9760SOL     OW30178   4.707   3.156   5.457
 9760SOL    HW130179   4.678   3.248   5.431
 9760SOL    HW230180   4.749   3.158   5.548
 9761SOL     OW30181   0.727   2.560   1.882
 9761SOL    HW130182   0.665   2.639   1.884
 9761SOL    HW230183   0.748   2.532   1.976
 9762SOL     OW30184   3.535   1.632   4.860
 9762SOL    HW130185   3.517   1.649   4.957
 9762SOL    HW230186   3.527   1.718   4.810
 9763SOL     OW30187   5.403   0.997   3.647
 9763SOL    HW130188   5.330   1.061   3.623
 9763SOL    HW230189   5.487   1.022   3.600
 9764SOL     OW30190   6.424   2.551   2.482
 9764SOL    HW130191   6.353   2.607   2.439
 9764SOL    HW230192   6.391   2.457   2.492
 9765SOL     OW30193   6.938   6.360   2.984
 9765SOL    HW130194   6.856   6.417   2.981
 9765SOL    HW230195   6.981   6.367   3.074
 9766SOL     OW30196   2.448   6.384   1.900
 9766SOL    HW130197   2.376   6.413   1.838
 9766SOL    HW230198   2.494   6.465   1.937
 9767SOL     OW30199   2.339   2.419   5.652
 9767SOL    HW130200   2.398   2.396   5.575
 9767SOL    HW230201   2.368   2.507   5.691
 9768SOL     OW30202   4.570   1.358   1.949
 9768SOL    HW130203   4.634   1.432   1.929
 9768SOL    HW230204   4.477   1.389   1.932
 9769SOL     OW30205   3.356   1.299   4.605
 9769SOL    HW130206   3.264   1.327   4.577
 9769SOL    HW230207   3.421   1.319   4.532
 9770SOL     OW30208   3.966   1.034   5.326
 9770SOL    HW130209   3.961   1.045   5.425
 9770SOL    HW230210   3.874   1.038   5.287
 9771SOL     OW30211   2.450   5.440   1.116
 9771SOL    HW130212   2.470   5.348   1.149
 9771SOL    HW230213   2.513   5.464   1.042
 9772SOL     OW30214   1.713   6.140   1.874
 9772SOL    HW130215   1.784   6.209   1.856
 9772SOL    HW230216   1.646   6.178   1.938
 9773SOL     OW30217   4.964   5.440   3.771
 9773SOL    HW130218   4.989   5.344   3.787
 9773SOL    HW230219   4.920   5.448   3.681
 9774SOL     OW30220   0.045   5.376   2.829
 9774SOL    HW130221   0.115   5.365   2.759
 9774SOL    HW230222   0.066   5.456   2.885
 9775SOL     OW30223   3.241   0.278   3.340
 9775SOL    HW130224   3.310   0.351   3.338
 9775SOL    HW230225   3.280   0.195   3.302
 9776SOL     OW30226   1.042   5.154   5.964
 9776SOL    HW130227   1.109   5.156   5.890
 9776SOL    HW230228   0.952   5.130   5.928
 9777SOL     OW30229   6.225   5.016   1.131
 9777SOL    HW130230   6.245   4.950   1.059
 9777SOL    HW230231   6.254   5.107   1.102
 9778SOL     OW30232   7.019   1.267   4.804
 9778SOL    HW130233   0.074   1.219   4.842
 9778SOL    HW230234   0.006   1.273   4.704
 9779SOL     OW30235   0.692   1.720   4.185
 9779SOL    HW130236   0.749   1.688   4.261
 9779SOL    HW230237   0.750   1.743   4.107
 9780SOL     OW30238   2.361   1.982   0.349
 9780SOL    HW130239   2.416   1.931   0.415
 9780SOL    HW230240   2.418   2.051   0.304
 9781SOL     OW30241   2.125   3.061   4.549
 9781SOL    HW130242   2.100   2.965   4.564
 9781SOL    HW230243   2.162   3.098   4.634
 9782SOL     OW30244   0.624   2.158   0.026
 9782SOL    HW130245   0.609   2.192   6.956
 9782SOL    HW230246   0.597   2.061   0.030
 9783SOL     OW30247   4.403   2.419   3.059
 9783SOL    HW130248   4.469   2.492   3.042
 9783SOL    HW230249   4.403   2.355   2.982
 9784SOL     OW30250   3.848   0.758   6.087
 9784SOL    HW130251   3.890   0.741   6.176
 9784SOL    HW230252   3.827   0.670   6.044
 9785SOL     OW30253   0.086   2.000   5.512
 9785SOL    HW130254   0.110   2.006   5.608
 9785SOL    HW230255   0.152   1.941   5.465
 9786SOL     OW30256   2.274   3.444   0.390
 9786SOL    HW130257   2.310   3.472   0.301
 9786SOL    HW230258   2.181   3.481   0.401
 9787SOL     OW30259   3.385   3.047   2.555
 9787SOL    HW130260   3.385   3.062   2.654
 9787SOL    HW230261   3.472   3.006   2.527
 9788SOL     OW30262   0.966   6.801   2.225
 9788SOL    HW130263   0.898   6.746   2.273
 9788SOL    HW230264   0.940   6.897   2.228
 9789SOL     OW30265   1.298   5.779   0.049
 9789SOL    HW130266   1.369   5.733   0.103
 9789SOL    HW230267   1.284   5.872   0.084
 9790SOL     OW30268   6.452   4.468   6.019
 9790SOL    HW130269   6.366   4.464   6.070
 9790SOL    HW230270   6.477   4.376   5.988
 9791SOL     OW30271   0.735   6.989   6.577
 9791SOL    HW130272   0.781   6.918   6.523
 9791SOL    HW230273   0.759   6.978   6.673
 9792SOL     OW30274   2.937   4.430   0.347
 9792SOL    HW130275   2.895   4.386   0.267
 9792SOL    HW230276   2.901   4.387   0.430
 9793SOL     OW30277   4.566   0.238   2.469
 9793SOL    HW130278   4.574   0.153   2.521
 9793SOL    HW230279   4.470   0.254   2.445
 9794SOL     OW30280   6.247   4.197   6.076
 9794SOL    HW130281   6.273   4.152   5.991
 9794SOL    HW230282   6.239   4.295   6.061
 9795SOL     OW30283   1.548   2.380   4.652
 9795SOL    HW130284   1.605   2.456   4.621
 9795SOL    HW230285   1.601   2.295   4.648
 9796SOL     OW30286   4.111   3.502   2.603
 9796SOL    HW130287   4.124   3.434   2.675
 9796SOL    HW230288   4.129   3.460   2.514
 9797SOL     OW30289   1.897   5.745   0.171
 9797SOL    HW130290   1.958   5.711   0.099
 9797SOL    HW230291   1.820   5.793   0.130
 9798SOL     OW30292   2.782   0.856   2.768
 9798SOL    HW130293   2.788   0.853   2.668
 9798SOL    HW230294   2.813   0.945   2.800
 9799SOL     OW30295   2.907   4.414   6.059
 9799SOL    HW130296   2.903   4.314   6.058
 9799SOL    HW230297   2.979   4.444   6.121
 9800SOL     OW30298   4.828   5.062   4.879
 9800SOL    HW130299   4.774   5.060   4.963
 9800SOL    HW230300   4.900   5.131   4.887
 9801SOL     OW30301   4.621   4.314   6.884
 9801SOL    HW130302   4.551   4.270   6.828
 9801SOL    HW230303   4.585   4.330   6.976
 9802SOL     OW30304   5.983   4.964   0.868
 9802SOL    HW130305   5.947   4.886   0.817
 9802SOL    HW230306   6.083   4.956   0.877
 9803SOL     OW30307   1.981   3.084   6.374
 9803SOL    HW130308   1.949   3.175   6.349
 9803SOL    HW230309   1.980   3.024   6.294
 9804SOL     OW30310   0.798   6.623   3.245
 9804SOL    HW130311   0.704   6.646   3.269
 9804SOL    HW230312   0.803   6.525   3.224
 9805SOL     OW30313   0.439   6.662   2.701
 9805SOL    HW130314   0.520   6.714   2.729
 9805SOL    HW230315   0.361   6.724   2.692
 9806SOL     OW30316   1.446   1.834   6.831
 9806SOL    HW130317   1.522   1.897   6.845
 9806SOL    HW230318   1.437   1.773   6.909
 9807SOL     OW30319   3.068   3.739   1.179
 9807SOL    HW130320   3.121   3.822   1.194
 9807SOL    HW230321   3.114   3.661   1.223
 9808SOL     OW30322   4.259   5.856   5.033
 9808SOL    HW130323   4.177   5.822   4.987
 9808SOL    HW230324   4.236   5.887   5.125
 9809SOL     OW30325   1.249   3.233   6.834
 9809SOL    HW130326   1.307   3.217   6.754
 9809SOL    HW230327   1.304   3.266   6.910
 9810SOL     OW30328   3.337   2.111   4.856
 9810SOL    HW130329   3.289   2.130   4.771
 9810SOL    HW230330   3.307   2.174   4.927
 9811SOL     OW30331   5.695   5.009   3.583
 9811SOL    HW130332   5.702   5.002   3.483
 9811SOL    HW230333   5.617   4.955   3.614
 9812SOL     OW30334   3.161   1.561   5.377
 9812SOL    HW130335   3.229   1.621   5.418
 9812SOL    HW230336   3.187   1.465   5.394
 9813SOL     OW30337   5.092   2.005   0.956
 9813SOL    HW130338   5.016   2.039   0.900
 9813SOL    HW230339   5.176   2.005   0.901
 9814SOL     OW30340   0.210   0.220   6.579
 9814SOL    HW130341   0.308   0.205   6.569
 9814SOL    HW230342   0.163   0.133   6.590
 9815SOL     OW30343   4.891   3.320   4.398
 9815SOL    HW130344   4.921   3.274   4.481
 9815SOL    HW230345   4.857   3.252   4.333
 9816SOL     OW30346   0.539   0.968   5.728
 9816SOL    HW130347   0.537   0.988   5.630
 9816SOL    HW230348   0.506   1.048   5.779
 9817SOL     OW30349   1.621   6.702   3.208
 9817SOL    HW130350   1.544   6.678   3.268
 9817SOL    HW230351   1.587   6.756   3.131
 9818SOL     OW30352   6.559   1.065   3.915
 9818SOL    HW130353   6.556   1.080   4.014
 9818SOL    HW230354   6.467   1.071   3.877
 9819SOL     OW30355   5.495   3.432   3.660
 9819SOL    HW130356   5.463   3.458   3.568
 9819SOL    HW230357   5.504   3.514   3.716
 9820SOL     OW30358   3.440   3.293   6.824
 9820SOL    HW130359   3.417   3.211   6.772
 9820SOL    HW230360   3.357   3.329   6.868
 9821SOL     OW30361   5.551   1.470   6.373
 9821SOL    HW130362   5.518   1.376   6.373
 9821SOL    HW230363   5.506   1.521   6.446
 9822SOL     OW30364   1.701   0.285   3.352
 9822SOL    HW130365   1.687   0.314   3.257
 9822SOL    HW230366   1.659   0.195   3.366
 9823SOL     OW30367   2.638   0.441   0.440
 9823SOL    HW130368   2.604   0.531   0.412
 9823SOL    HW230369   2.737   0.444   0.449
 9824SOL     OW30370   2.102   4.742   4.784
 9824SOL    HW130371   2.103   4.804   4.862
 9824SOL    HW230372   2.165   4.776   4.714
 9825SOL     OW30373   4.052   5.323   5.949
 9825SOL    HW130374   4.136   5.276   5.977
 9825SOL    HW230375   4.005   5.268   5.879
 9826SOL     OW30376   5.142   4.987   5.854
 9826SOL    HW130377   5.214   5.056   5.854
 9826SOL    HW230378   5.066   5.018   5.911
 9827SOL     OW30379   2.134   3.751   3.756
 9827SOL    HW130380   2.047   3.702   3.753
 9827SOL    HW230381   2.174   3.743   3.848
 9828SOL     OW30382   2.364   2.967   6.380
 9828SOL    HW130383   2.347   2.993   6.285
 9828SOL    HW230384   2.425   2.887   6.382
 9829SOL     OW30385   3.672   5.974   6.935
 9829SOL    HW130386   3.630   5.935   7.017
 9829SOL    HW230387   3.638   5.927   6.854
 9830SOL     OW30388   6.200   2.726   1.938
 9830SOL    HW130389   6.289   2.687   1.917
 9830SOL    HW230390   6.184   2.720   2.037
 9831SOL     OW30391   2.188   5.500   1.026
 9831SOL    HW130392   2.280   5.474   1.056
 9831SOL    HW230393   2.133   5.418   1.013
 9832SOL     OW30394   4.707   5.475   2.834
 9832SOL    HW130395   4.761   5.399   2.870
 9832SOL    HW230396   4.745   5.562   2.869
 9833SOL     OW30397   3.830   3.845   5.090
 9833SOL    HW130398   3.830   3.836   5.189
 9833SOL    HW230399   3.911   3.799   5.052
 9834SOL     OW30400   3.189   4.497   5.422
 9834SOL    HW130401   3.110   4.557   5.411
 9834SOL    HW230402   3.269   4.537   5.376
 9835SOL     OW30403   3.497   2.894   5.532
 9835SOL    HW130404   3.458   2.878   5.441
 9835SOL    HW230405   3.435   2.859   5.602
 9836SOL     OW30406   6.322   4.453   4.037
 9836SOL    HW130407   6.413   4.493   4.027
 9836SOL    HW230408   6.284   4.433   3.946
 9837SOL     OW30409   3.390   0.424   3.037
 9837SOL    HW130410   3.327   0.470   3.100
 9837SOL    HW230411   3.398   0.478   2.953
 9838SOL     OW30412   1.081   6.393   5.999
 9838SOL    HW130413   1.086   6.412   5.901
 9838SOL    HW230414   1.126   6.466   6.050
 9839SOL     OW30415   6.008   1.411   3.889
 9839SOL    HW130416   6.000   1.500   3.844
 9839SOL    HW230417   5.934   1.401   3.954
 9840SOL     OW30418   6.799   1.913   1.054
 9840SOL    HW130419   6.843   1.921   1.144
 9840SOL    HW230420   6.870   1.906   0.984
 9841SOL     OW30421   1.913   4.106   4.607
 9841SOL    HW130422   1.836   4.044   4.618
 9841SOL    HW230423   1.997   4.060   4.635
 9842SOL     OW30424   4.108   3.226   2.474
 9842SOL    HW130425   4.121   3.204   2.571
 9842SOL    HW230426   4.195   3.213   2.426
 9843SOL     OW30427   5.291   0.918   0.940
 9843SOL    HW130428   5.309   0.915   1.038
 9843SOL    HW230429   5.256   0.829   0.910
 9844SOL     OW30430   6.040   0.979   1.934
 9844SOL    HW130431   5.948   0.955   1.906
 9844SOL    HW230432   6.053   1.078   1.926
 9845SOL     OW30433   3.082   2.216   4.131
 9845SOL    HW130434   3.119   2.279   4.200
 9845SOL    HW230435   3.133   2.130   4.134
 9846SOL     OW30436   3.832   3.473   1.766
 9846SOL    HW130437   3.803   3.469   1.671
 9846SOL    HW230438   3.754   3.452   1.826
 9847SOL     OW30439   3.500   2.974   4.473
 9847SOL    HW130440   3.567   2.910   4.435
 9847SOL    HW230441   3.528   2.999   4.566
 9848SOL     OW30442   2.915   3.366   5.873
 9848SOL    HW130443   2.832   3.323   5.909
 9848SOL    HW230444   2.889   3.440   5.810
 9849SOL     OW30445   0.779   0.224   6.855
 9849SOL    HW130446   0.718   0.158   6.812
 9849SOL    HW230447   0.782   0.307   6.800
 9850SOL     OW30448   5.654   0.133   3.727
 9850SOL    HW130449   5.681   0.165   3.818
 9850SOL    HW230450   5.642   0.212   3.667
 9851SOL     OW30451   4.801   0.937   4.923
 9851SOL    HW130452   4.745   0.876   4.979
 9851SOL    HW230453   4.896   0.906   4.925
 9852SOL     OW30454   4.288   2.079   2.632
 9852SOL    HW130455   4.322   1.985   2.630
 9852SOL    HW230456   4.291   2.117   2.540
 9853SOL     OW30457   5.241   4.348   4.629
 9853SOL    HW130458   5.180   4.312   4.700
 9853SOL    HW230459   5.309   4.409   4.671
 9854SOL     OW30460   0.447   6.011   4.789
 9854SOL    HW130461   0.474   6.044   4.879
 9854SOL    HW230462   0.432   6.090   4.728
 9855SOL     OW30463   2.306   2.825   0.969
 9855SOL    HW130464   2.383   2.772   0.933
 9855SOL    HW230465   2.225   2.766   0.974
 9856SOL     OW30466   5.006   4.470   5.310
 9856SOL    HW130467   4.950   4.494   5.389
 9856SOL    HW230468   4.983   4.530   5.233
 9857SOL     OW30469   4.381   2.291   3.315
 9857SOL    HW130470   4.404   2.311   3.219
 9857SOL    HW230471   4.386   2.376   3.368
 9858SOL     OW30472   0.380   0.662   0.799
 9858SOL    HW130473   0.290   0.645   0.841
 9858SOL    HW230474   0.451   0.617   0.854
 9859SOL     OW30475   6.473   6.894   1.898
 9859SOL    HW130476   6.379   6.871   1.873
 9859SOL    HW230477   6.533   6.817   1.878
 9860SOL     OW30478   0.907   1.480   3.893
 9860SOL    HW130479   0.862   1.400   3.932
 9860SOL    HW230480   0.938   1.458   3.800
 9861SOL     OW30481   3.320   0.009   3.329
 9861SOL    HW130482   3.259   6.994   3.259
 9861SOL    HW230483   3.283   7.012   3.420
 9862SOL     OW30484   3.843   4.150   0.254
 9862SOL    HW130485   3.898   4.225   0.216
 9862SOL    HW230486   3.749   4.158   0.221
 9863SOL     OW30487   3.318   0.246   2.679
 9863SOL    HW130488   3.219   0.236   2.687
 9863SOL    HW230489   3.346   0.222   2.586
 9864SOL     OW30490   3.826   6.616   3.985
 9864SOL    HW130491   3.832   6.663   3.896
 9864SOL    HW230492   3.817   6.518   3.970
 9865SOL     OW30493   1.496   1.048   4.197
 9865SOL    HW130494   1.581   1.099   4.209
 9865SOL    HW230495   1.508   0.956   4.234
 9866SOL     OW30496   4.784   4.812   6.442
 9866SOL    HW130497   4.730   4.896   6.432
 9866SOL    HW230498   4.878   4.835   6.466
 9867SOL     OW30499   6.305   0.895   0.622
 9867SOL    HW130500   6.278   0.964   0.690
 9867SOL    HW230501   6.228   0.877   0.561
 9868SOL     OW30502   0.615   3.652   5.960
 9868SOL    HW130503   0.576   3.725   6.017
 9868SOL    HW230504   0.635   3.573   6.018
 9869SOL     OW30505   1.754   3.074   2.288
 9869SOL    HW130506   1.808   2.990   2.292
 9869SOL    HW230507   1.658   3.052   2.271
 9870SOL     OW30508   3.846   5.571   2.566
 9870SOL    HW130509   3.746   5.576   2.555
 9870SOL    HW230510   3.882   5.663   2.581
 9871SOL     OW30511   0.185   5.799   5.877
 9871SOL    HW130512   0.198   5.764   5.784
 9871SOL    HW230513   0.262   5.857   5.901
 9872SOL     OW30514   2.183   4.902   4.324
 9872SOL    HW130515   2.116   4.890   4.251
 9872SOL    HW230516   2.236   4.985   4.308
 9873SOL     OW30517   2.511   2.658   0.263
 9873SOL    HW130518   2.568   2.673   0.182
 9873SOL    HW230519   2.565   2.609   0.332
 9874SOL     OW30520   6.825   3.516   4.893
 9874SOL    HW130521   6.862   3.443   4.836
 9874SOL    HW230522   6.900   3.575   4.925
 9875SOL     OW30523   6.302   6.021   2.000
 9875SOL    HW130524   6.285   5.942   2.059
 9875SOL    HW230525   6.399   6.022   1.973
 9876SOL     OW30526   6.502   0.396   2.893
 9876SOL    HW130527   6.420   0.437   2.852
 9876SOL    HW230528   6.582   0.419   2.837
 9877SOL     OW30529   6.936   6.287   3.986
 9877SOL    HW130530   6.849   6.336   3.988
 9877SOL    HW230531   6.957   6.252   4.077
 9878SOL     OW30532   2.699   4.820   5.172
 9878SOL    HW130533   2.763   4.763   5.122
 9878SOL    HW230534   2.624   4.764   5.207
 9879SOL     OW30535   5.755   5.399   5.030
 9879SOL    HW130536   5.770   5.304   5.001
 9879SOL    HW230537   5.698   5.446   4.962
 9880SOL     OW30538   3.329   0.875   5.830
 9880SOL    HW130539   3.235   0.851   5.854
 9880SOL    HW230540   3.389   0.857   5.907
 9881SOL     OW30541   0.920   0.970   4.993
 9881SOL    HW130542   0.886   0.908   4.922
 9881SOL    HW230543   0.978   1.039   4.951
 9882SOL     OW30544   1.050   3.926   3.561
 9882SOL    HW130545   0.960   3.909   3.601
 9882SOL    HW230546   1.076   3.849   3.502
 9883SOL     OW30547   1.217   6.610   0.291
 9883SOL    HW130548   1.189   6.704   0.309
 9883SOL    HW230549   1.288   6.609   0.221
 9884SOL     OW30550   5.066   2.113   1.853
 9884SOL    HW130551   5.086   2.071   1.765
 9884SOL    HW230552   5.008   2.193   1.840
 9885SOL     OW30553   6.521   2.283   4.885
 9885SOL    HW130554   6.583   2.347   4.839
 9885SOL    HW230555   6.506   2.314   4.979
 9886SOL     OW30556   1.526   4.689   2.865
 9886SOL    HW130557   1.548   4.782   2.836
 9886SOL    HW230558   1.556   4.675   2.960
 9887SOL     OW30559   3.915   0.616   6.606
 9887SOL    HW130560   3.826   0.578   6.581
 9887SOL    HW230561   3.967   0.547   6.656
 9888SOL     OW30562   5.646   4.685   3.004
 9888SOL    HW130563   5.723   4.742   2.976
 9888SOL    HW230564   5.615   4.629   2.927
 9889SOL     OW30565   6.818   5.310   2.093
 9889SOL    HW130566   6.810   5.216   2.125
 9889SOL    HW230567   6.760   5.369   2.149
 9890SOL     OW30568   1.774   2.167   0.540
 9890SOL    HW130569   1.831   2.156   0.459
 9890SOL    HW230570   1.832   2.180   0.621
 9891SOL     OW30571   4.978   3.695   2.026
 9891SOL    HW130572   4.892   3.728   1.986
 9891SOL    HW230573   4.993   3.739   2.115
 9892SOL     OW30574   0.138   4.739   1.295
 9892SOL    HW130575   0.205   4.720   1.223
 9892SOL    HW230576   0.073   4.663   1.300
 9893SOL     OW30577   0.688   0.746   1.396
 9893SOL    HW130578   0.607   0.696   1.363
 9893SOL    HW230579   0.733   0.789   1.318
 9894SOL     OW30580   3.426   2.741   0.214
 9894SOL    HW130581   3.350   2.789   0.259
 9894SOL    HW230582   3.466   2.675   0.277
 9895SOL     OW30583   5.865   4.977   4.781
 9895SOL    HW130584   5.963   4.972   4.761
 9895SOL    HW230585   5.818   4.902   4.735
 9896SOL     OW30586   6.323   1.504   6.769
 9896SOL    HW130587   6.335   1.602   6.788
 9896SOL    HW230588   6.259   1.493   6.693
 9897SOL     OW30589   5.326   6.237   2.388
 9897SOL    HW130590   5.228   6.254   2.400
 9897SOL    HW230591   5.358   6.176   2.460
 9898SOL     OW30592   1.639   5.761   4.904
 9898SOL    HW130593   1.549   5.757   4.946
 9898SOL    HW230594   1.637   5.715   4.815
 9899SOL     OW30595   1.487   5.798   0.776
 9899SOL    HW130596   1.408   5.754   0.819
 9899SOL    HW230597   1.456   5.862   0.706
 9900SOL     OW30598   1.690   2.570   3.244
 9900SOL    HW130599   1.748   2.541   3.321
 9900SOL    HW230600   1.644   2.490   3.206
 9901SOL     OW30601   3.032   0.432   6.816
 9901SOL    HW130602   2.987   0.381   6.890
 9901SOL    HW230603   2.964   0.457   6.746
 9902SOL     OW30604   3.374   5.070   1.558
 9902SOL    HW130605   3.450   5.129   1.586
 9902SOL    HW230606   3.320   5.044   1.638
 9903SOL     OW30607   5.789   2.483   1.525
 9903SOL    HW130608   5.754   2.483   1.431
 9903SOL    HW230609   5.834   2.570   1.544
 9904SOL     OW30610   0.883   3.911   6.956
 9904SOL    HW130611   0.797   3.940   6.997
 9904SOL    HW230612   0.866   3.839   6.889
 9905SOL     OW30613   2.256   0.591   6.420
 9905SOL    HW130614   2.311   0.520   6.462
 9905SOL    HW230615   2.253   0.577   6.321
 9906SOL     OW30616   1.836   3.243   1.143
 9906SOL    HW130617   1.890   3.181   1.087
 9906SOL    HW230618   1.871   3.336   1.132
 9907SOL     OW30619   1.243   0.221   1.197
 9907SOL    HW130620   1.184   0.220   1.278
 9907SOL    HW230621   1.253   0.314   1.163
 9908SOL     OW30622   6.288   1.467   5.500
 9908SOL    HW130623   6.309   1.456   5.597
 9908SOL    HW230624   6.254   1.380   5.463
 9909SOL     OW30625   4.829   1.341   3.150
 9909SOL    HW130626   4.734   1.366   3.128
 9909SOL    HW230627   4.887   1.357   3.070
 9910SOL     OW30628   1.387   4.828   1.504
 9910SOL    HW130629   1.288   4.820   1.493
 9910SOL    HW230630   1.430   4.740   1.485
 9911SOL     OW30631   3.116   6.092   2.403
 9911SOL    HW130632   3.205   6.064   2.439
 9911SOL    HW230633   3.107   6.060   2.309
 9912SOL     OW30634   3.698   0.564   1.502
 9912SOL    HW130635   3.691   0.655   1.543
 9912SOL    HW230636   3.607   0.532   1.476
 9913SOL     OW30637   6.460   3.946   0.447
 9913SOL    HW130638   6.418   3.857   0.427
 9913SOL    HW230639   6.390   4.017   0.445
 9914SOL     OW30640   5.768   1.140   4.850
 9914SOL    HW130641   5.735   1.070   4.786
 9914SOL    HW230642   5.858   1.171   4.822
 9915SOL     OW30643   6.360   0.859   3.551
 9915SOL    HW130644   6.327   0.764   3.550
 9915SOL    HW230645   6.460   0.859   3.547
 9916SOL     OW30646   2.102   2.719   3.024
 9916SOL    HW130647   2.088   2.818   3.022
 9916SOL    HW230648   2.198   2.699   3.041
 9917SOL     OW30649   4.351   3.826   6.235
 9917SOL    HW130650   4.292   3.905   6.219
 9917SOL    HW230651   4.411   3.844   6.312
 9918SOL     OW30652   2.043   2.043   3.352
 9918SOL    HW130653   2.039   2.028   3.451
 9918SOL    HW230654   2.038   2.141   3.334
 9919SOL     OW30655   1.039   5.388   0.674
 9919SOL    HW130656   1.057   5.434   0.587
 9919SOL    HW230657   1.049   5.289   0.663
 9920SOL     OW30658   4.813   0.824   2.277
 9920SOL    HW130659   4.828   0.874   2.362
 9920SOL    HW230660   4.878   0.748   2.270
 9921SOL     OW30661   4.000   6.243   4.677
 9921SOL    HW130662   4.068   6.266   4.608
 9921SOL    HW230663   4.044   6.196   4.754
 9922SOL     OW30664   2.286   3.769   0.391
 9922SOL    HW130665   2.228   3.715   0.452
 9922SOL    HW230666   2.370   3.719   0.372
 9923SOL     OW30667   5.970   4.821   0.213
 9923SOL    HW130668   5.987   4.816   0.311
 9923SOL    HW230669   5.900   4.890   0.195
 9924SOL     OW30670   5.907   1.785   3.135
 9924SOL    HW130671   5.969   1.724   3.086
 9924SOL    HW230672   5.932   1.880   3.115
 9925SOL     OW30673   0.571   4.998   4.298
 9925SOL    HW130674   0.641   5.012   4.228
 9925SOL    HW230675   0.567   4.901   4.322
 9926SOL     OW30676   4.704   2.864   1.523
 9926SOL    HW130677   4.607   2.855   1.543
 9926SOL    HW230678   4.732   2.959   1.536
 9927SOL     OW30679   1.689   0.081   0.675
 9927SOL    HW130680   1.649   0.004   0.724
 9927SOL    HW230681   1.617   0.131   0.627
 9928SOL     OW30682   5.111   4.956   2.795
 9928SOL    HW130683   5.180   4.994   2.857
 9928SOL    HW230684   5.084   4.865   2.825
 9929SOL     OW30685   3.167   4.140   5.133
 9929SOL    HW130686   3.249   4.144   5.190
 9929SOL    HW230687   3.094   4.196   5.174
 9930SOL     OW30688   6.679   6.751   5.261
 9930SOL    HW130689   6.662   6.671   5.319
 9930SOL    HW230690   6.777   6.760   5.244
 9931SOL     OW30691   0.503   5.527   4.187
 9931SOL    HW130692   0.593   5.501   4.220
 9931SOL    HW230693   0.477   5.467   4.111
 9932SOL     OW30694   2.623   3.641   6.434
 9932SOL    HW130695   2.687   3.654   6.358
 9932SOL    HW230696   2.666   3.670   6.519
 9933SOL     OW30697   1.121   6.846   4.062
 9933SOL    HW130698   1.167   6.757   4.058
 9933SOL    HW230699   1.087   6.861   4.155
 9934SOL     OW30700   6.268   2.074   6.000
 9934SOL    HW130701   6.207   2.024   6.062
 9934SOL    HW230702   6.290   2.017   5.921
 9935SOL     OW30703   3.078   6.842   0.559
 9935SOL    HW130704   3.028   6.760   0.585
 9935SOL    HW230705   3.017   6.921   0.563
 9936SOL     OW30706   6.751   4.577   0.488
 9936SOL    HW130707   6.679   4.533   0.433
 9936SOL    HW230708   6.709   4.617   0.570
 9937SOL     OW30709   0.378   2.088   1.577
 9937SOL    HW130710   0.421   2.146   1.508
 9937SOL    HW230711   0.339   2.008   1.533
 9938SOL     OW30712   6.196   5.334   3.786
 9938SOL    HW130713   6.142   5.258   3.750
 9938SOL    HW230714   6.292   5.321   3.761
 9939SOL     OW30715   4.508   2.585   1.351
 9939SOL    HW130716   4.431   2.595   1.413
 9939SOL    HW230717   4.527   2.672   1.306
 9940SOL     OW30718   0.816   1.045   1.665
 9940SOL    HW130719   0.742   1.039   1.597
 9940SOL    HW230720   0.777   1.058   1.756
 9941SOL     OW30721   3.209   2.992   4.751
 9941SOL    HW130722   3.198   2.992   4.652
 9941SOL    HW230723   3.173   2.907   4.789
 9942SOL     OW30724   2.655   5.380   2.514
 9942SOL    HW130725   2.580   5.392   2.449
 9942SOL    HW230726   2.736   5.427   2.480
 9943SOL     OW30727   0.433   4.145   5.560
 9943SOL    HW130728   0.387   4.231   5.582
 9943SOL    HW230729   0.492   4.119   5.637
 9944SOL     OW30730   0.767   4.406   6.465
 9944SOL    HW130731   0.854   4.393   6.417
 9944SOL    HW230732   0.733   4.318   6.498
 9945SOL     OW30733   4.576   5.672   6.643
 9945SOL    HW130734   4.620   5.743   6.698
 9945SOL    HW230735   4.538   5.714   6.560
 9946SOL     OW30736   5.943   0.946   3.454
 9946SOL    HW130737   6.043   0.953   3.465
 9946SOL    HW230738   5.921   0.942   3.356
 9947SOL     OW30739   2.675   2.375   4.596
 9947SOL    HW130740   2.752   2.408   4.650
 9947SOL    HW230741   2.708   2.344   4.507
 9948SOL     OW30742   6.222   4.481   6.143
 9948SOL    HW130743   6.241   4.576   6.170
 9948SOL    HW230744   6.162   4.439   6.210
 9949SOL     OW30745   6.418   5.028   4.070
 9949SOL    HW130746   6.340   4.965   4.068
 9949SOL    HW230747   6.439   5.059   3.978
 9950SOL     OW30748   5.420   6.289   5.660
 9950SOL    HW130749   5.470   6.349   5.723
 9950SOL    HW230750   5.478   6.269   5.581
 9951SOL     OW30751   1.163   1.715   3.843
 9951SOL    HW130752   1.162   1.631   3.898
 9951SOL    HW230753   1.131   1.694   3.750
 9952SOL     OW30754   1.239   4.615   0.453
 9952SOL    HW130755   1.171   4.687   0.445
 9952SOL    HW230756   1.240   4.561   0.369
 9953SOL     OW30757   5.894   2.287   4.861
 9953SOL    HW130758   5.889   2.293   4.762
 9953SOL    HW230759   5.801   2.282   4.899
 9954SOL     OW30760   0.609   0.733   5.810
 9954SOL    HW130761   0.575   0.819   5.772
 9954SOL    HW230762   0.644   0.749   5.902
 9955SOL     OW30763   5.841   3.718   5.987
 9955SOL    HW130764   5.873   3.624   5.973
 9955SOL    HW230765   5.896   3.761   6.058
 9956SOL     OW30766   0.425   5.860   2.679
 9956SOL    HW130767   0.327   5.875   2.670
 9956SOL    HW230768   0.447   5.829   2.771
 9957SOL     OW30769   5.456   6.781   1.959
 9957SOL    HW130770   5.554   6.778   1.976
 9957SOL    HW230771   5.413   6.844   2.024
 9958SOL     OW30772   2.037   5.248   0.016
 9958SOL    HW130773   2.050   5.149   0.016
 9958SOL    HW230774   2.069   5.285   0.103
 9959SOL     OW30775   4.026   3.601   4.440
 9959SOL    HW130776   3.995   3.506   4.432
 9959SOL    HW230777   4.066   3.630   4.354
 9960SOL     OW30778   0.089   0.297   2.230
 9960SOL    HW130779   0.159   0.277   2.162
 9960SOL    HW230780   0.003   0.320   2.184
 9961SOL     OW30781   1.882   5.959   4.535
 9961SOL    HW130782   1.956   5.952   4.468
 9961SOL    HW230783   1.856   5.868   4.566
 9962SOL     OW30784   4.762   6.732   1.437
 9962SOL    HW130785   4.788   6.658   1.375
 9962SOL    HW230786   4.778   6.704   1.532
 9963SOL     OW30787   2.590   3.037   6.541
 9963SOL    HW130788   2.668   3.029   6.479
 9963SOL    HW230789   2.505   3.042   6.488
 9964SOL     OW30790   4.801   3.619   5.746
 9964SOL    HW130791   4.880   3.678   5.763
 9964SOL    HW230792   4.718   3.675   5.743
 9965SOL     OW30793   3.760   5.599   6.750
 9965SOL    HW130794   3.833   5.623   6.814
 9965SOL    HW230795   3.782   5.637   6.660
 9966SOL     OW30796   2.210   5.457   2.084
 9966SOL    HW130797   2.292   5.510   2.105
 9966SOL    HW230798   2.164   5.496   2.005
 9967SOL     OW30799   6.290   6.681   2.522
 9967SOL    HW130800   6.265   6.774   2.550
 9967SOL    HW230801   6.295   6.678   2.422
 9968SOL     OW30802   2.954   3.330   6.761
 9968SOL    HW130803   2.935   3.407   6.822
 9968SOL    HW230804   2.958   3.362   6.666
 9969SOL     OW30805   2.130   3.103   3.654
 9969SOL    HW130806   2.163   3.046   3.580
 9969SOL    HW230807   2.194   3.099   3.731
 9970SOL     OW30808   5.340   4.068   3.037
 9970SOL    HW130809   5.401   4.148   3.041
 9970SOL    HW230810   5.250   4.093   3.073
 9971SOL     OW30811   2.635   3.956   0.586
 9971SOL    HW130812   2.580   3.984   0.508
 9971SOL    HW230813   2.614   4.014   0.665
 9972SOL     OW30814   3.721   4.596   1.442
 9972SOL    HW130815   3.660   4.675   1.449
 9972SOL    HW230816   3.706   4.551   1.355
 9973SOL     OW30817   4.008   2.158   4.447
 9973SOL    HW130818   3.921   2.197   4.477
 9973SOL    HW230819   4.009   2.150   4.347
 9974SOL     OW30820   6.662   3.662   3.731
 9974SOL    HW130821   6.667   3.714   3.816
 9974SOL    HW230822   6.576   3.683   3.684
 9975SOL     OW30823   7.011   4.913   0.104
 9975SOL    HW130824   0.007   4.952   0.014
 9975SOL    HW230825   6.964   4.825   0.094
 9976SOL     OW30826   0.352   5.657   5.407
 9976SOL    HW130827   0.422   5.724   5.431
 9976SOL    HW230828   0.310   5.684   5.320
 9977SOL     OW30829   0.190   5.296   5.555
 9977SOL    HW130830   0.156   5.322   5.464
 9977SOL    HW230831   0.277   5.340   5.572
 9978SOL     OW30832   6.242   2.996   3.257
 9978SOL    HW130833   6.330   2.979   3.214
 9978SOL    HW230834   6.228   2.929   3.331
 9979SOL     OW30835   6.726   4.565   5.706
 9979SOL    HW130836   6.635   4.587   5.742
 9979SOL    HW230837   6.796   4.606   5.765
 9980SOL     OW30838   1.866   1.897   6.201
 9980SOL    HW130839   1.780   1.932   6.238
 9980SOL    HW230840   1.883   1.806   6.238
 9981SOL     OW30841   3.061   1.872   1.864
 9981SOL    HW130842   3.096   1.954   1.908
 9981SOL    HW230843   2.961   1.874   1.864
 9982SOL     OW30844   0.615   0.722   3.242
 9982SOL    HW130845   0.579   0.815   3.248
 9982SOL    HW230846   0.544   0.656   3.267
 9983SOL     OW30847   0.550   2.824   3.774
 9983SOL    HW130848   0.606   2.830   3.691
 9983SOL    HW230849   0.581   2.748   3.830
 9984SOL     OW30850   2.049   1.103   0.429
 9984SOL    HW130851   2.019   1.172   0.364
 9984SOL    HW230852   2.049   1.013   0.385
 9985SOL     OW30853   2.374   1.001   1.803
 9985SOL    HW130854   2.450   0.977   1.863
 9985SOL    HW230855   2.288   0.975   1.847
 9986SOL     OW30856   4.530   4.375   6.503
 9986SOL    HW130857   4.472   4.363   6.584
 9986SOL    HW230858   4.564   4.469   6.501
 9987SOL     OW30859   6.207   2.275   3.453
 9987SOL    HW130860   6.137   2.307   3.389
 9987SOL    HW230861   6.257   2.354   3.490
 9988SOL     OW30862   0.511   5.826   4.573
 9988SOL    HW130863   0.564   5.872   4.502
 9988SOL    HW230864   0.487   5.892   4.645
 9989SOL     OW30865   6.166   4.409   3.788
 9989SOL    HW130866   6.093   4.476   3.773
 9989SOL    HW230867   6.233   4.416   3.713
 9990SOL     OW30868   2.914   6.390   2.114
 9990SOL    HW130869   2.865   6.476   2.102
 9990SOL    HW230870   2.964   6.368   2.030
 9991SOL     OW30871   1.851   3.004   4.220
 9991SOL    HW130872   1.787   2.938   4.180
 9991SOL    HW230873   1.935   2.957   4.246
 9992SOL     OW30874   5.262   4.306   0.379
 9992SOL    HW130875   5.238   4.240   0.308
 9992SOL    HW230876   5.180   4.356   0.407
 9993SOL     OW30877   3.978   0.680   1.738
 9993SOL    HW130878   3.931   0.592   1.750
 9993SOL    HW230879   3.915   0.754   1.761
 9994SOL     OW30880   6.968   4.953   3.565
 9994SOL    HW130881   6.918   5.020   3.510
 9994SOL    HW230882   6.987   4.991   3.655
 9995SOL     OW30883   3.893   1.457   3.119
 9995SOL    HW130884   3.900   1.463   3.019
 9995SOL    HW230885   3.828   1.525   3.152
 9996SOL     OW30886   2.524   3.252   1.662
 9996SOL    HW130887   2.472   3.322   1.711
 9996SOL    HW230888   2.474   3.225   1.579
 9997SOL     OW30889   3.740   1.720   0.961
 9997SOL    HW130890   3.839   1.729   0.953
 9997SOL    HW230891   3.710   1.754   1.050
 9998SOL     OW30892   5.761   4.269   0.918
 9998SOL    HW130893   5.702   4.349   0.908
 9998SOL    HW230894   5.742   4.225   1.006
 9999SOL     OW30895   6.675   2.704   5.284
 9999SOL    HW130896   6.608   2.718   5.357
 9999SOL    HW230897   6.743   2.776   5.287
10000SOL     OW30898   7.023   3.361   0.417
10000SOL    HW130899   6.927   3.368   0.445
10000SOL    HW230900   0.029   3.265   0.424
10001SOL     OW30901   4.966   0.758   1.878
10001SOL    HW130902   4.947   0.678   1.935
10001SOL    HW230903   4.890   0.774   1.816
10002SOL     OW30904   1.813   0.894   2.557
10002SOL    HW130905   1.896   0.839   2.559
10002SOL    HW230906   1.763   0.884   2.642
10003SOL     OW30907   3.547   1.868   3.760
10003SOL    HW130908   3.604   1.944   3.729
10003SOL    HW230909   3.479   1.846   3.690
10004SOL     OW30910   4.943   2.540   3.792
10004SOL    HW130911   4.970   2.581   3.705
10004SOL    HW230912   4.929   2.442   3.779
10005SOL     OW30913   4.230   0.682   3.828
10005SOL    HW130914   4.155   0.666   3.763
10005SOL    HW230915   4.205   0.756   3.890
10006SOL     OW30916   5.226   0.185   4.232
10006SOL    HW130917   5.127   0.201   4.226
10006SOL    HW230918   5.274   0.247   4.171
10007SOL     OW30919   0.711   5.514   4.800
10007SOL    HW130920   0.643   5.469   4.742
10007SOL    HW230921   0.706   5.477   4.892
10008SOL     OW30922   4.362   1.191   4.786
10008SOL    HW130923   4.460   1.207   4.797
10008SOL    HW230924   4.310   1.267   4.825
10009SOL     OW30925   1.939   4.027   1.630
10009SOL    HW130926   2.018   4.002   1.575
10009SOL    HW230927   1.964   4.100   1.693
10010SOL     OW30928   1.920   0.282   5.664
10010SOL    HW130929   1.921   0.185   5.637
10010SOL    HW230930   1.978   0.294   5.744
10011SOL     OW30931   5.934   1.395   4.464
10011SOL    HW130932   5.914   1.463   4.534
10011SOL    HW230933   6.023   1.414   4.423
10012SOL     OW30934   4.887   1.155   3.355
10012SOL    HW130935   4.872   1.181   3.450
10012SOL    HW230936   4.885   1.236   3.297
10013SOL     OW30937   0.987   1.412   3.630
10013SOL    HW130938   1.049   1.450   3.562
10013SOL    HW230939   0.970   1.316   3.610
10014SOL     OW30940   6.729   4.037   0.467
10014SOL    HW130941   6.634   4.042   0.435
10014SOL    HW230942   6.767   3.948   0.444
10015SOL     OW30943   1.631   3.505   0.185
10015SOL    HW130944   1.642   3.474   0.091
10015SOL    HW230945   1.620   3.426   0.245
10016SOL     OW30946   1.543   0.917   6.331
10016SOL    HW130947   1.599   0.877   6.404
10016SOL    HW230948   1.466   0.856   6.311
10017SOL     OW30949   2.953   2.142   3.064
10017SOL    HW130950   3.012   2.146   2.983
10017SOL    HW230951   2.875   2.204   3.051
10018SOL     OW30952   4.566   6.669   5.368
10018SOL    HW130953   4.628   6.747   5.355
10018SOL    HW230954   4.489   6.677   5.305
10019SOL     OW30955   6.707   2.445   2.901
10019SOL    HW130956   6.613   2.466   2.873
10019SOL    HW230957   6.739   2.364   2.852
10020SOL     OW30958   1.512   2.163   1.550
10020SOL    HW130959   1.496   2.116   1.637
10020SOL    HW230960   1.564   2.103   1.489
10021SOL     OW30961   0.143   2.745   1.310
10021SOL    HW130962   0.147   2.706   1.402
10021SOL    HW230963   0.052   2.784   1.294
10022SOL     OW30964   2.568   0.201   6.495
10022SOL    HW130965   2.656   0.162   6.523
10022SOL    HW230966   2.579   0.248   6.407
10023SOL     OW30967   1.227   5.324   6.948
10023SOL    HW130968   1.218   5.241   6.893
10023SOL    HW230969   1.295   5.384   6.907
10024SOL     OW30970   1.500   6.623   1.906
10024SOL    HW130971   1.447   6.703   1.879
10024SOL    HW230972   1.554   6.644   1.988
10025SOL     OW30973   1.705   1.285   1.488
10025SOL    HW130974   1.794   1.252   1.456
10025SOL    HW230975   1.635   1.262   1.421
10026SOL     OW30976   5.327   6.658   3.463
10026SOL    HW130977   5.251   6.623   3.409
10026SOL    HW230978   5.367   6.584   3.516
10027SOL     OW30979   6.228   3.756   5.155
10027SOL    HW130980   6.299   3.703   5.201
10027SOL    HW230981   6.201   3.833   5.213
10028SOL     OW30982   1.734   0.959   1.925
10028SOL    HW130983   1.679   0.909   1.857
10028SOL    HW230984   1.793   1.025   1.878
10029SOL     OW30985   4.700   1.789   4.914
10029SOL    HW130986   4.603   1.765   4.918
10029SOL    HW230987   4.710   1.884   4.885
10030SOL     OW30988   2.676   0.203   3.528
10030SOL    HW130989   2.750   0.163   3.474
10030SOL    HW230990   2.588   0.180   3.487
10031SOL     OW30991   6.244   5.239   4.927
10031SOL    HW130992   6.196   5.274   5.007
10031SOL    HW230993   6.249   5.139   4.933
10032SOL     OW30994   2.147   1.673   5.233
10032SOL    HW130995   2.107   1.725   5.158
10032SOL    HW230996   2.242   1.702   5.248
10033SOL     OW30997   5.532   2.590   4.476
10033SOL    HW130998   5.498   2.506   4.434
10033SOL    HW230999   5.631   2.584   4.488
10034SOL     OW31000   3.115   0.293   3.952
10034SOL    HW131001   3.190   0.243   3.995
10034SOL    HW231002   3.099   0.378   4.002
10035SOL     OW31003   5.990   4.106   1.446
10035SOL    HW131004   6.087   4.115   1.468
10035SOL    HW231005   5.935   4.125   1.528
10036SOL     OW31006   6.431   2.364   1.379
10036SOL    HW131007   6.481   2.449   1.359
10036SOL    HW231008   6.349   2.385   1.431
10037SOL     OW31009   0.097   1.587   0.710
10037SOL    HW131010   0.105   1.581   0.809
10037SOL    HW231011   0.001   1.583   0.684
10038SOL     OW31012   5.482   0.494   0.007
10038SOL    HW131013   5.578   0.466   0.006
10038SOL    HW231014   5.438   0.463   6.945
10039SOL     OW31015   3.356   0.489   3.705
10039SOL    HW131016   3.278   0.467   3.646
10039SOL    HW231017   3.375   0.587   3.700
10040SOL     OW31018   5.367   4.951   6.799
10040SOL    HW131019   5.339   4.864   6.758
10040SOL    HW231020   5.437   4.933   6.869
10041SOL     OW31021   4.298   5.823   0.032
10041SOL    HW131022   4.277   5.905   7.002
10041SOL    HW231023   4.336   5.753   6.995
10042SOL     OW31024   0.396   2.465   3.911
10042SOL    HW131025   0.388   2.562   3.889
10042SOL    HW231026   0.328   2.413   3.858
10043SOL     OW31027   6.506   0.941   4.810
10043SOL    HW131028   6.502   1.021   4.871
10043SOL    HW231029   6.424   0.938   4.753
10044SOL     OW31030   1.863   2.395   4.082
10044SOL    HW131031   1.771   2.356   4.083
10044SOL    HW231032   1.930   2.322   4.067
10045SOL     OW31033   4.045   0.258   2.042
10045SOL    HW131034   4.033   0.356   2.024
10045SOL    HW231035   4.123   0.245   2.103
10046SOL     OW31036   2.015   3.327   0.750
10046SOL    HW131037   1.920   3.299   0.758
10046SOL    HW231038   2.019   3.424   0.723
10047SOL     OW31039   0.607   3.286   4.533
10047SOL    HW131040   0.683   3.279   4.598
10047SOL    HW231041   0.574   3.195   4.511
10048SOL     OW31042   0.434   6.813   2.224
10048SOL    HW131043   0.475   6.856   2.143
10048SOL    HW231044   0.372   6.740   2.195
10049SOL     OW31045   2.124   1.338   5.729
10049SOL    HW131046   2.205   1.342   5.671
10049SOL    HW231047   2.135   1.264   5.796
10050SOL     OW31048   5.991   4.076   5.150
10050SOL    HW131049   6.039   4.048   5.234
10050SOL    HW231050   5.907   4.123   5.175
10051SOL     OW31051   0.489   4.400   4.706
10051SOL    HW131052   0.466   4.316   4.657
10051SOL    HW231053   0.586   4.401   4.729
10052SOL     OW31054   2.287   1.154   3.424
10052SOL    HW131055   2.353   1.180   3.353
10052SOL    HW231056   2.335   1.142   3.511
10053SOL     OW31057   4.379   5.915   4.354
10053SOL    HW131058   4.330   5.967   4.284
10053SOL    HW231059   4.367   5.817   4.338
10054SOL     OW31060   6.131   4.919   5.680
10054SOL    HW131061   6.084   4.863   5.749
10054SOL    HW231062   6.104   5.014   5.692
10055SOL     OW31063   6.341   1.902   5.297
10055SOL    HW131064   6.341   1.992   5.253
10055SOL    HW231065   6.399   1.839   5.245
10056SOL     OW31066   5.393   4.666   3.579
10056SOL    HW131067   5.394   4.589   3.515
10056SOL    HW231068   5.358   4.635   3.667
10057SOL     OW31069   5.403   4.269   5.197
10057SOL    HW131070   5.448   4.347   5.154
10057SOL    HW231071   5.473   4.203   5.227
10058SOL     OW31072   6.374   3.810   4.941
10058SOL    HW131073   6.302   3.816   5.010
10058SOL    HW231074   6.335   3.778   4.854
10059SOL     OW31075   6.914   1.659   0.257
10059SOL    HW131076   6.833   1.643   0.200
10059SOL    HW231077   6.885   1.676   0.352
10060SOL     OW31078   2.026   2.369   3.050
10060SOL    HW131079   1.962   2.432   3.006
10060SOL    HW231080   2.015   2.277   3.011
10061SOL     OW31081   4.521   0.961   3.898
10061SOL    HW131082   4.563   0.922   3.816
10061SOL    HW231083   4.528   1.060   3.896
10062SOL     OW31084   6.660   0.052   4.388
10062SOL    HW131085   6.630   0.023   4.297
10062SOL    HW231086   6.640   7.003   4.455
10063SOL     OW31087   3.486   1.326   4.900
10063SOL    HW131088   3.501   1.295   4.806
10063SOL    HW231089   3.507   1.424   4.906
10064SOL     OW31090   4.721   5.937   6.462
10064SOL    HW131091   4.738   6.020   6.517
10064SOL    HW231092   4.642   5.952   6.404
10065SOL     OW31093   1.953   1.204   1.386
10065SOL    HW131094   2.020   1.279   1.389
10065SOL    HW231095   1.979   1.134   1.453
10066SOL     OW31096   0.287   2.422   4.965
10066SOL    HW131097   0.360   2.488   4.981
10066SOL    HW231098   0.303   2.373   4.880
10067SOL     OW31099   0.315   3.244   6.447
10067SOL    HW131100   0.331   3.154   6.488
10067SOL    HW231101   0.372   3.254   6.366
10068SOL     OW31102   0.939   4.190   3.477
10068SOL    HW131103   0.957   4.093   3.488
10068SOL    HW231104   1.014   4.243   3.518
10069SOL     OW31105   3.052   5.023   1.592
10069SOL    HW131106   3.045   5.100   1.528
10069SOL    HW231107   3.008   5.047   1.678
10070SOL     OW31108   0.674   5.415   5.052
10070SOL    HW131109   0.597   5.476   5.073
10070SOL    HW231110   0.660   5.327   5.098
10071SOL     OW31111   0.848   0.371   3.898
10071SOL    HW131112   0.754   0.397   3.919
10071SOL    HW231113   0.859   0.359   3.799
10072SOL     OW31114   0.631   1.336   3.599
10072SOL    HW131115   0.694   1.259   3.610
10072SOL    HW231116   0.598   1.365   3.688
10073SOL     OW31117   6.585   4.122   3.904
10073SOL    HW131118   6.665   4.075   3.866
10073SOL    HW231119   6.509   4.115   3.840
10074SOL     OW31120   1.652   5.875   0.493
10074SOL    HW131121   1.626   5.780   0.510
10074SOL    HW231122   1.635   5.897   0.397
10075SOL     OW31123   2.087   0.352   2.644
10075SOL    HW131124   2.103   0.396   2.556
10075SOL    HW231125   1.991   0.365   2.671
10076SOL     OW31126   4.904   5.577   3.148
10076SOL    HW131127   4.911   5.675   3.165
10076SOL    HW231128   4.905   5.560   3.050
10077SOL     OW31129   5.420   2.695   0.917
10077SOL    HW131130   5.458   2.609   0.883
10077SOL    HW231131   5.366   2.677   1.000
10078SOL     OW31132   0.612   6.332   4.602
10078SOL    HW131133   0.674   6.312   4.678
10078SOL    HW231134   0.523   6.291   4.621
10079SOL     OW31135   5.401   1.962   2.724
10079SOL    HW131136   5.354   1.892   2.779
10079SOL    HW231137   5.497   1.938   2.715
10080SOL     OW31138   5.016   0.961   6.448
10080SOL    HW131139   4.972   0.890   6.503
10080SOL    HW231140   4.984   0.955   6.354
10081SOL     OW31141   0.427   1.468   0.232
10081SOL    HW131142   0.469   1.492   0.319
10081SOL    HW231143   0.391   1.374   0.237
10082SOL     OW31144   1.175   5.684   3.237
10082SOL    HW131145   1.249   5.624   3.206
10082SOL    HW231146   1.172   5.684   3.337
10083SOL     OW31147   3.497   6.803   3.849
10083SOL    HW131148   3.479   6.718   3.899
10083SOL    HW231149   3.415   6.830   3.799
10084SOL     OW31150   6.942   6.821   5.212
10084SOL    HW131151   6.915   6.917   5.215
10084SOL    HW231152   6.963   6.795   5.118
10085SOL     OW31153   4.595   6.982   0.727
10085SOL    HW131154   4.512   6.928   0.734
10085SOL    HW231155   4.645   6.979   0.814
10086SOL     OW31156   5.664   6.471   3.287
10086SOL    HW131157   5.629   6.378   3.276
10086SOL    HW231158   5.603   6.536   3.243
10087SOL     OW31159   6.993   6.384   4.487
10087SOL    HW131160   6.924   6.457   4.491
10087SOL    HW231161   0.061   6.423   4.496
10088SOL     OW31162   6.726   0.621   0.697
10088SOL    HW131163   6.801   0.672   0.655
10088SOL    HW231164   6.746   0.523   0.694
10089SOL     OW31165   3.081   1.841   3.319
10089SOL    HW131166   3.166   1.792   3.336
10089SOL    HW231167   3.035   1.801   3.240
10090SOL     OW31168   0.575   4.711   2.187
10090SOL    HW131169   0.588   4.783   2.255
10090SOL    HW231170   0.479   4.706   2.161
10091SOL     OW31171   6.032   6.208   6.579
10091SOL    HW131172   6.086   6.218   6.663
10091SOL    HW231173   6.043   6.116   6.543
10092SOL     OW31174   1.242   3.285   5.311
10092SOL    HW131175   1.230   3.346   5.233
10092SOL    HW231176   1.337   3.289   5.342
10093SOL     OW31177   4.898   3.574   4.792
10093SOL    HW131178   4.920   3.481   4.762
10093SOL    HW231179   4.853   3.571   4.881
10094SOL     OW31180   2.447   6.797   0.743
10094SOL    HW131181   2.508   6.854   0.687
10094SOL    HW231182   2.454   6.702   0.712
10095SOL     OW31183   5.304   1.769   4.916
10095SOL    HW131184   5.297   1.719   5.002
10095SOL    HW231185   5.351   1.712   4.848
10096SOL     OW31186   5.165   0.702   2.362
10096SOL    HW131187   5.075   0.672   2.330
10096SOL    HW231188   5.186   0.658   2.449
10097SOL     OW31189   2.116   2.438   6.498
10097SOL    HW131190   2.042   2.371   6.495
10097SOL    HW231191   2.194   2.405   6.446
10098SOL     OW31192   3.049   6.147   4.629
10098SOL    HW131193   3.030   6.109   4.538
10098SOL    HW231194   3.146   6.136   4.649
10099SOL     OW31195   6.480   4.271   1.985
10099SOL    HW131196   6.508   4.190   2.038
10099SOL    HW231197   6.392   4.303   2.019
10100SOL     OW31198   5.559   5.240   5.564
10100SOL    HW131199   5.606   5.287   5.489
10100SOL    HW231200   5.625   5.215   5.635
10101SOL     OW31201   7.003   2.896   1.866
10101SOL    HW131202   6.957   2.811   1.842
10101SOL    HW231203   0.049   2.877   1.936
10102SOL     OW31204   5.722   0.684   0.870
10102SOL    HW131205   5.792   0.622   0.833
10102SOL    HW231206   5.753   0.720   0.958
10103SOL     OW31207   1.432   0.673   5.082
10103SOL    HW131208   1.345   0.675   5.130
10103SOL    HW231209   1.431   0.598   5.015
10104SOL     OW31210   2.473   0.922   6.102
10104SOL    HW131211   2.498   0.864   6.180
10104SOL    HW231212   2.465   0.865   6.020
10105SOL     OW31213   2.988   1.130   5.832
10105SOL    HW131214   2.966   1.207   5.773
10105SOL    HW231215   3.067   1.152   5.888
10106SOL     OW31216   4.137   6.170   1.391
10106SOL    HW131217   4.125   6.118   1.476
10106SOL    HW231218   4.051   6.214   1.366
10107SOL     OW31219   4.900   3.239   6.606
10107SOL    HW131220   4.960   3.319   6.614
10107SOL    HW231221   4.889   3.215   6.510
10108SOL     OW31222   1.257   2.781   1.111
10108SOL    HW131223   1.238   2.690   1.148
10108SOL    HW231224   1.353   2.788   1.085
10109SOL     OW31225   0.873   1.094   0.095
10109SOL    HW131226   0.776   1.095   0.116
10109SOL    HW231227   0.925   1.087   0.180
10110SOL     OW31228   4.792   4.848   2.471
10110SOL    HW131229   4.714   4.786   2.463
10110SOL    HW231230   4.759   4.942   2.470
10111SOL     OW31231   1.195   2.800   2.742
10111SOL    HW131232   1.243   2.715   2.764
10111SOL    HW231233   1.167   2.798   2.646
10112SOL     OW31234   6.846   3.936   3.362
10112SOL    HW131235   6.873   3.865   3.427
10112SOL    HW231236   6.909   4.014   3.371
10113SOL     OW31237   4.291   0.755   6.933
10113SOL    HW131238   4.354   0.785   6.861
10113SOL    HW231239   4.253   0.666   6.907
10114SOL     OW31240   3.621   2.034   2.939
10114SOL    HW131241   3.713   2.047   2.902
10114SOL    HW231242   3.625   1.972   3.017
10115SOL     OW31243   3.953   1.867   4.300
10115SOL    HW131244   4.035   1.887   4.354
10115SOL    HW231245   3.952   1.769   4.276
10116SOL     OW31246   6.171   0.378   5.786
10116SOL    HW131247   6.168   0.413   5.693
10116SOL    HW231248   6.183   0.454   5.850
10117SOL     OW31249   6.643   5.937   5.504
10117SOL    HW131250   6.644   5.839   5.486
10117SOL    HW231251   6.606   5.953   5.596
10118SOL     OW31252   2.506   4.793   4.236
10118SOL    HW131253   2.528   4.770   4.331
10118SOL    HW231254   2.477   4.711   4.188
10119SOL     OW31255   6.997   5.694   3.814
10119SOL    HW131256   7.002   5.780   3.764
10119SOL    HW231257   6.921   5.639   3.780
10120SOL     OW31258   1.163   3.115   3.098
10120SOL    HW131259   1.162   3.215   3.105
10120SOL    HW231260   1.166   3.075   3.190
10121SOL     OW31261   5.799   4.542   0.899
10121SOL    HW131262   5.863   4.474   0.934
10121SOL    HW231263   5.844   4.596   0.827
10122SOL     OW31264   5.980   2.003   3.866
10122SOL    HW131265   5.960   2.100   3.882
10122SOL    HW231266   6.054   1.995   3.800
10123SOL     OW31267   6.325   6.315   0.575
10123SOL    HW131268   6.257   6.290   0.507
10123SOL    HW231269   6.390   6.239   0.588
10124SOL     OW31270   1.605   4.932   1.904
10124SOL    HW131271   1.688   4.894   1.864
10124SOL    HW231272   1.532   4.864   1.899
10125SOL     OW31273   2.108   0.974   1.903
10125SOL    HW131274   2.068   0.888   1.934
10125SOL    HW231275   2.036   1.033   1.867
10126SOL     OW31276   6.518   6.975   6.069
10126SOL    HW131277   6.421   6.971   6.045
10126SOL    HW231278   6.551   0.045   6.058
10127SOL     OW31279   1.282   4.337   6.091
10127SOL    HW131280   1.320   4.384   6.012
10127SOL    HW231281   1.356   4.309   6.152
10128SOL     OW31282   2.701   0.756   6.865
10128SOL    HW131283   2.714   0.855   6.862
10128SOL    HW231284   2.725   0.722   6.956
10129SOL     OW31285   0.105   1.412   1.830
10129SOL    HW131286   0.054   1.328   1.812
10129SOL    HW231287   0.100   1.472   1.750
10130SOL     OW31288   1.053   2.429   1.611
10130SOL    HW131289   1.110   2.357   1.572
10130SOL    HW231290   1.013   2.397   1.697
10131SOL     OW31291   1.832   0.647   3.967
10131SOL    HW131292   1.736   0.644   3.939
10131SOL    HW231293   1.845   0.722   4.032
10132SOL     OW31294   0.380   0.568   2.469
10132SOL    HW131295   0.304   0.593   2.528
10132SOL    HW231296   0.345   0.537   2.381
10133SOL     OW31297   4.587   5.939   1.133
10133SOL    HW131298   4.505   5.889   1.105
10133SOL    HW231299   4.578   5.967   1.228
10134SOL     OW31300   0.134   1.098   2.681
10134SOL    HW131301   0.136   1.193   2.711
10134SOL    HW231302   0.227   1.066   2.666
10135SOL     OW31303   5.686   1.178   4.120
10135SOL    HW131304   5.605   1.217   4.163
10135SOL    HW231305   5.661   1.136   4.032
10136SOL     OW31306   4.743   2.543   2.344
10136SOL    HW131307   4.798   2.483   2.403
10136SOL    HW231308   4.732   2.632   2.388
10137SOL     OW31309   0.604   5.047   5.457
10137SOL    HW131310   0.515   5.078   5.492
10137SOL    HW231311   0.630   4.962   5.502
10138SOL     OW31312   5.838   1.956   6.938
10138SOL    HW131313   5.929   1.998   6.946
10138SOL    HW231314   5.843   1.861   6.967
10139SOL     OW31315   3.824   2.970   5.190
10139SOL    HW131316   3.908   2.920   5.209
10139SOL    HW231317   3.775   2.989   5.275
10140SOL     OW31318   6.332   6.664   5.915
10140SOL    HW131319   6.345   6.626   6.006
10140SOL    HW231320   6.342   6.763   5.918
10141SOL     OW31321   3.811   1.065   3.767
10141SOL    HW131322   3.903   1.032   3.745
10141SOL    HW231323   3.794   1.055   3.865
10142SOL     OW31324   5.911   6.547   4.674
10142SOL    HW131325   5.817   6.521   4.651
10142SOL    HW231326   5.934   6.633   4.629
10143SOL     OW31327   5.797   2.860   0.046
10143SOL    HW131328   5.893   2.879   0.024
10143SOL    HW231329   5.772   2.769   0.013
10144SOL     OW31330   4.319   7.012   5.423
10144SOL    HW131331   4.404   6.995   5.473
10144SOL    HW231332   4.287   0.082   5.441
10145SOL     OW31333   4.133   6.167   2.522
10145SOL    HW131334   4.059   6.117   2.568
10145SOL    HW231335   4.217   6.113   2.526
10146SOL     OW31336   6.896   4.059   4.452
10146SOL    HW131337   6.841   4.098   4.525
10146SOL    HW231338   6.836   4.025   4.379
10147SOL     OW31339   4.514   4.782   0.120
10147SOL    HW131340   4.424   4.776   0.163
10147SOL    HW231341   4.564   4.697   0.136
10148SOL     OW31342   6.769   4.662   1.329
10148SOL    HW131343   6.707   4.698   1.398
10148SOL    HW231344   6.720   4.652   1.242
10149SOL     OW31345   4.793   4.458   1.512
10149SOL    HW131346   4.839   4.531   1.461
10149SOL    HW231347   4.694   4.464   1.496
10150SOL     OW31348   5.202   3.606   1.941
10150SOL    HW131349   5.104   3.620   1.955
10150SOL    HW231350   5.246   3.589   2.029
10151SOL     OW31351   0.124   0.298   5.404
10151SOL    HW131352   0.163   0.313   5.495
10151SOL    HW231353   0.032   0.260   5.412
10152SOL     OW31354   5.696   6.087   2.856
10152SOL    HW131355   5.758   6.115   2.929
10152SOL    HW231356   5.723   5.998   2.821
10153SOL     OW31357   4.216   5.790   3.795
10153SOL    HW131358   4.118   5.788   3.775
10153SOL    HW231359   4.231   5.769   3.892
10154SOL     OW31360   4.094   5.142   5.636
10154SOL    HW131361   4.162   5.076   5.668
10154SOL    HW231362   4.138   5.230   5.622
10155SOL     OW31363   4.795   2.128   5.799
10155SOL    HW131364   4.795   2.217   5.754
10155SOL    HW231365   4.845   2.135   5.886
10156SOL     OW31366   4.431   0.533   1.355
10156SOL    HW131367   4.369   0.474   1.408
10156SOL    HW231368   4.379   0.580   1.284
10157SOL     OW31369   0.067   2.027   6.988
10157SOL    HW131370   0.126   2.102   6.958
10157SOL    HW231371   0.018   2.054   0.048
10158SOL     OW31372   6.003   6.758   2.441
10158SOL    HW131373   6.046   6.711   2.518
10158SOL    HW231374   5.950   6.693   2.387
10159SOL     OW31375   3.124   3.079   2.531
10159SOL    HW131376   3.220   3.053   2.542
10159SOL    HW231377   3.088   3.109   2.619
10160SOL     OW31378   2.150   4.385   2.717
10160SOL    HW131379   2.152   4.286   2.731
10160SOL    HW231380   2.244   4.418   2.704
10161SOL     OW31381   3.780   4.875   6.710
10161SOL    HW131382   3.801   4.859   6.806
10161SOL    HW231383   3.843   4.823   6.652
10162SOL     OW31384   1.968   4.529   1.977
10162SOL    HW131385   1.885   4.580   1.955
10162SOL    HW231386   1.946   4.454   2.039
10163SOL     OW31387   0.854   5.827   5.617
10163SOL    HW131388   0.824   5.889   5.690
10163SOL    HW231389   0.938   5.862   5.575
10164SOL     OW31390   6.499   3.229   3.583
10164SOL    HW131391   6.509   3.180   3.670
10164SOL    HW231392   6.405   3.220   3.551
10165SOL     OW31393   5.532   2.720   3.935
10165SOL    HW131394   5.444   2.706   3.980
10165SOL    HW231395   5.606   2.702   4.000
10166SOL     OW31396   1.446   2.621   1.409
10166SOL    HW131397   1.504   2.684   1.359
10166SOL    HW231398   1.352   2.629   1.378
10167SOL     OW31399   0.176   4.729   6.813
10167SOL    HW131400   0.088   4.759   6.776
10167SOL    HW231401   0.213   4.799   6.874
10168SOL     OW31402   5.505   1.201   6.491
10168SOL    HW131403   5.418   1.152   6.493
10168SOL    HW231404   5.557   1.179   6.574
10169SOL     OW31405   0.304   3.852   2.675
10169SOL    HW131406   0.368   3.900   2.736
10169SOL    HW231407   0.212   3.856   2.714
10170SOL     OW31408   6.547   5.736   6.436
10170SOL    HW131409   6.535   5.783   6.348
10170SOL    HW231410   6.462   5.742   6.488
10171SOL     OW31411   0.899   2.982   5.359
10171SOL    HW131412   0.851   2.909   5.408
10171SOL    HW231413   0.981   3.009   5.409
10172SOL     OW31414   0.015   6.871   3.805
10172SOL    HW131415   0.052   6.961   3.781
10172SOL    HW231416   6.972   6.843   3.735
10173SOL     OW31417   3.331   4.575   0.699
10173SOL    HW131418   3.281   4.490   0.682
10173SOL    HW231419   3.286   4.625   0.774
10174SOL     OW31420   5.165   6.407   3.164
10174SOL    HW131421   5.149   6.501   3.193
10174SOL    HW231422   5.201   6.406   3.071
10175SOL     OW31423   6.330   1.807   3.432
10175SOL    HW131424   6.303   1.720   3.475
10175SOL    HW231425   6.249   1.856   3.403
10176SOL     OW31426   6.463   3.719   5.788
10176SOL    HW131427   6.517   3.636   5.797
10176SOL    HW231428   6.393   3.721   5.859
10177SOL     OW31429   2.028   0.417   1.368
10177SOL    HW131430   2.097   0.398   1.298
10177SOL    HW231431   2.073   0.437   1.455
10178SOL     OW31432   1.693   0.841   0.953
10178SOL    HW131433   1.790   0.843   0.979
10178SOL    HW231434   1.665   0.933   0.925
10179SOL     OW31435   0.068   4.491   6.861
10179SOL    HW131436   0.093   4.582   6.828
10179SOL    HW231437   0.100   4.480   6.955
10180SOL     OW31438   4.985   0.255   0.137
10180SOL    HW131439   4.921   0.333   0.138
10180SOL    HW231440   4.990   0.215   0.228
10181SOL     OW31441   6.607   3.018   1.059
10181SOL    HW131442   6.512   3.027   1.088
10181SOL    HW231443   6.611   2.974   0.969
10182SOL     OW31444   5.357   1.336   0.442
10182SOL    HW131445   5.297   1.381   0.508
10182SOL    HW231446   5.449   1.376   0.448
10183SOL     OW31447   5.838   2.989   5.845
10183SOL    HW131448   5.813   2.900   5.807
10183SOL    HW231449   5.902   3.035   5.783
10184SOL     OW31450   5.537   2.843   6.449
10184SOL    HW131451   5.594   2.923   6.431
10184SOL    HW231452   5.520   2.835   6.547
10185SOL     OW31453   4.398   6.065   2.485
10185SOL    HW131454   4.474   6.097   2.429
10185SOL    HW231455   4.389   5.965   2.477
10186SOL     OW31456   4.774   3.735   5.362
10186SOL    HW131457   4.732   3.671   5.297
10186SOL    HW231458   4.703   3.778   5.417
10187SOL     OW31459   2.197   3.920   5.271
10187SOL    HW131460   2.144   4.005   5.270
10187SOL    HW231461   2.287   3.936   5.231
10188SOL     OW31462   2.946   6.148   6.658
10188SOL    HW131463   2.864   6.167   6.712
10188SOL    HW231464   2.990   6.234   6.632
10189SOL     OW31465   1.789   0.886   0.104
10189SOL    HW131466   1.767   0.849   0.194
10189SOL    HW231467   1.715   0.945   0.073
10190SOL     OW31468   3.419   3.996   1.376
10190SOL    HW131469   3.418   3.990   1.277
10190SOL    HW231470   3.511   3.982   1.411
10191SOL     OW31471   5.855   5.637   1.159
10191SOL    HW131472   5.829   5.734   1.166
10191SOL    HW231473   5.774   5.580   1.174
10192SOL     OW31474   1.924   1.875   4.698
10192SOL    HW131475   1.861   1.847   4.771
10192SOL    HW231476   1.993   1.937   4.737
10193SOL     OW31477   3.620   3.866   2.140
10193SOL    HW131478   3.632   3.965   2.144
10193SOL    HW231479   3.539   3.845   2.085
10194SOL     OW31480   3.002   0.215   5.110
10194SOL    HW131481   3.035   0.263   5.191
10194SOL    HW231482   3.075   0.210   5.042
10195SOL     OW31483   6.206   6.988   1.187
10195SOL    HW131484   6.220   0.024   1.107
10195SOL    HW231485   6.128   7.021   1.240
10196SOL     OW31486   5.777   2.213   3.573
10196SOL    HW131487   5.732   2.273   3.506
10196SOL    HW231488   5.831   2.269   3.636
10197SOL     OW31489   5.906   0.628   3.705
10197SOL    HW131490   5.882   0.534   3.732
10197SOL    HW231491   5.851   0.693   3.757
10198SOL     OW31492   3.727   6.179   0.558
10198SOL    HW131493   3.695   6.139   0.644
10198SOL    HW231494   3.773   6.266   0.578
10199SOL     OW31495   1.092   1.516   6.812
10199SOL    HW131496   1.047   1.448   6.872
10199SOL    HW231497   1.090   1.605   6.857
10200SOL     OW31498   5.141   3.193   5.424
10200SOL    HW131499   5.109   3.209   5.517
10200SOL    HW231500   5.123   3.275   5.369
10201SOL     OW31501   0.517   5.690   1.898
10201SOL    HW131502   0.475   5.696   1.989
10201SOL    HW231503   0.599   5.747   1.896
10202SOL     OW31504   0.725   3.707   0.722
10202SOL    HW131505   0.808   3.653   0.706
10202SOL    HW231506   0.657   3.650   0.769
10203SOL     OW31507   1.307   2.644   2.325
10203SOL    HW131508   1.388   2.625   2.270
10203SOL    HW231509   1.278   2.561   2.372
10204SOL     OW31510   3.443   4.648   6.266
10204SOL    HW131511   3.536   4.683   6.252
10204SOL    HW231512   3.418   4.658   6.362
10205SOL     OW31513   4.207   1.159   3.330
10205SOL    HW131514   4.204   1.259   3.330
10205SOL    HW231515   4.206   1.125   3.236
10206SOL     OW31516   5.154   5.913   6.262
10206SOL    HW131517   5.166   5.870   6.172
10206SOL    HW231518   5.113   6.004   6.249
10207SOL     OW31519   1.900   0.147   1.036
10207SOL    HW131520   1.808   0.110   1.020
10207SOL    HW231521   1.910   0.168   1.134
10208SOL     OW31522   6.549   5.328   5.268
10208SOL    HW131523   6.562   5.236   5.231
10208SOL    HW231524   6.637   5.366   5.297
10209SOL     OW31525   0.478   1.171   5.892
10209SOL    HW131526   0.490   1.270   5.895
10209SOL    HW231527   0.443   1.139   5.980
10210SOL     OW31528   5.321   6.509   1.317
10210SOL    HW131529   5.400   6.487   1.258
10210SOL    HW231530   5.281   6.424   1.351
10211SOL     OW31531   4.005   6.514   5.782
10211SOL    HW131532   4.072   6.556   5.722
10211SOL    HW231533   4.051   6.454   5.848
10212SOL     OW31534   0.382   1.157   4.384
10212SOL    HW131535   0.432   1.114   4.309
10212SOL    HW231536   0.371   1.255   4.365
10213SOL     OW31537   6.187   1.692   2.555
10213SOL    HW131538   6.280   1.685   2.591
10213SOL    HW231539   6.163   1.606   2.510
10214SOL     OW31540   0.373   0.972   2.638
10214SOL    HW131541   0.364   0.911   2.717
10214SOL    HW231542   0.348   0.922   2.554
10215SOL     OW31543   3.340   2.871   5.320
10215SOL    HW131544   3.349   2.866   5.221
10215SOL    HW231545   3.302   2.785   5.355
10216SOL     OW31546   0.178   6.885   0.812
10216SOL    HW131547   0.221   6.932   0.889
10216SOL    HW231548   0.248   6.833   0.762
10217SOL     OW31549   2.487   1.377   3.958
10217SOL    HW131550   2.463   1.283   3.933
10217SOL    HW231551   2.564   1.376   4.021
10218SOL     OW31552   0.701   1.186   1.289
10218SOL    HW131553   0.775   1.253   1.298
10218SOL    HW231554   0.689   1.163   1.192
10219SOL     OW31555   0.283   2.654   2.421
10219SOL    HW131556   0.353   2.621   2.357
10219SOL    HW231557   0.295   2.609   2.510
10220SOL     OW31558   4.227   1.716   1.886
10220SOL    HW131559   4.324   1.698   1.867
10220SOL    HW231560   4.176   1.714   1.800
10221SOL     OW31561   1.611   1.916   3.894
10221SOL    HW131562   1.536   1.918   3.960
10221SOL    HW231563   1.582   1.866   3.812
10222SOL     OW31564   1.099   3.707   5.435
10222SOL    HW131565   1.026   3.776   5.439
10222SOL    HW231566   1.058   3.616   5.434
10223SOL     OW31567   2.192   5.884   6.387
10223SOL    HW131568   2.141   5.822   6.328
10223SOL    HW231569   2.233   5.956   6.332
10224SOL     OW31570   0.756   0.940   4.458
10224SOL    HW131571   0.744   1.039   4.459
10224SOL    HW231572   0.851   0.918   4.480
10225SOL     OW31573   1.273   6.511   5.317
10225SOL    HW131574   1.359   6.484   5.361
10225SOL    HW231575   1.278   6.607   5.291
10226SOL     OW31576   2.731   0.338   6.867
10226SOL    HW131577   2.717   0.435   6.851
10226SOL    HW231578   2.790   0.325   6.947
10227SOL     OW31579   4.697   4.866   1.199
10227SOL    HW131580   4.603   4.839   1.178
10227SOL    HW231581   4.747   4.879   1.113
10228SOL     OW31582   1.374   4.745   1.977
10228SOL    HW131583   1.343   4.799   1.898
10228SOL    HW231584   1.329   4.779   2.060
10229SOL     OW31585   1.089   1.021   4.100
10229SOL    HW131586   1.163   1.084   4.123
10229SOL    HW231587   1.096   0.939   4.157
10230SOL     OW31588   6.562   0.601   3.450
10230SOL    HW131589   6.593   0.695   3.445
10230SOL    HW231590   6.630   0.541   3.408
10231SOL     OW31591   6.728   6.482   5.576
10231SOL    HW131592   6.802   6.537   5.538
10231SOL    HW231593   6.761   6.390   5.596
10232SOL     OW31594   3.701   1.026   4.713
10232SOL    HW131595   3.730   0.946   4.659
10232SOL    HW231596   3.746   1.108   4.678
10233SOL     OW31597   5.080   2.936   5.415
10233SOL    HW131598   5.115   2.935   5.509
10233SOL    HW231599   5.086   3.029   5.379
10234SOL     OW31600   5.623   0.418   0.991
10234SOL    HW131601   5.624   0.517   0.984
10234SOL    HW231602   5.708   0.381   0.952
10235SOL     OW31603   4.709   1.771   0.199
10235SOL    HW131604   4.731   1.674   0.189
10235SOL    HW231605   4.609   1.783   0.195
10236SOL     OW31606   1.411   6.366   1.874
10236SOL    HW131607   1.444   6.329   1.787
10236SOL    HW231608   1.452   6.455   1.890
10237SOL     OW31609   6.322   4.001   0.771
10237SOL    HW131610   6.411   3.984   0.728
10237SOL    HW231611   6.277   3.914   0.792
10238SOL     OW31612   3.504   4.215   4.277
10238SOL    HW131613   3.451   4.300   4.275
10238SOL    HW231614   3.509   4.180   4.370
10239SOL     OW31615   1.499   4.113   4.613
10239SOL    HW131616   1.534   4.200   4.649
10239SOL    HW231617   1.507   4.043   4.683
10240SOL     OW31618   1.418   4.965   2.829
10240SOL    HW131619   1.374   5.038   2.883
10240SOL    HW231620   1.497   5.002   2.782
10241SOL     OW31621   0.092   0.923   1.768
10241SOL    HW131622   0.007   0.877   1.744
10241SOL    HW231623   0.169   0.867   1.739
10242SOL     OW31624   0.072   2.015   6.478
10242SOL    HW131625   0.099   2.110   6.494
10242SOL    HW231626   0.087   1.962   6.561
10243SOL     OW31627   0.317   5.235   1.254
10243SOL    HW131628   0.386   5.177   1.212
10243SOL    HW231629   0.302   5.207   1.349
10244SOL     OW31630   1.420   4.974   6.997
10244SOL    HW131631   1.488   5.034   0.014
10244SOL    HW231632   1.332   4.985   0.021
10245SOL     OW31633   2.112   3.879   0.200
10245SOL    HW131634   2.178   3.837   0.262
10245SOL    HW231635   2.043   3.928   0.253
10246SOL     OW31636   2.954   3.694   4.161
10246SOL    HW131637   2.964   3.638   4.244
10246SOL    HW231638   2.969   3.636   4.080
10247SOL     OW31639   0.741   5.505   4.345
10247SOL    HW131640   0.802   5.479   4.270
10247SOL    HW231641   0.784   5.482   4.432
10248SOL     OW31642   3.106   0.127   1.631
10248SOL    HW131643   3.029   0.062   1.628
10248SOL    HW231644   3.189   0.078   1.658
10249SOL     OW31645   2.520   0.776   6.318
10249SOL    HW131646   2.537   0.804   6.413
10249SOL    HW231647   2.471   0.689   6.318
10250SOL     OW31648   0.138   2.149   1.173
10250SOL    HW131649   0.087   2.204   1.107
10250SOL    HW231650   0.208   2.206   1.216
10251SOL     OW31651   1.889   2.461   5.390
10251SOL    HW131652   1.842   2.378   5.421
10251SOL    HW231653   1.821   2.528   5.359
10252SOL     OW31654   6.833   6.300   0.514
10252SOL    HW131655   6.845   6.375   0.448
10252SOL    HW231656   6.920   6.283   0.561
10253SOL     OW31657   5.272   5.946   0.259
10253SOL    HW131658   5.266   6.028   0.201
10253SOL    HW231659   5.367   5.915   0.263
10254SOL     OW31660   3.833   2.107   4.890
10254SOL    HW131661   3.903   2.055   4.939
10254SOL    HW231662   3.745   2.094   4.934
10255SOL     OW31663   2.467   5.511   1.509
10255SOL    HW131664   2.398   5.582   1.496
10255SOL    HW231665   2.454   5.439   1.441
10256SOL     OW31666   5.600   0.221   1.675
10256SOL    HW131667   5.523   0.218   1.740
10256SOL    HW231668   5.579   0.162   1.597
10257SOL     OW31669   1.756   4.692   4.403
10257SOL    HW131670   1.704   4.610   4.380
10257SOL    HW231671   1.798   4.680   4.493
10258SOL     OW31672   4.848   0.206   4.052
10258SOL    HW131673   4.897   0.148   3.987
10258SOL    HW231674   4.749   0.192   4.040
10259SOL     OW31675   0.865   5.757   3.469
10259SOL    HW131676   0.770   5.788   3.466
10259SOL    HW231677   0.911   5.780   3.384
10260SOL     OW31678   6.809   0.443   3.100
10260SOL    HW131679   6.897   0.465   3.143
10260SOL    HW231680   6.801   0.491   3.013
10261SOL     OW31681   7.006   6.661   1.656
10261SOL    HW131682   6.934   6.609   1.703
10261SOL    HW231683   0.036   6.598   1.599
10262SOL     OW31684   2.810   5.679   4.607
10262SOL    HW131685   2.711   5.684   4.614
10262SOL    HW231686   2.850   5.676   4.699
10263SOL     OW31687   4.595   1.374   6.451
10263SOL    HW131688   4.601   1.313   6.372
10263SOL    HW231689   4.664   1.348   6.518
10264SOL     OW31690   5.894   1.691   6.945
10264SOL    HW131691   5.911   1.594   6.958
10264SOL    HW231692   5.886   1.711   6.847
10265SOL     OW31693   3.396   2.135   2.761
10265SOL    HW131694   3.450   2.090   2.832
10265SOL    HW231695   3.456   2.189   2.702
10266SOL     OW31696   3.807   2.637   5.604
10266SOL    HW131697   3.880   2.700   5.578
10266SOL    HW231698   3.731   2.645   5.540
10267SOL     OW31699   6.532   2.004   6.426
10267SOL    HW131700   6.554   2.102   6.428
10267SOL    HW231701   6.433   1.992   6.429
10268SOL     OW31702   4.036   6.494   1.861
10268SOL    HW131703   4.043   6.539   1.772
10268SOL    HW231704   3.952   6.524   1.907
10269SOL     OW31705   2.098   1.742   5.512
10269SOL    HW131706   2.100   1.727   5.413
10269SOL    HW231707   2.061   1.660   5.557
10270SOL     OW31708   2.086   5.163   2.665
10270SOL    HW131709   2.065   5.071   2.697
10270SOL    HW231710   2.180   5.167   2.632
10271SOL     OW31711   3.621   2.925   0.387
10271SOL    HW131712   3.670   2.949   0.304
10271SOL    HW231713   3.683   2.880   0.451
10272SOL     OW31714   1.073   0.915   4.530
10272SOL    HW131715   1.117   0.988   4.582
10272SOL    HW231716   1.051   0.839   4.591
10273SOL     OW31717   4.439   5.324   3.665
10273SOL    HW131718   4.487   5.399   3.617
10273SOL    HW231719   4.370   5.363   3.726
10274SOL     OW31720   1.501   4.317   5.832
10274SOL    HW131721   1.580   4.296   5.775
10274SOL    HW231722   1.528   4.383   5.903
10275SOL     OW31723   1.529   0.189   1.928
10275SOL    HW131724   1.455   0.240   1.971
10275SOL    HW231725   1.594   0.158   1.998
10276SOL     OW31726   6.679   5.646   5.974
10276SOL    HW131727   6.643   5.724   5.923
10276SOL    HW231728   6.777   5.659   5.989
10277SOL     OW31729   2.569   6.223   3.899
10277SOL    HW131730   2.534   6.290   3.833
10277SOL    HW231731   2.559   6.131   3.861
10278SOL     OW31732   5.986   0.938   5.300
10278SOL    HW131733   5.923   0.870   5.260
10278SOL    HW231734   5.977   1.025   5.251
10279SOL     OW31735   3.216   6.762   4.235
10279SOL    HW131736   3.222   6.760   4.335
10279SOL    HW231737   3.126   6.729   4.206
10280SOL     OW31738   2.306   4.149   1.301
10280SOL    HW131739   2.326   4.166   1.398
10280SOL    HW231740   2.347   4.221   1.245
10281SOL     OW31741   5.952   2.715   2.699
10281SOL    HW131742   6.008   2.650   2.648
10281SOL    HW231743   5.889   2.665   2.758
10282SOL     OW31744   6.286   3.730   4.437
10282SOL    HW131745   6.359   3.793   4.462
10282SOL    HW231746   6.247   3.757   4.349
10283SOL     OW31747   1.308   2.987   0.740
10283SOL    HW131748   1.273   2.997   0.833
10283SOL    HW231749   1.243   3.026   0.675
10284SOL     OW31750   4.885   4.624   5.896
10284SOL    HW131751   4.822   4.687   5.941
10284SOL    HW231752   4.941   4.673   5.829
10285SOL     OW31753   4.768   0.067   0.952
10285SOL    HW131754   4.692   0.114   0.998
10285SOL    HW231755   4.820   0.015   1.019
10286SOL     OW31756   3.313   2.069   3.847
10286SOL    HW131757   3.219   2.052   3.874
10286SOL    HW231758   3.372   1.995   3.880
10287SOL     OW31759   1.736   6.575   1.743
10287SOL    HW131760   1.641   6.584   1.772
10287SOL    HW231761   1.757   6.479   1.725
10288SOL     OW31762   5.011   6.054   2.355
10288SOL    HW131763   5.068   6.001   2.418
10288SOL    HW231764   4.952   5.992   2.303
10289SOL     OW31765   3.467   0.945   2.080
10289SOL    HW131766   3.556   0.979   2.112
10289SOL    HW231767   3.404   0.938   2.158
10290SOL     OW31768   3.757   3.851   2.788
10290SOL    HW131769   3.695   3.915   2.832
10290SOL    HW231770   3.708   3.766   2.767
10291SOL     OW31771   4.018   0.195   3.968
10291SOL    HW131772   4.092   0.252   4.005
10291SOL    HW231773   3.935   0.212   4.021
10292SOL     OW31774   0.895   1.709   4.595
10292SOL    HW131775   0.799   1.685   4.587
10292SOL    HW231776   0.922   1.768   4.519
10293SOL     OW31777   1.838   6.011   2.375
10293SOL    HW131778   1.803   6.062   2.453
10293SOL    HW231779   1.897   5.937   2.408
10294SOL     OW31780   5.019   3.556   3.183
10294SOL    HW131781   5.109   3.537   3.222
10294SOL    HW231782   4.962   3.599   3.253
10295SOL     OW31783   6.146   4.775   6.172
10295SOL    HW131784   6.155   4.825   6.086
10295SOL    HW231785   6.231   4.784   6.225
10296SOL     OW31786   5.156   4.124   6.944
10296SOL    HW131787   5.076   4.064   6.941
10296SOL    HW231788   5.182   4.141   0.017
10297SOL     OW31789   2.773   6.763   4.726
10297SOL    HW131790   2.727   6.699   4.664
10297SOL    HW231791   2.826   6.829   4.672
10298SOL     OW31792   4.479   4.534   2.872
10298SOL    HW131793   4.409   4.590   2.916
10298SOL    HW231794   4.436   4.470   2.809
10299SOL     OW31795   4.441   4.490   2.379
10299SOL    HW131796   4.444   4.406   2.324
10299SOL    HW231797   4.407   4.564   2.322
10300SOL     OW31798   1.670   4.658   2.231
10300SOL    HW131799   1.605   4.599   2.279
10300SOL    HW231800   1.761   4.646   2.271
10301SOL     OW31801   5.718   1.990   2.379
10301SOL    HW131802   5.672   1.962   2.463
10301SOL    HW231803   5.735   1.909   2.323
10302SOL     OW31804   1.118   6.228   3.847
10302SOL    HW131805   1.188   6.158   3.859
10302SOL    HW231806   1.127   6.269   3.756
10303SOL     OW31807   3.294   4.967   1.323
10303SOL    HW131808   3.319   4.994   1.416
10303SOL    HW231809   3.279   4.868   1.320
10304SOL     OW31810   5.865   1.228   2.947
10304SOL    HW131811   5.838   1.298   2.881
10304SOL    HW231812   5.792   1.217   3.015
10305SOL     OW31813   0.692   5.305   6.303
10305SOL    HW131814   0.596   5.286   6.323
10305SOL    HW231815   0.712   5.281   6.208
10306SOL     OW31816   4.499   5.976   6.278
10306SOL    HW131817   4.407   5.987   6.316
10306SOL    HW231818   4.535   6.066   6.252
10307SOL     OW31819   2.367   1.629   4.797
10307SOL    HW131820   2.273   1.627   4.763
10307SOL    HW231821   2.369   1.597   4.892
10308SOL     OW31822   2.916   4.839   4.227
10308SOL    HW131823   2.862   4.835   4.311
10308SOL    HW231824   2.855   4.848   4.149
10309SOL     OW31825   6.116   0.324   3.892
10309SOL    HW131826   6.137   0.285   3.803
10309SOL    HW231827   6.166   0.410   3.903
10310SOL     OW31828   3.588   2.843   1.372
10310SOL    HW131829   3.496   2.808   1.387
10310SOL    HW231830   3.614   2.903   1.447
10311SOL     OW31831   0.898   5.206   1.131
10311SOL    HW131832   0.932   5.213   1.225
10311SOL    HW231833   0.882   5.297   1.094
10312SOL     OW31834   3.711   5.587   1.334
10312SOL    HW131835   3.725   5.496   1.294
10312SOL    HW231836   3.795   5.617   1.378
10313SOL     OW31837   3.751   6.846   2.469
10313SOL    HW131838   3.711   6.913   2.531
10313SOL    HW231839   3.781   6.892   2.385
10314SOL     OW31840   5.696   0.965   1.513
10314SOL    HW131841   5.607   0.976   1.556
10314SOL    HW231842   5.739   0.880   1.544
10315SOL     OW31843   6.597   6.711   4.407
10315SOL    HW131844   6.499   6.689   4.414
10315SOL    HW231845   6.618   6.737   4.313
10316SOL     OW31846   6.646   3.388   4.520
10316SOL    HW131847   6.677   3.295   4.542
10316SOL    HW231848   6.721   3.439   4.478
10317SOL     OW31849   3.531   5.207   6.644
10317SOL    HW131850   3.609   5.269   6.638
10317SOL    HW231851   3.500   5.184   6.552
10318SOL     OW31852   6.419   5.751   1.548
10318SOL    HW131853   6.368   5.834   1.568
10318SOL    HW231854   6.445   5.707   1.634
10319SOL     OW31855   1.200   4.311   4.806
10319SOL    HW131856   1.299   4.322   4.808
10319SOL    HW231857   1.156   4.387   4.853
10320SOL     OW31858   0.941   0.536   0.731
10320SOL    HW131859   0.965   0.549   0.827
10320SOL    HW231860   0.909   0.442   0.717
10321SOL     OW31861   3.840   6.781   4.668
10321SOL    HW131862   3.760   6.787   4.608
10321SOL    HW231863   3.890   6.867   4.665
10322SOL     OW31864   6.416   5.413   0.254
10322SOL    HW131865   6.402   5.495   0.310
10322SOL    HW231866   6.334   5.397   0.198
10323SOL     OW31867   6.357   3.224   6.488
10323SOL    HW131868   6.391   3.237   6.395
10323SOL    HW231869   6.423   3.263   6.552
10324SOL     OW31870   3.209   3.129   3.409
10324SOL    HW131871   3.186   3.155   3.503
10324SOL    HW231872   3.306   3.146   3.393
10325SOL     OW31873   6.625   4.666   4.359
10325SOL    HW131874   6.611   4.763   4.342
10325SOL    HW231875   6.543   4.626   4.400
10326SOL     OW31876   4.743   2.755   6.961
10326SOL    HW131877   4.800   2.823   6.914
10326SOL    HW231878   4.693   2.701   6.894
10327SOL     OW31879   2.528   1.639   2.475
10327SOL    HW131880   2.554   1.730   2.442
10327SOL    HW231881   2.437   1.644   2.517
10328SOL     OW31882   5.983   3.623   2.068
10328SOL    HW131883   5.913   3.679   2.024
10328SOL    HW231884   5.986   3.533   2.025
10329SOL     OW31885   2.865   0.231   4.449
10329SOL    HW131886   2.852   0.138   4.416
10329SOL    HW231887   2.777   0.271   4.471
10330SOL     OW31888   3.675   4.899   2.877
10330SOL    HW131889   3.708   4.993   2.869
10330SOL    HW231890   3.748   4.841   2.913
10331SOL     OW31891   5.904   0.919   2.771
10331SOL    HW131892   5.831   0.958   2.827
10331SOL    HW231893   5.988   0.972   2.783
10332SOL     OW31894   6.828   1.888   0.050
10332SOL    HW131895   6.884   1.967   0.023
10332SOL    HW231896   6.877   1.804   0.028
10333SOL     OW31897   6.026   4.386   4.329
10333SOL    HW131898   5.987   4.331   4.403
10333SOL    HW231899   5.963   4.386   4.251
10334SOL     OW31900   2.078   5.799   3.755
10334SOL    HW131901   2.178   5.798   3.759
10334SOL    HW231902   2.042   5.852   3.831
10335SOL     OW31903   1.737   4.637   6.694
10335SOL    HW131904   1.748   4.673   6.787
10335SOL    HW231905   1.666   4.689   6.647
10336SOL     OW31906   4.613   6.721   2.812
10336SOL    HW131907   4.528   6.725   2.759
10336SOL    HW231908   4.691   6.717   2.750
10337SOL     OW31909   6.869   5.207   5.230
10337SOL    HW131910   6.861   5.190   5.132
10337SOL    HW231911   6.828   5.132   5.281
10338SOL     OW31912   3.697   6.638   1.048
10338SOL    HW131913   3.648   6.725   1.046
10338SOL    HW231914   3.659   6.576   0.979
10339SOL     OW31915   3.676   4.968   0.942
10339SOL    HW131916   3.743   5.042   0.941
10339SOL    HW231917   3.601   4.994   1.003
10340SOL     OW31918   1.456   5.561   6.725
10340SOL    HW131919   1.435   5.468   6.693
10340SOL    HW231920   1.538   5.558   6.782
10341SOL     OW31921   2.115   2.716   1.894
10341SOL    HW131922   2.017   2.704   1.909
10341SOL    HW231923   2.129   2.756   1.803
10342SOL     OW31924   2.132   5.793   6.013
10342SOL    HW131925   2.124   5.723   6.084
10342SOL    HW231926   2.079   5.766   5.933
10343SOL     OW31927   2.056   3.545   6.968
10343SOL    HW131928   1.987   3.547   0.018
10343SOL    HW231929   2.128   3.611   6.989
10344SOL     OW31930   4.170   3.458   3.438
10344SOL    HW131931   4.258   3.497   3.412
10344SOL    HW231932   4.169   3.439   3.536
10345SOL     OW31933   1.917   1.219   6.912
10345SOL    HW131934   1.825   1.244   6.941
10345SOL    HW231935   1.969   1.302   6.893
10346SOL     OW31936   5.775   0.075   0.992
10346SOL    HW131937   5.718   7.019   1.014
10346SOL    HW231938   5.737   0.123   0.912
10347SOL     OW31939   5.359   2.081   0.882
10347SOL    HW131940   5.452   2.050   0.862
10347SOL    HW231941   5.332   2.150   0.815
10348SOL     OW31942   6.783   0.673   6.250
10348SOL    HW131943   6.791   0.625   6.163
10348SOL    HW231944   6.742   0.611   6.318
10349SOL     OW31945   6.143   0.558   0.889
10349SOL    HW131946   6.128   0.574   0.986
10349SOL    HW231947   6.223   0.611   0.859
10350SOL     OW31948   3.784   6.034   4.771
10350SOL    HW131949   3.712   6.036   4.841
10350SOL    HW231950   3.836   6.118   4.775
10351SOL     OW31951   6.127   4.622   5.890
10351SOL    HW131952   6.065   4.699   5.876
10351SOL    HW231953   6.119   4.589   5.984
10352SOL     OW31954   4.969   2.126   6.449
10352SOL    HW131955   5.043   2.162   6.393
10352SOL    HW231956   4.960   2.182   6.532
10353SOL     OW31957   6.994   3.131   3.756
10353SOL    HW131958   0.060   3.095   3.784
10353SOL    HW231959   6.999   3.164   3.662
10354SOL     OW31960   0.407   3.936   1.533
10354SOL    HW131961   0.334   3.988   1.578
10354SOL    HW231962   0.419   3.848   1.580
10355SOL     OW31963   1.117   0.952   1.249
10355SOL    HW131964   1.104   1.048   1.274
10355SOL    HW231965   1.140   0.946   1.152
10356SOL     OW31966   0.817   3.307   6.810
10356SOL    HW131967   0.833   3.382   6.746
10356SOL    HW231968   0.863   3.224   6.776
10357SOL     OW31969   2.322   2.278   5.886
10357SOL    HW131970   2.287   2.303   5.976
10357SOL    HW231971   2.340   2.361   5.833
10358SOL     OW31972   2.093   3.611   2.781
10358SOL    HW131973   1.993   3.612   2.788
10358SOL    HW231974   2.121   3.533   2.725
10359SOL     OW31975   4.600   2.235   2.235
10359SOL    HW131976   4.536   2.312   2.239
10359SOL    HW231977   4.686   2.262   2.277
10360SOL     OW31978   5.297   4.806   2.637
10360SOL    HW131979   5.293   4.752   2.720
10360SOL    HW231980   5.216   4.865   2.631
10361SOL     OW31981   2.505   0.867   2.284
10361SOL    HW131982   2.599   0.833   2.277
10361SOL    HW231983   2.498   0.955   2.236
10362SOL     OW31984   0.491   4.723   2.810
10362SOL    HW131985   0.513   4.628   2.789
10362SOL    HW231986   0.484   4.734   2.910
10363SOL     OW31987   4.421   2.653   0.413
10363SOL    HW131988   4.491   2.722   0.395
10363SOL    HW231989   4.418   2.588   0.337
10364SOL     OW31990   5.492   4.647   1.611
10364SOL    HW131991   5.431   4.593   1.668
10364SOL    HW231992   5.505   4.737   1.653
10365SOL     OW31993   5.786   5.017   0.427
10365SOL    HW131994   5.873   4.990   0.469
10365SOL    HW231995   5.791   5.003   0.328
10366SOL     OW31996   4.276   6.600   3.485
10366SOL    HW131997   4.240   6.660   3.557
10366SOL    HW231998   4.369   6.629   3.461
10367SOL     OW31999   6.919   2.204   2.326
10367SOL    HW132000   6.842   2.205   2.262
10367SOL    HW232001   6.977   2.125   2.307
10368SOL     OW32002   2.240   1.113   3.004
10368SOL    HW132003   2.141   1.124   3.007
10368SOL    HW232004   2.262   1.023   2.966
10369SOL     OW32005   2.856   6.518   5.967
10369SOL    HW132006   2.792   6.579   5.921
10369SOL    HW232007   2.818   6.489   6.055
10370SOL     OW32008   6.397   1.352   4.755
10370SOL    HW132009   6.409   1.292   4.676
10370SOL    HW232010   6.483   1.358   4.805
10371SOL     OW32011   2.981   6.728   3.484
10371SOL    HW132012   3.004   6.670   3.406
10371SOL    HW232013   3.023   6.818   3.472
10372SOL     OW32014   2.901   0.820   1.782
10372SOL    HW132015   2.866   0.727   1.772
10372SOL    HW232016   2.999   0.817   1.802
10373SOL     OW32017   0.479   6.861   4.560
10373SOL    HW132018   0.400   6.919   4.582
10373SOL    HW232019   0.479   6.841   4.462
10374SOL     OW32020   2.896   6.393   4.610
10374SOL    HW132021   2.941   6.304   4.620
10374SOL    HW232022   2.937   6.442   4.533
10375SOL     OW32023   3.242   2.156   6.498
10375SOL    HW132024   3.174   2.163   6.571
10375SOL    HW232025   3.230   2.069   6.450
10376SOL     OW32026   1.652   6.571   3.827
10376SOL    HW132027   1.725   6.508   3.852
10376SOL    HW232028   1.597   6.530   3.754
10377SOL     OW32029   0.784   2.232   1.628
10377SOL    HW132030   0.872   2.215   1.674
10377SOL    HW232031   0.776   2.170   1.549
10378SOL     OW32032   0.058   5.290   5.799
10378SOL    HW132033   0.114   5.253   5.724
10378SOL    HW232034   0.091   5.381   5.823
10379SOL     OW32035   2.989   5.815   3.792
10379SOL    HW132036   2.945   5.861   3.715
10379SOL    HW232037   2.938   5.731   3.815
10380SOL     OW32038   1.343   2.320   4.817
10380SOL    HW132039   1.404   2.376   4.760
10380SOL    HW232040   1.281   2.268   4.758
10381SOL     OW32041   3.863   4.217   0.531
10381SOL    HW132042   3.934   4.286   0.537
10381SOL    HW232043   3.850   4.190   0.435
10382SOL     OW32044   3.134   6.163   2.076
10382SOL    HW132045   3.075   6.243   2.080
10382SOL    HW232046   3.095   6.094   2.016
10383SOL     OW32047   1.723   3.662   0.429
10383SOL    HW132048   1.702   3.692   0.337
10383SOL    HW232049   1.650   3.691   0.492
10384SOL     OW32050   6.531   6.419   0.940
10384SOL    HW132051   6.625   6.387   0.951
10384SOL    HW232052   6.475   6.345   0.904
10385SOL     OW32053   3.598   5.844   6.212
10385SOL    HW132054   3.536   5.870   6.287
10385SOL    HW232055   3.552   5.861   6.125
10386SOL     OW32056   0.873   0.828   5.493
10386SOL    HW132057   0.783   0.786   5.505
10386SOL    HW232058   0.871   0.922   5.528
10387SOL     OW32059   4.987   2.756   2.747
10387SOL    HW132060   5.064   2.800   2.701
10387SOL    HW232061   4.999   2.763   2.846
10388SOL     OW32062   2.893   6.676   0.879
10388SOL    HW132063   2.916   6.580   0.898
10388SOL    HW232064   2.887   6.689   0.780
10389SOL     OW32065   5.375   3.377   0.379
10389SOL    HW132066   5.458   3.420   0.342
10389SOL    HW232067   5.396   3.334   0.467
10390SOL     OW32068   1.500   2.680   0.181
10390SOL    HW132069   1.429   2.609   0.180
10390SOL    HW232070   1.590   2.637   0.186
10391SOL     OW32071   1.794   6.072   3.730
10391SOL    HW132072   1.739   6.144   3.688
10391SOL    HW232073   1.736   5.996   3.756
10392SOL     OW32074   6.072   5.137   5.474
10392SOL    HW132075   6.166   5.163   5.456
10392SOL    HW232076   6.027   5.209   5.526
10393SOL     OW32077   1.768   3.865   3.497
10393SOL    HW132078   1.705   3.936   3.527
10393SOL    HW232079   1.769   3.791   3.564
10394SOL     OW32080   2.295   5.481   4.458
10394SOL    HW132081   2.200   5.498   4.483
10394SOL    HW232082   2.311   5.383   4.449
10395SOL     OW32083   0.619   6.521   1.475
10395SOL    HW132084   0.665   6.594   1.526
10395SOL    HW232085   0.522   6.520   1.498
10396SOL     OW32086   3.789   1.951   3.658
10396SOL    HW132087   3.785   2.003   3.743
10396SOL    HW232088   3.854   1.994   3.596
10397SOL     OW32089   3.166   1.673   3.859
10397SOL    HW132090   3.186   1.614   3.938
10397SOL    HW232091   3.074   1.654   3.826
10398SOL     OW32092   6.494   2.522   0.939
10398SOL    HW132093   6.546   2.459   0.880
10398SOL    HW232094   6.497   2.489   1.033
10399SOL     OW32095   5.968   2.048   3.103
10399SOL    HW132096   5.888   2.091   3.146
10399SOL    HW232097   6.007   2.110   3.035
10400SOL     OW32098   4.782   5.887   0.224
10400SOL    HW132099   4.690   5.849   0.207
10400SOL    HW232100   4.797   5.894   0.322
10401SOL     OW32101   0.042   6.529   2.344
10401SOL    HW132102   0.110   6.478   2.396
10401SOL    HW232103   6.999   6.570   2.407
10402SOL     OW32104   6.425   2.060   5.001
10402SOL    HW132105   6.492   2.026   5.066
10402SOL    HW232106   6.461   2.141   4.954
10403SOL     OW32107   5.281   1.582   3.613
10403SOL    HW132108   5.372   1.621   3.629
10403SOL    HW232109   5.267   1.569   3.514
10404SOL     OW32110   6.279   6.140   4.629
10404SOL    HW132111   6.270   6.160   4.532
10404SOL    HW232112   6.192   6.161   4.675
10405SOL     OW32113   1.243   0.454   5.009
10405SOL    HW132114   1.144   0.466   5.001
10405SOL    HW232115   1.278   0.410   4.926
10406SOL     OW32116   2.521   4.635   3.104
10406SOL    HW132117   2.454   4.571   3.066
10406SOL    HW232118   2.569   4.592   3.181
10407SOL     OW32119   2.510   0.015   6.054
10407SOL    HW132120   2.496   6.968   5.984
10407SOL    HW232121   2.444   0.001   6.128
10408SOL     OW32122   4.411   6.964   1.363
10408SOL    HW132123   4.465   6.903   1.421
10408SOL    HW232124   4.374   0.016   1.418
10409SOL     OW32125   0.444   4.843   1.039
10409SOL    HW132126   0.384   4.921   1.019
10409SOL    HW232127   0.411   4.762   0.990
10410SOL     OW32128   5.339   2.072   1.881
10410SOL    HW132129   5.326   1.976   1.857
10410SOL    HW232130   5.253   2.110   1.915
10411SOL     OW32131   3.387   6.431   3.466
10411SOL    HW132132   3.432   6.344   3.490
10411SOL    HW232133   3.456   6.498   3.440
10412SOL     OW32134   0.507   1.126   6.868
10412SOL    HW132135   0.509   1.182   6.785
10412SOL    HW232136   0.596   1.082   6.881
10413SOL     OW32137   6.936   2.886   0.026
10413SOL    HW132138   6.898   2.975   0.051
10413SOL    HW232139   6.865   2.829   7.008
10414SOL     OW32140   3.810   5.053   5.994
10414SOL    HW132141   3.738   5.034   6.060
10414SOL    HW232142   3.898   5.023   6.031
10415SOL     OW32143   1.728   3.613   4.575
10415SOL    HW132144   1.730   3.593   4.477
10415SOL    HW232145   1.782   3.544   4.624
10416SOL     OW32146   6.182   0.351   4.773
10416SOL    HW132147   6.227   0.400   4.847
10416SOL    HW232148   6.179   0.409   4.692
10417SOL     OW32149   3.208   5.184   4.279
10417SOL    HW132150   3.240   5.115   4.215
10417SOL    HW232151   3.135   5.145   4.336
10418SOL     OW32152   6.904   3.253   6.395
10418SOL    HW132153   6.985   3.287   6.444
10418SOL    HW232154   6.827   3.314   6.413
10419SOL     OW32155   2.164   6.975   5.959
10419SOL    HW132156   2.083   6.963   6.016
10419SOL    HW232157   2.141   6.958   5.863
10420SOL     OW32158   0.396   3.886   3.868
10420SOL    HW132159   0.428   3.893   3.773
10420SOL    HW232160   0.374   3.791   3.888
10421SOL     OW32161   0.608   2.036   4.093
10421SOL    HW132162   0.588   2.005   4.000
10421SOL    HW232163   0.535   2.008   4.154
10422SOL     OW32164   6.261   3.260   5.012
10422SOL    HW132165   6.297   3.331   4.952
10422SOL    HW232166   6.202   3.199   4.960
10423SOL     OW32167   6.318   6.181   5.480
10423SOL    HW132168   6.261   6.215   5.555
10423SOL    HW232169   6.331   6.254   5.413
10424SOL     OW32170   5.089   2.851   0.001
10424SOL    HW132171   5.014   2.870   0.065
10424SOL    HW232172   5.131   2.764   0.026
10425SOL     OW32173   1.184   0.256   1.798
10425SOL    HW132174   1.094   0.292   1.775
10425SOL    HW232175   1.242   0.255   1.717
10426SOL     OW32176   5.799   4.971   1.094
10426SOL    HW132177   5.818   4.883   1.137
10426SOL    HW232178   5.827   4.969   0.999
10427SOL     OW32179   3.690   0.825   6.680
10427SOL    HW132180   3.729   0.832   6.588
10427SOL    HW232181   3.631   0.905   6.697
10428SOL     OW32182   3.587   1.272   3.738
10428SOL    HW132183   3.498   1.239   3.771
10428SOL    HW232184   3.660   1.224   3.787
10429SOL     OW32185   6.570   4.151   1.001
10429SOL    HW132186   6.479   4.172   0.966
10429SOL    HW232187   6.581   4.192   1.092
10430SOL     OW32188   5.002   0.125   4.473
10430SOL    HW132189   4.958   0.214   4.460
10430SOL    HW232190   5.087   0.137   4.524
10431SOL     OW32191   3.009   6.038   4.389
10431SOL    HW132192   3.099   5.995   4.380
10431SOL    HW232193   2.983   6.081   4.302
10432SOL     OW32194   5.263   6.320   4.889
10432SOL    HW132195   5.294   6.249   4.827
10432SOL    HW232196   5.298   6.302   4.981
10433SOL     OW32197   1.320   6.287   1.438
10433SOL    HW132198   1.280   6.232   1.510
10433SOL    HW232199   1.347   6.227   1.362
10434SOL     OW32200   3.654   6.603   3.381
10434SOL    HW132201   3.631   6.670   3.452
10434SOL    HW232202   3.739   6.631   3.336
10435SOL     OW32203   0.019   0.538   4.778
10435SOL    HW132204   0.104   0.590   4.764
10435SOL    HW232205   6.977   0.561   4.706
10436SOL     OW32206   0.656   5.151   5.201
10436SOL    HW132207   0.648   5.110   5.292
10436SOL    HW232208   0.634   5.082   5.131
10437SOL     OW32209   4.875   4.545   5.533
10437SOL    HW132210   4.883   4.473   5.603
10437SOL    HW232211   4.856   4.632   5.577
10438SOL     OW32212   6.362   6.364   0.235
10438SOL    HW132213   6.286   6.299   0.244
10438SOL    HW232214   6.327   6.457   0.242
10439SOL     OW32215   4.384   1.104   5.377
10439SOL    HW132216   4.426   1.168   5.441
10439SOL    HW232217   4.319   1.046   5.425
10440SOL     OW32218   1.514   0.228   0.545
10440SOL    HW132219   1.441   0.194   0.485
10440SOL    HW232220   1.495   0.324   0.567
10441SOL     OW32221   2.790   0.288   1.403
10441SOL    HW132222   2.877   0.307   1.358
10441SOL    HW232223   2.807   0.247   1.493
10442SOL     OW32224   3.086   6.582   5.858
10442SOL    HW132225   3.155   6.536   5.915
10442SOL    HW232226   2.995   6.563   5.894
10443SOL     OW32227   4.911   3.845   4.737
10443SOL    HW132228   4.849   3.890   4.801
10443SOL    HW232229   4.893   3.746   4.737
10444SOL     OW32230   4.044   6.595   4.726
10444SOL    HW132231   3.982   6.671   4.706
10444SOL    HW232232   3.998   6.509   4.707
10445SOL     OW32233   0.801   4.953   4.752
10445SOL    HW132234   0.892   4.912   4.745
10445SOL    HW232235   0.775   4.992   4.664
10446SOL     OW32236   1.527   3.101   5.243
10446SOL    HW132237   1.620   3.071   5.262
10446SOL    HW232238   1.520   3.200   5.256
10447SOL     OW32239   0.236   0.852   2.274
10447SOL    HW132240   0.322   0.886   2.311
10447SOL    HW232241   0.248   0.757   2.243
10448SOL     OW32242   3.549   1.057   2.345
10448SOL    HW132243   3.496   1.002   2.409
10448SOL    HW232244   3.519   1.152   2.349
10449SOL     OW32245   2.373   5.396   4.886
10449SOL    HW132246   2.381   5.297   4.891
10449SOL    HW232247   2.288   5.420   4.839
10450SOL     OW32248   0.659   1.694   0.888
10450SOL    HW132249   0.596   1.620   0.910
10450SOL    HW232250   0.645   1.770   0.951
10451SOL     OW32251   1.481   5.902   2.461
10451SOL    HW132252   1.550   5.868   2.397
10451SOL    HW232253   1.398   5.847   2.453
10452SOL     OW32254   6.707   3.724   2.313
10452SOL    HW132255   6.799   3.730   2.350
10452SOL    HW232256   6.680   3.811   2.272
10453SOL     OW32257   4.020   5.834   1.515
10453SOL    HW132258   4.103   5.779   1.505
10453SOL    HW232259   3.956   5.812   1.441
10454SOL     OW32260   4.646   3.813   0.750
10454SOL    HW132261   4.636   3.896   0.696
10454SOL    HW232262   4.570   3.805   0.814
10455SOL     OW32263   5.965   6.268   3.399
10455SOL    HW132264   5.921   6.190   3.353
10455SOL    HW232265   6.040   6.234   3.456
10456SOL     OW32266   3.282   6.625   0.932
10456SOL    HW132267   3.236   6.710   0.904
10456SOL    HW232268   3.253   6.600   1.024
10457SOL     OW32269   3.137   3.596   1.858
10457SOL    HW132270   3.235   3.576   1.867
10457SOL    HW232271   3.120   3.640   1.769
10458SOL     OW32272   0.467   1.450   5.714
10458SOL    HW132273   0.520   1.525   5.753
10458SOL    HW232274   0.390   1.429   5.773
10459SOL     OW32275   4.666   5.723   1.768
10459SOL    HW132276   4.600   5.780   1.816
10459SOL    HW232277   4.715   5.778   1.700
10460SOL     OW32278   1.483   4.551   1.459
10460SOL    HW132279   1.537   4.481   1.506
10460SOL    HW232280   1.488   4.537   1.361
10461SOL     OW32281   1.326   5.152   5.457
10461SOL    HW132282   1.420   5.132   5.486
10461SOL    HW232283   1.271   5.068   5.465
10462SOL     OW32284   5.962   2.264   3.811
10462SOL    HW132285   5.887   2.278   3.875
10462SOL    HW232286   5.990   2.352   3.773
10463SOL     OW32287   3.835   3.153   5.599
10463SOL    HW132288   3.763   3.144   5.668
10463SOL    HW232289   3.906   3.215   5.634
10464SOL     OW32290   6.561   6.762   1.265
10464SOL    HW132291   6.551   6.742   1.167
10464SOL    HW232292   6.523   6.852   1.284
10465SOL     OW32293   6.481   5.726   1.832
10465SOL    HW132294   6.452   5.811   1.875
10465SOL    HW232295   6.573   5.703   1.864
10466SOL     OW32296   4.705   4.873   5.853
10466SOL    HW132297   4.690   4.807   5.780
10466SOL    HW232298   4.625   4.874   5.914
10467SOL     OW32299   1.662   2.373   5.891
10467SOL    HW132300   1.623   2.412   5.974
10467SOL    HW232301   1.628   2.280   5.879
10468SOL     OW32302   4.122   4.727   2.734
10468SOL    HW132303   4.141   4.673   2.652
10468SOL    HW232304   4.096   4.820   2.707
10469SOL     OW32305   4.011   3.100   6.395
10469SOL    HW132306   4.028   3.077   6.300
10469SOL    HW232307   3.983   3.196   6.402
10470SOL     OW32308   2.827   2.318   3.800
10470SOL    HW132309   2.778   2.243   3.843
10470SOL    HW232310   2.925   2.310   3.818
10471SOL     OW32311   2.577   2.362   1.517
10471SOL    HW132312   2.646   2.292   1.536
10471SOL    HW232313   2.534   2.343   1.429
10472SOL     OW32314   2.742   5.273   1.056
10472SOL    HW132315   2.792   5.333   0.994
10472SOL    HW232316   2.719   5.322   1.140
10473SOL     OW32317   6.456   0.841   0.236
10473SOL    HW132318   6.488   0.897   0.312
10473SOL    HW232319   6.404   0.899   0.173
10474SOL     OW32320   4.454   1.459   4.423
10474SOL    HW132321   4.427   1.498   4.510
10474SOL    HW232322   4.491   1.531   4.364
10475SOL     OW32323   5.092   6.845   2.797
10475SOL    HW132324   5.185   6.845   2.761
10475SOL    HW232325   5.055   6.938   2.793
10476SOL     OW32326   6.978   6.402   0.002
10476SOL    HW132327   0.036   6.348   7.000
10476SOL    HW232328   6.977   6.487   6.972
10477SOL     OW32329   6.341   1.605   4.124
10477SOL    HW132330   6.337   1.646   4.215
10477SOL    HW232331   6.381   1.671   4.060
10478SOL     OW32332   0.486   0.580   1.300
10478SOL    HW132333   0.511   0.598   1.205
10478SOL    HW232334   0.386   0.581   1.309
10479SOL     OW32335   0.307   2.712   2.013
10479SOL    HW132336   0.285   2.777   2.085
10479SOL    HW232337   0.405   2.714   1.994
10480SOL     OW32338   6.305   0.547   1.371
10480SOL    HW132339   6.373   0.483   1.407
10480SOL    HW232340   6.290   0.620   1.438
10481SOL     OW32341   2.376   0.082   4.280
10481SOL    HW132342   2.312   0.062   4.206
10481SOL    HW232343   2.438   0.155   4.251
10482SOL     OW32344   0.273   5.808   4.446
10482SOL    HW132345   0.354   5.804   4.503
10482SOL    HW232346   0.199   5.852   4.496
10483SOL     OW32347   0.228   5.728   0.262
10483SOL    HW132348   0.148   5.769   0.220
10483SOL    HW232349   0.256   5.782   0.342
10484SOL     OW32350   6.359   0.967   1.482
10484SOL    HW132351   6.338   1.016   1.567
10484SOL    HW232352   6.286   0.983   1.415
10485SOL     OW32353   3.160   3.529   2.208
10485SOL    HW132354   3.162   3.450   2.147
10485SOL    HW232355   3.067   3.541   2.244
10486SOL     OW32356   6.584   0.843   6.225
10486SOL    HW132357   6.665   0.784   6.217
10486SOL    HW232358   6.515   0.798   6.282
10487SOL     OW32359   4.737   2.085   1.593
10487SOL    HW132360   4.643   2.101   1.563
10487SOL    HW232361   4.737   2.014   1.664
10488SOL     OW32362   2.116   1.997   6.203
10488SOL    HW132363   2.018   1.979   6.208
10488SOL    HW232364   2.139   2.030   6.112
10489SOL     OW32365   5.983   6.715   3.581
10489SOL    HW132366   5.940   6.675   3.662
10489SOL    HW232367   5.962   6.659   3.501
10490SOL     OW32368   5.829   2.264   0.749
10490SOL    HW132369   5.837   2.165   0.736
10490SOL    HW232370   5.833   2.285   0.847
10491SOL     OW32371   2.086   2.127   5.271
10491SOL    HW132372   2.104   2.210   5.323
10491SOL    HW232373   2.052   2.150   5.180
10492SOL     OW32374   4.966   6.134   1.322
10492SOL    HW132375   4.903   6.128   1.400
10492SOL    HW232376   4.929   6.082   1.245
10493SOL     OW32377   2.828   6.371   1.806
10493SOL    HW132378   2.870   6.281   1.806
10493SOL    HW232379   2.736   6.365   1.767
10494SOL     OW32380   5.985   4.411   5.634
10494SOL    HW132381   5.943   4.440   5.720
10494SOL    HW232382   6.083   4.434   5.636
10495SOL     OW32383   0.242   0.334   0.394
10495SOL    HW132384   0.269   0.242   0.421
10495SOL    HW232385   0.323   0.385   0.365
10496SOL     OW32386   6.296   4.887   5.454
10496SOL    HW132387   6.217   4.907   5.512
10496SOL    HW232388   6.365   4.958   5.467
10497SOL     OW32389   1.452   6.739   2.458
10497SOL    HW132390   1.368   6.794   2.454
10497SOL    HW232391   1.445   6.672   2.531
10498SOL     OW32392   5.967   5.843   0.798
10498SOL    HW132393   6.022   5.854   0.881
10498SOL    HW232394   6.015   5.883   0.720
10499SOL     OW32395   4.708   6.994   1.838
10499SOL    HW132396   4.628   0.027   1.858
10499SOL    HW232397   4.765   6.988   1.920
10500SOL     OW32398   5.902   2.163   5.840
10500SOL    HW132399   5.841   2.242   5.834
10500SOL    HW232400   5.997   2.194   5.838
10501SOL     OW32401   2.284   5.825   2.235
10501SOL    HW132402   2.239   5.789   2.153
10501SOL    HW232403   2.333   5.909   2.212
10502SOL     OW32404   2.396   3.944   1.099
10502SOL    HW132405   2.416   3.987   1.187
10502SOL    HW232406   2.297   3.938   1.087
10503SOL     OW32407   5.731   3.595   0.667
10503SOL    HW132408   5.803   3.574   0.600
10503SOL    HW232409   5.671   3.665   0.629
10504SOL     OW32410   0.241   2.306   5.533
10504SOL    HW132411   0.238   2.226   5.593
10504SOL    HW232412   0.232   2.276   5.438
10505SOL     OW32413   5.536   6.453   1.174
10505SOL    HW132414   5.575   6.371   1.132
10505SOL    HW232415   5.604   6.494   1.235
10506SOL     OW32416   0.742   3.712   0.317
10506SOL    HW132417   0.741   3.811   0.297
10506SOL    HW232418   0.831   3.686   0.354
10507SOL     OW32419   2.539   5.285   6.921
10507SOL    HW132420   2.575   5.257   6.832
10507SOL    HW232421   2.498   5.376   6.913
10508SOL     OW32422   0.633   5.866   3.974
10508SOL    HW132423   0.564   5.858   4.045
10508SOL    HW232424   0.722   5.835   4.009
10509SOL     OW32425   6.299   4.978   4.923
10509SOL    HW132426   6.277   4.923   5.003
10509SOL    HW232427   6.255   4.938   4.842
10510SOL     OW32428   4.773   6.175   0.250
10510SOL    HW132429   4.701   6.176   0.319
10510SOL    HW232430   4.783   6.082   0.213
10511SOL     OW32431   3.065   1.436   2.467
10511SOL    HW132432   3.054   1.342   2.501
10511SOL    HW232433   3.002   1.451   2.391
10512SOL     OW32434   3.546   0.137   6.149
10512SOL    HW132435   3.458   0.094   6.170
10512SOL    HW232436   3.620   0.073   6.169
10513SOL     OW32437   6.611   3.031   3.169
10513SOL    HW132438   6.642   3.109   3.224
10513SOL    HW232439   6.584   2.956   3.230
10514SOL     OW32440   1.524   1.966   1.746
10514SOL    HW132441   1.472   1.951   1.829
10514SOL    HW232442   1.621   1.977   1.769
10515SOL     OW32443   1.494   3.422   4.363
10515SOL    HW132444   1.414   3.473   4.396
10515SOL    HW232445   1.489   3.415   4.263
10516SOL     OW32446   2.525   1.866   0.519
10516SOL    HW132447   2.609   1.875   0.466
10516SOL    HW232448   2.535   1.914   0.606
10517SOL     OW32449   1.536   3.985   1.471
10517SOL    HW132450   1.438   3.992   1.458
10517SOL    HW232451   1.556   3.965   1.567
10518SOL     OW32452   6.943   6.104   1.695
10518SOL    HW132453   6.961   6.013   1.657
10518SOL    HW232454   6.904   6.094   1.787
10519SOL     OW32455   2.591   4.585   0.285
10519SOL    HW132456   2.639   4.510   0.240
10519SOL    HW232457   2.578   4.660   0.220
10520SOL     OW32458   0.223   2.231   6.111
10520SOL    HW132459   0.223   2.133   6.092
10520SOL    HW232460   0.163   2.278   6.046
10521SOL     OW32461   6.916   5.699   1.395
10521SOL    HW132462   6.824   5.739   1.392
10521SOL    HW232463   6.909   5.600   1.393
10522SOL     OW32464   0.397   2.912   3.265
10522SOL    HW132465   0.429   2.827   3.224
10522SOL    HW232466   0.379   2.980   3.194
10523SOL     OW32467   0.494   4.328   3.632
10523SOL    HW132468   0.543   4.396   3.687
10523SOL    HW232469   0.555   4.294   3.560
10524SOL     OW32470   0.552   6.271   4.073
10524SOL    HW132471   0.470   6.290   4.127
10524SOL    HW232472   0.569   6.173   4.072
10525SOL     OW32473   3.996   0.058   5.092
10525SOL    HW132474   4.079   0.019   5.133
10525SOL    HW232475   3.937   7.007   5.059
10526SOL     OW32476   0.751   6.713   1.619
10526SOL    HW132477   0.691   6.764   1.680
10526SOL    HW232478   0.806   6.649   1.673
10527SOL     OW32479   0.971   0.817   6.066
10527SOL    HW132480   1.011   0.905   6.094
10527SOL    HW232481   0.973   0.810   5.967
10528SOL     OW32482   0.899   4.219   6.091
10528SOL    HW132483   0.870   4.130   6.058
10528SOL    HW232484   0.915   4.280   6.014
10529SOL     OW32485   1.914   5.660   4.683
10529SOL    HW132486   1.985   5.654   4.753
10529SOL    HW232487   1.834   5.607   4.711
10530SOL     OW32488   1.059   6.426   5.729
10530SOL    HW132489   1.144   6.375   5.730
10530SOL    HW232490   0.981   6.363   5.725
10531SOL     OW32491   2.778   2.220   4.392
10531SOL    HW132492   2.799   2.173   4.478
10531SOL    HW232493   2.698   2.178   4.350
10532SOL     OW32494   6.832   0.215   6.253
10532SOL    HW132495   6.748   0.238   6.302
10532SOL    HW232496   6.911   0.246   6.306
10533SOL     OW32497   3.106   6.124   3.707
10533SOL    HW132498   3.009   6.141   3.691
10533SOL    HW232499   3.130   6.034   3.670
10534SOL     OW32500   6.350   5.249   1.929
10534SOL    HW132501   6.314   5.337   1.959
10534SOL    HW232502   6.376   5.194   2.009
10535SOL     OW32503   2.183   2.084   2.254
10535SOL    HW132504   2.193   2.083   2.155
10535SOL    HW232505   2.166   2.177   2.286
10536SOL     OW32506   4.573   0.542   4.234
10536SOL    HW132507   4.560   0.590   4.147
10536SOL    HW232508   4.656   0.576   4.278
10537SOL     OW32509   5.164   6.246   4.000
10537SOL    HW132510   5.136   6.212   4.090
10537SOL    HW232511   5.256   6.213   3.979
10538SOL     OW32512   6.651   3.407   0.874
10538SOL    HW132513   6.733   3.463   0.859
10538SOL    HW232514   6.646   3.379   0.969
10539SOL     OW32515   6.331   5.547   1.375
10539SOL    HW132516   6.384   5.621   1.418
10539SOL    HW232517   6.234   5.560   1.395
10540SOL     OW32518   2.177   3.241   5.407
10540SOL    HW132519   2.097   3.206   5.359
10540SOL    HW232520   2.252   3.175   5.400
10541SOL     OW32521   4.057   3.147   3.487
10541SOL    HW132522   4.074   3.211   3.412
10541SOL    HW232523   4.116   3.169   3.564
10542SOL     OW32524   6.421   0.244   4.670
10542SOL    HW132525   6.510   0.266   4.710
10542SOL    HW232526   6.349   0.273   4.733
10543SOL     OW32527   0.964   1.821   4.339
10543SOL    HW132528   0.966   1.905   4.285
10543SOL    HW232529   1.036   1.759   4.306
10544SOL     OW32530   2.085   5.788   2.426
10544SOL    HW132531   2.174   5.800   2.383
10544SOL    HW232532   2.027   5.730   2.368
10545SOL     OW32533   1.872   2.044   1.653
10545SOL    HW132534   1.821   2.024   1.737
10545SOL    HW232535   1.880   2.143   1.641
10546SOL     OW32536   3.153   6.335   1.072
10546SOL    HW132537   3.106   6.281   1.141
10546SOL    HW232538   3.139   6.432   1.091
10547SOL     OW32539   5.069   2.056   4.053
10547SOL    HW132540   5.126   1.976   4.036
10547SOL    HW232541   5.096   2.130   3.992
10548SOL     OW32542   0.376   4.319   4.102
10548SOL    HW132543   0.383   4.220   4.111
10548SOL    HW232544   0.308   4.342   4.032
10549SOL     OW32545   0.201   1.447   0.501
10549SOL    HW132546   0.155   1.490   0.578
10549SOL    HW232547   0.300   1.460   0.510
10550SOL     OW32548   4.131   6.237   3.700
10550SOL    HW132549   4.118   6.291   3.783
10550SOL    HW232550   4.226   6.207   3.694
10551SOL     OW32551   1.923   2.214   6.469
10551SOL    HW132552   2.011   2.165   6.468
10551SOL    HW232553   1.855   2.158   6.517
10552SOL     OW32554   1.975   0.959   5.319
10552SOL    HW132555   2.008   1.022   5.389
10552SOL    HW232556   1.941   1.011   5.240
10553SOL     OW32557   0.092   4.195   1.180
10553SOL    HW132558   0.132   4.105   1.196
10553SOL    HW232559   0.162   4.257   1.144
10554SOL     OW32560   5.096   5.526   2.097
10554SOL    HW132561   5.063   5.580   2.019
10554SOL    HW232562   5.175   5.472   2.069
10555SOL     OW32563   2.440   2.414   1.089
10555SOL    HW132564   2.493   2.418   1.004
10555SOL    HW232565   2.447   2.501   1.137
10556SOL     OW32566   2.730   0.963   3.724
10556SOL    HW132567   2.817   0.923   3.752
10556SOL    HW232568   2.741   1.061   3.710
10557SOL     OW32569   1.559   3.571   3.448
10557SOL    HW132570   1.492   3.508   3.409
10557SOL    HW232571   1.577   3.546   3.543
10558SOL     OW32572   3.931   5.880   5.952
10558SOL    HW132573   4.007   5.846   6.008
10558SOL    HW232574   3.961   5.961   5.901
10559SOL     OW32575   3.990   0.557   2.054
10559SOL    HW132576   3.891   0.560   2.048
10559SOL    HW232577   4.029   0.635   2.005
10560SOL     OW32578   5.123   6.996   2.463
10560SOL    HW132579   5.167   0.056   2.428
10560SOL    HW232580   5.024   7.013   2.472
10561SOL     OW32581   3.830   4.314   1.682
10561SOL    HW132582   3.924   4.297   1.653
10561SOL    HW232583   3.811   4.412   1.677
10562SOL     OW32584   4.273   5.530   0.627
10562SOL    HW132585   4.263   5.479   0.541
10562SOL    HW232586   4.220   5.615   0.622
10563SOL     OW32587   1.190   0.761   1.765
10563SOL    HW132588   1.130   0.724   1.836
10563SOL    HW232589   1.135   0.795   1.689
10564SOL     OW32590   5.685   6.693   3.780
10564SOL    HW132591   5.765   6.635   3.767
10564SOL    HW232592   5.699   6.781   3.735
10565SOL     OW32593   6.490   6.583   5.545
10565SOL    HW132594   6.569   6.561   5.601
10565SOL    HW232595   6.455   6.499   5.502
10566SOL     OW32596   3.258   1.889   6.839
10566SOL    HW132597   3.205   1.950   6.898
10566SOL    HW232598   3.321   1.944   6.783
10567SOL     OW32599   2.361   2.993   5.733
10567SOL    HW132600   2.319   2.944   5.810
10567SOL    HW232601   2.391   3.083   5.764
10568SOL     OW32602   5.921   2.899   0.861
10568SOL    HW132603   5.893   2.963   0.790
10568SOL    HW232604   5.853   2.899   0.935
10569SOL     OW32605   5.893   0.522   1.808
10569SOL    HW132606   5.988   0.520   1.839
10569SOL    HW232607   5.857   0.616   1.816
10570SOL     OW32608   1.524   4.496   3.334
10570SOL    HW132609   1.602   4.439   3.309
10570SOL    HW232610   1.485   4.539   3.252
10571SOL     OW32611   7.008   4.122   5.067
10571SOL    HW132612   6.933   4.056   5.058
10571SOL    HW232613   0.013   4.153   4.976
10572SOL     OW32614   6.941   5.178   2.987
10572SOL    HW132615   6.859   5.233   2.973
10572SOL    HW232616   7.015   5.215   2.930
10573SOL     OW32617   5.009   0.435   5.041
10573SOL    HW132618   4.915   0.439   5.075
10573SOL    HW232619   5.010   0.458   4.944
10574SOL     OW32620   6.752   1.365   4.114
10574SOL    HW132621   6.671   1.406   4.073
10574SOL    HW232622   6.807   1.436   4.158
10575SOL     OW32623   6.742   1.210   3.768
10575SOL    HW132624   6.728   1.193   3.671
10575SOL    HW232625   6.671   1.163   3.821
10576SOL     OW32626   0.466   5.794   3.161
10576SOL    HW132627   0.465   5.850   3.244
10576SOL    HW232628   0.458   5.697   3.187
10577SOL     OW32629   1.609   4.440   0.403
10577SOL    HW132630   1.702   4.478   0.398
10577SOL    HW232631   1.547   4.509   0.442
10578SOL     OW32632   4.607   1.068   3.299
10578SOL    HW132633   4.703   1.091   3.313
10578SOL    HW232634   4.589   1.056   3.201
10579SOL     OW32635   3.759   2.858   1.145
10579SOL    HW132636   3.700   2.865   1.225
10579SOL    HW232637   3.766   2.763   1.116
10580SOL     OW32638   6.070   6.554   5.983
10580SOL    HW132639   6.148   6.562   6.045
10580SOL    HW232640   6.094   6.494   5.907
10581SOL     OW32641   5.772   0.688   2.224
10581SOL    HW132642   5.703   0.759   2.235
10581SOL    HW232643   5.732   0.598   2.241
10582SOL     OW32644   4.606   4.628   6.520
10582SOL    HW132645   4.657   4.576   6.589
10582SOL    HW232646   4.668   4.693   6.475
10583SOL     OW32647   4.495   0.329   4.102
10583SOL    HW132648   4.539   0.304   4.015
10583SOL    HW232649   4.537   0.412   4.138
10584SOL     OW32650   6.601   0.064   6.754
10584SOL    HW132651   6.688   0.051   6.706
10584SOL    HW232652   6.618   0.096   6.847
10585SOL     OW32653   2.301   2.068   5.662
10585SOL    HW132654   2.209   2.047   5.631
10585SOL    HW232655   2.298   2.143   5.728
10586SOL     OW32656   4.861   5.083   5.925
10586SOL    HW132657   4.814   5.170   5.937
10586SOL    HW232658   4.793   5.010   5.912
10587SOL     OW32659   6.578   5.092   6.909
10587SOL    HW132660   6.515   5.168   6.926
10587SOL    HW232661   6.618   5.062   6.996
10588SOL     OW32662   1.779   1.813   4.915
10588SOL    HW132663   1.702   1.873   4.939
10588SOL    HW232664   1.770   1.726   4.964
10589SOL     OW32665   5.225   0.183   4.623
10589SOL    HW132666   5.180   0.270   4.644
10589SOL    HW232667   5.233   0.129   4.707
10590SOL     OW32668   0.240   6.750   1.427
10590SOL    HW132669   0.281   6.750   1.336
10590SOL    HW232670   0.149   6.790   1.423
10591SOL     OW32671   2.327   1.778   1.016
10591SOL    HW132672   2.273   1.781   1.100
10591SOL    HW232673   2.316   1.689   0.972
10592SOL     OW32674   5.364   3.402   4.493
10592SOL    HW132675   5.406   3.492   4.502
10592SOL    HW232676   5.328   3.392   4.400
10593SOL     OW32677   2.766   5.945   0.810
10593SOL    HW132678   2.685   6.000   0.794
10593SOL    HW232679   2.741   5.863   0.862
10594SOL     OW32680   5.085   1.739   2.873
10594SOL    HW132681   5.023   1.809   2.837
10594SOL    HW232682   5.034   1.656   2.894
10595SOL     OW32683   5.916   0.083   6.554
10595SOL    HW132684   5.923   0.110   6.650
10595SOL    HW232685   6.005   0.094   6.510
10596SOL     OW32686   4.867   0.516   0.162
10596SOL    HW132687   4.938   0.537   0.230
10596SOL    HW232688   4.778   0.546   0.197
10597SOL     OW32689   3.080   1.279   6.206
10597SOL    HW132690   3.076   1.242   6.113
10597SOL    HW232691   2.989   1.273   6.248
10598SOL     OW32692   3.416   2.315   6.330
10598SOL    HW132693   3.387   2.322   6.235
10598SOL    HW232694   3.342   2.276   6.385
10599SOL     OW32695   6.445   3.595   6.751
10599SOL    HW132696   6.485   3.507   6.725
10599SOL    HW232697   6.346   3.588   6.750
10600SOL     OW32698   3.351   2.771   1.452
10600SOL    HW132699   3.329   2.677   1.425
10600SOL    HW232700   3.267   2.824   1.462
10601SOL     OW32701   1.530   4.750   5.918
10601SOL    HW132702   1.535   4.828   5.981
10601SOL    HW232703   1.558   4.779   5.827
10602SOL     OW32704   0.863   0.871   1.216
10602SOL    HW132705   0.960   0.889   1.230
10602SOL    HW232706   0.829   0.930   1.142
10603SOL     OW32707   4.720   0.087   3.369
10603SOL    HW132708   4.804   0.034   3.359
10603SOL    HW232709   4.730   0.176   3.325
10604SOL     OW32710   6.883   5.717   5.200
10604SOL    HW132711   6.839   5.793   5.247
10604SOL    HW232712   6.841   5.631   5.228
10605SOL     OW32713   2.079   6.340   6.953
10605SOL    HW132714   2.007   6.409   6.962
10605SOL    HW232715   2.038   6.249   6.957
10606SOL     OW32716   6.725   1.467   1.332
10606SOL    HW132717   6.750   1.491   1.238
10606SOL    HW232718   6.805   1.433   1.381
10607SOL     OW32719   3.758   4.907   0.249
10607SOL    HW132720   3.773   4.991   0.301
10607SOL    HW232721   3.714   4.928   0.162
10608SOL     OW32722   6.842   3.565   4.329
10608SOL    HW132723   6.890   3.640   4.284
10608SOL    HW232724   6.874   3.478   4.290
10609SOL     OW32725   3.216   6.763   6.840
10609SOL    HW132726   3.269   6.823   6.900
10609SOL    HW232727   3.278   6.705   6.788
10610SOL     OW32728   0.390   2.001   4.257
10610SOL    HW132729   0.310   1.943   4.271
10610SOL    HW232730   0.362   2.097   4.261
10611SOL     OW32731   2.519   4.920   6.623
10611SOL    HW132732   2.569   4.866   6.556
10611SOL    HW232733   2.522   5.016   6.597
10612SOL     OW32734   5.133   2.171   4.408
10612SOL    HW132735   5.078   2.136   4.332
10612SOL    HW232736   5.116   2.269   4.418
10613SOL     OW32737   6.331   5.905   5.500
10613SOL    HW132738   6.338   5.998   5.463
10613SOL    HW232739   6.362   5.905   5.595
10614SOL     OW32740   5.303   1.321   4.852
10614SOL    HW132741   5.315   1.414   4.819
10614SOL    HW232742   5.242   1.271   4.791
10615SOL     OW32743   3.241   0.915   6.180
10615SOL    HW132744   3.202   0.870   6.259
10615SOL    HW232745   3.341   0.920   6.190
10616SOL     OW32746   3.084   6.279   0.125
10616SOL    HW132747   3.157   6.334   0.167
10616SOL    HW232748   3.051   6.325   0.043
10617SOL     OW32749   3.005   4.311   1.380
10617SOL    HW132750   2.993   4.389   1.319
10617SOL    HW232751   3.102   4.302   1.404
10618SOL     OW32752   1.625   4.824   5.644
10618SOL    HW132753   1.686   4.774   5.583
10618SOL    HW232754   1.585   4.901   5.593
10619SOL     OW32755   0.432   2.683   3.105
10619SOL    HW132756   0.352   2.684   3.045
10619SOL    HW232757   0.515   2.671   3.049
10620SOL     OW32758   1.171   0.408   5.406
10620SOL    HW132759   1.245   0.403   5.339
10620SOL    HW232760   1.089   0.447   5.363
10621SOL     OW32761   0.390   3.900   2.064
10621SOL    HW132762   0.310   3.956   2.085
10621SOL    HW232763   0.451   3.951   2.003
10622SOL     OW32764   4.400   2.349   1.946
10622SOL    HW132765   4.428   2.440   1.976
10622SOL    HW232766   4.480   2.299   1.914
10623SOL     OW32767   6.667   5.502   5.744
10623SOL    HW132768   6.687   5.527   5.839
10623SOL    HW232769   6.574   5.530   5.721
10624SOL     OW32770   0.381   2.545   5.816
10624SOL    HW132771   0.416   2.487   5.743
10624SOL    HW232772   0.423   2.518   5.903
10625SOL     OW32773   0.180   3.941   1.218
10625SOL    HW132774   0.272   3.904   1.203
10625SOL    HW232775   0.135   3.889   1.290
10626SOL     OW32776   3.456   2.833   0.599
10626SOL    HW132777   3.396   2.892   0.653
10626SOL    HW232778   3.481   2.880   0.514
10627SOL     OW32779   5.858   1.391   6.896
10627SOL    HW132780   5.889   1.331   6.821
10627SOL    HW232781   5.788   1.454   6.861
10628SOL     OW32782   4.481   0.157   1.163
10628SOL    HW132783   4.475   0.062   1.194
10628SOL    HW232784   4.400   0.179   1.108
10629SOL     OW32785   3.036   5.040   4.449
10629SOL    HW132786   2.962   4.992   4.403
10629SOL    HW232787   3.041   5.011   4.544
10630SOL     OW32788   6.289   1.552   2.321
10630SOL    HW132789   6.322   1.636   2.277
10630SOL    HW232790   6.226   1.506   2.259
10631SOL     OW32791   3.799   4.356   5.814
10631SOL    HW132792   3.886   4.327   5.854
10631SOL    HW232793   3.780   4.451   5.838
10632SOL     OW32794   5.440   6.575   3.838
10632SOL    HW132795   5.431   6.506   3.909
10632SOL    HW232796   5.535   6.605   3.833
10633SOL     OW32797   2.403   2.622   1.472
10633SOL    HW132798   2.448   2.619   1.561
10633SOL    HW232799   2.464   2.583   1.403
10634SOL     OW32800   2.213   4.915   0.776
10634SOL    HW132801   2.249   4.843   0.836
10634SOL    HW232802   2.286   4.980   0.755
10635SOL     OW32803   1.683   2.877   6.118
10635SOL    HW132804   1.664   2.934   6.038
10635SOL    HW232805   1.779   2.847   6.115
10636SOL     OW32806   0.555   2.326   1.873
10636SOL    HW132807   0.616   2.404   1.859
10636SOL    HW232808   0.601   2.242   1.845
10637SOL     OW32809   1.303   5.082   6.384
10637SOL    HW132810   1.380   5.038   6.336
10637SOL    HW232811   1.258   5.147   6.323
10638SOL     OW32812   5.118   6.410   2.694
10638SOL    HW132813   5.149   6.373   2.607
10638SOL    HW232814   5.026   6.375   2.714
10639SOL     OW32815   0.787   3.734   2.610
10639SOL    HW132816   0.832   3.648   2.586
10639SOL    HW232817   0.741   3.771   2.530
10640SOL     OW32818   4.477   0.566   3.572
10640SOL    HW132819   4.409   0.513   3.622
10640SOL    HW232820   4.562   0.570   3.624
10641SOL     OW32821   2.266   1.740   2.954
10641SOL    HW132822   2.276   1.838   2.967
10641SOL    HW232823   2.321   1.691   3.022
10642SOL     OW32824   6.320   1.271   0.617
10642SOL    HW132825   6.277   1.192   0.660
10642SOL    HW232826   6.279   1.286   0.527
10643SOL     OW32827   2.584   5.726   5.436
10643SOL    HW132828   2.519   5.793   5.401
10643SOL    HW232829   2.558   5.635   5.406
10644SOL     OW32830   5.369   3.199   0.887
10644SOL    HW132831   5.422   3.272   0.843
10644SOL    HW232832   5.379   3.206   0.986
10645SOL     OW32833   1.123   3.050   4.354
10645SOL    HW132834   1.210   3.019   4.391
10645SOL    HW232835   1.061   3.072   4.429
10646SOL     OW32836   0.144   0.756   6.054
10646SOL    HW132837   0.159   0.766   5.956
10646SOL    HW232838   0.067   0.813   6.082
10647SOL     OW32839   3.353   5.462   4.757
10647SOL    HW132840   3.261   5.448   4.719
10647SOL    HW232841   3.380   5.381   4.809
10648SOL     OW32842   6.131   4.783   6.812
10648SOL    HW132843   6.179   4.843   6.875
10648SOL    HW232844   6.139   4.818   6.718
10649SOL     OW32845   0.287   3.819   3.312
10649SOL    HW132846   0.219   3.758   3.272
10649SOL    HW232847   0.265   3.914   3.287
10650SOL     OW32848   0.673   0.679   3.740
10650SOL    HW132849   0.596   0.657   3.681
10650SOL    HW232850   0.661   0.635   3.829
10651SOL     OW32851   6.256   5.912   6.193
10651SOL    HW132852   6.248   5.990   6.255
10651SOL    HW232853   6.166   5.889   6.156
10652SOL     OW32854   2.499   6.673   6.321
10652SOL    HW132855   2.548   6.760   6.333
10652SOL    HW232856   2.436   6.659   6.397
10653SOL     OW32857   4.249   5.660   4.284
10653SOL    HW132858   4.164   5.694   4.243
10653SOL    HW232859   4.242   5.562   4.298
10654SOL     OW32860   5.336   0.176   6.739
10654SOL    HW132861   5.302   0.211   6.827
10654SOL    HW232862   5.304   0.235   6.665
10655SOL     OW32863   1.672   5.581   6.914
10655SOL    HW132864   1.759   5.543   6.883
10655SOL    HW232865   1.688   5.670   6.958
10656SOL     OW32866   6.882   1.841   2.151
10656SOL    HW132867   6.946   1.902   2.198
10656SOL    HW232868   6.933   1.786   2.084
10657SOL     OW32869   5.865   0.697   4.746
10657SOL    HW132870   5.866   0.696   4.846
10657SOL    HW232871   5.958   0.708   4.712
10658SOL     OW32872   6.808   4.669   4.564
10658SOL    HW132873   6.799   4.760   4.605
10658SOL    HW232874   6.743   4.660   4.488
10659SOL     OW32875   1.064   5.754   0.756
10659SOL    HW132876   1.032   5.716   0.669
10659SOL    HW232877   1.065   5.681   0.825
10660SOL     OW32878   5.851   3.804   6.408
10660SOL    HW132879   5.827   3.887   6.457
10660SOL    HW232880   5.768   3.755   6.380
10661SOL     OW32881   1.404   6.587   0.676
10661SOL    HW132882   1.366   6.596   0.768
10661SOL    HW232883   1.365   6.507   0.631
10662SOL     OW32884   4.711   0.402   2.311
10662SOL    HW132885   4.684   0.497   2.324
10662SOL    HW232886   4.642   0.342   2.352
10663SOL     OW32887   0.678   1.330   2.526
10663SOL    HW132888   0.636   1.295   2.610
10663SOL    HW232889   0.721   1.418   2.545
10664SOL     OW32890   6.620   4.245   5.351
10664SOL    HW132891   6.621   4.339   5.385
10664SOL    HW232892   6.709   4.203   5.367
10665SOL     OW32893   1.014   1.719   0.232
10665SOL    HW132894   0.932   1.737   0.177
10665SOL    HW232895   1.014   1.622   0.259
10666SOL     OW32896   3.049   3.999   1.520
10666SOL    HW132897   3.119   4.050   1.571
10666SOL    HW232898   2.999   3.940   1.584
10667SOL     OW32899   4.590   2.293   3.753
10667SOL    HW132900   4.597   2.367   3.687
10667SOL    HW232901   4.659   2.224   3.734
10668SOL     OW32902   2.768   1.536   4.997
10668SOL    HW132903   2.671   1.550   5.015
10668SOL    HW232904   2.822   1.566   5.076
10669SOL     OW32905   5.208   0.405   1.549
10669SOL    HW132906   5.187   0.344   1.472
10669SOL    HW232907   5.163   0.371   1.631
10670SOL     OW32908   5.578   5.066   4.973
10670SOL    HW132909   5.635   5.108   4.903
10670SOL    HW232910   5.632   5.000   5.025
10671SOL     OW32911   2.100   1.925   4.106
10671SOL    HW132912   2.008   1.917   4.068
10671SOL    HW232913   2.164   1.951   4.035
10672SOL     OW32914   6.744   4.183   1.923
10672SOL    HW132915   6.694   4.266   1.897
10672SOL    HW232916   6.842   4.202   1.926
10673SOL     OW32917   0.218   1.189   6.675
10673SOL    HW132918   0.123   1.197   6.643
10673SOL    HW232919   0.269   1.133   6.610
10674SOL     OW32920   4.041   3.371   3.225
10674SOL    HW132921   4.085   3.406   3.308
10674SOL    HW232922   3.990   3.445   3.181
10675SOL     OW32923   1.586   6.739   6.869
10675SOL    HW132924   1.586   6.686   6.785
10675SOL    HW232925   1.658   6.809   6.865
10676SOL     OW32926   6.396   6.404   5.333
10676SOL    HW132927   6.361   6.468   5.264
10676SOL    HW232928   6.491   6.383   5.314
10677SOL     OW32929   1.802   0.548   1.633
10677SOL    HW132930   1.891   0.506   1.617
10677SOL    HW232931   1.790   0.563   1.731
10678SOL     OW32932   4.924   5.746   4.111
10678SOL    HW132933   4.972   5.711   4.191
10678SOL    HW232934   4.976   5.822   4.071
10679SOL     OW32935   4.209   5.403   6.852
10679SOL    HW132936   4.209   5.460   6.770
10679SOL    HW232937   4.292   5.347   6.854
10680SOL     OW32938   3.747   2.135   4.197
10680SOL    HW132939   3.672   2.156   4.134
10680SOL    HW232940   3.715   2.074   4.269
10681SOL     OW32941   0.527   3.566   0.346
10681SOL    HW132942   0.623   3.593   0.333
10681SOL    HW232943   0.520   3.466   0.345
10682SOL     OW32944   0.470   1.378   5.332
10682SOL    HW132945   0.452   1.475   5.314
10682SOL    HW232946   0.508   1.336   5.249
10683SOL     OW32947   4.802   1.549   3.712
10683SOL    HW132948   4.741   1.595   3.648
10683SOL    HW232949   4.773   1.568   3.806
10684SOL     OW32950   5.034   5.156   3.143
10684SOL    HW132951   5.036   5.078   3.205
10684SOL    HW232952   5.059   5.239   3.193
10685SOL     OW32953   0.863   5.439   1.936
10685SOL    HW132954   0.805   5.361   1.913
10685SOL    HW232955   0.859   5.507   1.862
10686SOL     OW32956   0.932   4.693   5.401
10686SOL    HW132957   1.017   4.722   5.445
10686SOL    HW232958   0.924   4.734   5.311
10687SOL     OW32959   5.614   5.621   3.572
10687SOL    HW132960   5.537   5.593   3.515
10687SOL    HW232961   5.698   5.620   3.517
10688SOL     OW32962   6.508   3.732   2.501
10688SOL    HW132963   6.600   3.699   2.479
10688SOL    HW232964   6.463   3.764   2.418
10689SOL     OW32965   0.157   0.104   3.705
10689SOL    HW132966   0.236   0.071   3.756
10689SOL    HW232967   0.141   0.201   3.725
10690SOL     OW32968   0.325   5.875   3.761
10690SOL    HW132969   0.318   5.783   3.799
10690SOL    HW232970   0.264   5.937   3.811
10691SOL     OW32971   0.439   2.130   2.664
10691SOL    HW132972   0.428   2.205   2.729
10691SOL    HW232973   0.534   2.129   2.631
10692SOL     OW32974   2.966   6.416   3.753
10692SOL    HW132975   3.030   6.444   3.682
10692SOL    HW232976   2.951   6.491   3.817
10693SOL     OW32977   1.778   5.977   0.724
10693SOL    HW132978   1.839   5.897   0.728
10693SOL    HW232979   1.713   5.965   0.649
10694SOL     OW32980   5.385   6.773   0.419
10694SOL    HW132981   5.409   6.783   0.322
10694SOL    HW232982   5.403   6.679   0.448
10695SOL     OW32983   0.231   2.503   2.921
10695SOL    HW132984   0.207   2.597   2.944
10695SOL    HW232985   0.200   2.441   2.994
10696SOL     OW32986   6.667   4.343   3.499
10696SOL    HW132987   6.658   4.418   3.433
10696SOL    HW232988   6.754   4.352   3.547
10697SOL     OW32989   6.970   6.051   4.897
10697SOL    HW132990   0.039   6.092   4.900
10697SOL    HW232991   6.978   5.952   4.890
10698SOL     OW32992   5.290   4.104   6.357
10698SOL    HW132993   5.245   4.105   6.447
10698SOL    HW232994   5.387   4.083   6.368
10699SOL     OW32995   3.694   4.164   1.879
10699SOL    HW132996   3.727   4.227   1.809
10699SOL    HW232997   3.638   4.093   1.836
10700SOL     OW32998   6.128   6.951   0.395
10700SOL    HW132999   6.203   7.001   0.438
10700SOL    HW233000   6.157   6.857   0.375
10701SOL     OW33001   3.050   6.524   6.647
10701SOL    HW133002   2.951   6.518   6.657
10701SOL    HW233003   3.073   6.585   6.571
10702SOL     OW33004   5.447   2.864   1.563
10702SOL    HW133005   5.360   2.912   1.565
10702SOL    HW233006   5.517   2.923   1.523
10703SOL     OW33007   3.080   3.220   4.826
10703SOL    HW133008   3.134   3.148   4.783
10703SOL    HW233009   3.027   3.181   4.902
10704SOL     OW33010   6.181   5.750   1.733
10704SOL    HW133011   6.252   5.813   1.701
10704SOL    HW233012   6.195   5.731   1.830
10705SOL     OW33013   5.782   4.935   2.120
10705SOL    HW133014   5.787   4.889   2.208
10705SOL    HW233015   5.713   5.007   2.124
10706SOL     OW33016   5.443   0.566   2.362
10706SOL    HW133017   5.482   0.491   2.310
10706SOL    HW233018   5.361   0.600   2.317
10707SOL     OW33019   0.011   6.776   4.467
10707SOL    HW133020   0.007   6.876   4.470
10707SOL    HW233021   0.051   6.747   4.380
10708SOL     OW33022   4.306   0.858   1.959
10708SOL    HW133023   4.253   0.847   2.044
10708SOL    HW233024   4.403   0.863   1.981
10709SOL     OW33025   5.741   5.562   5.414
10709SOL    HW133026   5.786   5.606   5.492
10709SOL    HW233027   5.647   5.594   5.408
10710SOL     OW33028   0.185   0.247   4.235
10710SOL    HW133029   0.140   0.169   4.278
10710SOL    HW233030   0.135   0.331   4.255
10711SOL     OW33031   1.716   0.071   4.399
10711SOL    HW133032   1.656   7.014   4.401
10711SOL    HW233033   1.811   0.041   4.395
10712SOL     OW33034   3.169   0.887   1.886
10712SOL    HW133035   3.183   0.788   1.874
10712SOL    HW233036   3.258   0.933   1.883
10713SOL     OW33037   0.773   3.840   1.656
10713SOL    HW133038   0.784   3.936   1.628
10713SOL    HW233039   0.763   3.836   1.756
10714SOL     OW33040   5.923   3.827   4.584
10714SOL    HW133041   5.947   3.850   4.490
10714SOL    HW233042   5.964   3.739   4.609
10715SOL     OW33043   5.265   0.650   2.743
10715SOL    HW133044   5.318   0.594   2.807
10715SOL    HW233045   5.325   0.715   2.697
10716SOL     OW33046   5.823   2.337   4.210
10716SOL    HW133047   5.794   2.308   4.119
10716SOL    HW233048   5.885   2.268   4.248
10717SOL     OW33049   1.517   2.092   1.036
10717SOL    HW133050   1.477   2.051   0.954
10717SOL    HW233051   1.482   2.046   1.118
10718SOL     OW33052   1.248   3.019   6.235
10718SOL    HW133053   1.243   3.013   6.135
10718SOL    HW233054   1.343   3.030   6.263
10719SOL     OW33055   6.431   5.760   2.563
10719SOL    HW133056   6.409   5.703   2.484
10719SOL    HW233057   6.351   5.768   2.623
10720SOL     OW33058   0.752   4.345   4.704
10720SOL    HW133059   0.742   4.247   4.721
10720SOL    HW233060   0.849   4.368   4.698
10721SOL     OW33061   5.731   4.167   5.236
10721SOL    HW133062   5.657   4.101   5.249
10721SOL    HW233063   5.771   4.191   5.325
10722SOL     OW33064   0.960   4.927   0.212
10722SOL    HW133065   0.922   5.018   0.232
10722SOL    HW233066   0.918   4.890   0.129
10723SOL     OW33067   0.240   3.490   6.125
10723SOL    HW133068   0.239   3.552   6.046
10723SOL    HW233069   0.263   3.398   6.094
10724SOL     OW33070   5.963   1.039   6.758
10724SOL    HW133071   5.928   1.104   6.691
10724SOL    HW233072   5.923   1.058   6.848
10725SOL     OW33073   1.063   5.244   4.530
10725SOL    HW133074   0.991   5.312   4.536
10725SOL    HW233075   1.025   5.158   4.496
10726SOL     OW33076   5.041   7.011   5.748
10726SOL    HW133077   4.977   7.010   5.671
10726SOL    HW233078   5.089   0.076   5.750
10727SOL     OW33079   0.621   5.006   4.968
10727SOL    HW133080   0.684   4.998   4.891
10727SOL    HW233081   0.572   4.919   4.980
10728SOL     OW33082   0.053   5.798   0.042
10728SOL    HW133083   0.039   5.849   6.980
10728SOL    HW233084   7.015   5.719   0.044
10729SOL     OW33085   5.426   1.045   1.569
10729SOL    HW133086   5.347   1.011   1.620
10729SOL    HW233087   5.409   1.140   1.542
10730SOL     OW33088   2.086   0.418   1.660
10730SOL    HW133089   2.101   0.324   1.692
10730SOL    HW233090   2.086   0.481   1.738
10731SOL     OW33091   3.048   5.944   1.022
10731SOL    HW133092   3.050   5.844   1.023
10731SOL    HW233093   2.953   5.975   1.019
10732SOL     OW33094   5.685   5.209   3.772
10732SOL    HW133095   5.653   5.150   3.698
10732SOL    HW233096   5.628   5.291   3.776
10733SOL     OW33097   6.330   1.950   1.080
10733SOL    HW133098   6.323   2.009   0.999
10733SOL    HW233099   6.244   1.900   1.092
10734SOL     OW33100   1.031   0.468   6.910
10734SOL    HW133101   1.041   0.557   6.956
10734SOL    HW233102   0.968   0.478   6.833
10735SOL     OW33103   1.737   3.570   3.237
10735SOL    HW133104   1.795   3.491   3.219
10735SOL    HW233105   1.673   3.549   3.311
10736SOL     OW33106   1.528   0.542   2.910
10736SOL    HW133107   1.435   0.521   2.882
10736SOL    HW233108   1.532   0.634   2.950
10737SOL     OW33109   2.291   1.504   0.486
10737SOL    HW133110   2.260   1.456   0.568
10737SOL    HW233111   2.308   1.437   0.413
10738SOL     OW33112   3.134   0.341   3.595
10738SOL    HW133113   3.160   0.322   3.500
10738SOL    HW233114   3.145   0.259   3.650
10739SOL     OW33115   0.565   1.436   1.069
10739SOL    HW133116   0.487   1.384   1.102
10739SOL    HW233117   0.635   1.372   1.035
10740SOL     OW33118   0.194   4.515   5.359
10740SOL    HW133119   0.202   4.612   5.337
10740SOL    HW233120   0.101   4.484   5.340
10741SOL     OW33121   6.733   0.089   1.274
10741SOL    HW133122   6.773   0.046   1.193
10741SOL    HW233123   6.648   0.043   1.298
10742SOL     OW33124   5.844   0.449   1.289
10742SOL    HW133125   5.905   0.464   1.211
10742SOL    HW233126   5.859   0.520   1.358
10743SOL     OW33127   2.521   1.652   5.042
10743SOL    HW133128   2.467   1.689   5.118
10743SOL    HW233129   2.594   1.716   5.019
10744SOL     OW33130   3.636   1.239   1.189
10744SOL    HW133131   3.609   1.239   1.285
10744SOL    HW233132   3.567   1.288   1.135
10745SOL     OW33133   0.253   5.194   0.010
10745SOL    HW133134   0.234   5.228   0.102
10745SOL    HW233135   0.350   5.173   0.001
10746SOL     OW33136   2.150   4.340   1.126
10746SOL    HW133137   2.152   4.344   1.026
10746SOL    HW233138   2.243   4.344   1.161
10747SOL     OW33139   4.390   0.832   3.483
10747SOL    HW133140   4.481   0.867   3.461
10747SOL    HW233141   4.397   0.752   3.542
10748SOL     OW33142   3.858   0.839   1.349
10748SOL    HW133143   3.870   0.920   1.291
10748SOL    HW233144   3.936   0.830   1.410
10749SOL     OW33145   0.324   5.707   3.458
10749SOL    HW133146   0.297   5.611   3.452
10749SOL    HW233147   0.348   5.729   3.553
10750SOL     OW33148   4.462   6.331   5.028
10750SOL    HW133149   4.430   6.246   4.988
10750SOL    HW233150   4.554   6.352   4.995
10751SOL     OW33151   1.684   4.764   4.140
10751SOL    HW133152   1.746   4.752   4.217
10751SOL    HW233153   1.606   4.701   4.148
10752SOL     OW33154   5.812   4.262   6.116
10752SOL    HW133155   5.777   4.277   6.023
10752SOL    HW233156   5.886   4.195   6.113
10753SOL     OW33157   4.480   6.583   4.394
10753SOL    HW133158   4.413   6.558   4.464
10753SOL    HW233159   4.443   6.562   4.304
10754SOL     OW33160   1.100   1.456   3.359
10754SOL    HW133161   1.102   1.357   3.369
10754SOL    HW233162   1.021   1.483   3.305
10755SOL     OW33163   0.008   1.028   6.503
10755SOL    HW133164   6.937   1.024   6.471
10755SOL    HW233165   0.016   0.984   6.592
10756SOL     OW33166   0.082   4.343   0.291
10756SOL    HW133167   0.085   4.437   0.255
10756SOL    HW233168   0.149   4.287   0.243
10757SOL     OW33169   1.321   2.799   0.348
10757SOL    HW133170   1.351   2.781   0.441
10757SOL    HW233171   1.401   2.802   0.287
10758SOL     OW33172   0.692   6.807   4.338
10758SOL    HW133173   0.720   6.745   4.412
10758SOL    HW233174   0.690   6.901   4.371
10759SOL     OW33175   1.861   2.964   1.164
10759SOL    HW133176   1.801   3.018   1.105
10759SOL    HW233177   1.904   2.892   1.110
10760SOL     OW33178   6.669   1.144   1.647
10760SOL    HW133179   6.598   1.133   1.716
10760SOL    HW233180   6.703   1.054   1.620
10761SOL     OW33181   1.130   1.094   6.132
10761SOL    HW133182   1.109   1.106   6.229
10761SOL    HW233183   1.057   1.133   6.077
10762SOL     OW33184   4.183   1.901   4.426
10762SOL    HW133185   4.160   1.960   4.503
10762SOL    HW233186   4.276   1.921   4.395
10763SOL     OW33187   4.615   6.200   2.363
10763SOL    HW133188   4.663   6.143   2.430
10763SOL    HW233189   4.622   6.158   2.272
10764SOL     OW33190   5.372   2.617   5.834
10764SOL    HW133191   5.435   2.657   5.901
10764SOL    HW233192   5.299   2.568   5.881
10765SOL     OW33193   5.368   2.275   0.442
10765SOL    HW133194   5.321   2.363   0.433
10765SOL    HW233195   5.464   2.287   0.415
10766SOL     OW33196   5.077   3.352   1.151
10766SOL    HW133197   5.126   3.296   1.218
10766SOL    HW233198   5.001   3.299   1.112
10767SOL     OW33199   1.330   0.827   0.095
10767SOL    HW133200   1.268   0.835   0.173
10767SOL    HW233201   1.283   0.858   0.012
10768SOL     OW33202   4.924   4.112   1.122
10768SOL    HW133203   4.863   4.042   1.085
10768SOL    HW233204   4.871   4.172   1.183
10769SOL     OW33205   2.656   4.666   4.794
10769SOL    HW133206   2.626   4.758   4.820
10769SOL    HW233207   2.717   4.630   4.864
10770SOL     OW33208   5.761   0.779   5.247
10770SOL    HW133209   5.674   0.828   5.236
10770SOL    HW233210   5.744   0.681   5.255
10771SOL     OW33211   5.447   1.443   3.122
10771SOL    HW133212   5.432   1.408   3.215
10771SOL    HW233213   5.359   1.457   3.077
10772SOL     OW33214   6.804   6.843   4.810
10772SOL    HW133215   6.762   6.850   4.720
10772SOL    HW233216   6.786   6.752   4.848
10773SOL     OW33217   6.934   5.493   6.916
10773SOL    HW133218   6.912   5.566   6.980
10773SOL    HW233219   6.982   5.531   6.837
10774SOL     OW33220   1.991   1.665   6.306
10774SOL    HW133221   2.053   1.588   6.318
10774SOL    HW233222   2.008   1.733   6.377
10775SOL     OW33223   6.839   4.231   1.167
10775SOL    HW133224   6.934   4.201   1.155
10775SOL    HW233225   6.784   4.154   1.202
10776SOL     OW33226   0.754   6.923   6.820
10776SOL    HW133227   0.758   6.840   6.875
10776SOL    HW233228   0.659   6.947   6.802
10777SOL     OW33229   3.416   6.013   2.980
10777SOL    HW133230   3.505   6.026   2.937
10777SOL    HW233231   3.356   5.962   2.919
10778SOL     OW33232   5.994   6.765   4.517
10778SOL    HW133233   5.966   6.759   4.421
10778SOL    HW233234   5.962   6.852   4.555
10779SOL     OW33235   6.436   4.710   3.597
10779SOL    HW133236   6.515   4.651   3.617
10779SOL    HW233237   6.467   4.791   3.547
10780SOL     OW33238   2.070   0.904   3.615
10780SOL    HW133239   2.057   0.974   3.686
10780SOL    HW233240   2.044   0.815   3.652
10781SOL     OW33241   4.508   0.643   3.291
10781SOL    HW133242   4.500   0.594   3.378
10781SOL    HW233243   4.418   0.677   3.264
10782SOL     OW33244   5.762   1.749   2.247
10782SOL    HW133245   5.692   1.681   2.269
10782SOL    HW233246   5.847   1.702   2.222
10783SOL     OW33247   0.876   3.702   3.599
10783SOL    HW133248   0.957   3.701   3.657
10783SOL    HW233249   0.903   3.714   3.504
10784SOL     OW33250   3.694   0.319   4.416
10784SOL    HW133251   3.788   0.321   4.450
10784SOL    HW233252   3.658   0.226   4.426
10785SOL     OW33253   0.321   4.773   2.131
10785SOL    HW133254   0.297   4.819   2.045
10785SOL    HW233255   0.313   4.838   2.206
10786SOL     OW33256   5.423   4.815   3.350
10786SOL    HW133257   5.437   4.914   3.352
10786SOL    HW233258   5.400   4.783   3.442
10787SOL     OW33259   1.913   1.408   4.543
10787SOL    HW133260   2.007   1.419   4.575
10787SOL    HW233261   1.868   1.497   4.539
10788SOL     OW33262   1.706   4.632   6.271
10788SOL    HW133263   1.745   4.651   6.180
10788SOL    HW233264   1.745   4.547   6.306
10789SOL     OW33265   0.415   2.866   6.315
10789SOL    HW133266   0.356   2.906   6.385
10789SOL    HW233267   0.361   2.804   6.257
10790SOL     OW33268   1.303   0.940   2.075
10790SOL    HW133269   1.394   0.945   2.116
10790SOL    HW233270   1.275   0.844   2.068
10791SOL     OW33271   0.958   6.988   1.007
10791SOL    HW133272   0.909   0.044   1.043
10791SOL    HW233273   1.040   7.018   0.960
10792SOL     OW33274   3.298   3.850   3.653
10792SOL    HW133275   3.237   3.914   3.699
10792SOL    HW233276   3.385   3.845   3.702
10793SOL     OW33277   6.061   3.350   4.148
10793SOL    HW133278   5.993   3.277   4.143
10793SOL    HW233279   6.017   3.435   4.178
10794SOL     OW33280   3.162   3.769   3.315
10794SOL    HW133281   3.149   3.861   3.278
10794SOL    HW233282   3.077   3.718   3.308
10795SOL     OW33283   6.248   4.626   2.715
10795SOL    HW133284   6.260   4.724   2.701
10795SOL    HW233285   6.337   4.582   2.718
10796SOL     OW33286   5.765   6.674   0.326
10796SOL    HW133287   5.775   6.764   0.284
10796SOL    HW233288   5.855   6.637   0.349
10797SOL     OW33289   4.437   2.835   1.541
10797SOL    HW133290   4.443   2.756   1.603
10797SOL    HW233291   4.390   2.807   1.457
10798SOL     OW33292   2.799   6.104   0.471
10798SOL    HW133293   2.780   6.006   0.473
10798SOL    HW233294   2.896   6.119   0.455
10799SOL     OW33295   3.841   0.908   1.828
10799SOL    HW133296   3.793   0.965   1.894
10799SOL    HW233297   3.923   0.956   1.796
10800SOL     OW33298   0.764   6.970   6.257
10800SOL    HW133299   0.833   6.902   6.283
10800SOL    HW233300   0.766   0.023   6.321
10801SOL     OW33301   0.459   5.807   5.713
10801SOL    HW133302   0.453   5.710   5.736
10801SOL    HW233303   0.416   5.862   5.784
10802SOL     OW33304   0.604   1.822   3.371
10802SOL    HW133305   0.510   1.833   3.402
10802SOL    HW233306   0.655   1.769   3.438
10803SOL     OW33307   3.139   4.050   6.005
10803SOL    HW133308   3.147   4.041   6.105
10803SOL    HW233309   3.087   3.974   5.968
10804SOL     OW33310   5.930   3.395   1.948
10804SOL    HW133311   5.892   3.313   1.991
10804SOL    HW233312   5.974   3.370   1.862
10805SOL     OW33313   4.390   6.873   0.059
10805SOL    HW133314   4.436   6.790   0.090
10805SOL    HW233315   4.427   6.952   0.108
10806SOL     OW33316   4.732   3.752   6.045
10806SOL    HW133317   4.670   3.762   5.967
10806SOL    HW233318   4.748   3.842   6.087
10807SOL     OW33319   1.073   0.165   2.195
10807SOL    HW133320   0.976   0.138   2.195
10807SOL    HW233321   1.128   0.091   2.233
10808SOL     OW33322   0.295   3.127   5.782
10808SOL    HW133323   0.279   3.055   5.713
10808SOL    HW233324   0.336   3.207   5.738
10809SOL     OW33325   2.879   5.064   3.328
10809SOL    HW133326   2.965   5.103   3.360
10809SOL    HW233327   2.898   4.994   3.259
10810SOL     OW33328   1.631   0.357   4.174
10810SOL    HW133329   1.568   0.287   4.208
10810SOL    HW233330   1.581   0.427   4.124
10811SOL     OW33331   4.095   4.498   6.577
10811SOL    HW133332   4.046   4.586   6.577
10811SOL    HW233333   4.100   4.463   6.484
10812SOL     OW33334   0.600   3.983   0.966
10812SOL    HW133335   0.580   3.921   1.042
10812SOL    HW233336   0.622   3.929   0.885
10813SOL     OW33337   2.092   4.479   6.599
10813SOL    HW133338   2.182   4.521   6.612
10813SOL    HW233339   2.054   4.455   6.689
10814SOL     OW33340   1.390   6.643   6.587
10814SOL    HW133341   1.326   6.589   6.533
10814SOL    HW233342   1.484   6.621   6.559
10815SOL     OW33343   4.485   4.482   3.216
10815SOL    HW133344   4.465   4.489   3.118
10815SOL    HW233345   4.565   4.424   3.230
10816SOL     OW33346   2.866   3.322   2.183
10816SOL    HW133347   2.902   3.391   2.120
10816SOL    HW233348   2.803   3.365   2.247
10817SOL     OW33349   4.365   0.235   3.551
10817SOL    HW133350   4.338   0.282   3.635
10817SOL    HW233351   4.419   0.154   3.574
10818SOL     OW33352   4.439   4.458   5.473
10818SOL    HW133353   4.482   4.470   5.563
10818SOL    HW233354   4.339   4.463   5.483
10819SOL     OW33355   6.727   4.692   6.411
10819SOL    HW133356   6.772   4.631   6.476
10819SOL    HW233357   6.700   4.641   6.330
10820SOL     OW33358   6.592   6.011   3.983
10820SOL    HW133359   6.493   5.998   3.976
10820SOL    HW233360   6.631   5.940   4.040
10821SOL     OW33361   5.727   6.768   1.973
10821SOL    HW133362   5.750   6.818   1.890
10821SOL    HW233363   5.811   6.734   2.016
10822SOL     OW33364   0.047   3.419   3.049
10822SOL    HW133365   0.017   3.421   2.953
10822SOL    HW233366   6.991   3.432   3.109
10823SOL     OW33367   1.859   6.217   1.359
10823SOL    HW133368   1.898   6.126   1.368
10823SOL    HW233369   1.813   6.225   1.270
10824SOL     OW33370   6.584   1.304   3.301
10824SOL    HW133371   6.504   1.363   3.308
10824SOL    HW233372   6.657   1.351   3.252
10825SOL     OW33373   2.357   1.115   6.286
10825SOL    HW133374   2.410   1.049   6.232
10825SOL    HW233375   2.314   1.182   6.224
10826SOL     OW33376   1.128   3.119   4.047
10826SOL    HW133377   1.150   3.144   4.141
10826SOL    HW233378   1.086   3.197   4.000
10827SOL     OW33379   6.574   3.307   4.205
10827SOL    HW133380   6.558   3.277   4.111
10827SOL    HW233381   6.552   3.404   4.214
10828SOL     OW33382   0.919   4.592   0.798
10828SOL    HW133383   0.964   4.621   0.714
10828SOL    HW233384   0.824   4.625   0.798
10829SOL     OW33385   4.238   2.279   0.355
10829SOL    HW133386   4.139   2.287   0.366
10829SOL    HW233387   4.263   2.182   0.351
10830SOL     OW33388   5.260   1.696   2.675
10830SOL    HW133389   5.187   1.696   2.744
10830SOL    HW233390   5.232   1.753   2.598
10831SOL     OW33391   2.684   5.778   2.596
10831SOL    HW133392   2.607   5.732   2.552
10831SOL    HW233393   2.715   5.854   2.540
10832SOL     OW33394   0.622   2.887   6.011
10832SOL    HW133395   0.567   2.830   6.072
10832SOL    HW233396   0.672   2.829   5.947
10833SOL     OW33397   0.783   0.682   2.313
10833SOL    HW133398   0.738   0.690   2.402
10833SOL    HW233399   0.846   0.759   2.301
10834SOL     OW33400   0.787   1.782   0.089
10834SOL    HW133401   0.708   1.823   0.135
10834SOL    HW233402   0.804   1.830   0.003
10835SOL     OW33403   5.407   2.625   0.582
10835SOL    HW133404   5.377   2.718   0.603
10835SOL    HW233405   5.360   2.592   0.500
10836SOL     OW33406   6.601   1.326   4.980
10836SOL    HW133407   6.688   1.374   4.978
10836SOL    HW233408   6.616   1.230   5.005
10837SOL     OW33409   7.017   5.252   1.528
10837SOL    HW133410   7.006   5.313   1.449
10837SOL    HW233411   0.025   5.162   1.497
10838SOL     OW33412   5.939   5.579   4.362
10838SOL    HW133413   5.912   5.493   4.318
10838SOL    HW233414   5.950   5.564   4.460
10839SOL     OW33415   4.367   3.011   1.725
10839SOL    HW133416   4.408   2.951   1.656
10839SOL    HW233417   4.436   3.033   1.794
10840SOL     OW33418   2.379   5.559   2.636
10840SOL    HW133419   2.364   5.605   2.723
10840SOL    HW233420   2.401   5.463   2.652
10841SOL     OW33421   5.853   5.084   6.074
10841SOL    HW133422   5.802   5.151   6.128
10841SOL    HW233423   5.910   5.029   6.135
10842SOL     OW33424   4.755   2.484   1.875
10842SOL    HW133425   4.760   2.577   1.838
10842SOL    HW233426   4.752   2.419   1.800
10843SOL     OW33427   1.221   1.980   1.598
10843SOL    HW133428   1.282   1.955   1.673
10843SOL    HW233429   1.227   1.912   1.525
10844SOL     OW33430   0.128   6.983   3.465
10844SOL    HW133431   0.088   0.021   3.397
10844SOL    HW233432   0.141   0.010   3.551
10845SOL     OW33433   3.042   0.255   5.648
10845SOL    HW133434   2.968   0.297   5.701
10845SOL    HW233435   3.129   0.270   5.694
10846SOL     OW33436   4.783   1.506   0.165
10846SOL    HW133437   4.758   1.446   0.089
10846SOL    HW233438   4.881   1.497   0.184
10847SOL     OW33439   3.580   3.509   6.707
10847SOL    HW133440   3.552   3.418   6.737
10847SOL    HW233441   3.670   3.530   6.744
10848SOL     OW33442   3.026   3.780   6.965
10848SOL    HW133443   3.114   3.786   6.918
10848SOL    HW233444   2.999   3.871   6.997
10849SOL     OW33445   1.999   5.935   3.525
10849SOL    HW133446   2.055   5.896   3.599
10849SOL    HW233447   1.905   5.943   3.556
10850SOL     OW33448   2.303   5.488   6.998
10850SOL    HW133449   2.373   5.531   6.940
10850SOL    HW233450   2.213   5.503   6.958
10851SOL     OW33451   1.796   3.364   6.635
10851SOL    HW133452   1.771   3.291   6.698
10851SOL    HW233453   1.718   3.384   6.575
10852SOL     OW33454   1.619   0.600   6.936
10852SOL    HW133455   1.702   0.604   6.991
10852SOL    HW233456   1.541   0.630   6.991
10853SOL     OW33457   1.571   2.246   5.094
10853SOL    HW133458   1.589   2.271   5.189
10853SOL    HW233459   1.472   2.249   5.076
10854SOL     OW33460   4.362   4.798   5.164
10854SOL    HW133461   4.326   4.892   5.159
10854SOL    HW233462   4.344   4.751   5.077
10855SOL     OW33463   3.236   0.020   0.449
10855SOL    HW133464   3.162   6.982   0.477
10855SOL    HW233465   3.301   6.993   0.392
10856SOL     OW33466   5.537   1.638   0.557
10856SOL    HW133467   5.443   1.616   0.533
10856SOL    HW233468   5.560   1.729   0.522
10857SOL     OW33469   6.440   2.741   2.790
10857SOL    HW133470   6.531   2.771   2.764
10857SOL    HW233471   6.441   2.642   2.807
10858SOL     OW33472   1.070   1.675   6.227
10858SOL    HW133473   1.144   1.714   6.172
10858SOL    HW233474   1.053   1.581   6.197
10859SOL     OW33475   1.504   4.255   4.385
10859SOL    HW133476   1.498   4.194   4.464
10859SOL    HW233477   1.416   4.300   4.371
10860SOL     OW33478   6.641   1.580   5.588
10860SOL    HW133479   6.678   1.508   5.646
10860SOL    HW233480   6.572   1.542   5.527
10861SOL     OW33481   3.510   3.262   2.992
10861SOL    HW133482   3.441   3.202   2.952
10861SOL    HW233483   3.602   3.225   2.974
10862SOL     OW33484   2.307   1.976   6.708
10862SOL    HW133485   2.383   2.025   6.665
10862SOL    HW233486   2.331   1.880   6.720
10863SOL     OW33487   3.385   0.768   3.686
10863SOL    HW133488   3.396   0.820   3.771
10863SOL    HW233489   3.350   0.829   3.615
10864SOL     OW33490   2.550   5.509   0.853
10864SOL    HW133491   2.610   5.440   0.812
10864SOL    HW233492   2.472   5.526   0.792
10865SOL     OW33493   6.834   1.117   2.090
10865SOL    HW133494   6.794   1.025   2.086
10865SOL    HW233495   6.888   1.134   2.007
10866SOL     OW33496   5.400   4.559   0.920
10866SOL    HW133497   5.355   4.596   0.839
10866SOL    HW233498   5.489   4.603   0.932
10867SOL     OW33499   3.587   4.145   0.208
10867SOL    HW133500   3.590   4.049   0.180
10867SOL    HW233501   3.500   4.185   0.177
10868SOL     OW33502   3.941   2.198   3.915
10868SOL    HW133503   3.846   2.192   3.885
10868SOL    HW233504   4.000   2.157   3.846
10869NA      NA33505   7.002   2.067   5.291
10870NA      NA33506   4.501   4.432   5.229
10871NA      NA33507   2.066   3.777   2.203
10872NA      NA33508   5.005   3.998   4.582
10873NA      NA33509   4.328   2.383   5.255
10874NA      NA33510   3.155   4.807   1.676
10875NA      NA33511   0.121   4.376   0.550
10876NA      NA33512   3.280   3.660   3.496
10877NA      NA33513   5.182   5.487   0.478
10878NA      NA33514   2.977   6.853   5.473
10879NA      NA33515   5.930   5.361   1.655
10880NA      NA33516   2.167   0.638   4.481
10881NA      NA33517   3.656   5.021   2.321
10882NA      NA33518   3.991   3.531   1.948
   7.02305   7.02305   7.02305
