Generated by trjconv : CNT in water t= 382.00000
33518
    1C        C    1   2.849   2.776   4.745
    1C        C    2   2.903   2.726   4.865
    1C        C    3   2.843   2.775   4.982
    1C        C    4   2.851   2.771   4.260
    1C        C    5   2.904   2.731   4.384
    1C        C    6   2.842   2.772   4.505
    1C        C    7   3.016   2.644   4.623
    1C        C    8   2.898   2.720   4.624
    1C        C    9   3.076   2.601   4.743
    1C        C   10   3.013   2.638   4.864
    1C        C   11   3.179   2.490   4.976
    1C        C   12   3.061   2.565   4.974
    1C        C   13   2.852   2.769   3.772
    1C        C   14   2.899   2.717   3.895
    1C        C   15   2.851   2.772   4.016
    1C        C   16   3.017   2.640   4.137
    1C        C   17   2.901   2.721   4.138
    1C        C   18   3.083   2.613   4.259
    1C        C   19   3.022   2.653   4.380
    1C        C   20   3.211   2.557   4.502
    1C        C   21   3.081   2.611   4.501
    1C        C   22   3.277   2.533   4.625
    1C        C   23   3.206   2.545   4.747
    1C        C   24   3.412   2.485   4.864
    1C        C   25   3.270   2.499   4.866
    1C        C   26   3.490   2.483   4.981
    1C        C   27   2.852   2.766   3.282
    1C        C   28   2.904   2.722   3.406
    1C        C   29   2.849   2.765   3.528
    1C        C   30   3.023   2.644   3.652
    1C        C   31   2.906   2.724   3.650
    1C        C   32   3.080   2.602   3.773
    1C        C   33   3.013   2.633   3.894
    1C        C   34   3.205   2.543   4.017
    1C        C   35   3.075   2.597   4.016
    1C        C   36   3.278   2.530   4.137
    1C        C   37   3.213   2.559   4.259
    1C        C   38   3.418   2.505   4.379
    1C        C   39   3.281   2.536   4.381
    1C        C   40   3.489   2.497   4.502
    1C        C   41   3.415   2.504   4.622
    1C        C   42   3.628   2.486   4.744
    1C        C   43   3.486   2.485   4.743
    1C        C   44   3.706   2.486   4.862
    1C        C   45   3.628   2.475   4.978
    1C        C   46   2.836   2.753   2.795
    1C        C   47   2.895   2.712   2.917
    1C        C   48   2.847   2.763   3.040
    1C        C   49   3.019   2.633   3.162
    1C        C   50   2.904   2.716   3.161
    1C        C   51   3.079   2.600   3.285
    1C        C   52   3.018   2.637   3.407
    1C        C   53   3.210   2.547   3.527
    1C        C   54   3.081   2.604   3.529
    1C        C   55   3.278   2.527   3.649
    1C        C   56   3.211   2.548   3.772
    1C        C   57   3.415   2.504   3.896
    1C        C   58   3.276   2.525   3.895
    1C        C   59   3.491   2.499   4.016
    1C        C   60   3.417   2.504   4.136
    1C        C   61   3.631   2.501   4.260
    1C        C   62   3.490   2.500   4.258
    1C        C   63   3.700   2.510   4.383
    1C        C   64   3.630   2.497   4.505
    1C        C   65   3.837   2.548   4.622
    1C        C   66   3.703   2.505   4.626
    1C        C   67   3.907   2.562   4.744
    1C        C   68   3.842   2.523   4.863
    1C        C   69   4.053   2.584   4.977
    1C        C   70   3.923   2.530   4.977
    1C        C   71   2.819   2.734   2.310
    1C        C   72   2.881   2.691   2.430
    1C        C   73   2.832   2.743   2.552
    1C        C   74   3.005   2.622   2.674
    1C        C   75   2.887   2.699   2.675
    1C        C   76   3.072   2.593   2.795
    1C        C   77   3.009   2.628   2.916
    1C        C   78   3.203   2.540   3.037
    1C        C   79   3.071   2.591   3.038
    1C        C   80   3.274   2.523   3.158
    1C        C   81   3.209   2.544   3.282
    1C        C   82   3.414   2.496   3.404
    1C        C   83   3.275   2.522   3.405
    1C        C   84   3.485   2.484   3.526
    1C        C   85   3.415   2.491   3.648
    1C        C   86   3.624   2.500   3.770
    1C        C   87   3.483   2.495   3.772
    1C        C   88   3.698   2.513   3.890
    1C        C   89   3.632   2.507   4.015
    1C        C   90   3.838   2.549   4.136
    1C        C   91   3.701   2.514   4.138
    1C        C   92   3.907   2.566   4.258
    1C        C   93   3.837   2.540   4.379
    1C        C   94   4.032   2.631   4.499
    1C        C   95   3.905   2.570   4.499
    1C        C   96   4.091   2.671   4.621
    1C        C   97   4.032   2.630   4.742
    1C        C   98   4.186   2.772   4.865
    1C        C   99   4.101   2.657   4.863
    1C        C  100   4.212   2.848   4.980
    1C        C  101   2.825   2.735   2.074
    1C        C  102   2.990   2.592   2.193
    1C        C  103   2.876   2.679   2.192
    1C        C  104   3.065   2.573   2.313
    1C        C  105   3.002   2.619   2.431
    1C        C  106   3.198   2.535   2.551
    1C        C  107   3.064   2.582   2.552
    1C        C  108   3.270   2.516   2.671
    1C        C  109   3.201   2.535   2.793
    1C        C  110   3.410   2.497   2.914
    1C        C  111   3.270   2.518   2.915
    1C        C  112   3.480   2.487   3.037
    1C        C  113   3.412   2.493   3.160
    1C        C  114   3.625   2.494   3.279
    1C        C  115   3.484   2.488   3.281
    1C        C  116   3.695   2.507   3.401
    1C        C  117   3.626   2.501   3.523
    1C        C  118   3.830   2.544   3.647
    1C        C  119   3.693   2.511   3.647
    1C        C  120   3.897   2.572   3.768
    1C        C  121   3.834   2.549   3.893
    1C        C  122   4.028   2.641   4.011
    1C        C  123   3.904   2.574   4.013
    1C        C  124   4.087   2.677   4.135
    1C        C  125   4.029   2.636   4.258
    1C        C  126   4.197   2.768   4.380
    1C        C  127   4.092   2.674   4.379
    1C        C  128   4.246   2.822   4.502
    1C        C  129   4.191   2.772   4.622
    1C        C  130   4.327   2.936   4.741
    1C        C  131   4.237   2.826   4.744
    1C        C  132   4.354   3.009   4.859
    1C        C  133   4.287   2.965   4.974
    1C        C  134   3.171   2.470   2.081
    1C        C  135   3.039   2.517   2.082
    1C        C  136   3.258   2.477   2.191
    1C        C  137   3.192   2.510   2.311
    1C        C  138   3.405   2.483   2.429
    1C        C  139   3.266   2.504   2.432
    1C        C  140   3.481   2.482   2.548
    1C        C  141   3.410   2.496   2.669
    1C        C  142   3.622   2.496   2.792
    1C        C  143   3.480   2.494   2.792
    1C        C  144   3.692   2.508   2.914
    1C        C  145   3.621   2.493   3.036
    1C        C  146   3.829   2.545   3.155
    1C        C  147   3.695   2.502   3.156
    1C        C  148   3.897   2.570   3.277
    1C        C  149   3.831   2.547   3.400
    1C        C  150   4.022   2.630   3.522
    1C        C  151   3.895   2.569   3.524
    1C        C  152   4.081   2.673   3.643
    1C        C  153   4.018   2.645   3.767
    1C        C  154   4.190   2.773   3.889
    1C        C  155   4.079   2.686   3.887
    1C        C  156   4.245   2.817   4.012
    1C        C  157   4.195   2.767   4.135
    1C        C  158   4.338   2.923   4.254
    1C        C  159   4.247   2.815   4.257
    1C        C  160   4.377   2.987   4.375
    1C        C  161   4.329   2.936   4.498
    1C        C  162   4.441   3.116   4.616
    1C        C  163   4.368   2.995   4.620
    1C        C  164   4.470   3.188   4.734
    1C        C  165   4.430   3.128   4.855
    1C        C  166   4.516   3.321   4.976
    1C        C  167   4.474   3.188   4.974
    1C        C  168   3.473   2.440   2.073
    1C        C  169   3.399   2.462   2.190
    1C        C  170   3.619   2.467   2.305
    1C        C  171   3.477   2.470   2.308
    1C        C  172   3.693   2.488   2.423
    1C        C  173   3.622   2.491   2.545
    1C        C  174   3.826   2.539   2.667
    1C        C  175   3.690   2.501   2.668
    1C        C  176   3.892   2.566   2.789
    1C        C  177   3.829   2.542   2.913
    1C        C  178   4.027   2.626   3.030
    1C        C  179   3.898   2.568   3.034
    1C        C  180   4.082   2.669   3.153
    1C        C  181   4.023   2.634   3.277
    1C        C  182   4.193   2.756   3.400
    1C        C  183   4.085   2.665   3.400
    1C        C  184   4.244   2.809   3.521
    1C        C  185   4.191   2.761   3.643
    1C        C  186   4.335   2.919   3.765
    1C        C  187   4.241   2.814   3.764
    1C        C  188   4.376   2.980   3.886
    1C        C  189   4.340   2.921   4.010
    1C        C  190   4.447   3.104   4.127
    1C        C  191   4.380   2.980   4.132
    1C        C  192   4.475   3.172   4.248
    1C        C  193   4.445   3.110   4.372
    1C        C  194   4.509   3.315   4.491
    1C        C  195   4.471   3.179   4.493
    1C        C  196   4.527   3.388   4.610
    1C        C  197   4.515   3.323   4.735
    1C        C  198   4.561   3.533   4.849
    1C        C  199   4.534   3.393   4.857
    1C        C  200   4.585   3.619   4.961
    1C        C  201   3.612   2.424   2.072
    1C        C  202   3.827   2.509   2.183
    1C        C  203   3.694   2.458   2.184
    1C        C  204   3.901   2.536   2.302
    1C        C  205   3.829   2.526   2.423
    1C        C  206   4.021   2.621   2.544
    1C        C  207   3.894   2.560   2.544
    1C        C  208   4.084   2.658   2.665
    1C        C  209   4.017   2.631   2.787
    1C        C  210   4.197   2.749   2.909
    1C        C  211   4.080   2.670   2.907
    1C        C  212   4.250   2.795   3.031
    1C        C  213   4.196   2.753   3.155
    1C        C  214   4.337   2.910   3.274
    1C        C  215   4.246   2.801   3.277
    1C        C  216   4.376   2.972   3.395
    1C        C  217   4.338   2.915   3.518
    1C        C  218   4.438   3.099   3.639
    1C        C  219   4.377   2.972   3.641
    1C        C  220   4.467   3.167   3.759
    1C        C  221   4.444   3.103   3.883
    1C        C  222   4.511   3.305   4.003
    1C        C  223   4.475   3.169   4.004
    1C        C  224   4.521   3.377   4.124
    1C        C  225   4.508   3.309   4.247
    1C        C  226   4.524   3.523   4.366
    1C        C  227   4.519   3.382   4.367
    1C        C  228   4.525   3.597   4.486
    1C        C  229   4.533   3.529   4.610
    1C        C  230   4.506   3.743   4.726
    1C        C  231   4.541   3.606   4.728
    1C        C  232   4.495   3.818   4.846
    1C        C  233   4.549   3.755   4.959
    1C        C  234   4.019   2.607   2.063
    1C        C  235   3.894   2.546   2.065
    1C        C  236   4.084   2.646   2.181
    1C        C  237   4.026   2.604   2.303
    1C        C  238   4.202   2.732   2.419
    1C        C  239   4.086   2.649   2.422
    1C        C  240   4.247   2.788   2.541
    1C        C  241   4.197   2.743   2.665
    1C        C  242   4.342   2.902   2.784
    1C        C  243   4.250   2.794   2.786
    1C        C  244   4.383   2.960   2.906
    1C        C  245   4.340   2.904   3.028
    1C        C  246   4.437   3.093   3.149
    1C        C  247   4.376   2.966   3.150
    1C        C  248   4.461   3.161   3.270
    1C        C  249   4.440   3.097   3.395
    1C        C  250   4.501   3.302   3.516
    1C        C  251   4.462   3.166   3.516
    1C        C  252   4.514   3.374   3.637
    1C        C  253   4.500   3.305   3.759
    1C        C  254   4.518   3.518   3.878
    1C        C  255   4.513   3.376   3.880
    1C        C  256   4.518   3.589   4.000
    1C        C  257   4.526   3.519   4.122
    1C        C  258   4.497   3.732   4.241
    1C        C  259   4.521   3.592   4.242
    1C        C  260   4.477   3.802   4.362
    1C        C  261   4.494   3.735   4.485
    1C        C  262   4.423   3.939   4.604
    1C        C  263   4.475   3.808   4.604
    1C        C  264   4.399   4.009   4.724
    1C        C  265   4.433   3.944   4.845
    1C        C  266   4.322   4.133   4.962
    1C        C  267   4.395   4.014   4.960
    1C        C  268   4.262   2.777   2.062
    1C        C  269   4.200   2.727   2.177
    1C        C  270   4.350   2.884   2.299
    1C        C  271   4.257   2.776   2.297
    1C        C  272   4.383   2.951   2.419
    1C        C  273   4.338   2.895   2.541
    1C        C  274   4.446   3.084   2.659
    1C        C  275   4.375   2.961   2.660
    1C        C  276   4.476   3.150   2.780
    1C        C  277   4.449   3.085   2.902
    1C        C  278   4.503   3.290   3.026
    1C        C  279   4.468   3.153   3.025
    1C        C  280   4.514   3.363   3.146
    1C        C  281   4.497   3.298   3.270
    1C        C  282   4.524   3.509   3.387
    1C        C  283   4.517   3.368   3.391
    1C        C  284   4.516   3.582   3.508
    1C        C  285   4.519   3.515   3.633
    1C        C  286   4.494   3.725   3.752
    1C        C  287   4.518   3.586   3.755
    1C        C  288   4.476   3.794   3.874
    1C        C  289   4.492   3.728   3.998
    1C        C  290   4.427   3.932   4.118
    1C        C  291   4.474   3.799   4.119
    1C        C  292   4.397   3.998   4.239
    1C        C  293   4.426   3.934   4.361
    1C        C  294   4.327   4.127   4.479
    1C        C  295   4.396   4.003   4.481
    1C        C  296   4.290   4.189   4.600
    1C        C  297   4.333   4.135   4.723
    1C        C  298   4.207   4.315   4.838
    1C        C  299   4.290   4.199   4.842
    1C        C  300   4.174   4.404   4.946
    1C        C  301   4.348   2.886   2.063
    1C        C  302   4.471   3.067   2.177
    1C        C  303   4.401   2.941   2.180
    1C        C  304   4.486   3.141   2.297
    1C        C  305   4.446   3.078   2.417
    1C        C  306   4.507   3.285   2.538
    1C        C  307   4.473   3.148   2.536
    1C        C  308   4.518   3.358   2.659
    1C        C  309   4.508   3.288   2.781
    1C        C  310   4.521   3.500   2.898
    1C        C  311   4.515   3.359   2.903
    1C        C  312   4.516   3.573   3.019
    1C        C  313   4.514   3.505   3.142
    1C        C  314   4.483   3.715   3.263
    1C        C  315   4.512   3.577   3.264
    1C        C  316   4.468   3.786   3.384
    1C        C  317   4.492   3.721   3.507
    1C        C  318   4.420   3.922   3.626
    1C        C  319   4.474   3.791   3.629
    1C        C  320   4.396   3.987   3.749
    1C        C  321   4.423   3.925   3.873
    1C        C  322   4.321   4.112   3.990
    1C        C  323   4.394   3.991   3.994
    1C        C  324   4.282   4.171   4.113
    1C        C  325   4.328   4.121   4.237
    1C        C  326   4.186   4.285   4.353
    1C        C  327   4.283   4.182   4.356
    1C        C  328   4.131   4.333   4.474
    1C        C  329   4.191   4.290   4.595
    1C        C  330   4.025   4.426   4.716
    1C        C  331   4.142   4.345   4.715
    1C        C  332   3.970   4.485   4.832
    1C        C  333   4.054   4.475   4.943
    1C        C  334   4.560   3.269   2.063
    1C        C  335   4.535   3.131   2.066
    1C        C  336   4.542   3.348   2.177
    1C        C  337   4.517   3.280   2.298
    1C        C  338   4.525   3.496   2.415
    1C        C  339   4.526   3.355   2.417
    1C        C  340   4.520   3.571   2.534
    1C        C  341   4.523   3.499   2.656
    1C        C  342   4.491   3.710   2.774
    1C        C  343   4.517   3.571   2.777
    1C        C  344   4.472   3.780   2.895
    1C        C  345   4.484   3.711   3.018
    1C        C  346   4.420   3.914   3.138
    1C        C  347   4.464   3.780   3.140
    1C        C  348   4.387   3.980   3.259
    1C        C  349   4.420   3.919   3.383
    1C        C  350   4.316   4.106   3.501
    1C        C  351   4.390   3.986   3.504
    1C        C  352   4.274   4.163   3.623
    1C        C  353   4.322   4.108   3.744
    1C        C  354   4.178   4.264   3.866
    1C        C  355   4.277   4.163   3.866
    1C        C  356   4.123   4.315   3.986
    1C        C  357   4.179   4.267   4.107
    1C        C  358   4.014   4.401   4.229
    1C        C  359   4.131   4.322   4.228
    1C        C  360   3.951   4.440   4.349
    1C        C  361   4.016   4.414   4.472
    1C        C  362   3.829   4.510   4.592
    1C        C  363   3.960   4.457   4.594
    1C        C  364   3.762   4.541   4.712
    1C        C  365   3.837   4.532   4.832
    1C        C  366   3.628   4.591   4.949
    1C        C  367   3.765   4.563   4.948
    1C        C  368   4.513   3.560   2.054
    1C        C  369   4.526   3.489   2.174
    1C        C  370   4.500   3.705   2.286
    1C        C  371   4.519   3.566   2.292
    1C        C  372   4.480   3.776   2.406
    1C        C  373   4.489   3.709   2.530
    1C        C  374   4.417   3.909   2.650
    1C        C  375   4.467   3.777   2.652
    1C        C  376   4.391   3.976   2.771
    1C        C  377   4.426   3.913   2.893
    1C        C  378   4.318   4.096   3.012
    1C        C  379   4.396   3.978   3.015
    1C        C  380   4.267   4.152   3.131
    1C        C  381   4.309   4.097   3.255
    1C        C  382   4.177   4.261   3.377
    1C        C  383   4.274   4.159   3.377
    1C        C  384   4.120   4.308   3.498
    1C        C  385   4.174   4.262   3.620
    1C        C  386   4.007   4.389   3.743
    1C        C  387   4.123   4.308   3.744
    1C        C  388   3.947   4.430   3.865
    1C        C  389   4.007   4.395   3.988
    1C        C  390   3.815   4.487   4.108
    1C        C  391   3.946   4.433   4.110
    1C        C  392   3.750   4.519   4.229
    1C        C  393   3.824   4.502   4.348
    1C        C  394   3.620   4.554   4.475
    1C        C  395   3.757   4.521   4.471
    1C        C  396   3.546   4.560   4.596
    1C        C  397   3.622   4.563   4.715
    1C        C  398   3.410   4.548   4.839
    1C        C  399   3.549   4.573   4.835
    1C        C  400   3.341   4.511   4.955
    1C        C  401   4.503   3.699   2.050
    1C        C  402   4.454   3.914   2.166
    1C        C  403   4.488   3.778   2.165
    1C        C  404   4.409   3.974   2.286
    1C        C  405   4.428   3.908   2.409
    1C        C  406   4.331   4.101   2.525
    1C        C  407   4.401   3.979   2.528
    1C        C  408   4.281   4.155   2.646
    1C        C  409   4.316   4.096   2.769
    1C        C  410   4.168   4.249   2.888
    1C        C  411   4.272   4.153   2.891
    1C        C  412   4.118   4.299   3.011
    1C        C  413   4.174   4.258   3.134
    1C        C  414   4.003   4.383   3.252
    1C        C  415   4.123   4.308   3.255
    1C        C  416   3.942   4.421   3.374
    1C        C  417   4.003   4.387   3.497
    1C        C  418   3.816   4.480   3.619
    1C        C  419   3.945   4.423   3.621
    1C        C  420   3.748   4.504   3.741
    1C        C  421   3.818   4.486   3.863
    1C        C  422   3.612   4.537   3.986
    1C        C  423   3.751   4.509   3.985
    1C        C  424   3.542   4.543   4.109
    1C        C  425   3.611   4.547   4.232
    1C        C  426   3.403   4.547   4.356
    1C        C  427   3.544   4.555   4.356
    1C        C  428   3.331   4.545   4.477
    1C        C  429   3.405   4.553   4.597
    1C        C  430   3.197   4.507   4.722
    1C        C  431   3.335   4.541   4.719
    1C        C  432   3.126   4.487   4.844
    1C        C  433   3.203   4.492   4.961
    1C        C  434   4.375   4.111   2.047
    1C        C  435   4.448   3.991   2.049
    1C        C  436   4.300   4.155   2.160
    1C        C  437   4.336   4.096   2.285
    1C        C  438   4.187   4.257   2.399
    1C        C  439   4.285   4.155   2.403
    1C        C  440   4.130   4.301   2.521
    1C        C  441   4.180   4.253   2.644
    1C        C  442   4.001   4.373   2.763
    1C        C  443   4.121   4.298   2.765
    1C        C  444   3.943   4.412   2.885
    1C        C  445   4.003   4.381   3.009
    1C        C  446   3.811   4.473   3.129
    1C        C  447   3.941   4.418   3.130
    1C        C  448   3.745   4.493   3.252
    1C        C  449   3.811   4.473   3.375
    1C        C  450   3.609   4.531   3.499
    1C        C  451   3.747   4.502   3.498
    1C        C  452   3.539   4.539   3.621
    1C        C  453   3.610   4.536   3.743
    1C        C  454   3.400   4.541   3.864
    1C        C  455   3.541   4.552   3.865
    1C        C  456   3.333   4.526   3.988
    1C        C  457   3.401   4.538   4.111
    1C        C  458   3.197   4.496   4.237
    1C        C  459   3.333   4.533   4.234
    1C        C  460   3.128   4.482   4.360
    1C        C  461   3.194   4.510   4.482
    1C        C  462   2.995   4.433   4.603
    1C        C  463   3.124   4.490   4.603
    1C        C  464   2.927   4.403   4.723
    1C        C  465   2.990   4.443   4.844
    1C        C  466   2.804   4.335   4.956
    1C        C  467   2.906   4.430   4.959
    1C        C  468   4.122   4.285   2.040
    1C        C  469   4.187   4.243   2.157
    1C        C  470   4.009   4.372   2.277
    1C        C  471   4.130   4.297   2.276
    1C        C  472   3.945   4.407   2.397
    1C        C  473   4.010   4.375   2.518
    1C        C  474   3.813   4.461   2.639
    1C        C  475   3.943   4.406   2.638
    1C        C  476   3.748   4.489   2.762
    1C        C  477   3.815   4.473   2.885
    1C        C  478   3.607   4.525   3.008
    1C        C  479   3.746   4.497   3.006
    1C        C  480   3.538   4.537   3.130
    1C        C  481   3.608   4.529   3.253
    1C        C  482   3.398   4.531   3.376
    1C        C  483   3.539   4.537   3.376
    1C        C  484   3.328   4.528   3.498
    1C        C  485   3.397   4.539   3.621
    1C        C  486   3.191   4.499   3.745
    1C        C  487   3.327   4.535   3.744
    1C        C  488   3.128   4.472   3.868
    1C        C  489   3.196   4.493   3.991
    1C        C  490   3.001   4.415   4.115
    1C        C  491   3.131   4.470   4.115
    1C        C  492   2.940   4.383   4.238
    1C        C  493   3.000   4.423   4.360
    1C        C  494   2.826   4.303   4.483
    1C        C  495   2.937   4.390   4.482
    1C        C  496   2.771   4.255   4.604
    1C        C  497   2.817   4.312   4.725
    1C        C  498   2.657   4.168   4.844
    1C        C  499   2.746   4.277   4.842
    1C        C  500   2.591   4.120   4.958
    1C        C  501   4.005   4.360   2.039
    1C        C  502   3.817   4.466   2.153
    1C        C  503   3.944   4.406   2.157
    1C        C  504   3.746   4.483   2.275
    1C        C  505   3.815   4.463   2.397
    1C        C  506   3.606   4.511   2.519
    1C        C  507   3.745   4.485   2.517
    1C        C  508   3.536   4.519   2.641
    1C        C  509   3.609   4.515   2.762
    1C        C  510   3.398   4.521   2.887
    1C        C  511   3.539   4.527   2.884
    1C        C  512   3.325   4.518   3.009
    1C        C  513   3.397   4.533   3.130
    1C        C  514   3.192   4.485   3.256
    1C        C  515   3.329   4.520   3.253
    1C        C  516   3.125   4.460   3.378
    1C        C  517   3.191   4.490   3.499
    1C        C  518   3.000   4.408   3.625
    1C        C  519   3.124   4.475   3.622
    1C        C  520   2.944   4.365   3.748
    1C        C  521   3.006   4.402   3.870
    1C        C  522   2.837   4.280   3.995
    1C        C  523   2.945   4.371   3.993
    1C        C  524   2.785   4.238   4.119
    1C        C  525   2.832   4.291   4.241
    1C        C  526   2.694   4.132   4.365
    1C        C  527   2.777   4.246   4.363
    1C        C  528   2.649   4.078   4.487
    1C        C  529   2.682   4.145   4.606
    1C        C  530   2.576   3.962   4.733
    1C        C  531   2.634   4.092   4.728
    1C        C  532   2.538   3.899   4.855
    1C        C  533   2.532   3.993   4.962
    1C        C  534   3.619   4.552   2.037
    1C        C  535   3.753   4.514   2.038
    1C        C  536   3.540   4.535   2.155
    1C        C  537   3.606   4.507   2.277
    1C        C  538   3.393   4.510   2.399
    1C        C  539   3.534   4.515   2.398
    1C        C  540   3.323   4.510   2.522
    1C        C  541   3.395   4.513   2.644
    1C        C  542   3.187   4.480   2.767
    1C        C  543   3.326   4.509   2.767
    1C        C  544   3.123   4.461   2.891
    1C        C  545   3.189   4.482   3.014
    1C        C  546   2.995   4.398   3.135
    1C        C  547   3.121   4.463   3.136
    1C        C  548   2.939   4.357   3.257
    1C        C  549   2.997   4.400   3.379
    1C        C  550   2.827   4.283   3.505
    1C        C  551   2.939   4.370   3.504
    1C        C  552   2.775   4.235   3.627
    1C        C  553   2.829   4.283   3.749
    1C        C  554   2.697   4.121   3.875
    1C        C  555   2.782   4.233   3.873
    1C        C  556   2.658   4.063   3.998
    1C        C  557   2.694   4.130   4.117
    1C        C  558   2.598   3.945   4.246
    1C        C  559   2.660   4.072   4.241
    1C        C  560   2.566   3.883   4.368
    1C        C  561   2.596   3.947   4.491
    1C        C  562   2.532   3.748   4.616
    1C        C  563   2.564   3.886   4.614
    1C        C  564   2.515   3.678   4.738
    1C        C  565   2.516   3.758   4.855
    1C        C  566   2.524   3.543   4.978
    1C        C  567   2.519   3.682   4.973
    1C        C  568   3.330   4.464   2.043
    1C        C  569   3.400   4.509   2.156
    1C        C  570   3.185   4.473   2.278
    1C        C  571   3.325   4.499   2.276
    1C        C  572   3.117   4.455   2.400
    1C        C  573   3.183   4.486   2.521
    1C        C  574   2.990   4.402   2.647
    1C        C  575   3.119   4.460   2.644
    1C        C  576   2.936   4.356   2.769
    1C        C  577   2.999   4.394   2.890
    1C        C  578   2.825   4.273   3.015
    1C        C  579   2.935   4.362   3.012
    1C        C  580   2.773   4.223   3.136
    1C        C  581   2.830   4.267   3.258
    1C        C  582   2.687   4.121   3.384
    1C        C  583   2.779   4.228   3.384
    1C        C  584   2.655   4.059   3.507
    1C        C  585   2.692   4.121   3.629
    1C        C  586   2.593   3.937   3.752
    1C        C  587   2.656   4.063   3.753
    1C        C  588   2.572   3.872   3.876
    1C        C  589   2.597   3.936   3.999
    1C        C  590   2.533   3.741   4.128
    1C        C  591   2.573   3.876   4.125
    1C        C  592   2.526   3.674   4.253
    1C        C  593   2.532   3.746   4.374
    1C        C  594   2.509   3.535   4.498
    1C        C  595   2.517   3.676   4.496
    1C        C  596   2.503   3.462   4.618
    1C        C  597   2.510   3.536   4.739
    1C        C  598   2.521   3.325   4.857
    1C        C  599   2.523   3.466   4.861
    1C        C  600   2.531   3.244   4.971
    1C        C  601   3.195   4.432   2.040
    1C        C  602   2.983   4.396   2.160
    1C        C  603   3.119   4.441   2.157
    1C        C  604   2.926   4.355   2.283
    1C        C  605   2.989   4.395   2.403
    1C        C  606   2.821   4.270   2.530
    1C        C  607   2.930   4.360   2.526
    1C        C  608   2.771   4.220   2.652
    1C        C  609   2.825   4.269   2.773
    1C        C  610   2.682   4.112   2.894
    1C        C  611   2.773   4.220   2.895
    1C        C  612   2.645   4.052   3.017
    1C        C  613   2.684   4.113   3.138
    1C        C  614   2.588   3.931   3.265
    1C        C  615   2.646   4.060   3.263
    1C        C  616   2.566   3.865   3.388
    1C        C  617   2.594   3.932   3.509
    1C        C  618   2.527   3.731   3.636
    1C        C  619   2.564   3.868   3.632
    1C        C  620   2.516   3.665   3.760
    1C        C  621   2.531   3.736   3.881
    1C        C  622   2.507   3.531   4.010
    1C        C  623   2.516   3.672   4.006
    1C        C  624   2.510   3.460   4.132
    1C        C  625   2.513   3.533   4.253
    1C        C  626   2.543   3.325   4.379
    1C        C  627   2.514   3.463   4.376
    1C        C  628   2.554   3.252   4.499
    1C        C  629   2.525   3.322   4.619
    1C        C  630   2.589   3.117   4.739
    1C        C  631   2.535   3.249   4.739
    1C        C  632   2.606   3.044   4.860
    1C        C  633   2.553   3.106   4.978
    1C        C  634   2.782   4.299   2.053
    1C        C  635   2.890   4.389   2.051
    1C        C  636   2.749   4.229   2.170
    1C        C  637   2.811   4.271   2.289
    1C        C  638   2.675   4.110   2.412
    1C        C  639   2.759   4.223   2.412
    1C        C  640   2.637   4.047   2.532
    1C        C  641   2.684   4.109   2.650
    1C        C  642   2.580   3.925   2.776
    1C        C  643   2.641   4.052   2.773
    1C        C  644   2.554   3.860   2.899
    1C        C  645   2.583   3.925   3.021
    1C        C  646   2.524   3.726   3.148
    1C        C  647   2.558   3.863   3.145
    1C        C  648   2.514   3.657   3.271
    1C        C  649   2.524   3.730   3.392
    1C        C  650   2.508   3.519   3.518
    1C        C  651   2.516   3.660   3.515
    1C        C  652   2.514   3.452   3.642
    1C        C  653   2.507   3.524   3.764
    1C        C  654   2.539   3.320   3.888
    1C        C  655   2.510   3.458   3.889
    1C        C  656   2.558   3.253   4.011
    1C        C  657   2.538   3.322   4.133
    1C        C  658   2.613   3.126   4.257
    1C        C  659   2.561   3.257   4.256
    1C        C  660   2.639   3.055   4.377
    1C        C  661   2.606   3.120   4.497
    1C        C  662   2.704   2.934   4.625
    1C        C  663   2.629   3.054   4.620
    1C        C  664   2.753   2.880   4.746
    1C        C  665   2.692   2.930   4.865
    1C        C  666   2.741   2.870   4.981
    1C        C  667   2.677   4.025   2.057
    1C        C  668   2.679   4.106   2.171
    1C        C  669   2.587   3.913   2.293
    1C        C  670   2.637   4.046   2.291
    1C        C  671   2.557   3.847   2.414
    1C        C  672   2.577   3.919   2.534
    1C        C  673   2.510   3.720   2.658
    1C        C  674   2.548   3.856   2.657
    1C        C  675   2.508   3.651   2.781
    1C        C  676   2.519   3.723   2.902
    1C        C  677   2.504   3.515   3.030
    1C        C  678   2.515   3.655   3.026
    1C        C  679   2.504   3.443   3.152
    1C        C  680   2.509   3.516   3.273
    1C        C  681   2.538   3.308   3.401
    1C        C  682   2.513   3.447   3.396
    1C        C  683   2.550   3.239   3.524
    1C        C  684   2.532   3.312   3.644
    1C        C  685   2.610   3.118   3.772
    1C        C  686   2.557   3.249   3.767
    1C        C  687   2.648   3.057   3.894
    1C        C  688   2.611   3.121   4.014
    1C        C  689   2.709   2.934   4.139
    1C        C  690   2.641   3.058   4.136
    1C        C  691   2.756   2.876   4.259
    1C        C  692   2.708   2.932   4.379
    1C        C  693   2.747   2.876   4.503
    1C        C  694   2.623   3.896   2.056
    1C        C  695   2.522   3.708   2.175
    1C        C  696   2.570   3.840   2.173
    1C        C  697   2.497   3.640   2.296
    1C        C  698   2.515   3.712   2.416
    1C        C  699   2.488   3.505   2.543
    1C        C  700   2.493   3.646   2.539
    1C        C  701   2.500   3.436   2.665
    1C        C  702   2.506   3.509   2.786
    1C        C  703   2.532   3.302   2.912
    1C        C  704   2.508   3.441   2.910
    1C        C  705   2.551   3.235   3.035
    1C        C  706   2.532   3.304   3.156
    1C        C  707   2.605   3.107   3.281
    1C        C  708   2.553   3.238   3.279
    1C        C  709   2.639   3.047   3.405
    1C        C  710   2.607   3.110   3.527
    1C        C  711   2.717   2.933   3.651
    1C        C  712   2.637   3.050   3.651
    1C        C  713   2.766   2.881   3.772
    1C        C  714   2.725   2.938   3.895
    1C        C  715   2.758   2.878   4.018
    1C        C  716   2.449   3.504   2.061
    1C        C  717   2.491   3.637   2.058
    1C        C  718   2.464   3.426   2.180
    1C        C  719   2.475   3.500   2.301
    1C        C  720   2.514   3.291   2.422
    1C        C  721   2.488   3.430   2.423
    1C        C  722   2.539   3.226   2.545
    1C        C  723   2.527   3.297   2.666
    1C        C  724   2.596   3.100   2.792
    1C        C  725   2.547   3.232   2.790
    1C        C  726   2.627   3.038   2.915
    1C        C  727   2.601   3.103   3.038
    1C        C  728   2.708   2.919   3.161
    1C        C  729   2.632   3.039   3.160
    1C        C  730   2.755   2.869   3.284
    1C        C  731   2.714   2.928   3.406
    1C        C  732   2.758   2.874   3.529
    1C        C  733   2.494   3.199   2.071
    1C        C  734   2.486   3.284   2.182
    1C        C  735   2.578   3.087   2.306
    1C        C  736   2.521   3.217   2.302
    1C        C  737   2.616   3.025   2.427
    1C        C  738   2.594   3.096   2.547
    1C        C  739   2.704   2.916   2.670
    1C        C  740   2.628   3.035   2.670
    1C        C  741   2.745   2.861   2.794
    1C        C  742   2.701   2.917   2.915
    1C        C  743   2.750   2.865   3.037
    1C        C  744   2.546   3.070   2.073
    1C        C  745   2.690   2.903   2.187
    1C        C  746   2.607   3.017   2.187
    1C        C  747   2.731   2.845   2.309
    1C        C  748   2.688   2.903   2.431
    1C        C  749   2.744   2.853   2.550
    1C        C  750   2.741   2.846   2.069
    1C        C  751   3.647   2.312   1.981
    1C        O  752   3.674   2.199   2.030
    1C        O  753   3.640   2.313   1.841
    1C        C  754   4.596   3.052   1.956
    1C        O  755   4.543   3.060   1.842
    1C        O  756   4.734   3.030   1.955
    1C        C  757   4.437   4.208   1.953
    1C        O  758   4.544   4.264   1.988
    1C        O  759   4.404   4.230   1.819
    1C        C  760   3.588   4.648   1.928
    1C        O  761   3.597   4.773   1.934
    1C        O  762   3.494   4.619   1.828
    1C        C  763   2.894   4.489   1.942
    1C        O  764   2.900   4.449   1.823
    1C        O  765   2.814   4.604   1.932
    1C        C  766   2.335   3.469   1.973
    1C        O  767   2.339   3.410   1.862
    1C        O  768   2.209   3.519   2.006
    1C        C  769   4.686   3.581   5.062
    1C        O  770   4.663   3.583   5.185
    1C        O  771   4.807   3.521   5.025
    1C        C  772   4.290   4.481   4.998
    1C        O  773   4.304   4.507   5.120
    1C        O  774   4.339   4.582   4.914
    1C        C  775   4.142   2.526   5.080
    1C        O  776   4.251   2.465   5.062
    1C        O  777   4.121   2.544   5.217
    1C        C  778   2.865   4.548   5.039
    1C        O  779   2.799   4.640   4.984
    1C        O  780   2.932   4.596   5.153
    1C        C  781   2.440   3.049   5.055
    1C        O  782   2.353   2.982   4.993
    1C        O  783   2.468   3.010   5.185
    1C        C  784   2.425   3.984   5.065
    1C        O  785   2.309   4.024   5.035
    1C        O  786   2.451   3.949   5.198
    1C        C  787   2.947   2.432   2.003
    1C        O  788   2.951   2.421   1.878
    1C        O  789   2.904   2.311   2.057
    1C        C  790   3.141   2.357   5.027
    1C        O  791   3.123   2.266   4.942
    1C        O  792   3.215   2.305   5.134
    1C        H  793   4.321   2.996   5.071
    1C        H  794   4.131   2.851   5.050
    1C        H  795   4.480   3.135   5.067
    1C        H  796   4.542   3.370   5.067
    1C        H  797   4.605   3.818   5.025
    1C        H  798   4.418   3.966   5.053
    1C        H  799   4.263   4.149   5.050
    1C        H  800   4.050   4.555   5.015
    1C        H  801   3.810   4.542   5.042
    1C        H  802   3.588   4.648   5.030
    1C        H  803   3.402   4.458   5.025
    1C        H  804   3.155   4.457   5.050
    1C        H  805   3.900   2.470   5.063
    1C        H  806   3.671   2.458   5.075
    1C        H  807   2.983   2.536   5.042
    1C        H  808   3.443   2.496   5.077
    1C        H  809   2.872   2.727   5.073
    1C        H  810   2.662   2.857   5.053
    1C        H  811   2.474   3.287   5.052
    1C        H  812   2.525   3.495   5.073
    1C        H  813   2.530   3.731   5.068
    1C        H  814   2.607   4.173   5.050
    1C        H  815   2.770   4.299   5.051
    1C        H  816   2.717   2.888   1.974
    1C        H  817   2.840   2.680   1.984
    1C        H  818   3.216   2.446   1.987
    1C        H  819   3.427   2.480   1.985
    1C        H  820   3.851   2.514   1.973
    1C        H  821   4.078   2.586   1.977
    1C        H  822   4.243   2.734   1.966
    1C        H  823   4.352   2.937   1.969
    1C        H  824   4.578   3.316   1.969
    1C        H  825   4.466   3.515   1.969
    1C        H  826   4.562   3.741   1.971
    1C        H  827   3.802   4.524   1.943
    1C        H  828   3.976   4.405   1.946
    1C        H  829   4.180   4.291   1.950
    1C        H  830   4.527   3.974   1.980
    1C        H  831   2.649   3.833   1.973
    1C        H  832   2.739   4.049   1.973
    1C        H  833   2.711   4.296   1.973
    1C        H  834   3.382   4.414   1.964
    1C        H  835   3.159   4.367   1.962
    1C        H  836   2.503   3.000   2.004
    1C        H  837   2.488   3.242   1.973
    1C        H  838   2.442   3.697   1.983
    2V3OU   H29  839   2.802   3.548   4.457
    2V3OU   C27  840   2.791   3.502   4.558
    2V3OU   H27  841   2.735   3.567   4.630
    2V3OU   H28  842   2.741   3.403   4.540
    2V3OU   O11  843   2.913   3.472   4.628
    2V3OU   C15  844   2.925   3.400   4.745
    2V3OU   C13  845   3.055   3.378   4.792
    2V3OU   C14  846   3.081   3.271   4.879
    2V3OU   C16  847   2.979   3.187   4.920
    2V3OU    H6  848   2.994   3.108   4.995
    2V3OU   C12  849   3.222   3.232   4.903
    2V3OU    O2  850   3.246   3.129   4.970
    2V3OU   C10  851   3.331   3.308   4.839
    2V3OU    C8  852   3.463   3.266   4.852
    2V3OU   O10  853   3.490   3.155   4.925
    2V3OU   H26  854   3.407   3.112   4.949
    2V3OU    C6  855   3.564   3.349   4.795
    2V3OU    C5  856   3.538   3.469   4.729
    2V3OU    C4  857   3.702   3.294   4.800
    2V3OU    H4  858   3.720   3.235   4.895
    2V3OU    H5  859   3.710   3.224   4.712
    2V3OU    C2  860   3.815   3.397   4.789
    2V3OU    O6  861   3.812   3.480   4.905
    2V3OU   H21  862   3.762   3.555   4.870
    2V3OU    C3  863   3.779   3.494   4.677
    2V3OU    H2  864   3.862   3.569   4.667
    2V3OU    H3  865   3.781   3.440   4.579
    2V3OU   C25  866   3.949   3.325   4.768
    2V3OU    O7  867   3.998   3.294   4.660
    2V3OU   C26  868   4.028   3.292   4.894
    2V3OU   H22  869   4.058   3.387   4.945
    2V3OU   H23  870   4.118   3.232   4.867
    2V3OU    O8  871   3.972   3.209   4.994
    2V3OU   H24  872   3.927   3.265   5.059
    2V3OU    C1  873   3.645   3.564   4.686
    2V3OU    H1  874   3.626   3.619   4.588
    2V3OU    O3  875   3.655   3.658   4.793
    2V3OU   C19  876   3.620   3.792   4.759
    2V3OU    H9  877   3.518   3.798   4.710
    2V3OU    O4  878   3.713   3.841   4.666
    2V3OU   C20  879   3.843   3.872   4.717
    2V3OU   H10  880   3.899   3.775   4.734
    2V3OU   C24  881   3.610   3.858   4.897
    2V3OU   H16  882   3.542   3.797   4.962
    2V3OU   H17  883   3.567   3.960   4.880
    2V3OU   C23  884   3.751   3.882   4.950
    2V3OU   H15  885   3.791   3.778   4.975
    2V3OU    N1  886   3.733   3.961   5.071
    2V3OU   H19  887   3.806   3.930   5.132
    2V3OU   H20  888   3.647   3.926   5.108
    2V3OU   C21  889   3.850   3.949   4.849
    2V3OU   H11  890   3.949   3.924   4.896
    2V3OU    O5  891   3.832   4.090   4.839
    2V3OU   H18  892   3.766   4.104   4.909
    2V3OU   C22  893   3.912   3.946   4.604
    2V3OU   H12  894   3.865   4.047   4.589
    2V3OU   H13  895   3.909   3.884   4.511
    2V3OU   H14  896   4.022   3.950   4.627
    2V3OU   C11  897   3.162   3.475   4.761
    2V3OU    O1  898   3.139   3.591   4.722
    2V3OU    C9  899   3.302   3.428   4.770
    2V3OU    C7  900   3.401   3.510   4.716
    2V3OU    O9  901   3.381   3.613   4.626
    2V3OU   H25  902   3.286   3.633   4.623
    2V3OU   C17  903   2.824   3.319   4.802
    2V3OU    H7  904   2.735   3.350   4.747
    2V3OU   C18  905   2.846   3.215   4.890
    2V3OU    H8  906   2.774   3.171   4.961
    3SOL     OW  907   2.944   4.429   5.414
    3SOL    HW1  908   2.937   4.504   5.347
    3SOL    HW2  909   3.041   4.411   5.433
    4SOL     OW  910   6.977   0.390   0.023
    4SOL    HW1  911   7.017   0.311   0.070
    4SOL    HW2  912   0.027   0.445   7.006
    5SOL     OW  913   4.289   0.968   1.886
    5SOL    HW1  914   4.270   0.947   1.981
    5SOL    HW2  915   4.387   0.955   1.868
    6SOL     OW  916   5.288   1.325   3.430
    6SOL    HW1  917   5.274   1.243   3.374
    6SOL    HW2  918   5.277   1.406   3.373
    7SOL     OW  919   1.086   4.344   5.279
    7SOL    HW1  920   1.151   4.275   5.310
    7SOL    HW2  921   1.059   4.323   5.185
    8SOL     OW  922   2.379   2.266   5.911
    8SOL    HW1  923   2.473   2.295   5.931
    8SOL    HW2  924   2.320   2.347   5.905
    9SOL     OW  925   6.909   1.642   6.344
    9SOL    HW1  926   6.907   1.740   6.367
    9SOL    HW2  927   6.875   1.589   6.422
   10SOL     OW  928   4.349   4.955   2.837
   10SOL    HW1  929   4.355   4.856   2.829
   10SOL    HW2  930   4.254   4.982   2.853
   11SOL     OW  931   1.917   0.893   6.958
   11SOL    HW1  932   1.890   0.796   6.953
   11SOL    HW2  933   1.853   0.943   7.016
   12SOL     OW  934   2.595   4.624   3.411
   12SOL    HW1  935   2.495   4.635   3.406
   12SOL    HW2  936   2.631   4.611   3.318
   13SOL     OW  937   4.448   5.852   2.636
   13SOL    HW1  938   4.476   5.943   2.607
   13SOL    HW2  939   4.359   5.829   2.597
   14SOL     OW  940   4.895   4.922   5.572
   14SOL    HW1  941   4.900   4.962   5.480
   14SOL    HW2  942   4.805   4.879   5.584
   15SOL     OW  943   0.880   5.881   6.183
   15SOL    HW1  944   0.926   5.969   6.198
   15SOL    HW2  945   0.782   5.895   6.174
   16SOL     OW  946   5.871   2.651   6.375
   16SOL    HW1  947   5.920   2.590   6.312
   16SOL    HW2  948   5.890   2.746   6.350
   17SOL     OW  949   5.966   0.596   5.792
   17SOL    HW1  950   5.927   0.551   5.711
   17SOL    HW2  951   6.064   0.578   5.796
   18SOL     OW  952   2.840   0.703   5.328
   18SOL    HW1  953   2.909   0.662   5.268
   18SOL    HW2  954   2.820   0.796   5.296
   19SOL     OW  955   1.290   1.880   3.116
   19SOL    HW1  956   1.294   1.975   3.146
   19SOL    HW2  957   1.238   1.873   3.031
   20SOL     OW  958   5.610   2.697   5.732
   20SOL    HW1  959   5.632   2.753   5.812
   20SOL    HW2  960   5.577   2.756   5.658
   21SOL     OW  961   3.692   6.275   2.778
   21SOL    HW1  962   3.718   6.317   2.691
   21SOL    HW2  963   3.774   6.246   2.827
   22SOL     OW  964   1.496   6.306   5.071
   22SOL    HW1  965   1.520   6.211   5.050
   22SOL    HW2  966   1.396   6.315   5.075
   23SOL     OW  967   5.138   4.676   1.896
   23SOL    HW1  968   5.155   4.582   1.866
   23SOL    HW2  969   5.073   4.676   1.972
   24SOL     OW  970   3.710   0.461   1.766
   24SOL    HW1  971   3.810   0.458   1.765
   24SOL    HW2  972   3.674   0.431   1.677
   25SOL     OW  973   2.689   6.924   3.403
   25SOL    HW1  974   2.766   6.966   3.453
   25SOL    HW2  975   2.614   6.990   3.396
   26SOL     OW  976   1.588   1.964   6.716
   26SOL    HW1  977   1.603   1.948   6.814
   26SOL    HW2  978   1.526   2.042   6.705
   27SOL     OW  979   0.263   1.089   2.480
   27SOL    HW1  980   0.244   1.151   2.556
   27SOL    HW2  981   0.337   1.127   2.424
   28SOL     OW  982   1.676   0.430   4.892
   28SOL    HW1  983   1.708   0.446   4.799
   28SOL    HW2  984   1.717   0.346   4.927
   29SOL     OW  985   6.793   0.854   0.075
   29SOL    HW1  986   6.770   0.761   0.104
   29SOL    HW2  987   6.739   0.919   0.129
   30SOL     OW  988   3.607   0.507   4.924
   30SOL    HW1  989   3.706   0.495   4.913
   30SOL    HW2  990   3.563   0.509   4.834
   31SOL     OW  991   0.129   2.656   4.774
   31SOL    HW1  992   0.061   2.699   4.714
   31SOL    HW2  993   0.177   2.585   4.723
   32SOL     OW  994   1.542   1.631   0.984
   32SOL    HW1  995   1.527   1.545   0.935
   32SOL    HW2  996   1.606   1.615   1.059
   33SOL     OW  997   0.262   3.807   5.707
   33SOL    HW1  998   0.261   3.777   5.802
   33SOL    HW2  999   0.260   3.907   5.703
   34SOL     OW 1000   1.652   5.373   4.864
   34SOL    HW1 1001   1.604   5.360   4.777
   34SOL    HW2 1002   1.746   5.341   4.855
   35SOL     OW 1003   3.762   2.636   6.190
   35SOL    HW1 1004   3.682   2.680   6.230
   35SOL    HW2 1005   3.808   2.581   6.259
   36SOL     OW 1006   5.051   1.045   4.106
   36SOL    HW1 1007   5.018   1.131   4.067
   36SOL    HW2 1008   5.151   1.044   4.103
   37SOL     OW 1009   2.256   1.167   3.340
   37SOL    HW1 1010   2.242   1.198   3.435
   37SOL    HW2 1011   2.188   1.097   3.318
   38SOL     OW 1012   2.053   5.133   2.077
   38SOL    HW1 1013   2.069   5.219   2.029
   38SOL    HW2 1014   2.130   5.070   2.060
   39SOL     OW 1015   5.930   4.550   6.711
   39SOL    HW1 1016   6.002   4.564   6.780
   39SOL    HW2 1017   5.864   4.625   6.717
   40SOL     OW 1018   3.322   0.588   6.348
   40SOL    HW1 1019   3.252   0.582   6.277
   40SOL    HW2 1020   3.412   0.568   6.309
   41SOL     OW 1021   5.854   4.260   2.052
   41SOL    HW1 1022   5.801   4.245   2.135
   41SOL    HW2 1023   5.795   4.301   1.982
   42SOL     OW 1024   2.809   5.528   4.526
   42SOL    HW1 1025   2.864   5.447   4.547
   42SOL    HW2 1026   2.746   5.508   4.452
   43SOL     OW 1027   4.123   6.787   4.896
   43SOL    HW1 1028   4.162   6.702   4.861
   43SOL    HW2 1029   4.056   6.823   4.831
   44SOL     OW 1030   6.299   3.296   5.113
   44SOL    HW1 1031   6.356   3.318   5.034
   44SOL    HW2 1032   6.224   3.362   5.120
   45SOL     OW 1033   4.402   5.589   1.017
   45SOL    HW1 1034   4.481   5.630   0.971
   45SOL    HW2 1035   4.421   5.493   1.037
   46SOL     OW 1036   0.617   3.105   4.113
   46SOL    HW1 1037   0.569   3.028   4.153
   46SOL    HW2 1038   0.700   3.124   4.165
   47SOL     OW 1039   5.310   3.767   2.078
   47SOL    HW1 1040   5.229   3.812   2.115
   47SOL    HW2 1041   5.306   3.769   1.978
   48SOL     OW 1042   0.032   3.143   6.720
   48SOL    HW1 1043   6.986   3.169   6.652
   48SOL    HW2 1044   0.047   3.044   6.717
   49SOL     OW 1045   4.960   3.080   0.204
   49SOL    HW1 1046   5.038   3.082   0.142
   49SOL    HW2 1047   4.899   3.156   0.185
   50SOL     OW 1048   6.082   2.026   6.085
   50SOL    HW1 1049   6.127   2.050   5.998
   50SOL    HW2 1050   6.141   1.964   6.136
   51SOL     OW 1051   2.042   4.873   2.692
   51SOL    HW1 1052   1.992   4.870   2.605
   51SOL    HW2 1053   2.049   4.968   2.723
   52SOL     OW 1054   5.449   3.049   1.886
   52SOL    HW1 1055   5.530   3.091   1.928
   52SOL    HW2 1056   5.478   2.981   1.818
   53SOL     OW 1057   5.136   6.938   3.474
   53SOL    HW1 1058   5.093   6.849   3.460
   53SOL    HW2 1059   5.074   7.010   3.442
   54SOL     OW 1060   5.691   6.001   0.408
   54SOL    HW1 1061   5.599   6.035   0.391
   54SOL    HW2 1062   5.686   5.909   0.447
   55SOL     OW 1063   2.286   2.707   6.537
   55SOL    HW1 1064   2.266   2.800   6.565
   55SOL    HW2 1065   2.201   2.655   6.527
   56SOL     OW 1066   1.308   1.918   0.550
   56SOL    HW1 1067   1.321   1.819   0.550
   56SOL    HW2 1068   1.270   1.947   0.638
   57SOL     OW 1069   3.709   0.415   6.980
   57SOL    HW1 1070   3.617   0.379   6.966
   57SOL    HW2 1071   3.713   0.510   6.947
   58SOL     OW 1072   0.803   0.379   6.646
   58SOL    HW1 1073   0.824   0.470   6.681
   58SOL    HW2 1074   0.713   0.351   6.677
   59SOL     OW 1075   6.443   3.785   6.476
   59SOL    HW1 1076   6.511   3.712   6.485
   59SOL    HW2 1077   6.480   3.870   6.514
   60SOL     OW 1078   5.816   0.481   3.332
   60SOL    HW1 1079   5.720   0.454   3.321
   60SOL    HW2 1080   5.840   0.549   3.263
   61SOL     OW 1081   0.439   1.200   3.941
   61SOL    HW1 1082   0.475   1.113   3.975
   61SOL    HW2 1083   0.351   1.218   3.984
   62SOL     OW 1084   0.976   0.995   1.717
   62SOL    HW1 1085   0.881   1.019   1.738
   62SOL    HW2 1086   1.030   0.993   1.801
   63SOL     OW 1087   3.826   6.685   4.023
   63SOL    HW1 1088   3.914   6.694   3.977
   63SOL    HW2 1089   3.755   6.663   3.956
   64SOL     OW 1090   1.318   4.059   6.920
   64SOL    HW1 1091   1.401   4.027   6.874
   64SOL    HW2 1092   1.329   4.050   7.019
   65SOL     OW 1093   0.712   0.753   5.495
   65SOL    HW1 1094   0.619   0.715   5.491
   65SOL    HW2 1095   0.737   0.788   5.404
   66SOL     OW 1096   3.771   6.852   2.331
   66SOL    HW1 1097   3.759   6.786   2.257
   66SOL    HW2 1098   3.845   6.916   2.307
   67SOL     OW 1099   0.309   2.643   0.865
   67SOL    HW1 1100   0.235   2.595   0.914
   67SOL    HW2 1101   0.296   2.631   0.767
   68SOL     OW 1102   0.171   1.950   5.468
   68SOL    HW1 1103   0.230   1.964   5.547
   68SOL    HW2 1104   0.095   1.890   5.492
   69SOL     OW 1105   1.281   5.417   5.781
   69SOL    HW1 1106   1.235   5.468   5.854
   69SOL    HW2 1107   1.300   5.324   5.812
   70SOL     OW 1108   5.403   3.766   4.554
   70SOL    HW1 1109   5.368   3.822   4.479
   70SOL    HW2 1110   5.418   3.823   4.634
   71SOL     OW 1111   4.800   1.695   5.049
   71SOL    HW1 1112   4.743   1.637   5.106
   71SOL    HW2 1113   4.743   1.740   4.979
   72SOL     OW 1114   0.057   0.771   3.412
   72SOL    HW1 1115   0.141   0.824   3.420
   72SOL    HW2 1116   7.007   0.828   3.376
   73SOL     OW 1117   2.672   1.016   0.425
   73SOL    HW1 1118   2.638   1.094   0.478
   73SOL    HW2 1119   2.732   0.960   0.482
   74SOL     OW 1120   2.517   1.539   6.184
   74SOL    HW1 1121   2.501   1.513   6.088
   74SOL    HW2 1122   2.437   1.514   6.238
   75SOL     OW 1123   4.482   1.326   0.984
   75SOL    HW1 1124   4.468   1.424   0.971
   75SOL    HW2 1125   4.437   1.297   1.069
   76SOL     OW 1126   2.682   4.546   5.539
   76SOL    HW1 1127   2.747   4.560   5.614
   76SOL    HW2 1128   2.708   4.604   5.462
   77SOL     OW 1129   1.897   5.180   3.992
   77SOL    HW1 1130   1.929   5.193   3.899
   77SOL    HW2 1131   1.974   5.187   4.056
   78SOL     OW 1132   4.468   1.615   0.904
   78SOL    HW1 1133   4.536   1.688   0.914
   78SOL    HW2 1134   4.377   1.650   0.926
   79SOL     OW 1135   2.321   5.494   1.899
   79SOL    HW1 1136   2.331   5.580   1.949
   79SOL    HW2 1137   2.388   5.428   1.933
   80SOL     OW 1138   4.633   2.329   5.650
   80SOL    HW1 1139   4.712   2.344   5.590
   80SOL    HW2 1140   4.602   2.235   5.641
   81SOL     OW 1141   2.483   6.898   1.096
   81SOL    HW1 1142   2.397   6.848   1.089
   81SOL    HW2 1143   2.481   6.977   1.035
   82SOL     OW 1144   1.107   6.056   2.277
   82SOL    HW1 1145   1.082   6.085   2.370
   82SOL    HW2 1146   1.122   5.958   2.275
   83SOL     OW 1147   6.625   2.339   5.577
   83SOL    HW1 1148   6.644   2.257   5.524
   83SOL    HW2 1149   6.619   2.315   5.674
   84SOL     OW 1150   6.317   3.006   3.997
   84SOL    HW1 1151   6.397   3.017   4.056
   84SOL    HW2 1152   6.334   2.933   3.931
   85SOL     OW 1153   1.353   0.094   3.947
   85SOL    HW1 1154   1.429   0.049   3.994
   85SOL    HW2 1155   1.283   0.027   3.925
   86SOL     OW 1156   5.382   1.309   6.233
   86SOL    HW1 1157   5.320   1.359   6.294
   86SOL    HW2 1158   5.329   1.246   6.176
   87SOL     OW 1159   4.560   4.488   6.651
   87SOL    HW1 1160   4.462   4.510   6.657
   87SOL    HW2 1161   4.589   4.444   6.736
   88SOL     OW 1162   2.862   2.522   5.674
   88SOL    HW1 1163   2.846   2.613   5.711
   88SOL    HW2 1164   2.798   2.505   5.598
   89SOL     OW 1165   3.014   3.153   1.846
   89SOL    HW1 1166   3.005   3.201   1.933
   89SOL    HW2 1167   3.096   3.096   1.847
   90SOL     OW 1168   4.884   3.827   3.330
   90SOL    HW1 1169   4.969   3.860   3.370
   90SOL    HW2 1170   4.807   3.877   3.369
   91SOL     OW 1171   5.988   5.714   6.286
   91SOL    HW1 1172   5.985   5.811   6.262
   91SOL    HW2 1173   6.084   5.684   6.292
   92SOL     OW 1174   4.993   4.067   0.279
   92SOL    HW1 1175   4.952   4.152   0.248
   92SOL    HW2 1176   4.998   4.067   0.379
   93SOL     OW 1177   3.235   2.869   1.167
   93SOL    HW1 1178   3.156   2.845   1.223
   93SOL    HW2 1179   3.268   2.787   1.120
   94SOL     OW 1180   2.758   0.255   6.416
   94SOL    HW1 1181   2.852   0.281   6.439
   94SOL    HW2 1182   2.746   0.258   6.317
   95SOL     OW 1183   0.389   0.786   4.397
   95SOL    HW1 1184   0.457   0.834   4.454
   95SOL    HW2 1185   0.421   0.693   4.378
   96SOL     OW 1186   4.851   4.919   0.028
   96SOL    HW1 1187   4.854   4.977   0.110
   96SOL    HW2 1188   4.900   4.834   0.044
   97SOL     OW 1189   2.080   4.772   5.482
   97SOL    HW1 1190   2.087   4.701   5.412
   97SOL    HW2 1191   2.031   4.851   5.446
   98SOL     OW 1192   1.117   2.492   2.103
   98SOL    HW1 1193   1.031   2.518   2.147
   98SOL    HW2 1194   1.117   2.394   2.084
   99SOL     OW 1195   3.702   3.526   3.537
   99SOL    HW1 1196   3.793   3.536   3.498
   99SOL    HW2 1197   3.676   3.612   3.583
  100SOL     OW 1198   0.068   6.792   3.860
  100SOL    HW1 1199   0.097   6.697   3.844
  100SOL    HW2 1200   0.145   6.845   3.895
  101SOL     OW 1201   0.346   4.832   2.342
  101SOL    HW1 1202   0.290   4.878   2.273
  101SOL    HW2 1203   0.414   4.774   2.297
  102SOL     OW 1204   2.949   6.302   1.949
  102SOL    HW1 1205   2.853   6.275   1.945
  102SOL    HW2 1206   2.970   6.336   2.041
  103SOL     OW 1207   2.272   1.216   2.575
  103SOL    HW1 1208   2.355   1.269   2.591
  103SOL    HW2 1209   2.296   1.120   2.558
  104SOL     OW 1210   1.098   4.387   1.827
  104SOL    HW1 1211   1.080   4.416   1.921
  104SOL    HW2 1212   1.110   4.288   1.825
  105SOL     OW 1213   5.927   1.933   6.694
  105SOL    HW1 1214   5.853   1.999   6.681
  105SOL    HW2 1215   5.909   1.878   6.775
  106SOL     OW 1216   5.321   5.368   1.383
  106SOL    HW1 1217   5.411   5.358   1.426
  106SOL    HW2 1218   5.273   5.281   1.386
  107SOL     OW 1219   6.605   1.047   6.949
  107SOL    HW1 1220   6.634   1.104   6.872
  107SOL    HW2 1221   6.651   1.077   0.009
  108SOL     OW 1222   2.041   0.490   4.967
  108SOL    HW1 1223   2.012   0.464   5.059
  108SOL    HW2 1224   2.100   0.570   4.972
  109SOL     OW 1225   3.748   0.939   2.816
  109SOL    HW1 1226   3.840   0.964   2.846
  109SOL    HW2 1227   3.733   0.974   2.723
  110SOL     OW 1228   2.370   4.488   5.540
  110SOL    HW1 1229   2.326   4.550   5.605
  110SOL    HW2 1230   2.467   4.511   5.532
  111SOL     OW 1231   6.311   1.409   2.510
  111SOL    HW1 1232   6.223   1.455   2.497
  111SOL    HW2 1233   6.323   1.341   2.438
  112SOL     OW 1234   4.215   6.437   6.476
  112SOL    HW1 1235   4.222   6.412   6.380
  112SOL    HW2 1236   4.129   6.403   6.514
  113SOL     OW 1237   6.372   5.809   2.769
  113SOL    HW1 1238   6.447   5.872   2.791
  113SOL    HW2 1239   6.380   5.727   2.825
  114SOL     OW 1240   1.219   4.476   3.536
  114SOL    HW1 1241   1.217   4.382   3.502
  114SOL    HW2 1242   1.305   4.493   3.584
  115SOL     OW 1243   5.999   1.013   3.312
  115SOL    HW1 1244   5.943   1.080   3.359
  115SOL    HW2 1245   6.076   0.986   3.371
  116SOL     OW 1246   0.824   6.242   1.427
  116SOL    HW1 1247   0.835   6.273   1.521
  116SOL    HW2 1248   0.864   6.151   1.416
  117SOL     OW 1249   3.005   1.513   0.099
  117SOL    HW1 1250   3.064   1.590   0.121
  117SOL    HW2 1251   2.910   1.536   0.119
  118SOL     OW 1252   1.347   1.369   3.260
  118SOL    HW1 1253   1.346   1.326   3.350
  118SOL    HW2 1254   1.265   1.425   3.248
  119SOL     OW 1255   0.036   6.980   0.149
  119SOL    HW1 1256   0.098   6.902   0.143
  119SOL    HW2 1257   7.008   6.989   0.063
  120SOL     OW 1258   4.603   0.980   5.688
  120SOL    HW1 1259   4.645   1.071   5.682
  120SOL    HW2 1260   4.654   0.916   5.631
  121SOL     OW 1261   1.283   3.494   6.763
  121SOL    HW1 1262   1.198   3.538   6.734
  121SOL    HW2 1263   1.353   3.504   6.692
  122SOL     OW 1264   0.872   4.325   0.197
  122SOL    HW1 1265   0.905   4.413   0.162
  122SOL    HW2 1266   0.827   4.340   0.285
  123SOL     OW 1267   1.387   1.088   1.793
  123SOL    HW1 1268   1.463   1.054   1.848
  123SOL    HW2 1269   1.380   1.036   1.709
  124SOL     OW 1270   3.017   2.478   0.853
  124SOL    HW1 1271   2.965   2.557   0.886
  124SOL    HW2 1272   3.058   2.430   0.930
  125SOL     OW 1273   3.514   2.599   0.077
  125SOL    HW1 1274   3.465   2.663   0.018
  125SOL    HW2 1275   3.613   2.615   0.069
  126SOL     OW 1276   3.486   2.847   3.017
  126SOL    HW1 1277   3.462   2.758   3.056
  126SOL    HW2 1278   3.434   2.862   2.933
  127SOL     OW 1279   6.703   5.910   6.033
  127SOL    HW1 1280   6.659   5.964   5.961
  127SOL    HW2 1281   6.644   5.832   6.057
  128SOL     OW 1282   4.951   3.547   1.726
  128SOL    HW1 1283   4.868   3.549   1.670
  128SOL    HW2 1284   4.981   3.453   1.740
  129SOL     OW 1285   2.301   5.984   0.681
  129SOL    HW1 1286   2.355   6.068   0.670
  129SOL    HW2 1287   2.354   5.906   0.649
  130SOL     OW 1288   5.629   1.928   4.760
  130SOL    HW1 1289   5.553   1.962   4.704
  130SOL    HW2 1290   5.708   1.989   4.749
  131SOL     OW 1291   6.752   1.442   4.096
  131SOL    HW1 1292   6.787   1.481   4.182
  131SOL    HW2 1293   6.777   1.346   4.092
  132SOL     OW 1294   3.548   4.220   1.433
  132SOL    HW1 1295   3.536   4.319   1.432
  132SOL    HW2 1296   3.645   4.198   1.431
  133SOL     OW 1297   5.386   0.620   4.287
  133SOL    HW1 1298   5.347   0.612   4.379
  133SOL    HW2 1299   5.408   0.528   4.253
  134SOL     OW 1300   5.838   0.413   2.280
  134SOL    HW1 1301   5.930   0.376   2.294
  134SOL    HW2 1302   5.829   0.498   2.333
  135SOL     OW 1303   4.920   3.779   4.118
  135SOL    HW1 1304   5.009   3.789   4.163
  135SOL    HW2 1305   4.929   3.721   4.038
  136SOL     OW 1306   2.581   6.121   4.768
  136SOL    HW1 1307   2.598   6.095   4.673
  136SOL    HW2 1308   2.509   6.190   4.773
  137SOL     OW 1309   3.273   1.956   4.645
  137SOL    HW1 1310   3.176   1.937   4.631
  137SOL    HW2 1311   3.285   2.010   4.728
  138SOL     OW 1312   0.542   5.602   3.835
  138SOL    HW1 1313   0.611   5.635   3.898
  138SOL    HW2 1314   0.454   5.646   3.855
  139SOL     OW 1315   2.293   5.676   6.531
  139SOL    HW1 1316   2.318   5.591   6.484
  139SOL    HW2 1317   2.196   5.695   6.517
  140SOL     OW 1318   2.321   0.538   2.741
  140SOL    HW1 1319   2.272   0.462   2.700
  140SOL    HW2 1320   2.411   0.508   2.770
  141SOL     OW 1321   6.703   3.854   0.101
  141SOL    HW1 1322   6.799   3.824   0.109
  141SOL    HW2 1323   6.646   3.775   0.080
  142SOL     OW 1324   0.862   4.224   1.707
  142SOL    HW1 1325   0.961   4.237   1.716
  142SOL    HW2 1326   0.829   4.276   1.629
  143SOL     OW 1327   6.260   6.455   1.307
  143SOL    HW1 1328   6.340   6.509   1.330
  143SOL    HW2 1329   6.281   6.393   1.231
  144SOL     OW 1330   2.765   4.818   3.980
  144SOL    HW1 1331   2.684   4.868   4.011
  144SOL    HW2 1332   2.838   4.828   4.047
  145SOL     OW 1333   6.575   4.998   2.828
  145SOL    HW1 1334   6.518   4.922   2.859
  145SOL    HW2 1335   6.517   5.076   2.806
  146SOL     OW 1336   5.982   1.808   5.837
  146SOL    HW1 1337   6.050   1.789   5.766
  146SOL    HW2 1338   6.017   1.779   5.925
  147SOL     OW 1339   5.151   1.506   5.224
  147SOL    HW1 1340   5.245   1.538   5.214
  147SOL    HW2 1341   5.130   1.492   5.320
  148SOL     OW 1342   1.300   4.548   1.126
  148SOL    HW1 1343   1.275   4.561   1.030
  148SOL    HW2 1344   1.363   4.620   1.154
  149SOL     OW 1345   2.448   2.084   5.169
  149SOL    HW1 1346   2.423   2.025   5.246
  149SOL    HW2 1347   2.536   2.126   5.186
  150SOL     OW 1348   4.050   1.752   5.536
  150SOL    HW1 1349   3.959   1.712   5.547
  150SOL    HW2 1350   4.045   1.851   5.545
  151SOL     OW 1351   3.856   1.777   0.821
  151SOL    HW1 1352   3.887   1.862   0.777
  151SOL    HW2 1353   3.923   1.748   0.889
  152SOL     OW 1354   0.866   1.389   0.114
  152SOL    HW1 1355   0.906   1.450   0.046
  152SOL    HW2 1356   0.904   1.297   0.102
  153SOL     OW 1357   2.709   1.281   3.740
  153SOL    HW1 1358   2.759   1.363   3.713
  153SOL    HW2 1359   2.759   1.234   3.813
  154SOL     OW 1360   6.387   1.850   1.389
  154SOL    HW1 1361   6.347   1.848   1.298
  154SOL    HW2 1362   6.427   1.941   1.406
  155SOL     OW 1363   0.155   0.239   2.022
  155SOL    HW1 1364   0.082   0.267   2.085
  155SOL    HW2 1365   0.243   0.243   2.068
  156SOL     OW 1366   4.787   0.782   0.222
  156SOL    HW1 1367   4.885   0.799   0.230
  156SOL    HW2 1368   4.753   0.820   0.136
  157SOL     OW 1369   5.399   3.769   0.443
  157SOL    HW1 1370   5.492   3.757   0.478
  157SOL    HW2 1371   5.364   3.859   0.470
  158SOL     OW 1372   1.287   3.362   2.555
  158SOL    HW1 1373   1.226   3.305   2.611
  158SOL    HW2 1374   1.311   3.313   2.472
  159SOL     OW 1375   4.974   5.475   0.961
  159SOL    HW1 1376   4.876   5.461   0.973
  159SOL    HW2 1377   5.003   5.554   1.015
  160SOL     OW 1378   5.863   0.797   0.642
  160SOL    HW1 1379   5.954   0.835   0.656
  160SOL    HW2 1380   5.839   0.737   0.718
  161SOL     OW 1381   0.911   6.516   0.503
  161SOL    HW1 1382   0.999   6.482   0.468
  161SOL    HW2 1383   0.851   6.438   0.523
  162SOL     OW 1384   2.524   6.139   0.164
  162SOL    HW1 1385   2.438   6.149   0.114
  162SOL    HW2 1386   2.547   6.225   0.209
  163SOL     OW 1387   6.745   4.639   3.212
  163SOL    HW1 1388   6.829   4.689   3.193
  163SOL    HW2 1389   6.678   4.701   3.254
  164SOL     OW 1390   1.467   1.787   2.768
  164SOL    HW1 1391   1.429   1.783   2.676
  164SOL    HW2 1392   1.520   1.871   2.778
  165SOL     OW 1393   0.366   5.520   2.778
  165SOL    HW1 1394   0.441   5.458   2.804
  165SOL    HW2 1395   0.401   5.587   2.712
  166SOL     OW 1396   6.166   3.961   1.627
  166SOL    HW1 1397   6.260   3.994   1.620
  166SOL    HW2 1398   6.110   4.007   1.558
  167SOL     OW 1399   5.381   1.722   6.970
  167SOL    HW1 1400   5.400   1.634   6.926
  167SOL    HW2 1401   5.296   1.760   6.932
  168SOL     OW 1402   4.730   3.578   1.579
  168SOL    HW1 1403   4.679   3.526   1.510
  168SOL    HW2 1404   4.692   3.670   1.586
  169SOL     OW 1405   6.034   3.174   0.829
  169SOL    HW1 1406   6.122   3.128   0.840
  169SOL    HW2 1407   6.029   3.216   0.739
  170SOL     OW 1408   1.653   5.217   2.678
  170SOL    HW1 1409   1.737   5.212   2.732
  170SOL    HW2 1410   1.668   5.275   2.598
  171SOL     OW 1411   2.114   3.522   0.150
  171SOL    HW1 1412   2.165   3.541   0.234
  171SOL    HW2 1413   2.178   3.492   0.079
  172SOL     OW 1414   5.857   2.147   1.813
  172SOL    HW1 1415   5.814   2.214   1.873
  172SOL    HW2 1416   5.954   2.140   1.837
  173SOL     OW 1417   6.098   1.068   5.386
  173SOL    HW1 1418   6.036   0.991   5.402
  173SOL    HW2 1419   6.140   1.058   5.295
  174SOL     OW 1420   5.491   5.751   5.449
  174SOL    HW1 1421   5.490   5.656   5.480
  174SOL    HW2 1422   5.582   5.790   5.465
  175SOL     OW 1423   1.693   1.029   0.769
  175SOL    HW1 1424   1.626   0.961   0.739
  175SOL    HW2 1425   1.696   1.032   0.869
  176SOL     OW 1426   4.816   4.609   2.532
  176SOL    HW1 1427   4.749   4.681   2.512
  176SOL    HW2 1428   4.768   4.528   2.566
  177SOL     OW 1429   5.589   1.828   4.414
  177SOL    HW1 1430   5.541   1.775   4.484
  177SOL    HW2 1431   5.526   1.894   4.373
  178SOL     OW 1432   2.399   5.914   4.945
  178SOL    HW1 1433   2.412   5.827   4.899
  178SOL    HW2 1434   2.395   5.988   4.878
  179SOL     OW 1435   4.536   5.031   0.420
  179SOL    HW1 1436   4.550   5.097   0.347
  179SOL    HW2 1437   4.546   4.938   0.384
  180SOL     OW 1438   3.843   0.194   0.699
  180SOL    HW1 1439   3.891   0.228   0.619
  180SOL    HW2 1440   3.909   0.158   0.765
  181SOL     OW 1441   3.285   2.463   5.322
  181SOL    HW1 1442   3.208   2.476   5.385
  181SOL    HW2 1443   3.263   2.393   5.254
  182SOL     OW 1444   5.077   2.835   6.857
  182SOL    HW1 1445   5.000   2.897   6.874
  182SOL    HW2 1446   5.152   2.887   6.815
  183SOL     OW 1447   3.545   1.839   4.277
  183SOL    HW1 1448   3.484   1.894   4.335
  183SOL    HW2 1449   3.622   1.806   4.332
  184SOL     OW 1450   0.788   6.132   3.620
  184SOL    HW1 1451   0.704   6.120   3.566
  184SOL    HW2 1452   0.791   6.225   3.656
  185SOL     OW 1453   0.382   1.722   4.160
  185SOL    HW1 1454   0.305   1.726   4.096
  185SOL    HW2 1455   0.454   1.785   4.129
  186SOL     OW 1456   5.263   5.795   4.479
  186SOL    HW1 1457   5.359   5.816   4.460
  186SOL    HW2 1458   5.219   5.874   4.522
  187SOL     OW 1459   4.128   5.335   2.604
  187SOL    HW1 1460   4.181   5.256   2.575
  187SOL    HW2 1461   4.189   5.412   2.622
  188SOL     OW 1462   2.543   2.163   3.240
  188SOL    HW1 1463   2.585   2.236   3.187
  188SOL    HW2 1464   2.474   2.117   3.185
  189SOL     OW 1465   6.464   5.313   0.185
  189SOL    HW1 1466   6.465   5.228   0.133
  189SOL    HW2 1467   6.537   5.373   0.152
  190SOL     OW 1468   6.211   5.485   0.366
  190SOL    HW1 1469   6.114   5.510   0.366
  190SOL    HW2 1470   6.225   5.407   0.304
  191SOL     OW 1471   6.808   1.059   6.147
  191SOL    HW1 1472   6.789   0.969   6.187
  191SOL    HW2 1473   6.732   1.121   6.166
  192SOL     OW 1474   0.254   4.840   1.267
  192SOL    HW1 1475   0.351   4.813   1.266
  192SOL    HW2 1476   0.245   4.930   1.223
  193SOL     OW 1477   3.475   5.032   5.999
  193SOL    HW1 1478   3.495   4.936   6.020
  193SOL    HW2 1479   3.507   5.090   6.074
  194SOL     OW 1480   3.989   6.670   1.886
  194SOL    HW1 1481   3.977   6.597   1.953
  194SOL    HW2 1482   4.068   6.650   1.829
  195SOL     OW 1483   3.176   0.556   2.335
  195SOL    HW1 1484   3.205   0.529   2.243
  195SOL    HW2 1485   3.080   0.530   2.349
  196SOL     OW 1486   2.648   1.150   6.496
  196SOL    HW1 1487   2.731   1.166   6.443
  196SOL    HW2 1488   2.645   1.213   6.574
  197SOL     OW 1489   2.277   6.105   0.017
  197SOL    HW1 1490   2.184   6.131   7.015
  197SOL    HW2 1491   2.281   6.006   0.032
  198SOL     OW 1492   4.480   5.674   0.647
  198SOL    HW1 1493   4.447   5.767   0.665
  198SOL    HW2 1494   4.575   5.666   0.677
  199SOL     OW 1495   5.339   0.811   1.844
  199SOL    HW1 1496   5.384   0.783   1.759
  199SOL    HW2 1497   5.395   0.879   1.890
  200SOL     OW 1498   1.286   3.186   2.227
  200SOL    HW1 1499   1.199   3.219   2.263
  200SOL    HW2 1500   1.359   3.249   2.254
  201SOL     OW 1501   2.523   0.894   6.932
  201SOL    HW1 1502   2.571   0.909   6.845
  201SOL    HW2 1503   2.477   0.806   6.931
  202SOL     OW 1504   5.004   6.561   3.948
  202SOL    HW1 1505   4.992   6.496   4.023
  202SOL    HW2 1506   4.999   6.654   3.984
  203SOL     OW 1507   5.075   3.350   6.141
  203SOL    HW1 1508   5.010   3.319   6.072
  203SOL    HW2 1509   5.027   3.360   6.229
  204SOL     OW 1510   1.131   7.000   0.160
  204SOL    HW1 1511   1.096   6.994   0.067
  204SOL    HW2 1512   1.226   0.009   0.158
  205SOL     OW 1513   0.538   1.682   1.125
  205SOL    HW1 1514   0.533   1.758   1.189
  205SOL    HW2 1515   0.601   1.613   1.159
  206SOL     OW 1516   0.863   4.339   0.970
  206SOL    HW1 1517   0.813   4.361   0.887
  206SOL    HW2 1518   0.799   4.313   1.042
  207SOL     OW 1519   4.088   0.476   5.656
  207SOL    HW1 1520   4.052   0.565   5.686
  207SOL    HW2 1521   4.016   0.407   5.662
  208SOL     OW 1522   5.270   4.374   6.164
  208SOL    HW1 1523   5.358   4.384   6.211
  208SOL    HW2 1524   5.203   4.337   6.228
  209SOL     OW 1525   0.366   5.953   5.617
  209SOL    HW1 1526   0.458   5.993   5.620
  209SOL    HW2 1527   0.308   6.006   5.556
  210SOL     OW 1528   4.268   2.311   2.148
  210SOL    HW1 1529   4.172   2.315   2.176
  210SOL    HW2 1530   4.285   2.226   2.098
  211SOL     OW 1531   0.673   1.408   2.282
  211SOL    HW1 1532   0.618   1.325   2.285
  211SOL    HW2 1533   0.754   1.396   2.340
  212SOL     OW 1534   0.950   4.849   3.416
  212SOL    HW1 1535   0.895   4.819   3.338
  212SOL    HW2 1536   1.035   4.796   3.418
  213SOL     OW 1537   5.230   1.372   6.913
  213SOL    HW1 1538   5.309   1.425   6.882
  213SOL    HW2 1539   5.163   1.433   6.954
  214SOL     OW 1540   0.881   6.786   3.176
  214SOL    HW1 1541   0.870   6.689   3.200
  214SOL    HW2 1542   0.965   6.821   3.216
  215SOL     OW 1543   3.878   2.844   1.875
  215SOL    HW1 1544   3.869   2.938   1.908
  215SOL    HW2 1545   3.880   2.781   1.952
  216SOL     OW 1546   0.950   0.058   4.864
  216SOL    HW1 1547   0.907   6.991   4.863
  216SOL    HW2 1548   0.882   0.128   4.841
  217SOL     OW 1549   1.837   2.543   4.355
  217SOL    HW1 1550   1.764   2.499   4.302
  217SOL    HW2 1551   1.921   2.490   4.347
  218SOL     OW 1552   0.928   1.977   4.499
  218SOL    HW1 1553   0.888   1.952   4.588
  218SOL    HW2 1554   0.951   2.074   4.500
  219SOL     OW 1555   3.611   4.034   0.330
  219SOL    HW1 1556   3.521   4.046   0.370
  219SOL    HW2 1557   3.644   4.122   0.295
  220SOL     OW 1558   2.382   5.572   0.053
  220SOL    HW1 1559   2.404   5.578   0.150
  220SOL    HW2 1560   2.371   5.476   0.027
  221SOL     OW 1561   5.786   3.461   3.987
  221SOL    HW1 1562   5.868   3.428   3.940
  221SOL    HW2 1563   5.740   3.385   4.032
  222SOL     OW 1564   1.610   5.467   5.113
  222SOL    HW1 1565   1.550   5.546   5.124
  222SOL    HW2 1566   1.611   5.438   5.017
  223SOL     OW 1567   0.129   3.805   1.704
  223SOL    HW1 1568   0.185   3.721   1.706
  223SOL    HW2 1569   0.033   3.780   1.692
  224SOL     OW 1570   2.532   2.515   2.499
  224SOL    HW1 1571   2.544   2.485   2.594
  224SOL    HW2 1572   2.616   2.498   2.448
  225SOL     OW 1573   6.006   1.269   0.414
  225SOL    HW1 1574   6.095   1.292   0.453
  225SOL    HW2 1575   5.978   1.179   0.446
  226SOL     OW 1576   1.246   0.216   0.927
  226SOL    HW1 1577   1.240   0.202   0.828
  226SOL    HW2 1578   1.276   0.310   0.945
  227SOL     OW 1579   1.550   3.951   3.278
  227SOL    HW1 1580   1.519   3.925   3.369
  227SOL    HW2 1581   1.640   3.993   3.283
  228SOL     OW 1582   3.584   6.799   4.308
  228SOL    HW1 1583   3.667   6.810   4.253
  228SOL    HW2 1584   3.578   6.705   4.340
  229SOL     OW 1585   5.783   5.805   1.102
  229SOL    HW1 1586   5.858   5.795   1.037
  229SOL    HW2 1587   5.803   5.879   1.166
  230SOL     OW 1588   2.079   3.587   4.098
  230SOL    HW1 1589   2.111   3.494   4.083
  230SOL    HW2 1590   1.985   3.586   4.130
  231SOL     OW 1591   6.572   2.942   6.178
  231SOL    HW1 1592   6.638   2.980   6.113
  231SOL    HW2 1593   6.532   3.015   6.233
  232SOL     OW 1594   1.519   3.647   6.243
  232SOL    HW1 1595   1.618   3.636   6.242
  232SOL    HW2 1596   1.487   3.667   6.150
  233SOL     OW 1597   2.302   0.725   5.536
  233SOL    HW1 1598   2.236   0.667   5.584
  233SOL    HW2 1599   2.254   0.790   5.478
  234SOL     OW 1600   2.521   4.933   6.543
  234SOL    HW1 1601   2.566   4.924   6.632
  234SOL    HW2 1602   2.438   4.987   6.553
  235SOL     OW 1603   3.735   3.541   3.888
  235SOL    HW1 1604   3.757   3.576   3.978
  235SOL    HW2 1605   3.809   3.481   3.856
  236SOL     OW 1606   6.436   3.093   6.353
  236SOL    HW1 1607   6.377   3.127   6.279
  236SOL    HW2 1608   6.397   3.119   6.441
  237SOL     OW 1609   0.091   6.609   0.825
  237SOL    HW1 1610   0.103   6.559   0.739
  237SOL    HW2 1611   0.130   6.701   0.815
  238SOL     OW 1612   5.467   3.404   1.505
  238SOL    HW1 1613   5.526   3.325   1.489
  238SOL    HW2 1614   5.440   3.406   1.601
  239SOL     OW 1615   0.060   5.593   6.784
  239SOL    HW1 1616   0.019   5.553   6.702
  239SOL    HW2 1617   0.030   5.688   6.793
  240SOL     OW 1618   0.781   3.644   5.917
  240SOL    HW1 1619   0.691   3.685   5.931
  240SOL    HW2 1620   0.819   3.618   6.006
  241SOL     OW 1621   0.156   1.194   3.591
  241SOL    HW1 1622   0.150   1.105   3.636
  241SOL    HW2 1623   0.209   1.184   3.507
  242SOL     OW 1624   1.451   2.857   4.892
  242SOL    HW1 1625   1.502   2.813   4.819
  242SOL    HW2 1626   1.513   2.880   4.968
  243SOL     OW 1627   4.700   0.620   6.110
  243SOL    HW1 1628   4.719   0.716   6.131
  243SOL    HW2 1629   4.646   0.581   6.184
  244SOL     OW 1630   5.040   1.783   5.047
  244SOL    HW1 1631   5.072   1.767   5.141
  244SOL    HW2 1632   4.943   1.758   5.040
  245SOL     OW 1633   6.301   2.433   5.071
  245SOL    HW1 1634   6.384   2.378   5.081
  245SOL    HW2 1635   6.252   2.403   4.989
  246SOL     OW 1636   4.741   4.026   4.127
  246SOL    HW1 1637   4.775   3.936   4.101
  246SOL    HW2 1638   4.795   4.062   4.202
  247SOL     OW 1639   2.507   1.334   3.298
  247SOL    HW1 1640   2.472   1.273   3.227
  247SOL    HW2 1641   2.477   1.428   3.281
  248SOL     OW 1642   4.863   2.182   4.905
  248SOL    HW1 1643   4.763   2.185   4.907
  248SOL    HW2 1644   4.894   2.090   4.881
  249SOL     OW 1645   3.195   6.338   4.829
  249SOL    HW1 1646   3.272   6.361   4.769
  249SOL    HW2 1647   3.140   6.420   4.846
  250SOL     OW 1648   5.652   2.509   5.391
  250SOL    HW1 1649   5.652   2.422   5.439
  250SOL    HW2 1650   5.563   2.523   5.347
  251SOL     OW 1651   4.430   3.186   6.148
  251SOL    HW1 1652   4.518   3.183   6.194
  251SOL    HW2 1653   4.356   3.178   6.215
  252SOL     OW 1654   6.734   1.659   5.692
  252SOL    HW1 1655   6.725   1.756   5.714
  252SOL    HW2 1656   6.782   1.612   5.767
  253SOL     OW 1657   1.891   2.928   1.067
  253SOL    HW1 1658   1.823   2.876   1.118
  253SOL    HW2 1659   1.863   2.937   0.972
  254SOL     OW 1660   0.124   3.244   4.491
  254SOL    HW1 1661   0.200   3.307   4.481
  254SOL    HW2 1662   0.042   3.295   4.520
  255SOL     OW 1663   3.170   2.171   3.317
  255SOL    HW1 1664   3.156   2.227   3.399
  255SOL    HW2 1665   3.202   2.080   3.344
  256SOL     OW 1666   6.119   5.536   6.594
  256SOL    HW1 1667   6.039   5.582   6.632
  256SOL    HW2 1668   6.200   5.561   6.648
  257SOL     OW 1669   2.910   5.487   6.086
  257SOL    HW1 1670   2.916   5.577   6.042
  257SOL    HW2 1671   2.816   5.472   6.118
  258SOL     OW 1672   4.931   4.402   4.708
  258SOL    HW1 1673   4.938   4.456   4.624
  258SOL    HW2 1674   4.839   4.413   4.747
  259SOL     OW 1675   1.900   2.982   2.563
  259SOL    HW1 1676   1.870   2.957   2.655
  259SOL    HW2 1677   1.893   2.902   2.503
  260SOL     OW 1678   4.916   0.590   6.266
  260SOL    HW1 1679   4.837   0.585   6.205
  260SOL    HW2 1680   4.970   0.672   6.243
  261SOL     OW 1681   0.463   4.217   1.733
  261SOL    HW1 1682   0.452   4.262   1.644
  261SOL    HW2 1683   0.439   4.120   1.724
  262SOL     OW 1684   1.002   3.033   2.407
  262SOL    HW1 1685   1.044   2.949   2.372
  262SOL    HW2 1686   0.924   3.010   2.465
  263SOL     OW 1687   0.854   2.257   4.744
  263SOL    HW1 1688   0.806   2.335   4.782
  263SOL    HW2 1689   0.792   2.204   4.687
  264SOL     OW 1690   0.974   3.559   5.510
  264SOL    HW1 1691   0.878   3.583   5.521
  264SOL    HW2 1692   1.006   3.509   5.590
  265SOL     OW 1693   4.845   4.620   4.519
  265SOL    HW1 1694   4.868   4.717   4.507
  265SOL    HW2 1695   4.750   4.605   4.492
  266SOL     OW 1696   4.330   1.799   0.682
  266SOL    HW1 1697   4.385   1.794   0.765
  266SOL    HW2 1698   4.351   1.721   0.623
  267SOL     OW 1699   1.714   2.625   6.522
  267SOL    HW1 1700   1.709   2.670   6.433
  267SOL    HW2 1701   1.803   2.643   6.564
  268SOL     OW 1702   4.579   4.515   4.428
  268SOL    HW1 1703   4.516   4.552   4.497
  268SOL    HW2 1704   4.595   4.418   4.446
  269SOL     OW 1705   1.698   1.727   6.589
  269SOL    HW1 1706   1.690   1.822   6.620
  269SOL    HW2 1707   1.607   1.693   6.565
  270SOL     OW 1708   5.567   0.936   2.054
  270SOL    HW1 1709   5.637   0.973   1.993
  270SOL    HW2 1710   5.496   1.004   2.069
  271SOL     OW 1711   1.715   1.069   1.062
  271SOL    HW1 1712   1.629   1.044   1.107
  271SOL    HW2 1713   1.766   1.131   1.121
  272SOL     OW 1714   4.000   5.275   4.411
  272SOL    HW1 1715   4.020   5.190   4.459
  272SOL    HW2 1716   4.039   5.352   4.461
  273SOL     OW 1717   1.635   5.630   4.636
  273SOL    HW1 1718   1.564   5.700   4.643
  273SOL    HW2 1719   1.593   5.539   4.637
  274SOL     OW 1720   5.960   3.050   3.367
  274SOL    HW1 1721   5.901   3.007   3.435
  274SOL    HW2 1722   5.943   3.149   3.366
  275SOL     OW 1723   6.913   6.523   5.932
  275SOL    HW1 1724   6.887   6.489   6.023
  275SOL    HW2 1725   6.854   6.600   5.908
  276SOL     OW 1726   6.884   6.200   3.436
  276SOL    HW1 1727   6.873   6.101   3.425
  276SOL    HW2 1728   6.975   6.219   3.473
  277SOL     OW 1729   3.487   1.631   5.520
  277SOL    HW1 1730   3.420   1.705   5.531
  277SOL    HW2 1731   3.568   1.651   5.574
  278SOL     OW 1732   5.165   4.352   2.249
  278SOL    HW1 1733   5.124   4.400   2.327
  278SOL    HW2 1734   5.103   4.358   2.171
  279SOL     OW 1735   0.129   3.165   3.033
  279SOL    HW1 1736   0.180   3.176   3.119
  279SOL    HW2 1737   0.131   3.069   3.006
  280SOL     OW 1738   4.315   6.819   3.839
  280SOL    HW1 1739   4.371   6.887   3.885
  280SOL    HW2 1740   4.360   6.730   3.842
  281SOL     OW 1741   4.274   5.522   4.005
  281SOL    HW1 1742   4.203   5.460   4.039
  281SOL    HW2 1743   4.346   5.531   4.074
  282SOL     OW 1744   4.423   2.202   6.387
  282SOL    HW1 1745   4.387   2.259   6.461
  282SOL    HW2 1746   4.512   2.166   6.413
  283SOL     OW 1747   6.456   0.704   4.663
  283SOL    HW1 1748   6.470   0.777   4.596
  283SOL    HW2 1749   6.497   0.731   4.750
  284SOL     OW 1750   0.280   4.945   4.987
  284SOL    HW1 1751   0.244   4.904   5.071
  284SOL    HW2 1752   0.335   5.025   5.009
  285SOL     OW 1753   4.822   0.298   0.057
  285SOL    HW1 1754   4.804   0.385   0.101
  285SOL    HW2 1755   4.895   0.250   0.106
  286SOL     OW 1756   3.796   5.294   4.770
  286SOL    HW1 1757   3.817   5.377   4.717
  286SOL    HW2 1758   3.842   5.299   4.859
  287SOL     OW 1759   1.467   5.669   6.287
  287SOL    HW1 1760   1.392   5.626   6.338
  287SOL    HW2 1761   1.447   5.664   6.189
  288SOL     OW 1762   3.808   0.553   1.109
  288SOL    HW1 1763   3.739   0.622   1.083
  288SOL    HW2 1764   3.764   0.480   1.161
  289SOL     OW 1765   0.782   6.020   5.337
  289SOL    HW1 1766   0.735   6.105   5.356
  289SOL    HW2 1767   0.857   6.007   5.403
  290SOL     OW 1768   4.573   0.791   3.649
  290SOL    HW1 1769   4.495   0.840   3.687
  290SOL    HW2 1770   4.601   0.835   3.563
  291SOL     OW 1771   4.415   0.508   4.267
  291SOL    HW1 1772   4.390   0.476   4.176
  291SOL    HW2 1773   4.513   0.493   4.281
  292SOL     OW 1774   3.636   0.115   3.821
  292SOL    HW1 1775   3.646   0.058   3.903
  292SOL    HW2 1776   3.652   0.058   3.739
  293SOL     OW 1777   5.013   6.071   2.096
  293SOL    HW1 1778   5.061   6.157   2.082
  293SOL    HW2 1779   4.976   6.039   2.009
  294SOL     OW 1780   5.779   0.200   5.912
  294SOL    HW1 1781   5.873   0.187   5.942
  294SOL    HW2 1782   5.723   0.122   5.943
  295SOL     OW 1783   1.141   2.127   5.370
  295SOL    HW1 1784   1.240   2.116   5.356
  295SOL    HW2 1785   1.122   2.142   5.467
  296SOL     OW 1786   6.561   0.836   1.647
  296SOL    HW1 1787   6.513   0.873   1.726
  296SOL    HW2 1788   6.578   0.739   1.661
  297SOL     OW 1789   5.153   4.641   3.669
  297SOL    HW1 1790   5.162   4.588   3.585
  297SOL    HW2 1791   5.081   4.709   3.658
  298SOL     OW 1792   4.131   0.325   0.281
  298SOL    HW1 1793   4.054   0.385   0.261
  298SOL    HW2 1794   4.212   0.379   0.299
  299SOL     OW 1795   3.167   1.750   0.081
  299SOL    HW1 1796   3.210   1.800   0.157
  299SOL    HW2 1797   3.222   1.763   7.021
  300SOL     OW 1798   3.396   1.328   2.467
  300SOL    HW1 1799   3.311   1.353   2.422
  300SOL    HW2 1800   3.444   1.260   2.412
  301SOL     OW 1801   5.188   5.986   1.693
  301SOL    HW1 1802   5.214   6.014   1.785
  301SOL    HW2 1803   5.265   5.940   1.649
  302SOL     OW 1804   6.871   6.471   1.690
  302SOL    HW1 1805   6.934   6.497   1.763
  302SOL    HW2 1806   6.835   6.554   1.647
  303SOL     OW 1807   6.249   5.702   2.339
  303SOL    HW1 1808   6.184   5.627   2.324
  303SOL    HW2 1809   6.224   5.780   2.281
  304SOL     OW 1810   1.444   6.809   5.324
  304SOL    HW1 1811   1.411   6.790   5.417
  304SOL    HW2 1812   1.543   6.821   5.326
  305SOL     OW 1813   0.959   3.009   1.511
  305SOL    HW1 1814   0.989   3.076   1.579
  305SOL    HW2 1815   1.035   2.949   1.488
  306SOL     OW 1816   0.045   1.093   2.663
  306SOL    HW1 1817   0.084   1.051   2.582
  306SOL    HW2 1818   0.078   1.187   2.671
  307SOL     OW 1819   3.325   3.310   0.834
  307SOL    HW1 1820   3.371   3.255   0.903
  307SOL    HW2 1821   3.227   3.287   0.833
  308SOL     OW 1822   5.480   1.299   4.571
  308SOL    HW1 1823   5.553   1.359   4.539
  308SOL    HW2 1824   5.518   1.214   4.605
  309SOL     OW 1825   0.355   6.853   6.850
  309SOL    HW1 1826   0.453   6.853   6.830
  309SOL    HW2 1827   0.315   6.765   6.827
  310SOL     OW 1828   5.432   6.240   4.402
  310SOL    HW1 1829   5.399   6.211   4.312
  310SOL    HW2 1830   5.532   6.244   4.400
  311SOL     OW 1831   2.464   5.389   2.966
  311SOL    HW1 1832   2.434   5.308   3.017
  311SOL    HW2 1833   2.388   5.453   2.958
  312SOL     OW 1834   4.678   2.083   3.371
  312SOL    HW1 1835   4.661   1.987   3.348
  312SOL    HW2 1836   4.667   2.139   3.289
  313SOL     OW 1837   3.762   3.546   2.514
  313SOL    HW1 1838   3.702   3.625   2.523
  313SOL    HW2 1839   3.710   3.469   2.475
  314SOL     OW 1840   1.885   5.848   5.124
  314SOL    HW1 1841   1.815   5.917   5.104
  314SOL    HW2 1842   1.976   5.885   5.105
  315SOL     OW 1843   6.306   1.266   3.701
  315SOL    HW1 1844   6.248   1.282   3.621
  315SOL    HW2 1845   6.249   1.257   3.783
  316SOL     OW 1846   4.424   1.583   5.676
  316SOL    HW1 1847   4.347   1.542   5.628
  316SOL    HW2 1848   4.414   1.682   5.678
  317SOL     OW 1849   1.731   1.649   1.824
  317SOL    HW1 1850   1.772   1.738   1.801
  317SOL    HW2 1851   1.660   1.628   1.756
  318SOL     OW 1852   6.372   0.795   5.886
  318SOL    HW1 1853   6.395   0.867   5.819
  318SOL    HW2 1854   6.379   0.832   5.978
  319SOL     OW 1855   0.465   2.119   2.764
  319SOL    HW1 1856   0.413   2.061   2.826
  319SOL    HW2 1857   0.495   2.065   2.685
  320SOL     OW 1858   5.817   2.222   6.952
  320SOL    HW1 1859   5.790   2.162   6.877
  320SOL    HW2 1860   5.747   2.220   0.001
  321SOL     OW 1861   4.076   3.654   0.758
  321SOL    HW1 1862   4.159   3.684   0.806
  321SOL    HW2 1863   4.018   3.734   0.739
  322SOL     OW 1864   3.955   3.431   6.318
  322SOL    HW1 1865   3.893   3.384   6.381
  322SOL    HW2 1866   4.008   3.364   6.267
  323SOL     OW 1867   0.581   2.674   3.672
  323SOL    HW1 1868   0.671   2.708   3.644
  323SOL    HW2 1869   0.511   2.714   3.612
  324SOL     OW 1870   2.411   6.738   3.289
  324SOL    HW1 1871   2.328   6.703   3.245
  324SOL    HW2 1872   2.445   6.670   3.354
  325SOL     OW 1873   1.225   3.889   2.386
  325SOL    HW1 1874   1.148   3.874   2.449
  325SOL    HW2 1875   1.277   3.804   2.376
  326SOL     OW 1876   1.510   4.902   6.127
  326SOL    HW1 1877   1.469   4.888   6.036
  326SOL    HW2 1878   1.577   4.976   6.122
  327SOL     OW 1879   2.907   4.941   2.490
  327SOL    HW1 1880   3.000   4.919   2.518
  327SOL    HW2 1881   2.851   4.858   2.489
  328SOL     OW 1882   1.112   4.115   1.787
  328SOL    HW1 1883   1.079   4.022   1.773
  328SOL    HW2 1884   1.198   4.127   1.737
  329SOL     OW 1885   2.954   3.776   1.391
  329SOL    HW1 1886   2.920   3.866   1.367
  329SOL    HW2 1887   3.039   3.786   1.444
  330SOL     OW 1888   3.810   5.459   0.251
  330SOL    HW1 1889   3.899   5.488   0.214
  330SOL    HW2 1890   3.746   5.537   0.249
  331SOL     OW 1891   5.380   5.293   0.940
  331SOL    HW1 1892   5.398   5.210   0.994
  331SOL    HW2 1893   5.459   5.314   0.883
  332SOL     OW 1894   5.379   1.581   3.900
  332SOL    HW1 1895   5.406   1.656   3.839
  332SOL    HW2 1896   5.327   1.618   3.977
  333SOL     OW 1897   4.185   1.166   5.234
  333SOL    HW1 1898   4.203   1.077   5.192
  333SOL    HW2 1899   4.250   1.181   5.309
  334SOL     OW 1900   3.414   2.835   2.341
  334SOL    HW1 1901   3.470   2.756   2.366
  334SOL    HW2 1902   3.413   2.846   2.242
  335SOL     OW 1903   4.288   6.890   6.680
  335SOL    HW1 1904   4.362   6.842   6.728
  335SOL    HW2 1905   4.248   6.828   6.612
  336SOL     OW 1906   3.027   1.320   3.354
  336SOL    HW1 1907   3.117   1.295   3.320
  336SOL    HW2 1908   2.964   1.243   3.343
  337SOL     OW 1909   1.502   2.049   5.764
  337SOL    HW1 1910   1.453   1.987   5.704
  337SOL    HW2 1911   1.532   2.000   5.846
  338SOL     OW 1912   4.127   3.025   1.236
  338SOL    HW1 1913   4.032   3.034   1.265
  338SOL    HW2 1914   4.164   2.939   1.270
  339SOL     OW 1915   4.275   4.797   4.509
  339SOL    HW1 1916   4.361   4.848   4.507
  339SOL    HW2 1917   4.230   4.811   4.597
  340SOL     OW 1918   5.352   2.800   4.979
  340SOL    HW1 1919   5.253   2.795   4.995
  340SOL    HW2 1920   5.376   2.893   4.951
  341SOL     OW 1921   5.535   5.723   4.831
  341SOL    HW1 1922   5.540   5.630   4.868
  341SOL    HW2 1923   5.561   5.721   4.734
  342SOL     OW 1924   4.621   3.911   1.066
  342SOL    HW1 1925   4.542   3.862   1.103
  342SOL    HW2 1926   4.603   4.009   1.068
  343SOL     OW 1927   0.469   6.430   2.432
  343SOL    HW1 1928   0.469   6.530   2.425
  343SOL    HW2 1929   0.463   6.404   2.529
  344SOL     OW 1930   0.709   1.912   1.943
  344SOL    HW1 1931   0.649   1.889   2.020
  344SOL    HW2 1932   0.803   1.919   1.976
  345SOL     OW 1933   6.675   2.354   4.331
  345SOL    HW1 1934   6.699   2.386   4.422
  345SOL    HW2 1935   6.619   2.271   4.338
  346SOL     OW 1936   1.967   6.753   2.503
  346SOL    HW1 1937   1.955   6.654   2.510
  346SOL    HW2 1938   1.998   6.788   2.592
  347SOL     OW 1939   2.554   5.738   6.913
  347SOL    HW1 1940   2.598   5.802   6.977
  347SOL    HW2 1941   2.518   5.661   6.965
  348SOL     OW 1942   4.302   4.859   2.545
  348SOL    HW1 1943   4.352   4.858   2.632
  348SOL    HW2 1944   4.319   4.773   2.497
  349SOL     OW 1945   6.749   4.310   2.192
  349SOL    HW1 1946   6.755   4.363   2.107
  349SOL    HW2 1947   6.695   4.227   2.176
  350SOL     OW 1948   3.226   2.830   0.102
  350SOL    HW1 1949   3.289   2.876   0.164
  350SOL    HW2 1950   3.241   2.861   0.008
  351SOL     OW 1951   2.952   3.751   0.705
  351SOL    HW1 1952   2.945   3.834   0.761
  351SOL    HW2 1953   2.892   3.680   0.742
  352SOL     OW 1954   4.078   6.408   3.439
  352SOL    HW1 1955   4.028   6.422   3.354
  352SOL    HW2 1956   4.061   6.485   3.501
  353SOL     OW 1957   3.369   0.135   6.032
  353SOL    HW1 1958   3.380   0.139   6.132
  353SOL    HW2 1959   3.273   0.116   6.010
  354SOL     OW 1960   5.508   3.133   0.751
  354SOL    HW1 1961   5.490   3.091   0.839
  354SOL    HW2 1962   5.600   3.172   0.751
  355SOL     OW 1963   1.923   2.759   2.419
  355SOL    HW1 1964   1.999   2.734   2.360
  355SOL    HW2 1965   1.902   2.683   2.480
  356SOL     OW 1966   1.783   0.515   4.652
  356SOL    HW1 1967   1.823   0.584   4.713
  356SOL    HW2 1968   1.691   0.544   4.625
  357SOL     OW 1969   0.074   5.976   4.179
  357SOL    HW1 1970   0.042   6.042   4.111
  357SOL    HW2 1971   0.139   5.913   4.136
  358SOL     OW 1972   4.560   6.316   0.862
  358SOL    HW1 1973   4.508   6.290   0.943
  358SOL    HW2 1974   4.657   6.296   0.878
  359SOL     OW 1975   3.425   0.834   1.302
  359SOL    HW1 1976   3.326   0.823   1.292
  359SOL    HW2 1977   3.460   0.891   1.227
  360SOL     OW 1978   1.441   4.075   4.617
  360SOL    HW1 1979   1.349   4.104   4.645
  360SOL    HW2 1980   1.475   4.008   4.682
  361SOL     OW 1981   6.099   6.208   2.638
  361SOL    HW1 1982   6.044   6.289   2.616
  361SOL    HW2 1983   6.164   6.191   2.564
  362SOL     OW 1984   3.868   4.082   0.899
  362SOL    HW1 1985   3.789   4.021   0.907
  362SOL    HW2 1986   3.952   4.032   0.920
  363SOL     OW 1987   6.057   4.584   2.899
  363SOL    HW1 1988   6.086   4.655   2.963
  363SOL    HW2 1989   6.079   4.494   2.936
  364SOL     OW 1990   0.744   4.905   6.533
  364SOL    HW1 1991   0.677   4.877   6.465
  364SOL    HW2 1992   0.709   4.889   6.625
  365SOL     OW 1993   3.521   0.999   1.098
  365SOL    HW1 1994   3.601   0.972   1.045
  365SOL    HW2 1995   3.523   1.097   1.115
  366SOL     OW 1996   6.113   3.069   6.350
  366SOL    HW1 1997   6.095   2.971   6.339
  366SOL    HW2 1998   6.149   3.086   6.442
  367SOL     OW 1999   6.166   2.545   6.029
  367SOL    HW1 2000   6.203   2.638   6.025
  367SOL    HW2 2001   6.135   2.518   5.937
  368SOL     OW 2002   6.979   2.279   5.915
  368SOL    HW1 2003   0.005   2.365   5.900
  368SOL    HW2 2004   6.958   2.269   6.012
  369SOL     OW 2005   6.163   4.106   2.821
  369SOL    HW1 2006   6.249   4.064   2.792
  369SOL    HW2 2007   6.128   4.164   2.747
  370SOL     OW 2008   1.276   1.517   4.282
  370SOL    HW1 2009   1.341   1.593   4.283
  370SOL    HW2 2010   1.193   1.545   4.233
  371SOL     OW 2011   1.747   4.527   6.692
  371SOL    HW1 2012   1.785   4.560   6.778
  371SOL    HW2 2013   1.666   4.580   6.668
  372SOL     OW 2014   1.759   6.870   5.072
  372SOL    HW1 2015   1.699   6.794   5.045
  372SOL    HW2 2016   1.716   6.923   5.144
  373SOL     OW 2017   5.839   6.783   5.520
  373SOL    HW1 2018   5.841   6.858   5.586
  373SOL    HW2 2019   5.812   6.817   5.431
  374SOL     OW 2020   2.289   1.494   2.891
  374SOL    HW1 2021   2.275   1.503   2.792
  374SOL    HW2 2022   2.366   1.551   2.919
  375SOL     OW 2023   0.695   5.110   4.482
  375SOL    HW1 2024   0.696   5.166   4.564
  375SOL    HW2 2025   0.747   5.026   4.498
  376SOL     OW 2026   1.777   1.564   5.312
  376SOL    HW1 2027   1.801   1.656   5.282
  376SOL    HW2 2028   1.721   1.520   5.242
  377SOL     OW 2029   1.893   2.459   0.157
  377SOL    HW1 2030   1.941   2.531   0.107
  377SOL    HW2 2031   1.944   2.438   0.241
  378SOL     OW 2032   3.696   1.332   6.469
  378SOL    HW1 2033   3.645   1.406   6.512
  378SOL    HW2 2034   3.759   1.292   6.535
  379SOL     OW 2035   5.240   2.636   6.947
  379SOL    HW1 2036   5.234   2.608   0.020
  379SOL    HW2 2037   5.177   2.711   6.930
  380SOL     OW 2038   2.779   1.432   1.588
  380SOL    HW1 2039   2.839   1.361   1.551
  380SOL    HW2 2040   2.722   1.393   1.660
  381SOL     OW 2041   1.807   3.632   4.155
  381SOL    HW1 2042   1.726   3.584   4.120
  381SOL    HW2 2043   1.797   3.647   4.254
  382SOL     OW 2044   5.840   0.212   6.884
  382SOL    HW1 2045   5.939   0.225   6.871
  382SOL    HW2 2046   5.825   0.156   6.966
  383SOL     OW 2047   4.553   2.682   0.576
  383SOL    HW1 2048   4.501   2.596   0.578
  383SOL    HW2 2049   4.615   2.681   0.498
  384SOL     OW 2050   0.434   4.709   4.105
  384SOL    HW1 2051   0.515   4.662   4.070
  384SOL    HW2 2052   0.452   4.808   4.109
  385SOL     OW 2053   3.634   5.886   5.481
  385SOL    HW1 2054   3.684   5.800   5.469
  385SOL    HW2 2055   3.601   5.893   5.575
  386SOL     OW 2056   4.044   0.716   4.389
  386SOL    HW1 2057   4.106   0.651   4.347
  386SOL    HW2 2058   3.950   0.681   4.384
  387SOL     OW 2059   1.694   5.586   2.587
  387SOL    HW1 2060   1.606   5.595   2.634
  387SOL    HW2 2061   1.682   5.532   2.504
  388SOL     OW 2062   1.805   1.677   6.342
  388SOL    HW1 2063   1.786   1.674   6.440
  388SOL    HW2 2064   1.876   1.745   6.324
  389SOL     OW 2065   4.074   3.116   2.194
  389SOL    HW1 2066   4.083   3.186   2.265
  389SOL    HW2 2067   4.133   3.039   2.216
  390SOL     OW 2068   3.242   1.011   4.351
  390SOL    HW1 2069   3.244   1.111   4.341
  390SOL    HW2 2070   3.332   0.974   4.328
  391SOL     OW 2071   2.043   2.884   6.479
  391SOL    HW1 2072   2.135   2.921   6.492
  391SOL    HW2 2073   2.011   2.906   6.387
  392SOL     OW 2074   2.158   4.692   0.311
  392SOL    HW1 2075   2.238   4.668   0.257
  392SOL    HW2 2076   2.075   4.664   0.263
  393SOL     OW 2077   6.778   4.591   5.642
  393SOL    HW1 2078   6.748   4.594   5.547
  393SOL    HW2 2079   6.878   4.596   5.645
  394SOL     OW 2080   0.295   0.280   0.295
  394SOL    HW1 2081   0.368   0.258   0.360
  394SOL    HW2 2082   0.225   0.334   0.341
  395SOL     OW 2083   5.288   4.050   2.703
  395SOL    HW1 2084   5.257   4.144   2.692
  395SOL    HW2 2085   5.266   3.998   2.620
  396SOL     OW 2086   3.948   3.870   1.956
  396SOL    HW1 2087   3.908   3.961   1.941
  396SOL    HW2 2088   4.022   3.854   1.891
  397SOL     OW 2089   3.622   2.827   5.731
  397SOL    HW1 2090   3.667   2.853   5.646
  397SOL    HW2 2091   3.585   2.734   5.722
  398SOL     OW 2092   0.343   6.565   2.021
  398SOL    HW1 2093   0.383   6.515   1.945
  398SOL    HW2 2094   0.313   6.655   1.989
  399SOL     OW 2095   4.665   5.893   2.162
  399SOL    HW1 2096   4.702   5.968   2.107
  399SOL    HW2 2097   4.624   5.931   2.245
  400SOL     OW 2098   6.896   0.157   5.434
  400SOL    HW1 2099   6.884   0.119   5.342
  400SOL    HW2 2100   6.915   0.255   5.427
  401SOL     OW 2101   4.518   0.957   6.098
  401SOL    HW1 2102   4.528   0.885   6.167
  401SOL    HW2 2103   4.551   1.044   6.135
  402SOL     OW 2104   5.931   6.419   2.581
  402SOL    HW1 2105   5.873   6.424   2.499
  402SOL    HW2 2106   5.879   6.448   2.661
  403SOL     OW 2107   3.845   2.221   5.690
  403SOL    HW1 2108   3.758   2.176   5.671
  403SOL    HW2 2109   3.905   2.159   5.741
  404SOL     OW 2110   1.616   6.422   3.953
  404SOL    HW1 2111   1.586   6.497   4.012
  404SOL    HW2 2112   1.715   6.415   3.954
  405SOL     OW 2113   1.680   3.010   1.643
  405SOL    HW1 2114   1.581   3.020   1.640
  405SOL    HW2 2115   1.723   3.100   1.646
  406SOL     OW 2116   0.754   3.707   3.738
  406SOL    HW1 2117   0.805   3.706   3.824
  406SOL    HW2 2118   0.712   3.617   3.723
  407SOL     OW 2119   1.984   0.720   4.215
  407SOL    HW1 2120   1.990   0.751   4.121
  407SOL    HW2 2121   2.018   0.626   4.222
  408SOL     OW 2122   1.472   0.808   2.778
  408SOL    HW1 2123   1.503   0.746   2.705
  408SOL    HW2 2124   1.387   0.772   2.817
  409SOL     OW 2125   6.127   3.041   2.043
  409SOL    HW1 2126   6.105   3.119   2.101
  409SOL    HW2 2127   6.219   3.053   2.005
  410SOL     OW 2128   2.192   0.028   6.527
  410SOL    HW1 2129   2.271   6.994   6.550
  410SOL    HW2 2130   2.216   0.090   6.453
  411SOL     OW 2131   6.068   6.903   6.901
  411SOL    HW1 2132   6.105   6.867   6.986
  411SOL    HW2 2133   5.981   6.858   6.880
  412SOL     OW 2134   4.593   6.577   3.566
  412SOL    HW1 2135   4.507   6.616   3.534
  412SOL    HW2 2136   4.576   6.512   3.639
  413SOL     OW 2137   5.339   5.019   1.576
  413SOL    HW1 2138   5.354   4.979   1.667
  413SOL    HW2 2139   5.267   4.967   1.529
  414SOL     OW 2140   3.551   5.015   3.490
  414SOL    HW1 2141   3.561   5.111   3.515
  414SOL    HW2 2142   3.469   5.003   3.433
  415SOL     OW 2143   0.925   5.995   6.762
  415SOL    HW1 2144   0.902   5.934   6.686
  415SOL    HW2 2145   0.862   5.979   6.838
  416SOL     OW 2146   4.741   5.181   5.214
  416SOL    HW1 2147   4.736   5.258   5.151
  416SOL    HW2 2148   4.692   5.103   5.176
  417SOL     OW 2149   2.898   5.988   0.728
  417SOL    HW1 2150   2.834   6.056   0.762
  417SOL    HW2 2151   2.913   5.918   0.798
  418SOL     OW 2152   4.192   5.954   1.562
  418SOL    HW1 2153   4.258   6.004   1.507
  418SOL    HW2 2154   4.201   5.856   1.544
  419SOL     OW 2155   1.751   0.281   1.652
  419SOL    HW1 2156   1.828   0.344   1.660
  419SOL    HW2 2157   1.740   0.231   1.737
  420SOL     OW 2158   6.402   2.945   1.532
  420SOL    HW1 2159   6.414   2.947   1.433
  420SOL    HW2 2160   6.488   2.919   1.576
  421SOL     OW 2161   0.244   4.860   6.029
  421SOL    HW1 2162   0.340   4.884   6.039
  421SOL    HW2 2163   0.208   4.828   6.116
  422SOL     OW 2164   6.077   4.295   0.196
  422SOL    HW1 2165   6.025   4.381   0.199
  422SOL    HW2 2166   6.136   4.295   0.115
  423SOL     OW 2167   0.671   2.889   6.840
  423SOL    HW1 2168   0.729   2.933   6.908
  423SOL    HW2 2169   0.652   2.795   6.869
  424SOL     OW 2170   2.823   3.533   1.366
  424SOL    HW1 2171   2.831   3.501   1.461
  424SOL    HW2 2172   2.886   3.609   1.351
  425SOL     OW 2173   5.933   1.012   2.426
  425SOL    HW1 2174   5.862   1.039   2.362
  425SOL    HW2 2175   6.015   0.984   2.376
  426SOL     OW 2176   5.355   2.218   4.373
  426SOL    HW1 2177   5.404   2.304   4.359
  426SOL    HW2 2178   5.258   2.231   4.356
  427SOL     OW 2179   5.913   4.709   2.343
  427SOL    HW1 2180   5.819   4.734   2.318
  427SOL    HW2 2181   5.911   4.655   2.428
  428SOL     OW 2182   4.518   6.926   4.505
  428SOL    HW1 2183   4.577   7.006   4.515
  428SOL    HW2 2184   4.435   6.952   4.456
  429SOL     OW 2185   2.480   4.181   1.752
  429SOL    HW1 2186   2.558   4.241   1.736
  429SOL    HW2 2187   2.445   4.146   1.665
  430SOL     OW 2188   0.577   0.258   4.411
  430SOL    HW1 2189   0.571   0.353   4.441
  430SOL    HW2 2190   0.669   0.240   4.376
  431SOL     OW 2191   3.130   0.122   0.440
  431SOL    HW1 2192   3.042   0.124   0.391
  431SOL    HW2 2193   3.119   0.166   0.529
  432SOL     OW 2194   6.586   2.638   2.239
  432SOL    HW1 2195   6.566   2.625   2.336
  432SOL    HW2 2196   6.534   2.717   2.205
  433SOL     OW 2197   3.158   6.205   4.528
  433SOL    HW1 2198   3.165   6.138   4.455
  433SOL    HW2 2199   3.102   6.169   4.602
  434SOL     OW 2200   4.211   4.984   1.829
  434SOL    HW1 2201   4.223   5.046   1.906
  434SOL    HW2 2202   4.238   4.891   1.856
  435SOL     OW 2203   3.716   1.934   5.193
  435SOL    HW1 2204   3.620   1.906   5.197
  435SOL    HW2 2205   3.771   1.857   5.162
  436SOL     OW 2206   3.148   6.092   0.652
  436SOL    HW1 2207   3.060   6.058   0.686
  436SOL    HW2 2208   3.217   6.021   0.664
  437SOL     OW 2209   1.037   6.578   6.523
  437SOL    HW1 2210   1.074   6.564   6.615
  437SOL    HW2 2211   1.107   6.621   6.466
  438SOL     OW 2212   1.780   2.858   2.179
  438SOL    HW1 2213   1.820   2.805   2.254
  438SOL    HW2 2214   1.831   2.841   2.095
  439SOL     OW 2215   6.349   4.632   3.362
  439SOL    HW1 2216   6.314   4.559   3.303
  439SOL    HW2 2217   6.301   4.630   3.449
  440SOL     OW 2218   1.283   1.819   5.050
  440SOL    HW1 2219   1.226   1.799   5.130
  440SOL    HW2 2220   1.299   1.918   5.045
  441SOL     OW 2221   0.719   1.978   3.688
  441SOL    HW1 2222   0.684   2.070   3.675
  441SOL    HW2 2223   0.663   1.913   3.636
  442SOL     OW 2224   2.282   5.066   6.745
  442SOL    HW1 2225   2.378   5.081   6.771
  442SOL    HW2 2226   2.260   5.126   6.668
  443SOL     OW 2227   0.812   3.731   4.646
  443SOL    HW1 2228   0.781   3.746   4.739
  443SOL    HW2 2229   0.873   3.805   4.618
  444SOL     OW 2230   5.183   2.276   6.160
  444SOL    HW1 2231   5.132   2.302   6.078
  444SOL    HW2 2232   5.257   2.214   6.136
  445SOL     OW 2233   1.364   5.850   3.171
  445SOL    HW1 2234   1.390   5.832   3.266
  445SOL    HW2 2235   1.358   5.763   3.122
  446SOL     OW 2236   4.067   4.792   4.292
  446SOL    HW1 2237   4.135   4.745   4.235
  446SOL    HW2 2238   4.103   4.799   4.386
  447SOL     OW 2239   1.029   2.858   0.025
  447SOL    HW1 2240   1.070   2.941   0.063
  447SOL    HW2 2241   0.945   2.837   0.075
  448SOL     OW 2242   2.709   0.847   4.511
  448SOL    HW1 2243   2.799   0.830   4.472
  448SOL    HW2 2244   2.650   0.768   4.493
  449SOL     OW 2245   4.141   0.358   4.751
  449SOL    HW1 2246   4.222   0.299   4.738
  449SOL    HW2 2247   4.139   0.390   4.846
  450SOL     OW 2248   1.554   6.183   3.837
  450SOL    HW1 2249   1.563   6.269   3.886
  450SOL    HW2 2250   1.612   6.114   3.881
  451SOL     OW 2251   1.858   1.973   3.433
  451SOL    HW1 2252   1.840   2.037   3.358
  451SOL    HW2 2253   1.929   1.908   3.406
  452SOL     OW 2254   6.236   5.912   1.153
  452SOL    HW1 2255   6.192   5.826   1.127
  452SOL    HW2 2256   6.314   5.893   1.212
  453SOL     OW 2257   3.411   0.562   4.647
  453SOL    HW1 2258   3.485   0.568   4.580
  453SOL    HW2 2259   3.376   0.654   4.666
  454SOL     OW 2260   0.325   5.103   6.303
  454SOL    HW1 2261   0.378   5.060   6.230
  454SOL    HW2 2262   0.383   5.113   6.384
  455SOL     OW 2263   6.668   1.859   3.357
  455SOL    HW1 2264   6.712   1.830   3.441
  455SOL    HW2 2265   6.735   1.858   3.282
  456SOL     OW 2266   5.162   5.521   4.585
  456SOL    HW1 2267   5.136   5.582   4.510
  456SOL    HW2 2268   5.164   5.573   4.671
  457SOL     OW 2269   2.108   3.397   3.533
  457SOL    HW1 2270   2.017   3.357   3.540
  457SOL    HW2 2271   2.102   3.496   3.545
  458SOL     OW 2272   4.651   5.823   3.939
  458SOL    HW1 2273   4.694   5.733   3.946
  458SOL    HW2 2274   4.709   5.884   3.885
  459SOL     OW 2275   2.005   6.501   4.448
  459SOL    HW1 2276   2.027   6.451   4.364
  459SOL    HW2 2277   1.908   6.488   4.470
  460SOL     OW 2278   1.625   0.121   3.710
  460SOL    HW1 2279   1.665   0.030   3.726
  460SOL    HW2 2280   1.698   0.187   3.694
  461SOL     OW 2281   6.080   0.199   5.356
  461SOL    HW1 2282   6.149   0.272   5.359
  461SOL    HW2 2283   6.126   0.110   5.349
  462SOL     OW 2284   3.825   2.762   5.946
  462SOL    HW1 2285   3.745   2.785   5.890
  462SOL    HW2 2286   3.796   2.742   6.039
  463SOL     OW 2287   6.748   5.397   3.605
  463SOL    HW1 2288   6.734   5.365   3.512
  463SOL    HW2 2289   6.844   5.424   3.617
  464SOL     OW 2290   2.605   2.701   6.491
  464SOL    HW1 2291   2.634   2.624   6.548
  464SOL    HW2 2292   2.506   2.712   6.497
  465SOL     OW 2293   1.031   2.558   4.054
  465SOL    HW1 2294   0.987   2.647   4.062
  465SOL    HW2 2295   0.972   2.487   4.094
  466SOL     OW 2296   1.390   5.006   2.993
  466SOL    HW1 2297   1.366   4.956   3.076
  466SOL    HW2 2298   1.355   5.100   3.000
  467SOL     OW 2299   1.214   1.030   0.058
  467SOL    HW1 2300   1.157   1.023   6.999
  467SOL    HW2 2301   1.261   1.119   0.058
  468SOL     OW 2302   3.876   6.282   6.791
  468SOL    HW1 2303   3.829   6.201   6.824
  468SOL    HW2 2304   3.856   6.360   6.851
  469SOL     OW 2305   3.092   4.506   0.626
  469SOL    HW1 2306   3.134   4.417   0.605
  469SOL    HW2 2307   3.003   4.491   0.669
  470SOL     OW 2308   4.225   0.256   2.562
  470SOL    HW1 2309   4.261   0.178   2.613
  470SOL    HW2 2310   4.200   0.227   2.470
  471SOL     OW 2311   1.649   2.397   4.209
  471SOL    HW1 2312   1.623   2.317   4.263
  471SOL    HW2 2313   1.672   2.368   4.116
  472SOL     OW 2314   5.244   3.882   6.564
  472SOL    HW1 2315   5.269   3.954   6.500
  472SOL    HW2 2316   5.277   3.905   6.655
  473SOL     OW 2317   0.745   3.112   2.142
  473SOL    HW1 2318   0.733   3.056   2.224
  473SOL    HW2 2319   0.839   3.148   2.140
  474SOL     OW 2320   5.066   5.059   3.823
  474SOL    HW1 2321   4.993   5.101   3.769
  474SOL    HW2 2322   5.150   5.113   3.813
  475SOL     OW 2323   5.191   1.162   6.105
  475SOL    HW1 2324   5.120   1.153   6.174
  475SOL    HW2 2325   5.149   1.163   6.014
  476SOL     OW 2326   6.815   4.135   2.854
  476SOL    HW1 2327   6.904   4.172   2.883
  476SOL    HW2 2328   6.828   4.082   2.770
  477SOL     OW 2329   1.568   4.331   4.719
  477SOL    HW1 2330   1.480   4.283   4.714
  477SOL    HW2 2331   1.635   4.283   4.663
  478SOL     OW 2332   3.325   6.789   2.185
  478SOL    HW1 2333   3.338   6.707   2.128
  478SOL    HW2 2334   3.403   6.850   2.173
  479SOL     OW 2335   4.109   2.212   6.981
  479SOL    HW1 2336   4.034   2.149   7.001
  479SOL    HW2 2337   4.174   2.168   6.919
  480SOL     OW 2338   2.212   1.590   0.032
  480SOL    HW1 2339   2.202   1.657   0.106
  480SOL    HW2 2340   2.214   1.498   0.071
  481SOL     OW 2341   1.737   0.547   0.504
  481SOL    HW1 2342   1.780   0.637   0.504
  481SOL    HW2 2343   1.744   0.508   0.412
  482SOL     OW 2344   4.878   4.954   2.980
  482SOL    HW1 2345   4.829   4.932   2.895
  482SOL    HW2 2346   4.975   4.931   2.969
  483SOL     OW 2347   6.859   1.681   1.776
  483SOL    HW1 2348   6.918   1.674   1.856
  483SOL    HW2 2349   6.914   1.666   1.693
  484SOL     OW 2350   1.189   2.799   4.785
  484SOL    HW1 2351   1.139   2.726   4.831
  484SOL    HW2 2352   1.266   2.828   4.842
  485SOL     OW 2353   3.869   5.288   2.540
  485SOL    HW1 2354   3.868   5.261   2.443
  485SOL    HW2 2355   3.961   5.315   2.566
  486SOL     OW 2356   6.608   2.244   0.819
  486SOL    HW1 2357   6.622   2.149   0.848
  486SOL    HW2 2358   6.696   2.291   0.817
  487SOL     OW 2359   1.403   2.078   1.168
  487SOL    HW1 2360   1.435   2.162   1.124
  487SOL    HW2 2361   1.314   2.094   1.209
  488SOL     OW 2362   0.672   1.979   1.690
  488SOL    HW1 2363   0.666   1.945   1.784
  488SOL    HW2 2364   0.604   2.051   1.677
  489SOL     OW 2365   3.356   6.223   6.301
  489SOL    HW1 2366   3.338   6.132   6.338
  489SOL    HW2 2367   3.335   6.291   6.371
  490SOL     OW 2368   0.027   6.225   3.144
  490SOL    HW1 2369   6.989   6.260   3.215
  490SOL    HW2 2370   7.008   6.237   3.054
  491SOL     OW 2371   0.484   2.933   2.313
  491SOL    HW1 2372   0.487   2.868   2.237
  491SOL    HW2 2373   0.444   3.019   2.282
  492SOL     OW 2374   2.322   0.125   5.181
  492SOL    HW1 2375   2.270   0.065   5.242
  492SOL    HW2 2376   2.294   0.108   5.086
  493SOL     OW 2377   4.913   6.780   5.801
  493SOL    HW1 2378   4.875   6.780   5.708
  493SOL    HW2 2379   4.936   6.687   5.827
  494SOL     OW 2380   6.723   0.646   6.520
  494SOL    HW1 2381   6.733   0.616   6.614
  494SOL    HW2 2382   6.756   0.574   6.458
  495SOL     OW 2383   4.759   6.057   3.540
  495SOL    HW1 2384   4.694   6.112   3.592
  495SOL    HW2 2385   4.716   5.971   3.513
  496SOL     OW 2386   5.494   3.548   2.116
  496SOL    HW1 2387   5.449   3.626   2.071
  496SOL    HW2 2388   5.442   3.465   2.098
  497SOL     OW 2389   3.613   0.950   4.540
  497SOL    HW1 2390   3.582   0.883   4.472
  497SOL    HW2 2391   3.600   0.912   4.632
  498SOL     OW 2392   1.573   4.420   1.604
  498SOL    HW1 2393   1.509   4.379   1.669
  498SOL    HW2 2394   1.578   4.363   1.522
  499SOL     OW 2395   2.687   0.497   3.927
  499SOL    HW1 2396   2.778   0.512   3.966
  499SOL    HW2 2397   2.640   0.586   3.918
  500SOL     OW 2398   0.552   3.408   3.450
  500SOL    HW1 2399   0.582   3.492   3.407
  500SOL    HW2 2400   0.509   3.349   3.382
  501SOL     OW 2401   2.960   6.161   0.089
  501SOL    HW1 2402   2.964   6.162   0.189
  501SOL    HW2 2403   2.880   6.212   0.059
  502SOL     OW 2404   6.715   4.045   6.971
  502SOL    HW1 2405   6.725   3.964   0.007
  502SOL    HW2 2406   6.618   4.065   6.959
  503SOL     OW 2407   5.937   5.785   5.957
  503SOL    HW1 2408   5.926   5.687   5.939
  503SOL    HW2 2409   5.928   5.801   6.056
  504SOL     OW 2410   1.868   5.488   3.073
  504SOL    HW1 2411   1.900   5.583   3.078
  504SOL    HW2 2412   1.947   5.427   3.078
  505SOL     OW 2413   3.294   6.073   4.893
  505SOL    HW1 2414   3.336   6.073   4.983
  505SOL    HW2 2415   3.236   6.155   4.883
  506SOL     OW 2416   1.930   5.603   4.735
  506SOL    HW1 2417   1.954   5.643   4.823
  506SOL    HW2 2418   1.893   5.511   4.749
  507SOL     OW 2419   3.871   0.644   3.502
  507SOL    HW1 2420   3.885   0.727   3.555
  507SOL    HW2 2421   3.959   0.605   3.476
  508SOL     OW 2422   6.764   3.843   2.423
  508SOL    HW1 2423   6.687   3.849   2.360
  508SOL    HW2 2424   6.830   3.916   2.403
  509SOL     OW 2425   3.585   1.256   2.042
  509SOL    HW1 2426   3.662   1.318   2.028
  509SOL    HW2 2427   3.525   1.258   1.962
  510SOL     OW 2428   6.229   5.111   6.734
  510SOL    HW1 2429   6.228   5.022   6.780
  510SOL    HW2 2430   6.149   5.164   6.761
  511SOL     OW 2431   0.244   1.424   6.392
  511SOL    HW1 2432   0.212   1.515   6.366
  511SOL    HW2 2433   0.199   1.356   6.334
  512SOL     OW 2434   6.974   2.734   6.895
  512SOL    HW1 2435   0.016   2.716   6.969
  512SOL    HW2 2436   6.929   2.648   6.868
  513SOL     OW 2437   6.157   5.885   3.048
  513SOL    HW1 2438   6.059   5.903   3.046
  513SOL    HW2 2439   6.173   5.787   3.056
  514SOL     OW 2440   6.894   2.853   3.867
  514SOL    HW1 2441   6.968   2.878   3.929
  514SOL    HW2 2442   6.814   2.910   3.885
  515SOL     OW 2443   2.060   0.525   6.836
  515SOL    HW1 2444   1.970   0.554   6.869
  515SOL    HW2 2445   2.101   0.598   6.782
  516SOL     OW 2446   2.589   4.507   1.825
  516SOL    HW1 2447   2.611   4.464   1.738
  516SOL    HW2 2448   2.674   4.539   1.869
  517SOL     OW 2449   4.880   5.318   2.142
  517SOL    HW1 2450   4.789   5.325   2.183
  517SOL    HW2 2451   4.950   5.341   2.210
  518SOL     OW 2452   2.242   2.406   2.493
  518SOL    HW1 2453   2.306   2.483   2.488
  518SOL    HW2 2454   2.161   2.427   2.439
  519SOL     OW 2455   0.612   0.820   4.575
  519SOL    HW1 2456   0.671   0.770   4.512
  519SOL    HW2 2457   0.661   0.899   4.611
  520SOL     OW 2458   6.341   4.445   6.960
  520SOL    HW1 2459   6.419   4.495   6.923
  520SOL    HW2 2460   6.372   4.379   0.006
  521SOL     OW 2461   6.912   3.758   6.192
  521SOL    HW1 2462   6.885   3.820   6.265
  521SOL    HW2 2463   6.904   3.663   6.224
  522SOL     OW 2464   3.603   4.084   5.628
  522SOL    HW1 2465   3.650   4.160   5.674
  522SOL    HW2 2466   3.636   4.077   5.534
  523SOL     OW 2467   0.760   4.926   1.278
  523SOL    HW1 2468   0.780   4.839   1.232
  523SOL    HW2 2469   0.723   4.909   1.369
  524SOL     OW 2470   1.335   1.538   0.690
  524SOL    HW1 2471   1.409   1.474   0.709
  524SOL    HW2 2472   1.258   1.520   0.751
  525SOL     OW 2473   2.187   3.641   6.808
  525SOL    HW1 2474   2.262   3.605   6.753
  525SOL    HW2 2475   2.113   3.574   6.814
  526SOL     OW 2476   4.036   6.935   4.154
  526SOL    HW1 2477   4.018   6.961   4.059
  526SOL    HW2 2478   3.984   6.852   4.176
  527SOL     OW 2479   6.645   3.155   6.690
  527SOL    HW1 2480   6.649   3.202   6.602
  527SOL    HW2 2481   6.589   3.072   6.681
  528SOL     OW 2482   0.967   1.264   3.668
  528SOL    HW1 2483   1.051   1.220   3.701
  528SOL    HW2 2484   0.909   1.288   3.746
  529SOL     OW 2485   1.114   6.464   4.209
  529SOL    HW1 2486   1.213   6.474   4.218
  529SOL    HW2 2487   1.093   6.418   4.123
  530SOL     OW 2488   3.124   3.170   5.295
  530SOL    HW1 2489   3.109   3.082   5.250
  530SOL    HW2 2490   3.215   3.204   5.273
  531SOL     OW 2491   0.172   0.362   2.413
  531SOL    HW1 2492   0.111   0.380   2.491
  531SOL    HW2 2493   0.193   0.448   2.367
  532SOL     OW 2494   1.597   2.030   7.021
  532SOL    HW1 2495   1.658   2.107   0.019
  532SOL    HW2 2496   1.606   1.960   0.069
  533SOL     OW 2497   4.046   6.595   3.646
  533SOL    HW1 2498   4.006   6.686   3.654
  533SOL    HW2 2499   4.072   6.563   3.737
  534SOL     OW 2500   5.256   5.583   3.468
  534SOL    HW1 2501   5.181   5.521   3.444
  534SOL    HW2 2502   5.339   5.552   3.423
  535SOL     OW 2503   0.289   3.698   4.632
  535SOL    HW1 2504   0.308   3.705   4.535
  535SOL    HW2 2505   0.276   3.789   4.671
  536SOL     OW 2506   0.140   5.221   2.244
  536SOL    HW1 2507   0.226   5.255   2.281
  536SOL    HW2 2508   0.134   5.122   2.257
  537SOL     OW 2509   2.115   6.405   3.699
  537SOL    HW1 2510   2.112   6.501   3.728
  537SOL    HW2 2511   2.184   6.356   3.753
  538SOL     OW 2512   1.134   4.137   2.703
  538SOL    HW1 2513   1.123   4.150   2.605
  538SOL    HW2 2514   1.167   4.044   2.721
  539SOL     OW 2515   0.980   6.240   0.128
  539SOL    HW1 2516   1.010   6.325   0.085
  539SOL    HW2 2517   0.903   6.259   0.190
  540SOL     OW 2518   0.293   1.245   2.176
  540SOL    HW1 2519   0.280   1.322   2.238
  540SOL    HW2 2520   0.304   1.278   2.082
  541SOL     OW 2521   3.310   6.222   3.745
  541SOL    HW1 2522   3.346   6.314   3.764
  541SOL    HW2 2523   3.243   6.198   3.815
  542SOL     OW 2524   6.693   0.159   0.217
  542SOL    HW1 2525   6.704   0.258   0.204
  542SOL    HW2 2526   6.706   0.112   0.130
  543SOL     OW 2527   1.359   4.932   5.407
  543SOL    HW1 2528   1.396   4.910   5.498
  543SOL    HW2 2529   1.303   5.014   5.413
  544SOL     OW 2530   1.845   4.339   1.313
  544SOL    HW1 2531   1.833   4.438   1.306
  544SOL    HW2 2532   1.781   4.293   1.252
  545SOL     OW 2533   3.451   0.577   3.134
  545SOL    HW1 2534   3.540   0.587   3.090
  545SOL    HW2 2535   3.457   0.510   3.208
  546SOL     OW 2536   1.945   3.287   0.197
  546SOL    HW1 2537   1.982   3.362   0.142
  546SOL    HW2 2538   2.004   3.207   0.188
  547SOL     OW 2539   2.751   1.679   6.897
  547SOL    HW1 2540   2.829   1.735   6.927
  547SOL    HW2 2541   2.728   1.702   6.802
  548SOL     OW 2542   3.862   3.076   2.016
  548SOL    HW1 2543   3.786   3.132   2.048
  548SOL    HW2 2544   3.939   3.086   2.079
  549SOL     OW 2545   4.470   2.996   1.142
  549SOL    HW1 2546   4.396   3.009   1.209
  549SOL    HW2 2547   4.554   2.973   1.191
  550SOL     OW 2548   6.590   4.769   3.406
  550SOL    HW1 2549   6.585   4.868   3.404
  550SOL    HW2 2550   6.498   4.731   3.397
  551SOL     OW 2551   0.818   0.506   1.190
  551SOL    HW1 2552   0.886   0.471   1.255
  551SOL    HW2 2553   0.843   0.479   1.097
  552SOL     OW 2554   4.555   5.078   0.910
  552SOL    HW1 2555   4.527   4.996   0.960
  552SOL    HW2 2556   4.585   5.052   0.818
  553SOL     OW 2557   2.625   6.742   1.976
  553SOL    HW1 2558   2.595   6.753   2.071
  553SOL    HW2 2559   2.717   6.703   1.975
  554SOL     OW 2560   5.509   6.567   5.591
  554SOL    HW1 2561   5.464   6.571   5.502
  554SOL    HW2 2562   5.544   6.658   5.615
  555SOL     OW 2563   2.116   5.112   3.477
  555SOL    HW1 2564   2.128   5.089   3.380
  555SOL    HW2 2565   2.154   5.202   3.495
  556SOL     OW 2566   5.859   2.413   4.095
  556SOL    HW1 2567   5.899   2.484   4.153
  556SOL    HW2 2568   5.782   2.451   4.043
  557SOL     OW 2569   0.410   5.004   0.438
  557SOL    HW1 2570   0.459   5.025   0.353
  557SOL    HW2 2571   0.467   4.947   0.496
  558SOL     OW 2572   3.222   4.115   4.993
  558SOL    HW1 2573   3.144   4.129   5.055
  558SOL    HW2 2574   3.189   4.071   4.909
  559SOL     OW 2575   6.350   6.039   6.661
  559SOL    HW1 2576   6.415   6.041   6.737
  559SOL    HW2 2577   6.368   5.958   6.604
  560SOL     OW 2578   3.914   5.415   6.899
  560SOL    HW1 2579   3.978   5.369   6.837
  560SOL    HW2 2580   3.861   5.348   6.950
  561SOL     OW 2581   6.152   0.996   6.994
  561SOL    HW1 2582   6.228   1.048   0.011
  561SOL    HW2 2583   6.148   1.013   6.896
  562SOL     OW 2584   4.311   0.664   6.066
  562SOL    HW1 2585   4.392   0.631   6.113
  562SOL    HW2 2586   4.266   0.734   6.122
  563SOL     OW 2587   2.326   6.899   3.505
  563SOL    HW1 2588   2.345   6.838   3.429
  563SOL    HW2 2589   2.332   6.994   3.475
  564SOL     OW 2590   2.676   1.762   6.618
  564SOL    HW1 2591   2.639   1.687   6.563
  564SOL    HW2 2592   2.602   1.819   6.651
  565SOL     OW 2593   4.130   3.288   5.755
  565SOL    HW1 2594   4.088   3.301   5.845
  565SOL    HW2 2595   4.090   3.352   5.690
  566SOL     OW 2596   6.094   3.827   3.660
  566SOL    HW1 2597   6.022   3.851   3.594
  566SOL    HW2 2598   6.174   3.884   3.643
  567SOL     OW 2599   3.644   4.089   3.540
  567SOL    HW1 2600   3.733   4.055   3.571
  567SOL    HW2 2601   3.584   4.102   3.619
  568SOL     OW 2602   3.544   2.524   0.333
  568SOL    HW1 2603   3.516   2.558   0.243
  568SOL    HW2 2604   3.465   2.527   0.395
  569SOL     OW 2605   1.720   3.481   0.222
  569SOL    HW1 2606   1.687   3.413   0.157
  569SOL    HW2 2607   1.768   3.436   0.298
  570SOL     OW 2608   1.967   6.286   6.037
  570SOL    HW1 2609   2.056   6.320   6.007
  570SOL    HW2 2610   1.908   6.363   6.061
  571SOL     OW 2611   3.437   7.017   2.839
  571SOL    HW1 2612   3.462   0.011   2.934
  571SOL    HW2 2613   3.411   6.921   2.829
  572SOL     OW 2614   2.436   5.106   5.393
  572SOL    HW1 2615   2.370   5.081   5.463
  572SOL    HW2 2616   2.447   5.031   5.329
  573SOL     OW 2617   4.340   1.443   5.085
  573SOL    HW1 2618   4.291   1.360   5.111
  573SOL    HW2 2619   4.285   1.523   5.108
  574SOL     OW 2620   2.142   2.302   3.727
  574SOL    HW1 2621   2.135   2.402   3.732
  574SOL    HW2 2622   2.167   2.275   3.634
  575SOL     OW 2623   6.546   3.389   5.988
  575SOL    HW1 2624   6.555   3.355   5.894
  575SOL    HW2 2625   6.514   3.484   5.986
  576SOL     OW 2626   1.400   2.282   2.020
  576SOL    HW1 2627   1.476   2.227   1.984
  576SOL    HW2 2628   1.415   2.378   1.999
  577SOL     OW 2629   1.670   0.803   2.999
  577SOL    HW1 2630   1.761   0.778   2.967
  577SOL    HW2 2631   1.625   0.862   2.932
  578SOL     OW 2632   6.768   3.970   3.421
  578SOL    HW1 2633   6.792   3.948   3.516
  578SOL    HW2 2634   6.749   4.067   3.413
  579SOL     OW 2635   3.070   2.355   1.103
  579SOL    HW1 2636   3.054   2.257   1.118
  579SOL    HW2 2637   3.050   2.406   1.186
  580SOL     OW 2638   0.188   4.147   6.749
  580SOL    HW1 2639   0.139   4.118   6.832
  580SOL    HW2 2640   0.272   4.093   6.740
  581SOL     OW 2641   3.385   3.266   3.082
  581SOL    HW1 2642   3.393   3.277   2.983
  581SOL    HW2 2643   3.330   3.185   3.102
  582SOL     OW 2644   5.389   5.186   2.910
  582SOL    HW1 2645   5.481   5.151   2.894
  582SOL    HW2 2646   5.375   5.200   3.008
  583SOL     OW 2647   2.520   4.922   6.276
  583SOL    HW1 2648   2.526   4.944   6.374
  583SOL    HW2 2649   2.608   4.889   6.244
  584SOL     OW 2650   1.239   5.239   5.430
  584SOL    HW1 2651   1.278   5.330   5.415
  584SOL    HW2 2652   1.148   5.235   5.388
  585SOL     OW 2653   6.350   2.774   6.075
  585SOL    HW1 2654   6.277   2.842   6.070
  585SOL    HW2 2655   6.439   2.820   6.076
  586SOL     OW 2656   3.021   0.540   6.720
  586SOL    HW1 2657   2.982   0.457   6.761
  586SOL    HW2 2658   3.110   0.519   6.680
  587SOL     OW 2659   2.727   2.132   5.172
  587SOL    HW1 2660   2.812   2.148   5.222
  587SOL    HW2 2661   2.732   2.180   5.084
  588SOL     OW 2662   2.393   5.441   0.725
  588SOL    HW1 2663   2.432   5.424   0.634
  588SOL    HW2 2664   2.306   5.394   0.733
  589SOL     OW 2665   3.980   4.879   1.711
  589SOL    HW1 2666   4.022   4.831   1.634
  589SOL    HW2 2667   4.050   4.932   1.759
  590SOL     OW 2668   6.161   2.838   1.501
  590SOL    HW1 2669   6.259   2.842   1.524
  590SOL    HW2 2670   6.132   2.927   1.467
  591SOL     OW 2671   4.079   6.665   3.934
  591SOL    HW1 2672   4.137   6.743   3.908
  591SOL    HW2 2673   4.136   6.592   3.970
  592SOL     OW 2674   4.315   0.068   1.077
  592SOL    HW1 2675   4.329   7.005   1.027
  592SOL    HW2 2676   4.402   0.101   1.113
  593SOL     OW 2677   4.227   2.135   3.646
  593SOL    HW1 2678   4.208   2.038   3.661
  593SOL    HW2 2679   4.187   2.190   3.720
  594SOL     OW 2680   4.475   2.556   6.277
  594SOL    HW1 2681   4.405   2.485   6.288
  594SOL    HW2 2682   4.563   2.520   6.308
  595SOL     OW 2683   4.824   6.479   3.466
  595SOL    HW1 2684   4.729   6.504   3.478
  595SOL    HW2 2685   4.876   6.498   3.549
  596SOL     OW 2686   0.995   3.233   1.679
  596SOL    HW1 2687   0.967   3.270   1.768
  596SOL    HW2 2688   0.923   3.249   1.612
  597SOL     OW 2689   4.783   0.366   5.362
  597SOL    HW1 2690   4.878   0.338   5.356
  597SOL    HW2 2691   4.742   0.328   5.445
  598SOL     OW 2692   3.570   4.100   6.955
  598SOL    HW1 2693   3.656   4.077   7.000
  598SOL    HW2 2694   3.570   4.196   6.929
  599SOL     OW 2695   1.373   0.101   2.945
  599SOL    HW1 2696   1.446   0.144   2.891
  599SOL    HW2 2697   1.337   0.167   3.010
  600SOL     OW 2698   1.427   0.859   1.324
  600SOL    HW1 2699   1.432   0.886   1.228
  600SOL    HW2 2700   1.444   0.761   1.332
  601SOL     OW 2701   2.956   5.789   3.956
  601SOL    HW1 2702   3.039   5.828   3.995
  601SOL    HW2 2703   2.878   5.807   4.016
  602SOL     OW 2704   1.308   2.031   6.896
  602SOL    HW1 2705   1.296   1.945   6.846
  602SOL    HW2 2706   1.400   2.037   6.933
  603SOL     OW 2707   4.270   2.091   4.105
  603SOL    HW1 2708   4.295   1.997   4.084
  603SOL    HW2 2709   4.281   2.108   4.203
  604SOL     OW 2710   0.540   3.929   1.292
  604SOL    HW1 2711   0.484   3.869   1.348
  604SOL    HW2 2712   0.636   3.917   1.317
  605SOL     OW 2713   6.596   5.274   2.921
  605SOL    HW1 2714   6.651   5.355   2.938
  605SOL    HW2 2715   6.628   5.199   2.978
  606SOL     OW 2716   4.966   0.583   5.757
  606SOL    HW1 2717   5.013   0.498   5.734
  606SOL    HW2 2718   4.912   0.570   5.840
  607SOL     OW 2719   5.110   0.454   5.167
  607SOL    HW1 2720   5.018   0.416   5.182
  607SOL    HW2 2721   5.134   0.446   5.070
  608SOL     OW 2722   3.828   6.586   0.364
  608SOL    HW1 2723   3.783   6.497   0.368
  608SOL    HW2 2724   3.759   6.658   0.356
  609SOL     OW 2725   3.287   3.431   4.408
  609SOL    HW1 2726   3.327   3.339   4.417
  609SOL    HW2 2727   3.209   3.427   4.345
  610SOL     OW 2728   5.593   2.341   3.249
  610SOL    HW1 2729   5.579   2.402   3.327
  610SOL    HW2 2730   5.552   2.252   3.267
  611SOL     OW 2731   1.151   0.097   6.508
  611SOL    HW1 2732   1.121   0.180   6.553
  611SOL    HW2 2733   1.247   0.080   6.530
  612SOL     OW 2734   3.532   5.681   5.835
  612SOL    HW1 2735   3.626   5.684   5.800
  612SOL    HW2 2736   3.468   5.683   5.758
  613SOL     OW 2737   5.071   6.965   5.541
  613SOL    HW1 2738   4.981   6.943   5.505
  613SOL    HW2 2739   5.071   0.037   5.574
  614SOL     OW 2740   6.404   4.496   0.769
  614SOL    HW1 2741   6.333   4.452   0.713
  614SOL    HW2 2742   6.462   4.426   0.810
  615SOL     OW 2743   0.905   1.778   0.948
  615SOL    HW1 2744   0.932   1.694   0.901
  615SOL    HW2 2745   0.957   1.786   1.033
  616SOL     OW 2746   5.653   1.749   3.350
  616SOL    HW1 2747   5.667   1.688   3.428
  616SOL    HW2 2748   5.563   1.732   3.311
  617SOL     OW 2749   0.196   3.409   6.781
  617SOL    HW1 2750   0.118   3.387   6.723
  617SOL    HW2 2751   0.236   3.325   6.818
  618SOL     OW 2752   6.379   3.510   0.755
  618SOL    HW1 2753   6.430   3.458   0.823
  618SOL    HW2 2754   6.352   3.598   0.793
  619SOL     OW 2755   3.897   6.875   6.565
  619SOL    HW1 2756   3.910   6.807   6.492
  619SOL    HW2 2757   3.978   6.933   6.572
  620SOL     OW 2758   5.892   2.834   1.058
  620SOL    HW1 2759   5.798   2.865   1.043
  620SOL    HW2 2760   5.897   2.785   1.145
  621SOL     OW 2761   1.983   0.034   5.371
  621SOL    HW1 2762   2.064   7.016   5.328
  621SOL    HW2 2763   1.930   0.083   5.301
  622SOL     OW 2764   0.506   2.192   5.440
  622SOL    HW1 2765   0.432   2.225   5.381
  622SOL    HW2 2766   0.593   2.200   5.392
  623SOL     OW 2767   0.295   0.291   4.780
  623SOL    HW1 2768   0.294   0.359   4.853
  623SOL    HW2 2769   0.219   0.309   4.717
  624SOL     OW 2770   6.372   1.189   0.014
  624SOL    HW1 2771   6.341   1.246   6.960
  624SOL    HW2 2772   6.440   1.123   7.005
  625SOL     OW 2773   1.530   1.742   0.706
  625SOL    HW1 2774   1.453   1.679   0.703
  625SOL    HW2 2775   1.550   1.766   0.801
  626SOL     OW 2776   0.933   5.479   2.857
  626SOL    HW1 2777   1.005   5.459   2.924
  626SOL    HW2 2778   0.959   5.559   2.804
  627SOL     OW 2779   6.333   6.691   0.048
  627SOL    HW1 2780   6.340   6.691   6.972
  627SOL    HW2 2781   6.404   6.631   0.087
  628SOL     OW 2782   5.736   4.066   4.994
  628SOL    HW1 2783   5.766   4.140   5.055
  628SOL    HW2 2784   5.731   3.981   5.045
  629SOL     OW 2785   0.502   0.765   6.946
  629SOL    HW1 2786   0.464   0.672   6.943
  629SOL    HW2 2787   0.486   0.810   6.858
  630SOL     OW 2788   0.277   2.188   0.613
  630SOL    HW1 2789   0.235   2.109   0.658
  630SOL    HW2 2790   0.358   2.158   0.562
  631SOL     OW 2791   3.806   1.752   4.328
  631SOL    HW1 2792   3.848   1.816   4.264
  631SOL    HW2 2793   3.877   1.707   4.382
  632SOL     OW 2794   3.955   2.789   0.979
  632SOL    HW1 2795   3.911   2.879   0.980
  632SOL    HW2 2796   4.053   2.800   0.963
  633SOL     OW 2797   2.750   4.240   0.191
  633SOL    HW1 2798   2.652   4.221   0.193
  633SOL    HW2 2799   2.766   4.332   0.227
  634SOL     OW 2800   4.015   3.332   3.084
  634SOL    HW1 2801   3.934   3.387   3.104
  634SOL    HW2 2802   3.998   3.237   3.110
  635SOL     OW 2803   4.997   6.954   6.949
  635SOL    HW1 2804   5.073   6.902   6.909
  635SOL    HW2 2805   4.998   6.941   0.025
  636SOL     OW 2806   3.110   0.092   5.937
  636SOL    HW1 2807   3.108   0.114   5.840
  636SOL    HW2 2808   3.093   7.017   5.949
  637SOL     OW 2809   5.766   2.234   2.729
  637SOL    HW1 2810   5.791   2.281   2.644
  637SOL    HW2 2811   5.671   2.255   2.752
  638SOL     OW 2812   5.650   3.688   3.928
  638SOL    HW1 2813   5.686   3.595   3.936
  638SOL    HW2 2814   5.625   3.723   4.018
  639SOL     OW 2815   5.633   4.317   3.968
  639SOL    HW1 2816   5.568   4.393   3.977
  639SOL    HW2 2817   5.619   4.271   3.880
  640SOL     OW 2818   6.898   4.697   3.602
  640SOL    HW1 2819   6.878   4.605   3.567
  640SOL    HW2 2820   6.981   4.732   3.557
  641SOL     OW 2821   1.058   4.528   4.584
  641SOL    HW1 2822   1.152   4.539   4.552
  641SOL    HW2 2823   1.034   4.603   4.645
  642SOL     OW 2824   1.265   2.335   4.530
  642SOL    HW1 2825   1.277   2.427   4.569
  642SOL    HW2 2826   1.334   2.274   4.569
  643SOL     OW 2827   5.918   0.553   6.707
  643SOL    HW1 2828   5.952   0.465   6.675
  643SOL    HW2 2829   5.993   0.618   6.713
  644SOL     OW 2830   1.547   0.631   4.586
  644SOL    HW1 2831   1.462   0.644   4.535
  644SOL    HW2 2832   1.575   0.717   4.628
  645SOL     OW 2833   3.314   5.169   4.037
  645SOL    HW1 2834   3.297   5.211   4.126
  645SOL    HW2 2835   3.232   5.175   3.981
  646SOL     OW 2836   3.695   0.593   4.551
  646SOL    HW1 2837   3.758   0.529   4.508
  646SOL    HW2 2838   3.742   0.645   4.622
  647SOL     OW 2839   5.770   1.773   5.067
  647SOL    HW1 2840   5.678   1.811   5.079
  647SOL    HW2 2841   5.779   1.737   4.974
  648SOL     OW 2842   6.893   3.540   3.460
  648SOL    HW1 2843   6.913   3.632   3.427
  648SOL    HW2 2844   6.809   3.507   3.418
  649SOL     OW 2845   2.203   3.920   0.815
  649SOL    HW1 2846   2.186   3.908   0.717
  649SOL    HW2 2847   2.186   3.834   0.863
  650SOL     OW 2848   6.831   5.410   0.652
  650SOL    HW1 2849   6.913   5.368   0.613
  650SOL    HW2 2850   6.841   5.417   0.752
  651SOL     OW 2851   1.562   0.484   5.726
  651SOL    HW1 2852   1.637   0.433   5.767
  651SOL    HW2 2853   1.475   0.450   5.762
  652SOL     OW 2854   4.447   6.761   2.052
  652SOL    HW1 2855   4.519   6.811   2.100
  652SOL    HW2 2856   4.448   6.787   1.955
  653SOL     OW 2857   0.477   6.254   0.474
  653SOL    HW1 2858   0.536   6.331   0.497
  653SOL    HW2 2859   0.473   6.190   0.550
  654SOL     OW 2860   6.637   6.520   6.250
  654SOL    HW1 2861   6.729   6.482   6.261
  654SOL    HW2 2862   6.574   6.447   6.222
  655SOL     OW 2863   6.794   5.464   1.785
  655SOL    HW1 2864   6.820   5.377   1.827
  655SOL    HW2 2865   6.822   5.539   1.844
  656SOL     OW 2866   2.568   6.367   0.322
  656SOL    HW1 2867   2.621   6.380   0.406
  656SOL    HW2 2868   2.521   6.453   0.300
  657SOL     OW 2869   3.482   3.838   0.866
  657SOL    HW1 2870   3.553   3.788   0.915
  657SOL    HW2 2871   3.408   3.775   0.840
  658SOL     OW 2872   1.411   4.140   5.762
  658SOL    HW1 2873   1.490   4.148   5.822
  658SOL    HW2 2874   1.431   4.187   5.676
  659SOL     OW 2875   2.629   5.596   4.284
  659SOL    HW1 2876   2.603   5.690   4.308
  659SOL    HW2 2877   2.566   5.560   4.216
  660SOL     OW 2878   4.319   4.655   2.395
  660SOL    HW1 2879   4.272   4.677   2.309
  660SOL    HW2 2880   4.417   4.643   2.376
  661SOL     OW 2881   4.687   4.257   4.502
  661SOL    HW1 2882   4.670   4.167   4.542
  661SOL    HW2 2883   4.780   4.260   4.464
  662SOL     OW 2884   4.379   1.447   6.601
  662SOL    HW1 2885   4.327   1.529   6.577
  662SOL    HW2 2886   4.334   1.366   6.563
  663SOL     OW 2887   0.253   4.937   0.072
  663SOL    HW1 2888   0.245   4.965   6.999
  663SOL    HW2 2889   0.344   4.961   0.106
  664SOL     OW 2890   1.511   5.448   6.605
  664SOL    HW1 2891   1.452   5.421   6.528
  664SOL    HW2 2892   1.604   5.418   6.588
  665SOL     OW 2893   4.145   5.608   0.887
  665SOL    HW1 2894   4.127   5.510   0.878
  665SOL    HW2 2895   4.231   5.621   0.937
  666SOL     OW 2896   4.141   2.339   0.988
  666SOL    HW1 2897   4.069   2.376   1.046
  666SOL    HW2 2898   4.210   2.294   1.044
  667SOL     OW 2899   0.497   3.625   3.938
  667SOL    HW1 2900   0.576   3.671   3.897
  667SOL    HW2 2901   0.515   3.527   3.945
  668SOL     OW 2902   4.953   5.495   0.157
  668SOL    HW1 2903   4.885   5.555   0.114
  668SOL    HW2 2904   4.966   5.523   0.252
  669SOL     OW 2905   2.197   5.892   2.983
  669SOL    HW1 2906   2.187   5.892   2.884
  669SOL    HW2 2907   2.122   5.840   3.025
  670SOL     OW 2908   3.293   3.500   2.352
  670SOL    HW1 2909   3.263   3.452   2.270
  670SOL    HW2 2910   3.228   3.572   2.375
  671SOL     OW 2911   2.718   5.920   6.132
  671SOL    HW1 2912   2.767   6.007   6.120
  671SOL    HW2 2913   2.738   5.884   6.223
  672SOL     OW 2914   0.691   3.839   2.390
  672SOL    HW1 2915   0.725   3.901   2.461
  672SOL    HW2 2916   0.737   3.860   2.304
  673SOL     OW 2917   4.582   0.344   0.978
  673SOL    HW1 2918   4.527   0.424   1.000
  673SOL    HW2 2919   4.572   0.275   1.050
  674SOL     OW 2920   0.424   3.335   4.230
  674SOL    HW1 2921   0.510   3.385   4.220
  674SOL    HW2 2922   0.396   3.299   4.141
  675SOL     OW 2923   0.728   1.256   4.856
  675SOL    HW1 2924   0.765   1.346   4.877
  675SOL    HW2 2925   0.723   1.244   4.756
  676SOL     OW 2926   3.141   5.163   3.218
  676SOL    HW1 2927   3.056   5.149   3.168
  676SOL    HW2 2928   3.160   5.261   3.224
  677SOL     OW 2929   5.604   1.423   6.340
  677SOL    HW1 2930   5.546   1.352   6.299
  677SOL    HW2 2931   5.564   1.513   6.322
  678SOL     OW 2932   2.143   1.606   5.309
  678SOL    HW1 2933   2.163   1.523   5.256
  678SOL    HW2 2934   2.224   1.665   5.310
  679SOL     OW 2935   4.022   0.932   4.701
  679SOL    HW1 2936   3.998   0.835   4.704
  679SOL    HW2 2937   4.063   0.959   4.788
  680SOL     OW 2938   6.164   4.998   6.103
  680SOL    HW1 2939   6.064   5.001   6.094
  680SOL    HW2 2940   6.206   5.028   6.017
  681SOL     OW 2941   6.165   0.394   0.947
  681SOL    HW1 2942   6.135   0.322   1.009
  681SOL    HW2 2943   6.140   0.369   0.853
  682SOL     OW 2944   1.966   6.396   6.896
  682SOL    HW1 2945   2.004   6.482   6.930
  682SOL    HW2 2946   2.039   6.342   6.853
  683SOL     OW 2947   3.132   0.548   6.169
  683SOL    HW1 2948   3.111   0.450   6.164
  683SOL    HW2 2949   3.052   0.597   6.202
  684SOL     OW 2950   6.262   1.649   6.401
  684SOL    HW1 2951   6.219   1.584   6.339
  684SOL    HW2 2952   6.200   1.668   6.477
  685SOL     OW 2953   4.994   0.178   5.664
  685SOL    HW1 2954   4.931   0.253   5.644
  685SOL    HW2 2955   5.023   0.183   5.760
  686SOL     OW 2956   5.458   2.983   3.467
  686SOL    HW1 2957   5.456   2.979   3.367
  686SOL    HW2 2958   5.495   3.070   3.497
  687SOL     OW 2959   6.833   2.778   5.421
  687SOL    HW1 2960   6.879   2.702   5.467
  687SOL    HW2 2961   6.734   2.761   5.420
  688SOL     OW 2962   1.950   4.293   6.891
  688SOL    HW1 2963   1.933   4.219   6.827
  688SOL    HW2 2964   1.972   4.377   6.841
  689SOL     OW 2965   0.425   4.461   5.294
  689SOL    HW1 2966   0.326   4.470   5.282
  689SOL    HW2 2967   0.472   4.523   5.231
  690SOL     OW 2968   0.363   3.755   3.228
  690SOL    HW1 2969   0.315   3.688   3.284
  690SOL    HW2 2970   0.322   3.757   3.136
  691SOL     OW 2971   2.373   1.646   6.651
  691SOL    HW1 2972   2.379   1.668   6.748
  691SOL    HW2 2973   2.276   1.635   6.626
  692SOL     OW 2974   3.335   6.743   3.871
  692SOL    HW1 2975   3.298   6.807   3.804
  692SOL    HW2 2976   3.260   6.706   3.927
  693SOL     OW 2977   6.677   1.507   3.451
  693SOL    HW1 2978   6.752   1.442   3.442
  693SOL    HW2 2979   6.616   1.477   3.525
  694SOL     OW 2980   3.314   5.687   2.268
  694SOL    HW1 2981   3.248   5.698   2.194
  694SOL    HW2 2982   3.269   5.650   2.349
  695SOL     OW 2983   5.306   4.737   5.814
  695SOL    HW1 2984   5.344   4.677   5.884
  695SOL    HW2 2985   5.295   4.829   5.852
  696SOL     OW 2986   3.185   5.055   1.773
  696SOL    HW1 2987   3.241   4.974   1.787
  696SOL    HW2 2988   3.153   5.088   1.862
  697SOL     OW 2989   1.269   2.851   5.468
  697SOL    HW1 2990   1.197   2.789   5.501
  697SOL    HW2 2991   1.281   2.838   5.370
  698SOL     OW 2992   5.873   0.196   5.167
  698SOL    HW1 2993   5.835   0.288   5.158
  698SOL    HW2 2994   5.938   0.194   5.243
  699SOL     OW 2995   0.738   4.223   6.991
  699SOL    HW1 2996   0.789   4.138   6.978
  699SOL    HW2 2997   0.770   4.268   0.051
  700SOL     OW 2998   3.302   1.923   3.502
  700SOL    HW1 2999   3.311   1.838   3.554
  700SOL    HW2 3000   3.364   1.921   3.424
  701SOL     OW 3001   0.699   4.569   6.258
  701SOL    HW1 3002   0.731   4.483   6.219
  701SOL    HW2 3003   0.720   4.644   6.196
  702SOL     OW 3004   5.653   6.169   6.468
  702SOL    HW1 3005   5.570   6.151   6.520
  702SOL    HW2 3006   5.672   6.268   6.468
  703SOL     OW 3007   4.487   3.639   6.628
  703SOL    HW1 3008   4.422   3.571   6.661
  703SOL    HW2 3009   4.490   3.635   6.528
  704SOL     OW 3010   1.822   1.543   6.097
  704SOL    HW1 3011   1.759   1.597   6.041
  704SOL    HW2 3012   1.824   1.579   6.190
  705SOL     OW 3013   5.215   6.914   3.833
  705SOL    HW1 3014   5.281   6.936   3.904
  705SOL    HW2 3015   5.241   6.828   3.788
  706SOL     OW 3016   3.760   2.142   3.348
  706SOL    HW1 3017   3.847   2.174   3.387
  706SOL    HW2 3018   3.686   2.163   3.412
  707SOL     OW 3019   4.531   0.003   2.668
  707SOL    HW1 3020   4.621   0.034   2.638
  707SOL    HW2 3021   4.506   0.050   2.752
  708SOL     OW 3022   4.179   0.293   0.739
  708SOL    HW1 3023   4.133   0.236   0.807
  708SOL    HW2 3024   4.272   0.259   0.725
  709SOL     OW 3025   1.366   5.390   0.528
  709SOL    HW1 3026   1.400   5.459   0.464
  709SOL    HW2 3027   1.270   5.409   0.550
  710SOL     OW 3028   4.065   3.567   2.486
  710SOL    HW1 3029   4.138   3.607   2.540
  710SOL    HW2 3030   3.978   3.579   2.533
  711SOL     OW 3031   0.879   1.890   6.102
  711SOL    HW1 3032   0.869   1.989   6.091
  711SOL    HW2 3033   0.915   1.870   6.194
  712SOL     OW 3034   2.168   4.255   1.199
  712SOL    HW1 3035   2.117   4.202   1.267
  712SOL    HW2 3036   2.138   4.350   1.201
  713SOL     OW 3037   3.230   3.970   0.604
  713SOL    HW1 3038   3.215   3.886   0.656
  713SOL    HW2 3039   3.274   4.039   0.661
  714SOL     OW 3040   6.206   4.708   5.083
  714SOL    HW1 3041   6.192   4.781   5.017
  714SOL    HW2 3042   6.118   4.679   5.120
  715SOL     OW 3043   4.801   5.989   0.437
  715SOL    HW1 3044   4.706   5.980   0.407
  715SOL    HW2 3045   4.807   6.064   0.504
  716SOL     OW 3046   1.126   6.331   0.790
  716SOL    HW1 3047   1.031   6.360   0.799
  716SOL    HW2 3048   1.142   6.296   0.697
  717SOL     OW 3049   5.829   5.157   6.401
  717SOL    HW1 3050   5.738   5.169   6.441
  717SOL    HW2 3051   5.895   5.213   6.452
  718SOL     OW 3052   4.057   2.121   6.068
  718SOL    HW1 3053   4.065   2.086   6.162
  718SOL    HW2 3054   3.984   2.189   6.064
  719SOL     OW 3055   6.041   2.424   1.808
  719SOL    HW1 3056   6.084   2.355   1.750
  719SOL    HW2 3057   6.089   2.512   1.797
  720SOL     OW 3058   3.153   1.055   6.114
  720SOL    HW1 3059   3.174   1.137   6.061
  720SOL    HW2 3060   3.209   0.979   6.082
  721SOL     OW 3061   1.489   7.022   4.790
  721SOL    HW1 3062   1.465   0.085   4.746
  721SOL    HW2 3063   1.441   7.015   4.878
  722SOL     OW 3064   3.148   6.664   5.070
  722SOL    HW1 3065   3.088   6.744   5.079
  722SOL    HW2 3066   3.211   6.677   4.993
  723SOL     OW 3067   2.203   2.987   2.252
  723SOL    HW1 3068   2.293   3.005   2.213
  723SOL    HW2 3069   2.195   2.890   2.275
  724SOL     OW 3070   1.088   1.185   4.453
  724SOL    HW1 3071   1.065   1.216   4.361
  724SOL    HW2 3072   1.168   1.236   4.486
  725SOL     OW 3073   2.899   5.114   1.453
  725SOL    HW1 3074   2.923   5.018   1.439
  725SOL    HW2 3075   2.837   5.121   1.531
  726SOL     OW 3076   4.125   4.743   0.949
  726SOL    HW1 3077   4.189   4.679   0.991
  726SOL    HW2 3078   4.066   4.783   1.019
  727SOL     OW 3079   4.355   6.057   5.077
  727SOL    HW1 3080   4.353   6.087   4.982
  727SOL    HW2 3081   4.329   5.960   5.082
  728SOL     OW 3082   0.383   3.980   5.261
  728SOL    HW1 3083   0.441   3.903   5.234
  728SOL    HW2 3084   0.440   4.059   5.282
  729SOL     OW 3085   2.424   0.797   0.462
  729SOL    HW1 3086   2.403   0.851   0.543
  729SOL    HW2 3087   2.522   0.798   0.445
  730SOL     OW 3088   5.458   0.109   3.842
  730SOL    HW1 3089   5.411   0.077   3.760
  730SOL    HW2 3090   5.522   0.183   3.817
  731SOL     OW 3091   5.511   3.587   5.944
  731SOL    HW1 3092   5.553   3.677   5.940
  731SOL    HW2 3093   5.534   3.543   6.031
  732SOL     OW 3094   0.431   3.702   0.812
  732SOL    HW1 3095   0.374   3.782   0.831
  732SOL    HW2 3096   0.402   3.625   0.868
  733SOL     OW 3097   5.739   4.694   4.602
  733SOL    HW1 3098   5.650   4.741   4.605
  733SOL    HW2 3099   5.726   4.597   4.624
  734SOL     OW 3100   6.322   4.873   2.732
  734SOL    HW1 3101   6.354   4.937   2.662
  734SOL    HW2 3102   6.332   4.779   2.699
  735SOL     OW 3103   3.332   2.512   0.955
  735SOL    HW1 3104   3.298   2.437   0.898
  735SOL    HW2 3105   3.257   2.577   0.972
  736SOL     OW 3106   6.304   6.113   2.407
  736SOL    HW1 3107   6.345   6.081   2.492
  736SOL    HW2 3108   6.352   6.195   2.376
  737SOL     OW 3109   4.696   3.098   0.660
  737SOL    HW1 3110   4.763   3.073   0.590
  737SOL    HW2 3111   4.666   3.015   0.708
  738SOL     OW 3112   1.854   4.711   3.095
  738SOL    HW1 3113   1.942   4.682   3.058
  738SOL    HW2 3114   1.833   4.803   3.062
  739SOL     OW 3115   4.907   6.419   5.248
  739SOL    HW1 3116   4.978   6.350   5.237
  739SOL    HW2 3117   4.850   6.396   5.326
  740SOL     OW 3118   5.132   0.420   0.761
  740SOL    HW1 3119   5.123   0.464   0.672
  740SOL    HW2 3120   5.078   0.471   0.828
  741SOL     OW 3121   2.223   6.440   2.959
  741SOL    HW1 3122   2.219   6.497   3.041
  741SOL    HW2 3123   2.147   6.374   2.960
  742SOL     OW 3124   2.428   6.660   1.832
  742SOL    HW1 3125   2.433   6.720   1.753
  742SOL    HW2 3126   2.508   6.674   1.891
  743SOL     OW 3127   1.776   3.731   4.691
  743SOL    HW1 3128   1.767   3.825   4.724
  743SOL    HW2 3129   1.740   3.668   4.760
  744SOL     OW 3130   6.134   0.181   6.824
  744SOL    HW1 3131   6.100   0.100   6.776
  744SOL    HW2 3132   6.221   0.209   6.783
  745SOL     OW 3133   0.846   5.140   4.221
  745SOL    HW1 3134   0.811   5.127   4.314
  745SOL    HW2 3135   0.860   5.238   4.204
  746SOL     OW 3136   0.590   6.241   5.026
  746SOL    HW1 3137   0.575   6.339   5.013
  746SOL    HW2 3138   0.516   6.191   4.980
  747SOL     OW 3139   4.779   4.858   4.700
  747SOL    HW1 3140   4.864   4.848   4.648
  747SOL    HW2 3141   4.789   4.930   4.768
  748SOL     OW 3142   3.746   5.149   2.796
  748SOL    HW1 3143   3.829   5.205   2.795
  748SOL    HW2 3144   3.712   5.142   2.890
  749SOL     OW 3145   6.234   3.709   4.728
  749SOL    HW1 3146   6.219   3.664   4.816
  749SOL    HW2 3147   6.327   3.690   4.697
  750SOL     OW 3148   1.771   3.638   0.618
  750SOL    HW1 3149   1.836   3.568   0.589
  750SOL    HW2 3150   1.703   3.652   0.546
  751SOL     OW 3151   3.859   1.948   6.644
  751SOL    HW1 3152   3.830   2.043   6.657
  751SOL    HW2 3153   3.824   1.915   6.557
  752SOL     OW 3154   4.419   2.434   1.535
  752SOL    HW1 3155   4.479   2.362   1.501
  752SOL    HW2 3156   4.367   2.400   1.614
  753SOL     OW 3157   1.724   2.816   4.149
  753SOL    HW1 3158   1.643   2.766   4.178
  753SOL    HW2 3159   1.804   2.779   4.196
  754SOL     OW 3160   5.890   3.256   6.507
  754SOL    HW1 3161   5.932   3.330   6.558
  754SOL    HW2 3162   5.945   3.235   6.426
  755SOL     OW 3163   1.385   6.002   6.741
  755SOL    HW1 3164   1.423   5.939   6.673
  755SOL    HW2 3165   1.302   5.962   6.780
  756SOL     OW 3166   4.632   6.294   1.224
  756SOL    HW1 3167   4.617   6.298   1.323
  756SOL    HW2 3168   4.729   6.280   1.206
  757SOL     OW 3169   0.414   6.332   2.965
  757SOL    HW1 3170   0.339   6.397   2.976
  757SOL    HW2 3171   0.421   6.274   3.046
  758SOL     OW 3172   3.878   0.895   1.505
  758SOL    HW1 3173   3.896   0.990   1.481
  758SOL    HW2 3174   3.840   0.890   1.597
  759SOL     OW 3175   0.656   1.009   0.544
  759SOL    HW1 3176   0.685   1.017   0.640
  759SOL    HW2 3177   0.625   1.099   0.512
  760SOL     OW 3178   4.315   0.836   6.468
  760SOL    HW1 3179   4.365   0.856   6.552
  760SOL    HW2 3180   4.224   0.876   6.473
  761SOL     OW 3181   5.809   3.752   5.533
  761SOL    HW1 3182   5.885   3.808   5.566
  761SOL    HW2 3183   5.726   3.807   5.530
  762SOL     OW 3184   2.533   6.810   3.921
  762SOL    HW1 3185   2.595   6.785   3.995
  762SOL    HW2 3186   2.480   6.731   3.893
  763SOL     OW 3187   4.094   4.963   6.409
  763SOL    HW1 3188   4.164   5.034   6.398
  763SOL    HW2 3189   4.130   4.889   6.465
  764SOL     OW 3190   4.482   0.647   3.895
  764SOL    HW1 3191   4.530   0.691   3.971
  764SOL    HW2 3192   4.515   0.684   3.809
  765SOL     OW 3193   1.505   6.491   1.047
  765SOL    HW1 3194   1.429   6.427   1.054
  765SOL    HW2 3195   1.561   6.487   1.130
  766SOL     OW 3196   0.953   1.950   0.728
  766SOL    HW1 3197   1.051   1.961   0.742
  766SOL    HW2 3198   0.912   1.908   0.810
  767SOL     OW 3199   0.133   5.867   2.591
  767SOL    HW1 3200   0.210   5.831   2.538
  767SOL    HW2 3201   0.052   5.872   2.533
  768SOL     OW 3202   2.840   6.794   2.295
  768SOL    HW1 3203   2.743   6.817   2.285
  768SOL    HW2 3204   2.879   6.769   2.207
  769SOL     OW 3205   2.955   0.493   4.029
  769SOL    HW1 3206   2.940   0.583   4.070
  769SOL    HW2 3207   3.012   0.438   4.090
  770SOL     OW 3208   1.383   4.566   2.826
  770SOL    HW1 3209   1.444   4.610   2.892
  770SOL    HW2 3210   1.404   4.469   2.821
  771SOL     OW 3211   2.153   5.547   2.688
  771SOL    HW1 3212   2.064   5.584   2.713
  771SOL    HW2 3213   2.144   5.450   2.666
  772SOL     OW 3214   6.911   5.186   0.866
  772SOL    HW1 3215   6.951   5.146   0.783
  772SOL    HW2 3216   6.816   5.210   0.849
  773SOL     OW 3217   0.307   4.253   3.559
  773SOL    HW1 3218   0.353   4.340   3.541
  773SOL    HW2 3219   0.280   4.211   3.472
  774SOL     OW 3220   0.901   1.432   2.432
  774SOL    HW1 3221   0.895   1.530   2.455
  774SOL    HW2 3222   0.982   1.416   2.375
  775SOL     OW 3223   0.521   1.598   3.247
  775SOL    HW1 3224   0.570   1.515   3.275
  775SOL    HW2 3225   0.581   1.657   3.194
  776SOL     OW 3226   6.938   1.236   5.803
  776SOL    HW1 3227   6.888   1.149   5.805
  776SOL    HW2 3228   0.012   1.218   5.786
  777SOL     OW 3229   3.314   6.445   0.971
  777SOL    HW1 3230   3.376   6.504   0.919
  777SOL    HW2 3231   3.246   6.406   0.908
  778SOL     OW 3232   3.780   1.462   3.569
  778SOL    HW1 3233   3.869   1.490   3.605
  778SOL    HW2 3234   3.793   1.417   3.481
  779SOL     OW 3235   0.630   1.815   2.903
  779SOL    HW1 3236   0.689   1.849   2.830
  779SOL    HW2 3237   0.686   1.784   2.979
  780SOL     OW 3238   6.630   3.972   4.134
  780SOL    HW1 3239   6.594   4.032   4.063
  780SOL    HW2 3240   6.585   3.883   4.128
  781SOL     OW 3241   5.553   1.296   6.600
  781SOL    HW1 3242   5.459   1.265   6.612
  781SOL    HW2 3243   5.565   1.333   6.508
  782SOL     OW 3244   0.839   3.596   7.022
  782SOL    HW1 3245   0.811   3.622   6.930
  782SOL    HW2 3246   0.922   3.542   7.017
  783SOL     OW 3247   3.668   4.944   0.758
  783SOL    HW1 3248   3.743   4.980   0.814
  783SOL    HW2 3249   3.706   4.889   0.683
  784SOL     OW 3250   5.035   6.925   6.414
  784SOL    HW1 3251   4.950   6.907   6.364
  784SOL    HW2 3252   5.096   6.980   6.356
  785SOL     OW 3253   0.012   2.034   3.592
  785SOL    HW1 3254   0.002   2.090   3.675
  785SOL    HW2 3255   6.960   1.969   3.587
  786SOL     OW 3256   1.538   1.388   0.809
  786SOL    HW1 3257   1.525   1.296   0.773
  786SOL    HW2 3258   1.636   1.405   0.824
  787SOL     OW 3259   3.182   1.994   6.244
  787SOL    HW1 3260   3.186   1.940   6.328
  787SOL    HW2 3261   3.198   2.091   6.266
  788SOL     OW 3262   2.303   2.309   4.713
  788SOL    HW1 3263   2.246   2.328   4.793
  788SOL    HW2 3264   2.397   2.290   4.742
  789SOL     OW 3265   5.585   4.252   1.047
  789SOL    HW1 3266   5.537   4.204   1.121
  789SOL    HW2 3267   5.566   4.350   1.053
  790SOL     OW 3268   2.703   1.336   4.475
  790SOL    HW1 3269   2.735   1.247   4.441
  790SOL    HW2 3270   2.778   1.381   4.523
  791SOL     OW 3271   3.567   0.046   3.091
  791SOL    HW1 3272   3.632   7.019   3.033
  791SOL    HW2 3273   3.615   0.078   3.173
  792SOL     OW 3274   0.262   0.533   1.988
  792SOL    HW1 3275   0.178   0.513   1.938
  792SOL    HW2 3276   0.341   0.512   1.930
  793SOL     OW 3277   4.214   6.251   2.351
  793SOL    HW1 3278   4.180   6.230   2.260
  793SOL    HW2 3279   4.313   6.256   2.350
  794SOL     OW 3280   2.881   3.314   5.243
  794SOL    HW1 3281   2.800   3.258   5.231
  794SOL    HW2 3282   2.961   3.255   5.255
  795SOL     OW 3283   3.363   5.116   5.327
  795SOL    HW1 3284   3.337   5.160   5.241
  795SOL    HW2 3285   3.326   5.023   5.330
  796SOL     OW 3286   1.313   2.277   6.427
  796SOL    HW1 3287   1.254   2.275   6.347
  796SOL    HW2 3288   1.370   2.360   6.424
  797SOL     OW 3289   5.041   2.619   2.377
  797SOL    HW1 3290   4.983   2.618   2.295
  797SOL    HW2 3291   5.035   2.708   2.422
  798SOL     OW 3292   5.110   0.321   1.165
  798SOL    HW1 3293   5.138   0.365   1.250
  798SOL    HW2 3294   5.023   0.359   1.135
  799SOL     OW 3295   6.044   1.616   4.308
  799SOL    HW1 3296   5.955   1.586   4.273
  799SOL    HW2 3297   6.071   1.557   4.384
  800SOL     OW 3298   5.493   1.076   2.477
  800SOL    HW1 3299   5.418   1.123   2.524
  800SOL    HW2 3300   5.554   1.144   2.436
  801SOL     OW 3301   1.797   3.209   3.155
  801SOL    HW1 3302   1.727   3.139   3.167
  801SOL    HW2 3303   1.754   3.299   3.152
  802SOL     OW 3304   4.167   0.030   0.248
  802SOL    HW1 3305   4.139   0.126   0.247
  802SOL    HW2 3306   4.122   7.004   0.175
  803SOL     OW 3307   0.238   5.350   5.084
  803SOL    HW1 3308   0.142   5.340   5.058
  803SOL    HW2 3309   0.245   5.382   5.178
  804SOL     OW 3310   5.938   6.132   0.008
  804SOL    HW1 3311   5.925   6.199   6.958
  804SOL    HW2 3312   6.018   6.156   0.062
  805SOL     OW 3313   3.370   2.266   5.505
  805SOL    HW1 3314   3.406   2.260   5.412
  805SOL    HW2 3315   3.282   2.219   5.510
  806SOL     OW 3316   4.643   1.181   4.939
  806SOL    HW1 3317   4.689   1.142   4.859
  806SOL    HW2 3318   4.545   1.163   4.933
  807SOL     OW 3319   0.918   1.557   3.686
  807SOL    HW1 3320   0.890   1.643   3.730
  807SOL    HW2 3321   0.892   1.559   3.590
  808SOL     OW 3322   4.655   3.799   6.390
  808SOL    HW1 3323   4.573   3.814   6.336
  808SOL    HW2 3324   4.727   3.862   6.360
  809SOL     OW 3325   0.729   4.789   1.827
  809SOL    HW1 3326   0.642   4.768   1.781
  809SOL    HW2 3327   0.722   4.878   1.872
  810SOL     OW 3328   3.879   2.605   1.185
  810SOL    HW1 3329   3.844   2.642   1.099
  810SOL    HW2 3330   3.829   2.521   1.207
  811SOL     OW 3331   4.439   5.509   4.234
  811SOL    HW1 3332   4.406   5.415   4.225
  811SOL    HW2 3333   4.538   5.511   4.218
  812SOL     OW 3334   0.464   1.621   2.289
  812SOL    HW1 3335   0.368   1.591   2.286
  812SOL    HW2 3336   0.523   1.540   2.292
  813SOL     OW 3337   3.826   4.867   4.451
  813SOL    HW1 3338   3.742   4.886   4.401
  813SOL    HW2 3339   3.881   4.802   4.399
  814SOL     OW 3340   5.464   6.208   3.439
  814SOL    HW1 3341   5.371   6.173   3.426
  814SOL    HW2 3342   5.476   6.239   3.533
  815SOL     OW 3343   0.234   3.026   2.693
  815SOL    HW1 3344   0.230   3.115   2.739
  815SOL    HW2 3345   0.188   3.032   2.605
  816SOL     OW 3346   6.739   6.887   0.171
  816SOL    HW1 3347   6.821   6.934   0.139
  816SOL    HW2 3348   6.735   6.796   0.130
  817SOL     OW 3349   2.250   3.997   2.153
  817SOL    HW1 3350   2.285   4.048   2.075
  817SOL    HW2 3351   2.211   3.910   2.123
  818SOL     OW 3352   6.284   3.196   1.736
  818SOL    HW1 3353   6.345   3.126   1.699
  818SOL    HW2 3354   6.241   3.246   1.660
  819SOL     OW 3355   5.521   3.297   3.685
  819SOL    HW1 3356   5.548   3.238   3.761
  819SOL    HW2 3357   5.509   3.391   3.719
  820SOL     OW 3358   1.746   3.047   6.505
  820SOL    HW1 3359   1.816   3.024   6.437
  820SOL    HW2 3360   1.685   3.116   6.468
  821SOL     OW 3361   2.059   4.978   0.927
  821SOL    HW1 3362   2.122   5.054   0.915
  821SOL    HW2 3363   1.997   4.997   1.004
  822SOL     OW 3364   0.741   4.469   4.277
  822SOL    HW1 3365   0.724   4.506   4.186
  822SOL    HW2 3366   0.832   4.427   4.279
  823SOL     OW 3367   5.001   4.164   6.932
  823SOL    HW1 3368   5.046   4.075   6.924
  823SOL    HW2 3369   5.055   4.233   6.886
  824SOL     OW 3370   5.376   1.020   5.479
  824SOL    HW1 3371   5.414   0.935   5.444
  824SOL    HW2 3372   5.433   1.053   5.554
  825SOL     OW 3373   1.358   4.126   1.662
  825SOL    HW1 3374   1.327   4.176   1.581
  825SOL    HW2 3375   1.442   4.076   1.640
  826SOL     OW 3376   5.912   3.394   0.565
  826SOL    HW1 3377   5.980   3.466   0.579
  826SOL    HW2 3378   5.880   3.397   0.470
  827SOL     OW 3379   3.467   5.757   6.098
  827SOL    HW1 3380   3.436   5.852   6.093
  827SOL    HW2 3381   3.474   5.719   6.005
  828SOL     OW 3382   6.174   6.886   5.653
  828SOL    HW1 3383   6.090   6.905   5.703
  828SOL    HW2 3384   6.150   6.846   5.564
  829SOL     OW 3385   3.024   3.724   4.222
  829SOL    HW1 3386   2.985   3.733   4.313
  829SOL    HW2 3387   3.003   3.634   4.185
  830SOL     OW 3388   4.919   4.906   6.297
  830SOL    HW1 3389   4.864   4.826   6.318
  830SOL    HW2 3390   4.864   4.989   6.307
  831SOL     OW 3391   6.824   0.619   5.741
  831SOL    HW1 3392   6.728   0.593   5.751
  831SOL    HW2 3393   6.837   0.664   5.652
  832SOL     OW 3394   1.861   1.044   0.558
  832SOL    HW1 3395   1.794   1.050   0.632
  832SOL    HW2 3396   1.924   1.121   0.564
  833SOL     OW 3397   0.627   5.346   5.932
  833SOL    HW1 3398   0.549   5.345   5.995
  833SOL    HW2 3399   0.596   5.315   5.841
  834SOL     OW 3400   3.374   3.836   1.264
  834SOL    HW1 3401   3.451   3.893   1.234
  834SOL    HW2 3402   3.369   3.837   1.364
  835SOL     OW 3403   3.386   6.952   4.104
  835SOL    HW1 3404   3.330   6.974   4.184
  835SOL    HW2 3405   3.391   6.853   4.093
  836SOL     OW 3406   3.552   6.510   6.866
  836SOL    HW1 3407   3.651   6.497   6.868
  836SOL    HW2 3408   3.515   6.463   6.786
  837SOL     OW 3409   5.157   6.567   6.600
  837SOL    HW1 3410   5.213   6.633   6.549
  837SOL    HW2 3411   5.061   6.579   6.575
  838SOL     OW 3412   1.028   0.699   5.055
  838SOL    HW1 3413   0.998   0.728   5.146
  838SOL    HW2 3414   1.008   0.773   4.989
  839SOL     OW 3415   2.660   2.343   2.162
  839SOL    HW1 3416   2.672   2.308   2.255
  839SOL    HW2 3417   2.748   2.343   2.115
  840SOL     OW 3418   6.167   0.565   6.106
  840SOL    HW1 3419   6.077   0.590   6.141
  840SOL    HW2 3420   6.229   0.643   6.115
  841SOL     OW 3421   6.181   4.519   0.446
  841SOL    HW1 3422   6.264   4.521   0.390
  841SOL    HW2 3423   6.103   4.547   0.389
  842SOL     OW 3424   4.537   5.211   4.719
  842SOL    HW1 3425   4.489   5.263   4.790
  842SOL    HW2 3426   4.623   5.257   4.696
  843SOL     OW 3427   4.157   2.553   6.695
  843SOL    HW1 3428   4.212   2.584   6.772
  843SOL    HW2 3429   4.134   2.630   6.636
  844SOL     OW 3430   4.397   6.864   0.943
  844SOL    HW1 3431   4.452   6.941   0.910
  844SOL    HW2 3432   4.454   6.782   0.947
  845SOL     OW 3433   6.326   3.934   4.329
  845SOL    HW1 3434   6.387   4.000   4.372
  845SOL    HW2 3435   6.271   3.888   4.399
  846SOL     OW 3436   5.153   1.781   6.829
  846SOL    HW1 3437   5.117   1.730   6.907
  846SOL    HW2 3438   5.180   1.717   6.757
  847SOL     OW 3439   6.833   3.375   0.051
  847SOL    HW1 3440   6.762   3.331   7.019
  847SOL    HW2 3441   6.823   3.348   0.147
  848SOL     OW 3442   6.601   2.057   6.526
  848SOL    HW1 3443   6.534   1.987   6.550
  848SOL    HW2 3444   6.554   2.135   6.484
  849SOL     OW 3445   1.245   5.060   5.642
  849SOL    HW1 3446   1.170   4.994   5.646
  849SOL    HW2 3447   1.226   5.127   5.570
  850SOL     OW 3448   5.348   0.584   3.127
  850SOL    HW1 3449   5.276   0.519   3.151
  850SOL    HW2 3450   5.435   0.536   3.114
  851SOL     OW 3451   0.384   1.737   1.590
  851SOL    HW1 3452   0.373   1.705   1.684
  851SOL    HW2 3453   0.303   1.791   1.564
  852SOL     OW 3454   3.173   2.606   0.244
  852SOL    HW1 3455   3.202   2.680   0.184
  852SOL    HW2 3456   3.111   2.546   0.195
  853SOL     OW 3457   1.098   4.160   2.421
  853SOL    HW1 3458   1.145   4.086   2.371
  853SOL    HW2 3459   1.005   4.169   2.387
  854SOL     OW 3460   4.476   5.697   2.035
  854SOL    HW1 3461   4.532   5.773   2.069
  854SOL    HW2 3462   4.535   5.618   2.018
  855SOL     OW 3463   6.413   0.041   1.064
  855SOL    HW1 3464   6.365   6.978   1.080
  855SOL    HW2 3465   6.419   0.059   0.966
  856SOL     OW 3466   1.980   1.747   4.763
  856SOL    HW1 3467   2.007   1.829   4.814
  856SOL    HW2 3468   1.901   1.705   4.807
  857SOL     OW 3469   6.077   5.559   1.024
  857SOL    HW1 3470   6.053   5.589   1.116
  857SOL    HW2 3471   6.173   5.579   1.007
  858SOL     OW 3472   2.108   4.337   1.874
  858SOL    HW1 3473   2.177   4.400   1.839
  858SOL    HW2 3474   2.026   4.342   1.817
  859SOL     OW 3475   5.217   5.549   6.941
  859SOL    HW1 3476   5.161   5.469   6.963
  859SOL    HW2 3477   5.201   5.620   7.009
  860SOL     OW 3478   4.543   4.188   1.078
  860SOL    HW1 3479   4.604   4.220   1.151
  860SOL    HW2 3480   4.592   4.189   0.991
  861SOL     OW 3481   1.733   0.167   4.941
  861SOL    HW1 3482   1.801   0.144   4.872
  861SOL    HW2 3483   1.652   0.109   4.929
  862SOL     OW 3484   6.099   4.697   5.698
  862SOL    HW1 3485   6.193   4.707   5.732
  862SOL    HW2 3486   6.100   4.650   5.610
  863SOL     OW 3487   1.271   0.176   0.665
  863SOL    HW1 3488   1.201   0.188   0.595
  863SOL    HW2 3489   1.359   0.158   0.622
  864SOL     OW 3490   4.945   4.808   3.651
  864SOL    HW1 3491   4.845   4.814   3.649
  864SOL    HW2 3492   4.981   4.881   3.709
  865SOL     OW 3493   1.352   6.418   5.583
  865SOL    HW1 3494   1.361   6.349   5.655
  865SOL    HW2 3495   1.256   6.443   5.573
  866SOL     OW 3496   1.890   2.404   1.369
  866SOL    HW1 3497   1.867   2.322   1.422
  866SOL    HW2 3498   1.977   2.442   1.402
  867SOL     OW 3499   3.593   2.582   0.832
  867SOL    HW1 3500   3.521   2.557   0.897
  867SOL    HW2 3501   3.599   2.681   0.824
  868SOL     OW 3502   6.648   6.590   1.031
  868SOL    HW1 3503   6.714   6.649   0.984
  868SOL    HW2 3504   6.556   6.615   1.002
  869SOL     OW 3505   6.464   5.329   2.685
  869SOL    HW1 3506   6.523   5.379   2.621
  869SOL    HW2 3507   6.518   5.302   2.765
  870SOL     OW 3508   6.150   3.798   0.518
  870SOL    HW1 3509   6.150   3.699   0.530
  870SOL    HW2 3510   6.193   3.842   0.597
  871SOL     OW 3511   6.718   2.939   2.253
  871SOL    HW1 3512   6.745   2.900   2.341
  871SOL    HW2 3513   6.787   2.916   2.184
  872SOL     OW 3514   6.513   4.165   3.606
  872SOL    HW1 3515   6.593   4.165   3.546
  872SOL    HW2 3516   6.539   4.200   3.696
  873SOL     OW 3517   4.135   0.097   3.197
  873SOL    HW1 3518   4.209   0.035   3.171
  873SOL    HW2 3519   4.174   0.186   3.220
  874SOL     OW 3520   1.760   3.897   5.672
  874SOL    HW1 3521   1.742   3.845   5.588
  874SOL    HW2 3522   1.857   3.921   5.675
  875SOL     OW 3523   5.220   3.779   1.017
  875SOL    HW1 3524   5.159   3.703   0.994
  875SOL    HW2 3525   5.182   3.864   0.982
  876SOL     OW 3526   0.187   5.152   3.104
  876SOL    HW1 3527   0.125   5.170   3.028
  876SOL    HW2 3528   0.142   5.174   3.190
  877SOL     OW 3529   4.345   4.278   6.955
  877SOL    HW1 3530   4.441   4.255   6.949
  877SOL    HW2 3531   4.294   4.202   6.995
  878SOL     OW 3532   4.046   5.736   6.443
  878SOL    HW1 3533   4.019   5.669   6.512
  878SOL    HW2 3534   3.987   5.726   6.362
  879SOL     OW 3535   3.749   2.047   2.270
  879SOL    HW1 3536   3.750   2.128   2.212
  879SOL    HW2 3537   3.656   2.013   2.279
  880SOL     OW 3538   2.879   4.644   0.089
  880SOL    HW1 3539   2.876   4.601   7.022
  880SOL    HW2 3540   2.971   4.634   0.128
  881SOL     OW 3541   4.225   4.745   5.163
  881SOL    HW1 3542   4.226   4.646   5.149
  881SOL    HW2 3543   4.146   4.785   5.116
  882SOL     OW 3544   1.974   1.391   3.842
  882SOL    HW1 3545   2.014   1.312   3.889
  882SOL    HW2 3546   1.946   1.363   3.750
  883SOL     OW 3547   4.478   5.449   5.168
  883SOL    HW1 3548   4.531   5.441   5.253
  883SOL    HW2 3549   4.381   5.435   5.188
  884SOL     OW 3550   6.764   3.637   2.104
  884SOL    HW1 3551   6.707   3.706   2.149
  884SOL    HW2 3552   6.842   3.681   2.060
  885SOL     OW 3553   5.431   5.960   6.954
  885SOL    HW1 3554   5.408   6.033   7.018
  885SOL    HW2 3555   5.517   5.982   6.908
  886SOL     OW 3556   4.485   0.630   0.182
  886SOL    HW1 3557   4.563   0.634   0.246
  886SOL    HW2 3558   4.421   0.560   0.212
  887SOL     OW 3559   4.234   6.354   5.452
  887SOL    HW1 3560   4.240   6.454   5.454
  887SOL    HW2 3561   4.301   6.316   5.516
  888SOL     OW 3562   6.677   6.544   2.887
  888SOL    HW1 3563   6.603   6.601   2.852
  888SOL    HW2 3564   6.673   6.454   2.845
  889SOL     OW 3565   0.129   6.638   5.842
  889SOL    HW1 3566   0.053   6.578   5.865
  889SOL    HW2 3567   0.094   6.730   5.822
  890SOL     OW 3568   2.761   4.773   2.134
  890SOL    HW1 3569   2.664   4.775   2.157
  890SOL    HW2 3570   2.776   4.708   2.059
  891SOL     OW 3571   5.554   3.918   1.368
  891SOL    HW1 3572   5.643   3.922   1.414
  891SOL    HW2 3573   5.516   3.826   1.377
  892SOL     OW 3574   4.236   3.942   0.680
  892SOL    HW1 3575   4.180   4.023   0.661
  892SOL    HW2 3576   4.205   3.900   0.765
  893SOL     OW 3577   1.774   0.745   1.193
  893SOL    HW1 3578   1.827   0.777   1.114
  893SOL    HW2 3579   1.830   0.683   1.248
  894SOL     OW 3580   2.064   3.744   3.863
  894SOL    HW1 3581   2.045   3.836   3.898
  894SOL    HW2 3582   2.098   3.686   3.937
  895SOL     OW 3583   2.175   6.427   4.687
  895SOL    HW1 3584   2.095   6.417   4.747
  895SOL    HW2 3585   2.145   6.427   4.592
  896SOL     OW 3586   5.560   5.685   3.896
  896SOL    HW1 3587   5.615   5.752   3.847
  896SOL    HW2 3588   5.475   5.668   3.847
  897SOL     OW 3589   4.854   1.215   0.196
  897SOL    HW1 3590   4.856   1.182   0.290
  897SOL    HW2 3591   4.760   1.222   0.164
  898SOL     OW 3592   4.171   6.004   3.824
  898SOL    HW1 3593   4.224   6.056   3.891
  898SOL    HW2 3594   4.075   6.033   3.829
  899SOL     OW 3595   0.291   5.279   0.360
  899SOL    HW1 3596   0.320   5.262   0.454
  899SOL    HW2 3597   0.371   5.282   0.300
  900SOL     OW 3598   5.474   5.935   1.679
  900SOL    HW1 3599   5.496   5.871   1.754
  900SOL    HW2 3600   5.520   6.022   1.695
  901SOL     OW 3601   0.156   1.597   4.580
  901SOL    HW1 3602   0.146   1.679   4.523
  901SOL    HW2 3603   0.090   1.528   4.551
  902SOL     OW 3604   0.013   1.221   6.485
  902SOL    HW1 3605   0.039   1.273   6.403
  902SOL    HW2 3606   0.057   1.132   6.483
  903SOL     OW 3607   6.565   4.632   6.891
  903SOL    HW1 3608   6.631   4.635   6.967
  903SOL    HW2 3609   6.612   4.600   6.808
  904SOL     OW 3610   1.429   1.828   4.142
  904SOL    HW1 3611   1.392   1.911   4.186
  904SOL    HW2 3612   1.365   1.797   4.072
  905SOL     OW 3613   5.208   2.580   6.671
  905SOL    HW1 3614   5.225   2.605   6.767
  905SOL    HW2 3615   5.158   2.653   6.626
  906SOL     OW 3616   0.264   3.666   6.598
  906SOL    HW1 3617   0.222   3.584   6.637
  906SOL    HW2 3618   0.217   3.747   6.630
  907SOL     OW 3619   5.727   2.940   3.279
  907SOL    HW1 3620   5.652   2.987   3.326
  907SOL    HW2 3621   5.810   2.994   3.288
  908SOL     OW 3622   1.129   0.364   4.318
  908SOL    HW1 3623   1.186   0.285   4.294
  908SOL    HW2 3624   1.145   0.437   4.252
  909SOL     OW 3625   2.485   0.912   1.070
  909SOL    HW1 3626   2.454   0.833   1.015
  909SOL    HW2 3627   2.562   0.884   1.128
  910SOL     OW 3628   2.072   0.705   0.857
  910SOL    HW1 3629   2.016   0.648   0.796
  910SOL    HW2 3630   2.013   0.748   0.925
  911SOL     OW 3631   0.510   4.769   1.245
  911SOL    HW1 3632   0.596   4.782   1.295
  911SOL    HW2 3633   0.513   4.681   1.198
  912SOL     OW 3634   0.402   1.529   5.544
  912SOL    HW1 3635   0.309   1.519   5.510
  912SOL    HW2 3636   0.461   1.461   5.500
  913SOL     OW 3637   2.266   0.505   3.476
  913SOL    HW1 3638   2.194   0.547   3.531
  913SOL    HW2 3639   2.347   0.563   3.478
  914SOL     OW 3640   2.366   5.596   5.100
  914SOL    HW1 3641   2.292   5.658   5.126
  914SOL    HW2 3642   2.358   5.511   5.152
  915SOL     OW 3643   0.409   3.177   0.803
  915SOL    HW1 3644   0.309   3.180   0.817
  915SOL    HW2 3645   0.443   3.087   0.829
  916SOL     OW 3646   1.825   2.074   2.261
  916SOL    HW1 3647   1.771   1.990   2.252
  916SOL    HW2 3648   1.866   2.096   2.172
  917SOL     OW 3649   3.950   1.188   1.489
  917SOL    HW1 3650   3.901   1.266   1.528
  917SOL    HW2 3651   4.021   1.158   1.552
  918SOL     OW 3652   3.227   6.189   0.033
  918SOL    HW1 3653   3.237   6.234   6.968
  918SOL    HW2 3654   3.130   6.176   0.053
  919SOL     OW 3655   1.713   6.677   1.766
  919SOL    HW1 3656   1.809   6.681   1.740
  919SOL    HW2 3657   1.663   6.621   1.700
  920SOL     OW 3658   2.158   0.298   3.329
  920SOL    HW1 3659   2.191   0.354   3.405
  920SOL    HW2 3660   2.182   0.341   3.243
  921SOL     OW 3661   5.067   4.868   3.397
  921SOL    HW1 3662   5.018   4.883   3.483
  921SOL    HW2 3663   5.015   4.806   3.339
  922SOL     OW 3664   3.272   2.865   6.390
  922SOL    HW1 3665   3.368   2.891   6.388
  922SOL    HW2 3666   3.261   2.783   6.447
  923SOL     OW 3667   3.055   6.092   0.337
  923SOL    HW1 3668   3.138   6.147   0.347
  923SOL    HW2 3669   3.079   5.997   0.319
  924SOL     OW 3670   5.291   3.505   2.642
  924SOL    HW1 3671   5.270   3.516   2.545
  924SOL    HW2 3672   5.220   3.450   2.685
  925SOL     OW 3673   6.680   2.097   5.438
  925SOL    HW1 3674   6.772   2.086   5.401
  925SOL    HW2 3675   6.614   2.106   5.363
  926SOL     OW 3676   5.771   1.116   0.227
  926SOL    HW1 3677   5.831   1.122   0.307
  926SOL    HW2 3678   5.702   1.046   0.242
  927SOL     OW 3679   4.948   4.268   4.117
  927SOL    HW1 3680   5.030   4.288   4.063
  927SOL    HW2 3681   4.867   4.298   4.068
  928SOL     OW 3682   1.924   0.462   0.684
  928SOL    HW1 3683   1.892   0.369   0.702
  928SOL    HW2 3684   1.863   0.506   0.618
  929SOL     OW 3685   6.667   2.269   1.925
  929SOL    HW1 3686   6.750   2.314   1.891
  929SOL    HW2 3687   6.605   2.337   1.963
  930SOL     OW 3688   6.767   5.231   4.337
  930SOL    HW1 3689   6.711   5.149   4.349
  930SOL    HW2 3690   6.836   5.236   4.408
  931SOL     OW 3691   0.266   3.999   3.342
  931SOL    HW1 3692   0.213   4.036   3.266
  931SOL    HW2 3693   0.313   3.916   3.314
  932SOL     OW 3694   3.479   6.385   1.677
  932SOL    HW1 3695   3.493   6.465   1.618
  932SOL    HW2 3696   3.422   6.318   1.629
  933SOL     OW 3697   0.803   4.896   2.274
  933SOL    HW1 3698   0.893   4.902   2.317
  933SOL    HW2 3699   0.732   4.904   2.345
  934SOL     OW 3700   2.811   1.497   4.667
  934SOL    HW1 3701   2.796   1.513   4.765
  934SOL    HW2 3702   2.875   1.565   4.632
  935SOL     OW 3703   4.438   3.725   5.771
  935SOL    HW1 3704   4.463   3.774   5.854
  935SOL    HW2 3705   4.518   3.717   5.712
  936SOL     OW 3706   0.625   6.703   0.130
  936SOL    HW1 3707   0.631   6.613   0.086
  936SOL    HW2 3708   0.699   6.713   0.196
  937SOL     OW 3709   4.457   2.020   5.150
  937SOL    HW1 3710   4.394   2.070   5.209
  937SOL    HW2 3711   4.549   2.026   5.188
  938SOL     OW 3712   6.978   4.256   6.234
  938SOL    HW1 3713   0.049   4.274   6.260
  938SOL    HW2 3714   6.940   4.335   6.187
  939SOL     OW 3715   5.047   1.564   5.948
  939SOL    HW1 3716   4.974   1.631   5.956
  939SOL    HW2 3717   5.123   1.602   5.895
  940SOL     OW 3718   6.671   1.777   3.063
  940SOL    HW1 3719   6.648   1.853   3.003
  940SOL    HW2 3720   6.588   1.743   3.107
  941SOL     OW 3721   5.979   0.973   4.070
  941SOL    HW1 3722   5.959   1.030   4.150
  941SOL    HW2 3723   5.915   0.996   3.996
  942SOL     OW 3724   4.965   0.271   4.922
  942SOL    HW1 3725   4.876   0.280   4.966
  942SOL    HW2 3726   4.955   0.220   4.836
  943SOL     OW 3727   0.248   3.321   2.719
  943SOL    HW1 3728   0.262   3.367   2.631
  943SOL    HW2 3729   0.255   3.388   2.793
  944SOL     OW 3730   6.190   3.356   5.709
  944SOL    HW1 3731   6.173   3.425   5.779
  944SOL    HW2 3732   6.246   3.282   5.748
  945SOL     OW 3733   5.307   4.748   4.749
  945SOL    HW1 3734   5.329   4.821   4.814
  945SOL    HW2 3735   5.215   4.715   4.767
  946SOL     OW 3736   5.589   2.630   6.384
  946SOL    HW1 3737   5.679   2.646   6.344
  946SOL    HW2 3738   5.599   2.595   6.477
  947SOL     OW 3739   3.055   3.471   5.437
  947SOL    HW1 3740   3.102   3.407   5.498
  947SOL    HW2 3741   3.030   3.425   5.352
  948SOL     OW 3742   4.008   0.736   0.920
  948SOL    HW1 3743   4.044   0.825   0.892
  948SOL    HW2 3744   3.963   0.745   1.009
  949SOL     OW 3745   6.657   6.302   6.033
  949SOL    HW1 3746   6.745   6.312   6.080
  949SOL    HW2 3747   6.608   6.224   6.072
  950SOL     OW 3748   4.115   4.753   2.775
  950SOL    HW1 3749   4.064   4.749   2.689
  950SOL    HW2 3750   4.051   4.740   2.852
  951SOL     OW 3751   1.828   0.224   2.316
  951SOL    HW1 3752   1.905   0.160   2.309
  951SOL    HW2 3753   1.763   0.205   2.243
  952SOL     OW 3754   5.932   1.908   2.464
  952SOL    HW1 3755   5.856   1.919   2.400
  952SOL    HW2 3756   5.901   1.927   2.557
  953SOL     OW 3757   4.830   5.814   5.518
  953SOL    HW1 3758   4.734   5.821   5.545
  953SOL    HW2 3759   4.865   5.724   5.541
  954SOL     OW 3760   5.766   0.322   0.730
  954SOL    HW1 3761   5.809   0.375   0.657
  954SOL    HW2 3762   5.710   0.381   0.787
  955SOL     OW 3763   1.103   5.060   3.966
  955SOL    HW1 3764   1.037   4.989   3.943
  955SOL    HW2 3765   1.167   5.073   3.890
  956SOL     OW 3766   0.975   1.949   1.717
  956SOL    HW1 3767   0.973   1.923   1.813
  956SOL    HW2 3768   0.883   1.977   1.688
  957SOL     OW 3769   0.994   4.738   4.843
  957SOL    HW1 3770   1.091   4.754   4.862
  957SOL    HW2 3771   0.943   4.741   4.928
  958SOL     OW 3772   4.914   1.837   1.084
  958SOL    HW1 3773   4.975   1.766   1.119
  958SOL    HW2 3774   4.931   1.923   1.133
  959SOL     OW 3775   3.067   4.826   3.234
  959SOL    HW1 3776   2.998   4.816   3.306
  959SOL    HW2 3777   3.138   4.890   3.264
  960SOL     OW 3778   0.998   5.884   4.145
  960SOL    HW1 3779   0.979   5.977   4.115
  960SOL    HW2 3780   1.049   5.836   4.074
  961SOL     OW 3781   4.424   6.509   2.670
  961SOL    HW1 3782   4.501   6.493   2.608
  961SOL    HW2 3783   4.459   6.542   2.758
  962SOL     OW 3784   1.570   1.316   3.707
  962SOL    HW1 3785   1.561   1.347   3.801
  962SOL    HW2 3786   1.667   1.297   3.687
  963SOL     OW 3787   5.859   0.501   0.545
  963SOL    HW1 3788   5.893   0.575   0.603
  963SOL    HW2 3789   5.797   0.540   0.475
  964SOL     OW 3790   5.926   3.174   1.090
  964SOL    HW1 3791   5.958   3.166   0.995
  964SOL    HW2 3792   5.864   3.253   1.097
  965SOL     OW 3793   6.098   1.811   1.172
  965SOL    HW1 3794   6.174   1.749   1.152
  965SOL    HW2 3795   6.070   1.857   1.088
  966SOL     OW 3796   6.053   1.510   2.603
  966SOL    HW1 3797   6.010   1.446   2.666
  966SOL    HW2 3798   6.056   1.601   2.644
  967SOL     OW 3799   1.259   5.034   0.343
  967SOL    HW1 3800   1.219   4.944   0.361
  967SOL    HW2 3801   1.313   5.030   0.259
  968SOL     OW 3802   4.671   2.484   2.291
  968SOL    HW1 3803   4.641   2.527   2.206
  968SOL    HW2 3804   4.595   2.480   2.355
  969SOL     OW 3805   3.376   5.885   5.425
  969SOL    HW1 3806   3.468   5.917   5.447
  969SOL    HW2 3807   3.309   5.946   5.467
  970SOL     OW 3808   4.727   1.534   5.298
  970SOL    HW1 3809   4.709   1.456   5.238
  970SOL    HW2 3810   4.805   1.514   5.357
  971SOL     OW 3811   0.375   1.321   2.896
  971SOL    HW1 3812   0.432   1.392   2.938
  971SOL    HW2 3813   0.397   1.232   2.937
  972SOL     OW 3814   5.950   4.211   0.737
  972SOL    HW1 3815   5.863   4.244   0.772
  972SOL    HW2 3816   5.940   4.117   0.705
  973SOL     OW 3817   0.576   5.162   6.483
  973SOL    HW1 3818   0.562   5.252   6.442
  973SOL    HW2 3819   0.657   5.119   6.442
  974SOL     OW 3820   3.987   0.582   2.129
  974SOL    HW1 3821   4.005   0.644   2.052
  974SOL    HW2 3822   4.065   0.521   2.141
  975SOL     OW 3823   2.432   6.272   6.845
  975SOL    HW1 3824   2.400   6.194   6.898
  975SOL    HW2 3825   2.454   6.243   6.752
  976SOL     OW 3826   6.515   2.972   2.930
  976SOL    HW1 3827   6.505   3.014   2.840
  976SOL    HW2 3828   6.432   2.921   2.953
  977SOL     OW 3829   2.199   1.304   4.340
  977SOL    HW1 3830   2.122   1.240   4.345
  977SOL    HW2 3831   2.169   1.388   4.294
  978SOL     OW 3832   5.227   4.047   4.886
  978SOL    HW1 3833   5.204   4.127   4.829
  978SOL    HW2 3834   5.323   4.053   4.915
  979SOL     OW 3835   6.077   1.455   2.896
  979SOL    HW1 3836   6.016   1.459   2.976
  979SOL    HW2 3837   6.130   1.539   2.890
  980SOL     OW 3838   5.484   1.800   3.728
  980SOL    HW1 3839   5.473   1.877   3.791
  980SOL    HW2 3840   5.458   1.828   3.636
  981SOL     OW 3841   1.179   1.756   4.779
  981SOL    HW1 3842   1.215   1.762   4.873
  981SOL    HW2 3843   1.084   1.725   4.782
  982SOL     OW 3844   1.841   2.710   3.059
  982SOL    HW1 3845   1.908   2.732   3.130
  982SOL    HW2 3846   1.790   2.628   3.084
  983SOL     OW 3847   5.899   2.877   3.599
  983SOL    HW1 3848   5.903   2.930   3.683
  983SOL    HW2 3849   5.991   2.868   3.561
  984SOL     OW 3850   3.380   0.618   5.072
  984SOL    HW1 3851   3.466   0.607   5.023
  984SOL    HW2 3852   3.319   0.679   5.020
  985SOL     OW 3853   5.052   4.755   6.653
  985SOL    HW1 3854   5.083   4.687   6.720
  985SOL    HW2 3855   4.980   4.715   6.596
  986SOL     OW 3856   5.221   5.317   0.388
  986SOL    HW1 3857   5.281   5.294   0.465
  986SOL    HW2 3858   5.209   5.416   0.383
  987SOL     OW 3859   4.049   6.752   1.137
  987SOL    HW1 3860   4.097   6.751   1.225
  987SOL    HW2 3861   3.996   6.668   1.126
  988SOL     OW 3862   3.999   2.712   1.447
  988SOL    HW1 3863   4.098   2.699   1.447
  988SOL    HW2 3864   3.961   2.680   1.360
  989SOL     OW 3865   0.182   0.823   5.998
  989SOL    HW1 3866   0.092   0.787   5.975
  989SOL    HW2 3867   0.250   0.750   5.987
  990SOL     OW 3868   4.912   0.166   3.618
  990SOL    HW1 3869   4.963   0.180   3.533
  990SOL    HW2 3870   4.975   0.141   3.691
  991SOL     OW 3871   1.741   1.707   4.916
  991SOL    HW1 3872   1.681   1.698   4.995
  991SOL    HW2 3873   1.711   1.784   4.860
  992SOL     OW 3874   0.833   3.152   0.489
  992SOL    HW1 3875   0.810   3.055   0.487
  992SOL    HW2 3876   0.932   3.164   0.485
  993SOL     OW 3877   2.182   5.550   2.333
  993SOL    HW1 3878   2.104   5.494   2.359
  993SOL    HW2 3879   2.215   5.601   2.412
  994SOL     OW 3880   3.662   3.827   2.545
  994SOL    HW1 3881   3.748   3.838   2.595
  994SOL    HW2 3882   3.590   3.879   2.592
  995SOL     OW 3883   2.509   2.116   6.358
  995SOL    HW1 3884   2.508   2.105   6.259
  995SOL    HW2 3885   2.416   2.112   6.394
  996SOL     OW 3886   1.996   4.013   3.885
  996SOL    HW1 3887   1.931   3.976   3.952
  996SOL    HW2 3888   2.014   4.109   3.906
  997SOL     OW 3889   6.751   6.857   1.026
  997SOL    HW1 3890   6.844   6.827   1.046
  997SOL    HW2 3891   6.754   6.942   0.972
  998SOL     OW 3892   4.706   6.989   3.585
  998SOL    HW1 3893   4.628   0.021   3.612
  998SOL    HW2 3894   4.790   0.021   3.592
  999SOL     OW 3895   5.239   5.445   1.112
  999SOL    HW1 3896   5.313   5.402   1.060
  999SOL    HW2 3897   5.245   5.417   1.208
 1000SOL     OW 3898   0.824   0.903   2.494
 1000SOL    HW1 3899   0.885   0.877   2.568
 1000SOL    HW2 3900   0.871   0.967   2.433
 1001SOL     OW 3901   4.655   6.447   6.746
 1001SOL    HW1 3902   4.638   6.419   6.652
 1001SOL    HW2 3903   4.577   6.422   6.803
 1002SOL     OW 3904   5.361   1.873   6.596
 1002SOL    HW1 3905   5.327   1.925   6.517
 1002SOL    HW2 3906   5.321   1.781   6.595
 1003SOL     OW 3907   2.933   6.827   1.805
 1003SOL    HW1 3908   3.017   6.773   1.799
 1003SOL    HW2 3909   2.877   6.811   1.724
 1004SOL     OW 3910   6.845   0.633   0.688
 1004SOL    HW1 3911   6.896   0.694   0.748
 1004SOL    HW2 3912   6.752   0.668   0.677
 1005SOL     OW 3913   6.980   1.192   3.042
 1005SOL    HW1 3914   0.020   1.257   3.001
 1005SOL    HW2 3915   6.886   1.222   3.027
 1006SOL     OW 3916   2.570   6.128   1.734
 1006SOL    HW1 3917   2.601   6.138   1.829
 1006SOL    HW2 3918   2.550   6.218   1.695
 1007SOL     OW 3919   6.264   6.671   3.545
 1007SOL    HW1 3920   6.187   6.642   3.603
 1007SOL    HW2 3921   6.232   6.684   3.451
 1008SOL     OW 3922   1.897   2.936   4.500
 1008SOL    HW1 3923   1.970   2.991   4.542
 1008SOL    HW2 3924   1.918   2.922   4.404
 1009SOL     OW 3925   0.315   5.738   3.912
 1009SOL    HW1 3926   0.266   5.821   3.883
 1009SOL    HW2 3927   0.255   5.682   3.969
 1010SOL     OW 3928   3.721   2.708   6.825
 1010SOL    HW1 3929   3.637   2.762   6.837
 1010SOL    HW2 3930   3.800   2.762   6.856
 1011SOL     OW 3931   2.670   5.540   2.703
 1011SOL    HW1 3932   2.758   5.534   2.751
 1011SOL    HW2 3933   2.628   5.450   2.700
 1012SOL     OW 3934   6.676   5.633   0.229
 1012SOL    HW1 3935   6.697   5.588   0.316
 1012SOL    HW2 3936   6.759   5.636   0.172
 1013SOL     OW 3937   0.385   1.108   6.560
 1013SOL    HW1 3938   0.311   1.055   6.518
 1013SOL    HW2 3939   0.357   1.203   6.567
 1014SOL     OW 3940   5.301   5.757   0.080
 1014SOL    HW1 3941   5.304   5.823   0.155
 1014SOL    HW2 3942   5.351   5.794   0.002
 1015SOL     OW 3943   2.517   0.107   5.363
 1015SOL    HW1 3944   2.455   0.120   5.287
 1015SOL    HW2 3945   2.611   0.099   5.329
 1016SOL     OW 3946   2.201   3.004   0.967
 1016SOL    HW1 3947   2.137   2.929   0.950
 1016SOL    HW2 3948   2.156   3.091   0.945
 1017SOL     OW 3949   4.679   2.854   0.772
 1017SOL    HW1 3950   4.642   2.791   0.704
 1017SOL    HW2 3951   4.721   2.802   0.847
 1018SOL     OW 3952   1.850   3.528   3.872
 1018SOL    HW1 3953   1.848   3.588   3.792
 1018SOL    HW2 3954   1.944   3.516   3.903
 1019SOL     OW 3955   0.965   0.590   0.769
 1019SOL    HW1 3956   1.055   0.603   0.729
 1019SOL    HW2 3957   0.895   0.628   0.708
 1020SOL     OW 3958   2.176   6.465   1.301
 1020SOL    HW1 3959   2.164   6.564   1.300
 1020SOL    HW2 3960   2.155   6.427   1.211
 1021SOL     OW 3961   6.368   0.842   0.563
 1021SOL    HW1 3962   6.418   0.877   0.483
 1021SOL    HW2 3963   6.417   0.867   0.646
 1022SOL     OW 3964   4.160   4.513   6.047
 1022SOL    HW1 3965   4.065   4.490   6.069
 1022SOL    HW2 3966   4.205   4.435   6.004
 1023SOL     OW 3967   6.099   0.382   2.669
 1023SOL    HW1 3968   6.075   0.471   2.708
 1023SOL    HW2 3969   6.165   0.336   2.728
 1024SOL     OW 3970   6.638   2.932   4.110
 1024SOL    HW1 3971   6.609   2.840   4.135
 1024SOL    HW2 3972   6.647   2.989   4.192
 1025SOL     OW 3973   3.413   4.308   0.408
 1025SOL    HW1 3974   3.483   4.376   0.387
 1025SOL    HW2 3975   3.376   4.325   0.499
 1026SOL     OW 3976   1.221   1.984   0.846
 1026SOL    HW1 3977   1.249   2.078   0.864
 1026SOL    HW2 3978   1.250   1.925   0.921
 1027SOL     OW 3979   3.140   6.086   1.156
 1027SOL    HW1 3980   3.135   6.030   1.238
 1027SOL    HW2 3981   3.170   6.031   1.079
 1028SOL     OW 3982   3.364   5.862   6.926
 1028SOL    HW1 3983   3.287   5.838   6.867
 1028SOL    HW2 3984   3.380   5.789   6.993
 1029SOL     OW 3985   2.005   0.484   0.200
 1029SOL    HW1 3986   2.092   0.448   0.165
 1029SOL    HW2 3987   2.023   0.542   0.280
 1030SOL     OW 3988   3.291   3.219   2.826
 1030SOL    HW1 3989   3.204   3.248   2.867
 1030SOL    HW2 3990   3.296   3.252   2.732
 1031SOL     OW 3991   4.791   4.834   0.807
 1031SOL    HW1 3992   4.765   4.884   0.724
 1031SOL    HW2 3993   4.722   4.765   0.827
 1032SOL     OW 3994   1.504   1.730   4.702
 1032SOL    HW1 3995   1.451   1.652   4.738
 1032SOL    HW2 3996   1.489   1.810   4.760
 1033SOL     OW 3997   1.340   6.672   1.309
 1033SOL    HW1 3998   1.292   6.603   1.255
 1033SOL    HW2 3999   1.346   6.758   1.258
 1034SOL     OW 4000   1.550   6.425   4.751
 1034SOL    HW1 4001   1.465   6.472   4.728
 1034SOL    HW2 4002   1.575   6.445   4.845
 1035SOL     OW 4003   3.040   1.779   3.385
 1035SOL    HW1 4004   3.128   1.789   3.430
 1035SOL    HW2 4005   3.040   1.829   3.298
 1036SOL     OW 4006   3.000   0.593   0.922
 1036SOL    HW1 4007   2.976   0.506   0.966
 1036SOL    HW2 4008   3.010   0.578   0.823
 1037SOL     OW 4009   1.260   1.233   1.459
 1037SOL    HW1 4010   1.211   1.235   1.546
 1037SOL    HW2 4011   1.250   1.322   1.414
 1038SOL     OW 4012   1.275   0.789   5.972
 1038SOL    HW1 4013   1.351   0.775   5.909
 1038SOL    HW2 4014   1.223   0.871   5.944
 1039SOL     OW 4015   4.394   2.636   5.767
 1039SOL    HW1 4016   4.307   2.590   5.755
 1039SOL    HW2 4017   4.464   2.570   5.794
 1040SOL     OW 4018   5.346   3.317   2.983
 1040SOL    HW1 4019   5.266   3.296   2.926
 1040SOL    HW2 4020   5.340   3.412   3.014
 1041SOL     OW 4021   6.782   6.913   4.160
 1041SOL    HW1 4022   6.843   6.991   4.174
 1041SOL    HW2 4023   6.814   6.859   4.082
 1042SOL     OW 4024   3.273   4.847   2.254
 1042SOL    HW1 4025   3.198   4.838   2.187
 1042SOL    HW2 4026   3.238   4.830   2.346
 1043SOL     OW 4027   4.316   1.165   5.846
 1043SOL    HW1 4028   4.331   1.067   5.862
 1043SOL    HW2 4029   4.399   1.206   5.810
 1044SOL     OW 4030   4.217   2.414   1.751
 1044SOL    HW1 4031   4.180   2.331   1.793
 1044SOL    HW2 4032   4.141   2.472   1.721
 1045SOL     OW 4033   2.791   0.034   1.423
 1045SOL    HW1 4034   2.843   6.986   1.470
 1045SOL    HW2 4035   2.700   0.041   1.464
 1046SOL     OW 4036   2.061   6.702   6.754
 1046SOL    HW1 4037   2.155   6.679   6.779
 1046SOL    HW2 4038   2.054   6.711   6.655
 1047SOL     OW 4039   1.482   5.359   2.842
 1047SOL    HW1 4040   1.413   5.400   2.781
 1047SOL    HW2 4041   1.529   5.286   2.793
 1048SOL     OW 4042   4.362   5.472   5.496
 1048SOL    HW1 4043   4.431   5.442   5.430
 1048SOL    HW2 4044   4.388   5.442   5.587
 1049SOL     OW 4045   6.902   4.402   4.792
 1049SOL    HW1 4046   6.843   4.373   4.717
 1049SOL    HW2 4047   6.864   4.484   4.835
 1050SOL     OW 4048   2.947   5.470   1.086
 1050SOL    HW1 4049   2.949   5.507   0.993
 1050SOL    HW2 4050   2.881   5.522   1.141
 1051SOL     OW 4051   3.475   4.520   0.197
 1051SOL    HW1 4052   3.407   4.451   0.176
 1051SOL    HW2 4053   3.435   4.611   0.185
 1052SOL     OW 4054   4.466   0.376   3.950
 1052SOL    HW1 4055   4.474   0.474   3.929
 1052SOL    HW2 4056   4.380   0.341   3.913
 1053SOL     OW 4057   5.566   5.975   3.366
 1053SOL    HW1 4058   5.522   5.894   3.407
 1053SOL    HW2 4059   5.534   6.057   3.413
 1054SOL     OW 4060   2.377   4.733   5.259
 1054SOL    HW1 4061   2.369   4.823   5.215
 1054SOL    HW2 4062   2.448   4.679   5.214
 1055SOL     OW 4063   5.494   6.697   4.408
 1055SOL    HW1 4064   5.529   6.638   4.481
 1055SOL    HW2 4065   5.517   6.792   4.429
 1056SOL     OW 4066   1.521   5.927   5.352
 1056SOL    HW1 4067   1.497   5.905   5.258
 1056SOL    HW2 4068   1.617   5.952   5.358
 1057SOL     OW 4069   3.466   4.178   3.147
 1057SOL    HW1 4070   3.399   4.159   3.075
 1057SOL    HW2 4071   3.549   4.125   3.131
 1058SOL     OW 4072   4.947   1.470   2.581
 1058SOL    HW1 4073   5.003   1.550   2.559
 1058SOL    HW2 4074   4.865   1.470   2.524
 1059SOL     OW 4075   3.157   0.386   2.056
 1059SOL    HW1 4076   3.196   0.474   2.031
 1059SOL    HW2 4077   3.212   0.312   2.018
 1060SOL     OW 4078   6.932   3.723   5.276
 1060SOL    HW1 4079   6.992   3.707   5.354
 1060SOL    HW2 4080   6.836   3.713   5.305
 1061SOL     OW 4081   4.702   4.419   1.477
 1061SOL    HW1 4082   4.622   4.439   1.420
 1061SOL    HW2 4083   4.672   4.375   1.562
 1062SOL     OW 4084   6.617   5.683   6.153
 1062SOL    HW1 4085   6.556   5.684   6.233
 1062SOL    HW2 4086   6.586   5.613   6.089
 1063SOL     OW 4087   1.013   4.083   1.154
 1063SOL    HW1 4088   0.984   4.092   1.249
 1063SOL    HW2 4089   0.955   4.139   1.096
 1064SOL     OW 4090   0.844   4.246   2.363
 1064SOL    HW1 4091   0.839   4.346   2.367
 1064SOL    HW2 4092   0.854   4.218   2.267
 1065SOL     OW 4093   4.526   0.774   5.133
 1065SOL    HW1 4094   4.610   0.742   5.178
 1065SOL    HW2 4095   4.512   0.724   5.048
 1066SOL     OW 4096   5.468   0.833   4.102
 1066SOL    HW1 4097   5.405   0.910   4.088
 1066SOL    HW2 4098   5.428   0.768   4.165
 1067SOL     OW 4099   1.758   2.915   0.527
 1067SOL    HW1 4100   1.689   2.855   0.488
 1067SOL    HW2 4101   1.783   2.986   0.460
 1068SOL     OW 4102   5.604   3.901   1.786
 1068SOL    HW1 4103   5.559   3.812   1.779
 1068SOL    HW2 4104   5.537   3.973   1.767
 1069SOL     OW 4105   5.095   5.194   1.349
 1069SOL    HW1 4106   5.083   5.124   1.278
 1069SOL    HW2 4107   5.066   5.156   1.437
 1070SOL     OW 4108   0.811   1.221   6.853
 1070SOL    HW1 4109   0.806   1.152   6.925
 1070SOL    HW2 4110   0.831   1.178   6.765
 1071SOL     OW 4111   4.120   0.488   3.460
 1071SOL    HW1 4112   4.137   0.576   3.504
 1071SOL    HW2 4113   4.195   0.466   3.397
 1072SOL     OW 4114   1.982   6.193   2.215
 1072SOL    HW1 4115   1.932   6.272   2.178
 1072SOL    HW2 4116   1.917   6.121   2.238
 1073SOL     OW 4117   3.625   5.792   2.525
 1073SOL    HW1 4118   3.710   5.759   2.566
 1073SOL    HW2 4119   3.603   5.737   2.444
 1074SOL     OW 4120   2.051   5.717   1.764
 1074SOL    HW1 4121   2.141   5.682   1.787
 1074SOL    HW2 4122   2.058   5.814   1.742
 1075SOL     OW 4123   4.823   5.044   3.426
 1075SOL    HW1 4124   4.834   4.963   3.368
 1075SOL    HW2 4125   4.728   5.074   3.424
 1076SOL     OW 4126   0.576   4.266   4.889
 1076SOL    HW1 4127   0.527   4.184   4.858
 1076SOL    HW2 4128   0.559   4.341   4.825
 1077SOL     OW 4129   5.771   0.146   0.111
 1077SOL    HW1 4130   5.845   0.080   0.126
 1077SOL    HW2 4131   5.712   0.149   0.192
 1078SOL     OW 4132   1.588   0.964   2.277
 1078SOL    HW1 4133   1.641   1.046   2.299
 1078SOL    HW2 4134   1.491   0.986   2.278
 1079SOL     OW 4135   1.666   5.103   3.178
 1079SOL    HW1 4136   1.678   5.200   3.160
 1079SOL    HW2 4137   1.730   5.051   3.121
 1080SOL     OW 4138   1.699   4.347   3.596
 1080SOL    HW1 4139   1.664   4.282   3.664
 1080SOL    HW2 4140   1.628   4.413   3.573
 1081SOL     OW 4141   0.179   1.172   5.427
 1081SOL    HW1 4142   0.241   1.229   5.373
 1081SOL    HW2 4143   0.118   1.231   5.481
 1082SOL     OW 4144   1.612   0.367   6.042
 1082SOL    HW1 4145   1.516   0.386   6.063
 1082SOL    HW2 4146   1.669   0.399   6.117
 1083SOL     OW 4147   3.545   4.049   2.156
 1083SOL    HW1 4148   3.452   4.012   2.153
 1083SOL    HW2 4149   3.572   4.078   2.064
 1084SOL     OW 4150   6.299   5.690   0.980
 1084SOL    HW1 4151   6.292   5.707   0.881
 1084SOL    HW2 4152   6.394   5.672   1.005
 1085SOL     OW 4153   1.996   3.722   3.268
 1085SOL    HW1 4154   2.020   3.631   3.234
 1085SOL    HW2 4155   2.079   3.769   3.298
 1086SOL     OW 4156   6.208   5.602   3.054
 1086SOL    HW1 4157   6.245   5.516   3.020
 1086SOL    HW2 4158   6.111   5.609   3.032
 1087SOL     OW 4159   5.576   3.154   5.618
 1087SOL    HW1 4160   5.645   3.226   5.633
 1087SOL    HW2 4161   5.485   3.193   5.626
 1088SOL     OW 4162   6.324   4.943   3.463
 1088SOL    HW1 4163   6.313   4.998   3.546
 1088SOL    HW2 4164   6.381   4.993   3.398
 1089SOL     OW 4165   0.920   0.734   4.755
 1089SOL    HW1 4166   0.967   0.765   4.672
 1089SOL    HW2 4167   0.908   0.811   4.817
 1090SOL     OW 4168   2.867   1.457   4.024
 1090SOL    HW1 4169   2.882   1.495   3.932
 1090SOL    HW2 4170   2.771   1.468   4.048
 1091SOL     OW 4171   1.809   1.749   4.075
 1091SOL    HW1 4172   1.807   1.708   3.984
 1091SOL    HW2 4173   1.750   1.696   4.136
 1092SOL     OW 4174   2.340   3.568   1.245
 1092SOL    HW1 4175   2.252   3.605   1.277
 1092SOL    HW2 4176   2.406   3.571   1.320
 1093SOL     OW 4177   2.212   1.087   3.006
 1093SOL    HW1 4178   2.169   1.071   3.095
 1093SOL    HW2 4179   2.156   1.150   2.952
 1094SOL     OW 4180   6.828   6.744   2.600
 1094SOL    HW1 4181   6.896   6.786   2.539
 1094SOL    HW2 4182   6.868   6.664   2.645
 1095SOL     OW 4183   6.607   2.260   5.870
 1095SOL    HW1 4184   6.670   2.252   5.948
 1095SOL    HW2 4185   6.537   2.189   5.877
 1096SOL     OW 4186   3.535   4.520   1.364
 1096SOL    HW1 4187   3.454   4.530   1.307
 1096SOL    HW2 4188   3.614   4.499   1.307
 1097SOL     OW 4189   0.984   4.267   4.587
 1097SOL    HW1 4190   0.943   4.265   4.496
 1097SOL    HW2 4191   1.037   4.351   4.598
 1098SOL     OW 4192   5.451   2.692   1.087
 1098SOL    HW1 4193   5.400   2.640   1.018
 1098SOL    HW2 4194   5.520   2.749   1.043
 1099SOL     OW 4195   4.358   1.225   4.847
 1099SOL    HW1 4196   4.386   1.216   4.752
 1099SOL    HW2 4197   4.359   1.321   4.874
 1100SOL     OW 4198   1.559   1.647   6.024
 1100SOL    HW1 4199   1.507   1.600   6.096
 1100SOL    HW2 4200   1.533   1.744   6.023
 1101SOL     OW 4201   5.409   2.735   1.412
 1101SOL    HW1 4202   5.451   2.665   1.470
 1101SOL    HW2 4203   5.473   2.761   1.339
 1102SOL     OW 4204   1.563   4.850   3.286
 1102SOL    HW1 4205   1.578   4.929   3.225
 1102SOL    HW2 4206   1.594   4.873   3.378
 1103SOL     OW 4207   2.249   0.680   1.094
 1103SOL    HW1 4208   2.195   0.715   1.018
 1103SOL    HW2 4209   2.206   0.707   1.180
 1104SOL     OW 4210   1.564   4.063   6.174
 1104SOL    HW1 4211   1.613   4.131   6.228
 1104SOL    HW2 4212   1.629   4.013   6.117
 1105SOL     OW 4213   4.881   3.603   5.828
 1105SOL    HW1 4214   4.884   3.572   5.923
 1105SOL    HW2 4215   4.967   3.578   5.782
 1106SOL     OW 4216   1.305   1.660   0.350
 1106SOL    HW1 4217   1.210   1.675   0.378
 1106SOL    HW2 4218   1.308   1.647   0.250
 1107SOL     OW 4219   0.588   0.291   6.797
 1107SOL    HW1 4220   0.569   0.200   6.762
 1107SOL    HW2 4221   0.611   0.286   6.894
 1108SOL     OW 4222   2.667   0.243   6.144
 1108SOL    HW1 4223   2.583   0.294   6.128
 1108SOL    HW2 4224   2.676   0.172   6.074
 1109SOL     OW 4225   4.287   5.810   4.884
 1109SOL    HW1 4226   4.305   5.896   4.836
 1109SOL    HW2 4227   4.364   5.788   4.944
 1110SOL     OW 4228   3.223   1.816   2.247
 1110SOL    HW1 4229   3.213   1.905   2.202
 1110SOL    HW2 4230   3.155   1.807   2.319
 1111SOL     OW 4231   5.495   6.157   0.278
 1111SOL    HW1 4232   5.517   6.252   0.301
 1111SOL    HW2 4233   5.542   6.130   0.195
 1112SOL     OW 4234   6.288   1.168   2.635
 1112SOL    HW1 4235   6.301   1.266   2.623
 1112SOL    HW2 4236   6.191   1.146   2.631
 1113SOL     OW 4237   6.433   3.035   2.687
 1113SOL    HW1 4238   6.472   3.059   2.598
 1113SOL    HW2 4239   6.400   3.118   2.732
 1114SOL     OW 4240   4.556   0.828   6.337
 1114SOL    HW1 4241   4.458   0.830   6.355
 1114SOL    HW2 4242   4.603   0.776   6.408
 1115SOL     OW 4243   4.763   3.273   0.207
 1115SOL    HW1 4244   4.733   3.238   0.296
 1115SOL    HW2 4245   4.734   3.368   0.197
 1116SOL     OW 4246   5.285   5.670   4.234
 1116SOL    HW1 4247   5.269   5.715   4.321
 1116SOL    HW2 4248   5.207   5.612   4.210
 1117SOL     OW 4249   2.787   2.428   1.465
 1117SOL    HW1 4250   2.872   2.427   1.517
 1117SOL    HW2 4251   2.712   2.392   1.521
 1118SOL     OW 4252   1.232   5.169   2.273
 1118SOL    HW1 4253   1.311   5.121   2.312
 1118SOL    HW2 4254   1.236   5.266   2.298
 1119SOL     OW 4255   3.660   3.938   1.064
 1119SOL    HW1 4256   3.593   3.981   1.003
 1119SOL    HW2 4257   3.679   3.999   1.141
 1120SOL     OW 4258   5.296   6.513   5.844
 1120SOL    HW1 4259   5.329   6.431   5.798
 1120SOL    HW2 4260   5.373   6.567   5.877
 1121SOL     OW 4261   5.060   3.340   2.718
 1121SOL    HW1 4262   5.006   3.340   2.634
 1121SOL    HW2 4263   4.998   3.335   2.797
 1122SOL     OW 4264   5.194   2.989   5.874
 1122SOL    HW1 4265   5.280   2.941   5.890
 1122SOL    HW2 4266   5.154   2.957   5.788
 1123SOL     OW 4267   4.761   1.731   2.386
 1123SOL    HW1 4268   4.695   1.662   2.359
 1123SOL    HW2 4269   4.779   1.792   2.309
 1124SOL     OW 4270   6.876   4.082   5.083
 1124SOL    HW1 4271   6.918   3.996   5.056
 1124SOL    HW2 4272   6.914   4.112   5.171
 1125SOL     OW 4273   2.664   1.870   5.098
 1125SOL    HW1 4274   2.660   1.939   5.170
 1125SOL    HW2 4275   2.651   1.913   5.009
 1126SOL     OW 4276   4.945   0.083   6.735
 1126SOL    HW1 4277   4.985   0.049   6.820
 1126SOL    HW2 4278   4.900   0.171   6.753
 1127SOL     OW 4279   3.566   5.196   5.511
 1127SOL    HW1 4280   3.497   5.202   5.440
 1127SOL    HW2 4281   3.541   5.255   5.588
 1128SOL     OW 4282   4.527   2.487   4.681
 1128SOL    HW1 4283   4.606   2.540   4.651
 1128SOL    HW2 4284   4.504   2.512   4.775
 1129SOL     OW 4285   3.783   6.818   0.043
 1129SOL    HW1 4286   3.818   6.908   0.018
 1129SOL    HW2 4287   3.845   6.777   0.111
 1130SOL     OW 4288   1.513   4.173   0.352
 1130SOL    HW1 4289   1.594   4.120   0.373
 1130SOL    HW2 4290   1.540   4.264   0.319
 1131SOL     OW 4291   0.350   6.305   5.757
 1131SOL    HW1 4292   0.329   6.230   5.820
 1131SOL    HW2 4293   0.269   6.363   5.746
 1132SOL     OW 4294   4.502   0.216   6.729
 1132SOL    HW1 4295   4.534   0.149   6.661
 1132SOL    HW2 4296   4.537   0.190   6.819
 1133SOL     OW 4297   6.788   2.444   0.957
 1133SOL    HW1 4298   6.765   2.354   0.994
 1133SOL    HW2 4299   6.711   2.507   0.969
 1134SOL     OW 4300   5.720   2.147   0.273
 1134SOL    HW1 4301   5.724   2.245   0.290
 1134SOL    HW2 4302   5.644   2.127   0.210
 1135SOL     OW 4303   2.961   1.872   2.688
 1135SOL    HW1 4304   2.940   1.956   2.738
 1135SOL    HW2 4305   2.900   1.799   2.718
 1136SOL     OW 4306   2.975   4.939   4.511
 1136SOL    HW1 4307   3.064   4.900   4.488
 1136SOL    HW2 4308   2.923   4.872   4.564
 1137SOL     OW 4309   1.095   3.094   0.146
 1137SOL    HW1 4310   1.034   3.171   0.129
 1137SOL    HW2 4311   1.068   3.048   0.231
 1138SOL     OW 4312   1.923   1.835   5.953
 1138SOL    HW1 4313   1.971   1.810   6.038
 1138SOL    HW2 4314   1.910   1.753   5.897
 1139SOL     OW 4315   2.621   6.691   2.509
 1139SOL    HW1 4316   2.577   6.662   2.594
 1139SOL    HW2 4317   2.673   6.775   2.525
 1140SOL     OW 4318   4.008   2.201   2.184
 1140SOL    HW1 4319   3.976   2.166   2.272
 1140SOL    HW2 4320   3.980   2.139   2.111
 1141SOL     OW 4321   6.351   5.842   5.805
 1141SOL    HW1 4322   6.421   5.771   5.802
 1141SOL    HW2 4323   6.310   5.846   5.897
 1142SOL     OW 4324   4.894   0.709   4.943
 1142SOL    HW1 4325   4.811   0.666   4.977
 1142SOL    HW2 4326   4.950   0.641   4.896
 1143SOL     OW 4327   3.568   2.116   2.666
 1143SOL    HW1 4328   3.659   2.156   2.656
 1143SOL    HW2 4329   3.523   2.113   2.577
 1144SOL     OW 4330   6.724   4.289   4.630
 1144SOL    HW1 4331   6.661   4.342   4.572
 1144SOL    HW2 4332   6.679   4.204   4.658
 1145SOL     OW 4333   0.355   5.177   3.365
 1145SOL    HW1 4334   0.346   5.252   3.431
 1145SOL    HW2 4335   0.327   5.209   3.275
 1146SOL     OW 4336   5.289   0.984   1.419
 1146SOL    HW1 4337   5.379   1.026   1.436
 1146SOL    HW2 4338   5.267   0.992   1.322
 1147SOL     OW 4339   1.134   4.211   0.835
 1147SOL    HW1 4340   1.224   4.234   0.870
 1147SOL    HW2 4341   1.065   4.266   0.881
 1148SOL     OW 4342   2.574   6.487   6.967
 1148SOL    HW1 4343   2.663   6.483   7.013
 1148SOL    HW2 4344   2.562   6.405   6.911
 1149SOL     OW 4345   5.304   3.567   3.042
 1149SOL    HW1 4346   5.357   3.651   3.053
 1149SOL    HW2 4347   5.231   3.582   2.975
 1150SOL     OW 4348   2.013   4.199   1.458
 1150SOL    HW1 4349   2.061   4.270   1.509
 1150SOL    HW2 4350   1.943   4.241   1.400
 1151SOL     OW 4351   5.294   5.820   6.613
 1151SOL    HW1 4352   5.292   5.856   6.520
 1151SOL    HW2 4353   5.386   5.788   6.634
 1152SOL     OW 4354   0.964   6.915   5.234
 1152SOL    HW1 4355   1.020   6.905   5.316
 1152SOL    HW2 4356   0.905   6.995   5.244
 1153SOL     OW 4357   3.146   6.807   2.413
 1153SOL    HW1 4358   3.223   6.785   2.353
 1153SOL    HW2 4359   3.176   6.870   2.484
 1154SOL     OW 4360   0.277   3.386   1.747
 1154SOL    HW1 4361   0.326   3.327   1.812
 1154SOL    HW2 4362   0.179   3.383   1.769
 1155SOL     OW 4363   3.586   5.231   6.465
 1155SOL    HW1 4364   3.600   5.150   6.522
 1155SOL    HW2 4365   3.509   5.283   6.501
 1156SOL     OW 4366   2.397   0.629   4.208
 1156SOL    HW1 4367   2.490   0.665   4.211
 1156SOL    HW2 4368   2.333   0.699   4.240
 1157SOL     OW 4369   6.489   2.065   4.394
 1157SOL    HW1 4370   6.498   2.094   4.299
 1157SOL    HW2 4371   6.457   1.970   4.397
 1158SOL     OW 4372   6.227   5.345   5.583
 1158SOL    HW1 4373   6.138   5.352   5.538
 1158SOL    HW2 4374   6.295   5.311   5.518
 1159SOL     OW 4375   4.616   0.630   2.817
 1159SOL    HW1 4376   4.641   0.726   2.809
 1159SOL    HW2 4377   4.593   0.609   2.912
 1160SOL     OW 4378   3.253   3.458   1.441
 1160SOL    HW1 4379   3.352   3.475   1.435
 1160SOL    HW2 4380   3.212   3.464   1.350
 1161SOL     OW 4381   4.967   0.190   5.190
 1161SOL    HW1 4382   5.051   0.140   5.210
 1161SOL    HW2 4383   4.959   0.204   5.091
 1162SOL     OW 4384   3.920   3.205   0.627
 1162SOL    HW1 4385   3.973   3.290   0.621
 1162SOL    HW2 4386   3.865   3.194   0.545
 1163SOL     OW 4387   5.334   2.595   1.977
 1163SOL    HW1 4388   5.333   2.677   2.034
 1163SOL    HW2 4389   5.269   2.528   2.013
 1164SOL     OW 4390   5.726   2.864   3.876
 1164SOL    HW1 4391   5.768   2.953   3.866
 1164SOL    HW2 4392   5.674   2.861   3.962
 1165SOL     OW 4393   1.972   4.062   3.602
 1165SOL    HW1 4394   1.922   4.043   3.687
 1165SOL    HW2 4395   2.055   4.113   3.623
 1166SOL     OW 4396   3.718   0.689   6.926
 1166SOL    HW1 4397   3.727   0.758   6.998
 1166SOL    HW2 4398   3.667   0.727   6.849
 1167SOL     OW 4399   3.020   0.315   6.117
 1167SOL    HW1 4400   3.045   0.247   6.048
 1167SOL    HW2 4401   2.921   0.329   6.115
 1168SOL     OW 4402   5.846   0.032   2.425
 1168SOL    HW1 4403   5.938   0.020   2.387
 1168SOL    HW2 4404   5.800   6.966   2.429
 1169SOL     OW 4405   0.504   3.160   0.536
 1169SOL    HW1 4406   0.478   3.163   0.633
 1169SOL    HW2 4407   0.599   3.189   0.526
 1170SOL     OW 4408   4.004   0.751   1.901
 1170SOL    HW1 4409   4.063   0.832   1.902
 1170SOL    HW2 4410   3.923   0.770   1.846
 1171SOL     OW 4411   2.674   5.880   0.383
 1171SOL    HW1 4412   2.631   5.970   0.392
 1171SOL    HW2 4413   2.723   5.858   0.467
 1172SOL     OW 4414   3.268   4.155   3.696
 1172SOL    HW1 4415   3.168   4.149   3.695
 1172SOL    HW2 4416   3.300   4.194   3.610
 1173SOL     OW 4417   3.484   6.527   5.709
 1173SOL    HW1 4418   3.462   6.507   5.613
 1173SOL    HW2 4419   3.571   6.485   5.733
 1174SOL     OW 4420   2.919   5.834   0.946
 1174SOL    HW1 4421   2.930   5.738   0.920
 1174SOL    HW2 4422   2.915   5.842   1.045
 1175SOL     OW 4423   5.126   3.906   6.906
 1175SOL    HW1 4424   5.057   3.833   6.911
 1175SOL    HW2 4425   5.216   3.866   6.890
 1176SOL     OW 4426   6.246   4.686   0.089
 1176SOL    HW1 4427   6.251   4.761   0.154
 1176SOL    HW2 4428   6.338   4.661   0.060
 1177SOL     OW 4429   0.313   2.263   5.283
 1177SOL    HW1 4430   0.257   2.313   5.350
 1177SOL    HW2 4431   0.253   2.226   5.212
 1178SOL     OW 4432   4.726   3.869   1.697
 1178SOL    HW1 4433   4.775   3.846   1.780
 1178SOL    HW2 4434   4.781   3.932   1.642
 1179SOL     OW 4435   2.525   4.701   0.400
 1179SOL    HW1 4436   2.483   4.739   0.482
 1179SOL    HW2 4437   2.616   4.739   0.387
 1180SOL     OW 4438   2.629   0.777   4.141
 1180SOL    HW1 4439   2.581   0.842   4.201
 1180SOL    HW2 4440   2.583   0.774   4.052
 1181SOL     OW 4441   0.762   3.261   4.382
 1181SOL    HW1 4442   0.807   3.328   4.322
 1181SOL    HW2 4443   0.807   3.263   4.471
 1182SOL     OW 4444   2.303   4.840   3.111
 1182SOL    HW1 4445   2.308   4.810   3.016
 1182SOL    HW2 4446   2.391   4.877   3.140
 1183SOL     OW 4447   4.288   5.132   2.527
 1183SOL    HW1 4448   4.286   5.037   2.558
 1183SOL    HW2 4449   4.317   5.135   2.431
 1184SOL     OW 4450   3.793   2.324   5.435
 1184SOL    HW1 4451   3.703   2.366   5.441
 1184SOL    HW2 4452   3.822   2.294   5.526
 1185SOL     OW 4453   2.323   0.569   0.564
 1185SOL    HW1 4454   2.374   0.495   0.520
 1185SOL    HW2 4455   2.349   0.656   0.523
 1186SOL     OW 4456   6.172   0.339   6.237
 1186SOL    HW1 4457   6.177   0.427   6.191
 1186SOL    HW2 4458   6.108   0.279   6.188
 1187SOL     OW 4459   5.302   6.192   5.369
 1187SOL    HW1 4460   5.350   6.136   5.436
 1187SOL    HW2 4461   5.315   6.289   5.391
 1188SOL     OW 4462   3.214   6.431   6.440
 1188SOL    HW1 4463   3.133   6.458   6.494
 1188SOL    HW2 4464   3.225   6.494   6.363
 1189SOL     OW 4465   5.111   1.424   1.988
 1189SOL    HW1 4466   5.188   1.420   2.053
 1189SOL    HW2 4467   5.039   1.362   2.018
 1190SOL     OW 4468   4.057   5.067   4.596
 1190SOL    HW1 4469   4.055   5.079   4.695
 1190SOL    HW2 4470   3.974   5.020   4.566
 1191SOL     OW 4471   3.549   5.363   5.753
 1191SOL    HW1 4472   3.477   5.402   5.811
 1191SOL    HW2 4473   3.616   5.317   5.810
 1192SOL     OW 4474   5.600   4.845   2.968
 1192SOL    HW1 4475   5.567   4.915   2.904
 1192SOL    HW2 4476   5.638   4.768   2.918
 1193SOL     OW 4477   6.361   0.344   4.161
 1193SOL    HW1 4478   6.347   0.435   4.124
 1193SOL    HW2 4479   6.452   0.339   4.204
 1194SOL     OW 4480   0.348   1.231   0.687
 1194SOL    HW1 4481   0.341   1.210   0.589
 1194SOL    HW2 4482   0.433   1.193   0.723
 1195SOL     OW 4483   6.346   1.814   0.601
 1195SOL    HW1 4484   6.278   1.807   0.674
 1195SOL    HW2 4485   6.330   1.898   0.550
 1196SOL     OW 4486   0.003   5.041   1.961
 1196SOL    HW1 4487   6.979   4.957   1.935
 1196SOL    HW2 4488   0.038   5.032   2.054
 1197SOL     OW 4489   3.920   5.845   5.613
 1197SOL    HW1 4490   4.004   5.899   5.616
 1197SOL    HW2 4491   3.883   5.835   5.706
 1198SOL     OW 4492   2.329   2.747   2.119
 1198SOL    HW1 4493   2.389   2.677   2.158
 1198SOL    HW2 4494   2.336   2.746   2.019
 1199SOL     OW 4495   4.104   3.413   2.814
 1199SOL    HW1 4496   4.061   3.502   2.795
 1199SOL    HW2 4497   4.110   3.399   2.913
 1200SOL     OW 4498   4.215   3.618   5.161
 1200SOL    HW1 4499   4.302   3.618   5.211
 1200SOL    HW2 4500   4.176   3.525   5.163
 1201SOL     OW 4501   0.583   1.154   4.226
 1201SOL    HW1 4502   0.634   1.151   4.313
 1201SOL    HW2 4503   0.567   1.249   4.200
 1202SOL     OW 4504   5.879   0.834   5.891
 1202SOL    HW1 4505   5.949   0.894   5.929
 1202SOL    HW2 4506   5.922   0.755   5.847
 1203SOL     OW 4507   5.712   7.023   1.060
 1203SOL    HW1 4508   5.669   6.940   1.097
 1203SOL    HW2 4509   5.649   0.077   1.071
 1204SOL     OW 4510   3.853   1.213   0.161
 1204SOL    HW1 4511   3.888   1.121   0.179
 1204SOL    HW2 4512   3.759   1.220   0.195
 1205SOL     OW 4513   4.996   3.134   6.623
 1205SOL    HW1 4514   4.987   3.146   6.524
 1205SOL    HW2 4515   5.089   3.106   6.645
 1206SOL     OW 4516   1.900   1.443   4.886
 1206SOL    HW1 4517   1.869   1.350   4.905
 1206SOL    HW2 4518   1.829   1.509   4.911
 1207SOL     OW 4519   7.006   6.751   1.066
 1207SOL    HW1 4520   6.990   6.752   1.165
 1207SOL    HW2 4521   0.022   6.664   1.039
 1208SOL     OW 4522   3.802   4.087   2.544
 1208SOL    HW1 4523   3.729   4.061   2.481
 1208SOL    HW2 4524   3.818   4.186   2.538
 1209SOL     OW 4525   5.891   6.725   4.812
 1209SOL    HW1 4526   5.929   6.643   4.855
 1209SOL    HW2 4527   5.939   6.741   4.725
 1210SOL     OW 4528   4.217   6.749   2.757
 1210SOL    HW1 4529   4.274   6.673   2.724
 1210SOL    HW2 4530   4.191   6.733   2.852
 1211SOL     OW 4531   1.654   3.356   3.759
 1211SOL    HW1 4532   1.582   3.424   3.771
 1211SOL    HW2 4533   1.742   3.402   3.752
 1212SOL     OW 4534   0.512   2.661   5.278
 1212SOL    HW1 4535   0.516   2.673   5.377
 1212SOL    HW2 4536   0.427   2.699   5.243
 1213SOL     OW 4537   6.035   2.557   4.703
 1213SOL    HW1 4538   6.018   2.458   4.706
 1213SOL    HW2 4539   6.131   2.573   4.681
 1214SOL     OW 4540   1.564   3.134   4.066
 1214SOL    HW1 4541   1.651   3.091   4.044
 1214SOL    HW2 4542   1.513   3.076   4.129
 1215SOL     OW 4543   1.945   4.529   2.261
 1215SOL    HW1 4544   1.912   4.605   2.206
 1215SOL    HW2 4545   1.984   4.459   2.201
 1216SOL     OW 4546   0.218   0.215   1.510
 1216SOL    HW1 4547   0.147   0.226   1.579
 1216SOL    HW2 4548   0.303   0.185   1.554
 1217SOL     OW 4549   1.752   6.576   0.960
 1217SOL    HW1 4550   1.710   6.521   0.888
 1217SOL    HW2 4551   1.772   6.517   1.039
 1218SOL     OW 4552   1.135   2.607   5.030
 1218SOL    HW1 4553   1.042   2.639   5.012
 1218SOL    HW2 4554   1.133   2.544   5.108
 1219SOL     OW 4555   4.412   4.950   1.128
 1219SOL    HW1 4556   4.430   4.944   1.226
 1219SOL    HW2 4557   4.355   5.030   1.109
 1220SOL     OW 4558   5.342   4.204   2.424
 1220SOL    HW1 4559   5.266   4.241   2.370
 1220SOL    HW2 4560   5.331   4.229   2.520
 1221SOL     OW 4561   6.179   3.491   6.821
 1221SOL    HW1 4562   6.249   3.420   6.812
 1221SOL    HW2 4563   6.224   3.578   6.844
 1222SOL     OW 4564   0.123   0.494   1.102
 1222SOL    HW1 4565   0.184   0.472   1.026
 1222SOL    HW2 4566   0.149   0.583   1.141
 1223SOL     OW 4567   5.457   1.038   0.886
 1223SOL    HW1 4568   5.551   1.055   0.854
 1223SOL    HW2 4569   5.451   0.944   0.920
 1224SOL     OW 4570   3.754   6.066   6.890
 1224SOL    HW1 4571   3.812   6.002   6.941
 1224SOL    HW2 4572   3.679   6.015   6.846
 1225SOL     OW 4573   3.973   2.254   1.186
 1225SOL    HW1 4574   3.889   2.308   1.173
 1225SOL    HW2 4575   3.982   2.188   1.112
 1226SOL     OW 4576   5.746   6.628   0.893
 1226SOL    HW1 4577   5.715   6.657   0.984
 1226SOL    HW2 4578   5.845   6.633   0.888
 1227SOL     OW 4579   6.078   5.062   5.550
 1227SOL    HW1 4580   6.036   5.035   5.637
 1227SOL    HW2 4581   6.177   5.049   5.555
 1228SOL     OW 4582   3.889   3.046   0.912
 1228SOL    HW1 4583   3.880   2.988   0.831
 1228SOL    HW2 4584   3.914   3.139   0.885
 1229SOL     OW 4585   1.861   0.168   1.947
 1229SOL    HW1 4586   1.910   0.092   1.905
 1229SOL    HW2 4587   1.781   0.134   1.996
 1230SOL     OW 4588   5.240   5.714   3.045
 1230SOL    HW1 4589   5.158   5.747   2.997
 1230SOL    HW2 4590   5.237   5.614   3.051
 1231SOL     OW 4591   1.555   3.023   5.898
 1231SOL    HW1 4592   1.557   2.938   5.845
 1231SOL    HW2 4593   1.467   3.031   5.944
 1232SOL     OW 4594   4.406   1.245   5.383
 1232SOL    HW1 4595   4.470   1.240   5.306
 1232SOL    HW2 4596   4.362   1.335   5.383
 1233SOL     OW 4597   0.739   5.488   3.673
 1233SOL    HW1 4598   0.828   5.486   3.719
 1233SOL    HW2 4599   0.672   5.531   3.732
 1234SOL     OW 4600   0.318   2.852   6.616
 1234SOL    HW1 4601   0.365   2.917   6.677
 1234SOL    HW2 4602   0.336   2.878   6.521
 1235SOL     OW 4603   6.432   5.245   6.884
 1235SOL    HW1 4604   6.450   5.174   6.952
 1235SOL    HW2 4605   6.341   5.231   6.845
 1236SOL     OW 4606   3.304   1.898   0.283
 1236SOL    HW1 4607   3.389   1.932   0.324
 1236SOL    HW2 4608   3.248   1.855   0.354
 1237SOL     OW 4609   1.660   6.505   4.977
 1237SOL    HW1 4610   1.621   6.593   5.005
 1237SOL    HW2 4611   1.613   6.431   5.026
 1238SOL     OW 4612   0.494   6.655   3.420
 1238SOL    HW1 4613   0.455   6.723   3.358
 1238SOL    HW2 4614   0.593   6.664   3.422
 1239SOL     OW 4615   6.859   5.175   4.789
 1239SOL    HW1 4616   6.924   5.111   4.830
 1239SOL    HW2 4617   6.766   5.145   4.811
 1240SOL     OW 4618   5.784   5.532   2.067
 1240SOL    HW1 4619   5.799   5.443   2.110
 1240SOL    HW2 4620   5.724   5.521   1.988
 1241SOL     OW 4621   6.791   4.781   4.832
 1241SOL    HW1 4622   6.740   4.867   4.842
 1241SOL    HW2 4623   6.872   4.796   4.777
 1242SOL     OW 4624   1.996   4.225   0.197
 1242SOL    HW1 4625   2.089   4.263   0.201
 1242SOL    HW2 4626   1.989   4.163   0.119
 1243SOL     OW 4627   0.280   2.195   4.897
 1243SOL    HW1 4628   0.308   2.102   4.918
 1243SOL    HW2 4629   0.331   2.228   4.817
 1244SOL     OW 4630   5.185   0.058   5.254
 1244SOL    HW1 4631   5.273   0.104   5.266
 1244SOL    HW2 4632   5.179   7.004   5.318
 1245SOL     OW 4633   5.137   5.992   1.089
 1245SOL    HW1 4634   5.157   5.971   1.185
 1245SOL    HW2 4635   5.137   6.092   1.077
 1246SOL     OW 4636   4.109   1.198   2.056
 1246SOL    HW1 4637   4.071   1.245   2.136
 1246SOL    HW2 4638   4.190   1.147   2.084
 1247SOL     OW 4639   6.280   6.959   4.698
 1247SOL    HW1 4640   6.297   0.012   4.634
 1247SOL    HW2 4641   6.200   6.980   4.754
 1248SOL     OW 4642   0.672   6.303   4.004
 1248SOL    HW1 4643   0.674   6.355   3.919
 1248SOL    HW2 4644   0.603   6.230   3.997
 1249SOL     OW 4645   6.821   4.202   1.573
 1249SOL    HW1 4646   6.764   4.282   1.552
 1249SOL    HW2 4647   6.786   4.157   1.655
 1250SOL     OW 4648   6.385   3.265   5.380
 1250SOL    HW1 4649   6.345   3.352   5.406
 1250SOL    HW2 4650   6.375   3.251   5.281
 1251SOL     OW 4651   2.091   0.753   2.535
 1251SOL    HW1 4652   2.122   0.815   2.607
 1251SOL    HW2 4653   2.163   0.686   2.516
 1252SOL     OW 4654   3.547   5.185   6.197
 1252SOL    HW1 4655   3.527   5.278   6.167
 1252SOL    HW2 4656   3.579   5.186   6.291
 1253SOL     OW 4657   3.005   0.915   1.589
 1253SOL    HW1 4658   2.914   0.943   1.617
 1253SOL    HW2 4659   3.060   0.996   1.567
 1254SOL     OW 4660   6.470   1.470   3.211
 1254SOL    HW1 4661   6.467   1.515   3.122
 1254SOL    HW2 4662   6.555   1.417   3.219
 1255SOL     OW 4663   5.640   2.852   5.274
 1255SOL    HW1 4664   5.609   2.768   5.229
 1255SOL    HW2 4665   5.672   2.916   5.204
 1256SOL     OW 4666   6.790   6.065   3.054
 1256SOL    HW1 4667   6.745   6.149   3.084
 1256SOL    HW2 4668   6.727   5.988   3.062
 1257SOL     OW 4669   6.864   4.491   4.389
 1257SOL    HW1 4670   6.938   4.440   4.433
 1257SOL    HW2 4671   6.813   4.431   4.328
 1258SOL     OW 4672   2.009   6.264   3.004
 1258SOL    HW1 4673   2.002   6.219   2.915
 1258SOL    HW2 4674   2.037   6.197   3.073
 1259SOL     OW 4675   3.732   6.690   4.904
 1259SOL    HW1 4676   3.729   6.596   4.939
 1259SOL    HW2 4677   3.653   6.706   4.845
 1260SOL     OW 4678   3.153   1.147   1.953
 1260SOL    HW1 4679   3.139   1.244   1.973
 1260SOL    HW2 4680   3.065   1.101   1.945
 1261SOL     OW 4681   6.806   3.217   0.339
 1261SOL    HW1 4682   6.724   3.266   0.369
 1261SOL    HW2 4683   6.780   3.130   0.297
 1262SOL     OW 4684   4.541   4.493   1.247
 1262SOL    HW1 4685   4.474   4.522   1.179
 1262SOL    HW2 4686   4.611   4.436   1.204
 1263SOL     OW 4687   6.150   2.068   1.418
 1263SOL    HW1 4688   6.170   2.013   1.499
 1263SOL    HW2 4689   6.056   2.049   1.387
 1264SOL     OW 4690   0.379   4.348   2.897
 1264SOL    HW1 4691   0.354   4.398   2.980
 1264SOL    HW2 4692   0.450   4.281   2.919
 1265SOL     OW 4693   6.578   4.341   3.805
 1265SOL    HW1 4694   6.656   4.391   3.843
 1265SOL    HW2 4695   6.533   4.398   3.736
 1266SOL     OW 4696   2.510   1.369   4.220
 1266SOL    HW1 4697   2.559   1.402   4.301
 1266SOL    HW2 4698   2.418   1.341   4.247
 1267SOL     OW 4699   5.863   5.920   1.664
 1267SOL    HW1 4700   5.764   5.919   1.657
 1267SOL    HW2 4701   5.899   6.001   1.619
 1268SOL     OW 4702   5.041   2.306   0.304
 1268SOL    HW1 4703   5.082   2.385   0.349
 1268SOL    HW2 4704   5.112   2.255   0.256
 1269SOL     OW 4705   6.002   6.522   5.026
 1269SOL    HW1 4706   5.962   6.607   5.061
 1269SOL    HW2 4707   6.034   6.466   5.103
 1270SOL     OW 4708   2.120   3.909   4.172
 1270SOL    HW1 4709   2.023   3.934   4.174
 1270SOL    HW2 4710   2.129   3.814   4.139
 1271SOL     OW 4711   3.401   1.850   3.038
 1271SOL    HW1 4712   3.427   1.936   2.994
 1271SOL    HW2 4713   3.461   1.777   3.008
 1272SOL     OW 4714   0.030   6.005   1.148
 1272SOL    HW1 4715   0.030   5.926   1.209
 1272SOL    HW2 4716   0.123   6.040   1.138
 1273SOL     OW 4717   2.022   3.791   6.972
 1273SOL    HW1 4718   1.930   3.755   6.987
 1273SOL    HW2 4719   2.071   3.732   6.907
 1274SOL     OW 4720   0.094   2.913   1.563
 1274SOL    HW1 4721   0.107   2.978   1.488
 1274SOL    HW2 4722   0.155   2.835   1.550
 1275SOL     OW 4723   4.674   0.697   3.382
 1275SOL    HW1 4724   4.696   0.793   3.396
 1275SOL    HW2 4725   4.705   0.644   3.462
 1276SOL     OW 4726   0.029   0.569   3.588
 1276SOL    HW1 4727   6.962   0.526   3.589
 1276SOL    HW2 4728   0.028   0.648   3.527
 1277SOL     OW 4729   1.103   0.781   4.555
 1277SOL    HW1 4730   1.173   0.847   4.583
 1277SOL    HW2 4731   1.038   0.825   4.494
 1278SOL     OW 4732   1.535   1.724   5.117
 1278SOL    HW1 4733   1.519   1.681   5.206
 1278SOL    HW2 4734   1.448   1.750   5.075
 1279SOL     OW 4735   2.308   0.083   0.854
 1279SOL    HW1 4736   2.224   0.029   0.864
 1279SOL    HW2 4737   2.372   0.033   0.796
 1280SOL     OW 4738   2.536   6.522   3.430
 1280SOL    HW1 4739   2.608   6.589   3.412
 1280SOL    HW2 4740   2.577   6.432   3.440
 1281SOL     OW 4741   1.163   5.437   3.022
 1281SOL    HW1 4742   1.236   5.504   3.035
 1281SOL    HW2 4743   1.134   5.402   3.111
 1282SOL     OW 4744   1.051   0.977   0.752
 1282SOL    HW1 4745   0.999   0.922   0.686
 1282SOL    HW2 4746   0.993   0.998   0.831
 1283SOL     OW 4747   5.488   3.102   5.179
 1283SOL    HW1 4748   5.548   3.063   5.248
 1283SOL    HW2 4749   5.398   3.058   5.184
 1284SOL     OW 4750   3.245   2.988   1.840
 1284SOL    HW1 4751   3.308   3.027   1.773
 1284SOL    HW2 4752   3.236   2.889   1.825
 1285SOL     OW 4753   5.555   3.543   6.216
 1285SOL    HW1 4754   5.651   3.560   6.237
 1285SOL    HW2 4755   5.498   3.611   6.264
 1286SOL     OW 4756   4.431   4.530   2.617
 1286SOL    HW1 4757   4.376   4.550   2.536
 1286SOL    HW2 4758   4.501   4.462   2.593
 1287SOL     OW 4759   5.466   4.461   6.333
 1287SOL    HW1 4760   5.553   4.448   6.379
 1287SOL    HW2 4761   5.414   4.533   6.381
 1288SOL     OW 4762   6.730   3.266   1.191
 1288SOL    HW1 4763   6.757   3.309   1.105
 1288SOL    HW2 4764   6.644   3.217   1.178
 1289SOL     OW 4765   0.643   6.267   1.869
 1289SOL    HW1 4766   0.681   6.336   1.932
 1289SOL    HW2 4767   0.575   6.310   1.810
 1290SOL     OW 4768   0.763   1.048   0.289
 1290SOL    HW1 4769   0.862   1.067   0.292
 1290SOL    HW2 4770   0.736   1.003   0.374
 1291SOL     OW 4771   1.624   4.404   5.960
 1291SOL    HW1 4772   1.541   4.438   5.916
 1291SOL    HW2 4773   1.688   4.371   5.890
 1292SOL     OW 4774   6.711   5.121   2.088
 1292SOL    HW1 4775   6.769   5.202   2.102
 1292SOL    HW2 4776   6.635   5.144   2.028
 1293SOL     OW 4777   2.774   1.610   6.228
 1293SOL    HW1 4778   2.689   1.567   6.200
 1293SOL    HW2 4779   2.822   1.645   6.147
 1294SOL     OW 4780   0.835   3.155   0.884
 1294SOL    HW1 4781   0.776   3.106   0.948
 1294SOL    HW2 4782   0.928   3.118   0.889
 1295SOL     OW 4783   6.604   3.521   2.557
 1295SOL    HW1 4784   6.670   3.528   2.483
 1295SOL    HW2 4785   6.649   3.486   2.639
 1296SOL     OW 4786   4.147   1.256   6.028
 1296SOL    HW1 4787   4.174   1.350   6.048
 1296SOL    HW2 4788   4.209   1.217   5.959
 1297SOL     OW 4789   5.774   0.947   6.677
 1297SOL    HW1 4790   5.776   1.045   6.695
 1297SOL    HW2 4791   5.681   0.913   6.690
 1298SOL     OW 4792   6.403   3.486   3.730
 1298SOL    HW1 4793   6.319   3.459   3.683
 1298SOL    HW2 4794   6.381   3.555   3.799
 1299SOL     OW 4795   1.251   3.895   2.760
 1299SOL    HW1 4796   1.228   3.798   2.747
 1299SOL    HW2 4797   1.348   3.908   2.743
 1300SOL     OW 4798   3.681   3.311   2.338
 1300SOL    HW1 4799   3.588   3.298   2.306
 1300SOL    HW2 4800   3.728   3.223   2.342
 1301SOL     OW 4801   1.052   5.709   2.724
 1301SOL    HW1 4802   1.137   5.736   2.678
 1301SOL    HW2 4803   0.975   5.720   2.662
 1302SOL     OW 4804   2.987   6.840   4.878
 1302SOL    HW1 4805   3.064   6.887   4.836
 1302SOL    HW2 4806   2.979   6.867   4.974
 1303SOL     OW 4807   4.368   1.585   0.455
 1303SOL    HW1 4808   4.271   1.606   0.446
 1303SOL    HW2 4809   4.381   1.486   0.450
 1304SOL     OW 4810   2.089   1.672   6.631
 1304SOL    HW1 4811   2.056   1.685   6.724
 1304SOL    HW2 4812   2.096   1.760   6.585
 1305SOL     OW 4813   5.944   5.957   6.773
 1305SOL    HW1 4814   6.023   6.010   6.802
 1305SOL    HW2 4815   5.922   5.979   6.678
 1306SOL     OW 4816   0.402   4.692   5.624
 1306SOL    HW1 4817   0.413   4.772   5.564
 1306SOL    HW2 4818   0.475   4.627   5.608
 1307SOL     OW 4819   1.770   3.000   3.959
 1307SOL    HW1 4820   1.852   3.047   3.990
 1307SOL    HW2 4821   1.760   2.914   4.010
 1308SOL     OW 4822   3.926   5.828   4.789
 1308SOL    HW1 4823   3.971   5.751   4.834
 1308SOL    HW2 4824   3.938   5.911   4.843
 1309SOL     OW 4825   5.236   3.012   5.201
 1309SOL    HW1 4826   5.174   3.083   5.168
 1309SOL    HW2 4827   5.184   2.944   5.254
 1310SOL     OW 4828   5.764   3.814   5.097
 1310SOL    HW1 4829   5.703   3.735   5.105
 1310SOL    HW2 4830   5.824   3.802   5.018
 1311SOL     OW 4831   6.453   6.492   4.136
 1311SOL    HW1 4832   6.434   6.488   4.235
 1311SOL    HW2 4833   6.484   6.584   4.112
 1312SOL     OW 4834   1.090   0.286   6.691
 1312SOL    HW1 4835   1.010   0.310   6.747
 1312SOL    HW2 4836   1.128   0.369   6.650
 1313SOL     OW 4837   1.872   5.464   5.447
 1313SOL    HW1 4838   1.915   5.554   5.445
 1313SOL    HW2 4839   1.942   5.393   5.442
 1314SOL     OW 4840   2.066   1.917   5.614
 1314SOL    HW1 4841   1.975   1.929   5.655
 1314SOL    HW2 4842   2.083   1.819   5.600
 1315SOL     OW 4843   1.058   1.020   0.297
 1315SOL    HW1 4844   1.108   0.993   0.215
 1315SOL    HW2 4845   1.100   1.102   0.336
 1316SOL     OW 4846   2.359   0.111   3.393
 1316SOL    HW1 4847   2.296   0.180   3.357
 1316SOL    HW2 4848   2.445   0.116   3.343
 1317SOL     OW 4849   0.898   4.052   4.803
 1317SOL    HW1 4850   0.881   4.121   4.733
 1317SOL    HW2 4851   0.941   3.972   4.761
 1318SOL     OW 4852   6.898   0.907   0.413
 1318SOL    HW1 4853   6.798   0.903   0.406
 1318SOL    HW2 4854   6.925   0.925   0.507
 1319SOL     OW 4855   6.689   1.647   0.172
 1319SOL    HW1 4856   6.637   1.699   0.105
 1319SOL    HW2 4857   6.786   1.670   0.164
 1320SOL     OW 4858   5.913   3.828   0.113
 1320SOL    HW1 4859   5.986   3.880   0.158
 1320SOL    HW2 4860   5.873   3.764   0.178
 1321SOL     OW 4861   4.170   2.791   6.491
 1321SOL    HW1 4862   4.152   2.724   6.419
 1321SOL    HW2 4863   4.260   2.775   6.530
 1322SOL     OW 4864   5.607   0.914   3.280
 1322SOL    HW1 4865   5.668   0.972   3.226
 1322SOL    HW2 4866   5.520   0.961   3.294
 1323SOL     OW 4867   4.960   2.176   5.288
 1323SOL    HW1 4868   5.024   2.215   5.222
 1323SOL    HW2 4869   4.994   2.087   5.320
 1324SOL     OW 4870   1.231   2.558   1.825
 1324SOL    HW1 4871   1.205   2.553   1.921
 1324SOL    HW2 4872   1.174   2.496   1.772
 1325SOL     OW 4873   3.117   7.010   2.236
 1325SOL    HW1 4874   3.207   0.014   2.203
 1325SOL    HW2 4875   3.125   6.928   2.292
 1326SOL     OW 4876   4.823   3.030   4.903
 1326SOL    HW1 4877   4.812   3.123   4.938
 1326SOL    HW2 4878   4.850   3.034   4.807
 1327SOL     OW 4879   2.908   5.493   2.854
 1327SOL    HW1 4880   2.991   5.437   2.855
 1327SOL    HW2 4881   2.934   5.590   2.858
 1328SOL     OW 4882   1.102   3.201   0.494
 1328SOL    HW1 4883   1.134   3.147   0.571
 1328SOL    HW2 4884   1.175   3.261   0.462
 1329SOL     OW 4885   0.161   1.556   0.260
 1329SOL    HW1 4886   0.089   1.614   0.224
 1329SOL    HW2 4887   0.121   1.480   0.311
 1330SOL     OW 4888   6.811   0.078   0.903
 1330SOL    HW1 4889   6.777   0.170   0.925
 1330SOL    HW2 4890   6.900   0.065   0.945
 1331SOL     OW 4891   4.431   2.019   2.787
 1331SOL    HW1 4892   4.382   1.932   2.781
 1331SOL    HW2 4893   4.528   2.004   2.766
 1332SOL     OW 4894   3.059   0.240   6.970
 1332SOL    HW1 4895   3.011   0.238   6.882
 1332SOL    HW2 4896   3.018   0.173   0.009
 1333SOL     OW 4897   4.015   3.893   6.347
 1333SOL    HW1 4898   4.009   3.877   6.446
 1333SOL    HW2 4899   3.923   3.906   6.310
 1334SOL     OW 4900   0.634   2.833   4.259
 1334SOL    HW1 4901   0.679   2.767   4.318
 1334SOL    HW2 4902   0.535   2.834   4.278
 1335SOL     OW 4903   3.010   6.341   3.297
 1335SOL    HW1 4904   3.109   6.337   3.283
 1335SOL    HW2 4905   2.965   6.278   3.235
 1336SOL     OW 4906   2.026   1.167   6.195
 1336SOL    HW1 4907   2.097   1.139   6.260
 1336SOL    HW2 4908   1.974   1.087   6.166
 1337SOL     OW 4909   0.892   1.764   5.021
 1337SOL    HW1 4910   0.955   1.757   5.097
 1337SOL    HW2 4911   0.812   1.818   5.049
 1338SOL     OW 4912   4.292   3.570   5.968
 1338SOL    HW1 4913   4.315   3.628   5.890
 1338SOL    HW2 4914   4.224   3.616   6.026
 1339SOL     OW 4915   0.392   6.523   0.007
 1339SOL    HW1 4916   0.393   6.488   0.100
 1339SOL    HW2 4917   0.482   6.507   6.987
 1340SOL     OW 4918   1.051   1.228   2.064
 1340SOL    HW1 4919   1.149   1.244   2.049
 1340SOL    HW2 4920   1.008   1.202   1.977
 1341SOL     OW 4921   3.857   0.220   5.369
 1341SOL    HW1 4922   3.793   0.144   5.378
 1341SOL    HW2 4923   3.818   0.288   5.307
 1342SOL     OW 4924   1.126   5.156   5.899
 1342SOL    HW1 4925   1.080   5.206   5.826
 1342SOL    HW2 4926   1.188   5.089   5.859
 1343SOL     OW 4927   3.954   6.756   2.691
 1343SOL    HW1 4928   3.943   6.727   2.786
 1343SOL    HW2 4929   4.050   6.748   2.664
 1344SOL     OW 4930   7.005   3.750   3.392
 1344SOL    HW1 4931   0.052   3.766   3.461
 1344SOL    HW2 4932   6.996   3.831   3.334
 1345SOL     OW 4933   0.637   1.441   3.605
 1345SOL    HW1 4934   0.734   1.442   3.628
 1345SOL    HW2 4935   0.586   1.498   3.670
 1346SOL     OW 4936   1.772   0.144   2.895
 1346SOL    HW1 4937   1.825   0.192   2.965
 1346SOL    HW2 4938   1.825   0.138   2.810
 1347SOL     OW 4939   6.489   6.178   3.806
 1347SOL    HW1 4940   6.438   6.254   3.767
 1347SOL    HW2 4941   6.539   6.208   3.887
 1348SOL     OW 4942   5.735   5.298   3.074
 1348SOL    HW1 4943   5.824   5.294   3.029
 1348SOL    HW2 4944   5.685   5.379   3.041
 1349SOL     OW 4945   5.127   2.773   6.468
 1349SOL    HW1 4946   5.039   2.819   6.481
 1349SOL    HW2 4947   5.190   2.834   6.419
 1350SOL     OW 4948   4.123   4.776   6.998
 1350SOL    HW1 4949   4.169   4.688   6.983
 1350SOL    HW2 4950   4.183   4.850   6.969
 1351SOL     OW 4951   0.682   1.374   3.279
 1351SOL    HW1 4952   0.731   1.390   3.193
 1351SOL    HW2 4953   0.648   1.280   3.281
 1352SOL     OW 4954   0.337   0.856   3.390
 1352SOL    HW1 4955   0.388   0.829   3.472
 1352SOL    HW2 4956   0.369   0.803   3.312
 1353SOL     OW 4957   0.006   4.057   5.809
 1353SOL    HW1 4958   0.014   4.099   5.900
 1353SOL    HW2 4959   6.948   4.000   5.805
 1354SOL     OW 4960   6.914   1.631   0.591
 1354SOL    HW1 4961   6.836   1.644   0.531
 1354SOL    HW2 4962   6.992   1.599   0.538
 1355SOL     OW 4963   5.337   3.291   6.142
 1355SOL    HW1 4964   5.362   3.359   6.211
 1355SOL    HW2 4965   5.238   3.284   6.136
 1356SOL     OW 4966   3.263   3.788   4.396
 1356SOL    HW1 4967   3.240   3.851   4.322
 1356SOL    HW2 4968   3.179   3.759   4.442
 1357SOL     OW 4969   2.729   2.755   5.755
 1357SOL    HW1 4970   2.757   2.844   5.790
 1357SOL    HW2 4971   2.638   2.762   5.714
 1358SOL     OW 4972   2.910   1.952   6.139
 1358SOL    HW1 4973   2.832   1.952   6.203
 1358SOL    HW2 4974   2.994   1.972   6.190
 1359SOL     OW 4975   6.870   4.604   1.219
 1359SOL    HW1 4976   6.889   4.686   1.165
 1359SOL    HW2 4977   6.852   4.631   1.314
 1360SOL     OW 4978   4.125   3.686   2.761
 1360SOL    HW1 4979   4.077   3.687   2.848
 1360SOL    HW2 4980   4.221   3.661   2.775
 1361SOL     OW 4981   6.808   6.838   6.531
 1361SOL    HW1 4982   6.843   6.931   6.519
 1361SOL    HW2 4983   6.883   6.773   6.523
 1362SOL     OW 4984   2.914   3.731   4.830
 1362SOL    HW1 4985   2.839   3.681   4.787
 1362SOL    HW2 4986   2.964   3.671   4.892
 1363SOL     OW 4987   6.923   6.371   4.215
 1363SOL    HW1 4988   6.991   6.315   4.263
 1363SOL    HW2 4989   6.945   6.371   4.117
 1364SOL     OW 4990   6.977   2.411   6.714
 1364SOL    HW1 4991   6.930   2.340   6.767
 1364SOL    HW2 4992   6.984   2.382   6.618
 1365SOL     OW 4993   1.313   3.458   5.417
 1365SOL    HW1 4994   1.219   3.489   5.399
 1365SOL    HW2 4995   1.332   3.377   5.362
 1366SOL     OW 4996   0.563   3.976   1.024
 1366SOL    HW1 4997   0.520   3.972   1.114
 1366SOL    HW2 4998   0.636   3.908   1.020
 1367SOL     OW 4999   1.175   5.174   2.952
 1367SOL    HW1 5000   1.152   5.259   2.999
 1367SOL    HW2 5001   1.169   5.188   2.853
 1368SOL     OW 5002   6.668   0.501   3.906
 1368SOL    HW1 5003   6.651   0.558   3.986
 1368SOL    HW2 5004   6.724   0.422   3.932
 1369SOL     OW 5005   2.216   6.517   1.937
 1369SOL    HW1 5006   2.297   6.572   1.915
 1369SOL    HW2 5007   2.224   6.428   1.893
 1370SOL     OW 5008   6.494   2.180   4.141
 1370SOL    HW1 5009   6.517   2.142   4.052
 1370SOL    HW2 5010   6.470   2.277   4.131
 1371SOL     OW 5011   4.950   0.979   4.755
 1371SOL    HW1 5012   5.019   1.000   4.824
 1371SOL    HW2 5013   4.941   1.057   4.692
 1372SOL     OW 5014   6.879   2.163   1.062
 1372SOL    HW1 5015   6.952   2.120   1.008
 1372SOL    HW2 5016   6.792   2.120   1.039
 1373SOL     OW 5017   4.958   1.860   0.578
 1373SOL    HW1 5018   5.008   1.875   0.663
 1373SOL    HW2 5019   4.944   1.947   0.532
 1374SOL     OW 5020   5.371   4.178   6.877
 1374SOL    HW1 5021   5.292   4.235   6.856
 1374SOL    HW2 5022   5.421   4.216   6.954
 1375SOL     OW 5023   7.018   6.677   6.475
 1375SOL    HW1 5024   0.027   6.635   6.560
 1375SOL    HW2 5025   0.061   6.745   6.444
 1376SOL     OW 5026   3.513   4.761   6.025
 1376SOL    HW1 5027   3.477   4.678   6.069
 1376SOL    HW2 5028   3.613   4.758   6.028
 1377SOL     OW 5029   1.108   2.959   3.683
 1377SOL    HW1 5030   1.025   2.976   3.735
 1377SOL    HW2 5031   1.148   2.872   3.711
 1378SOL     OW 5032   5.206   2.531   4.944
 1378SOL    HW1 5033   5.139   2.486   4.885
 1378SOL    HW2 5034   5.178   2.521   5.039
 1379SOL     OW 5035   4.417   5.480   3.003
 1379SOL    HW1 5036   4.375   5.471   3.094
 1379SOL    HW2 5037   4.427   5.390   2.961
 1380SOL     OW 5038   0.002   6.037   2.883
 1380SOL    HW1 5039   6.950   6.089   2.841
 1380SOL    HW2 5040   6.996   6.003   2.973
 1381SOL     OW 5041   5.861   1.777   6.894
 1381SOL    HW1 5042   5.775   1.810   6.934
 1381SOL    HW2 5043   5.863   1.677   6.896
 1382SOL     OW 5044   4.970   2.908   1.247
 1382SOL    HW1 5045   4.911   2.872   1.319
 1382SOL    HW2 5046   5.066   2.896   1.273
 1383SOL     OW 5047   1.197   0.240   1.471
 1383SOL    HW1 5048   1.227   0.204   1.382
 1383SOL    HW2 5049   1.272   0.235   1.536
 1384SOL     OW 5050   4.765   6.995   1.524
 1384SOL    HW1 5051   4.743   6.943   1.607
 1384SOL    HW2 5052   4.776   6.932   1.447
 1385SOL     OW 5053   2.317   4.677   3.477
 1385SOL    HW1 5054   2.329   4.721   3.388
 1385SOL    HW2 5055   2.232   4.625   3.477
 1386SOL     OW 5056   3.415   0.502   3.578
 1386SOL    HW1 5057   3.417   0.428   3.646
 1386SOL    HW2 5058   3.324   0.542   3.574
 1387SOL     OW 5059   3.096   5.895   2.441
 1387SOL    HW1 5060   2.997   5.905   2.441
 1387SOL    HW2 5061   3.120   5.799   2.426
 1388SOL     OW 5062   6.499   6.855   2.280
 1388SOL    HW1 5063   6.449   6.772   2.253
 1388SOL    HW2 5064   6.550   6.838   2.364
 1389SOL     OW 5065   6.063   1.959   3.948
 1389SOL    HW1 5066   6.157   1.954   3.982
 1389SOL    HW2 5067   6.030   2.053   3.955
 1390SOL     OW 5068   0.520   3.767   6.596
 1390SOL    HW1 5069   0.603   3.714   6.578
 1390SOL    HW2 5070   0.440   3.708   6.584
 1391SOL     OW 5071   6.058   6.705   4.595
 1391SOL    HW1 5072   6.106   6.764   4.530
 1391SOL    HW2 5073   6.124   6.650   4.646
 1392SOL     OW 5074   5.955   5.959   6.183
 1392SOL    HW1 5075   6.002   6.046   6.169
 1392SOL    HW2 5076   5.857   5.976   6.193
 1393SOL     OW 5077   6.176   4.702   5.416
 1393SOL    HW1 5078   6.104   4.771   5.418
 1393SOL    HW2 5079   6.251   4.732   5.358
 1394SOL     OW 5080   2.977   5.117   5.047
 1394SOL    HW1 5081   2.989   5.149   5.141
 1394SOL    HW2 5082   3.028   5.032   5.034
 1395SOL     OW 5083   2.640   4.147   5.561
 1395SOL    HW1 5084   2.634   4.128   5.462
 1395SOL    HW2 5085   2.719   4.205   5.579
 1396SOL     OW 5086   1.310   1.198   5.187
 1396SOL    HW1 5087   1.292   1.293   5.160
 1396SOL    HW2 5088   1.322   1.142   5.105
 1397SOL     OW 5089   0.196   0.150   3.851
 1397SOL    HW1 5090   0.190   0.215   3.775
 1397SOL    HW2 5091   0.258   0.076   3.827
 1398SOL     OW 5092   2.936   0.673   6.289
 1398SOL    HW1 5093   2.840   0.693   6.308
 1398SOL    HW2 5094   2.992   0.710   6.363
 1399SOL     OW 5095   3.421   5.316   0.524
 1399SOL    HW1 5096   3.403   5.261   0.606
 1399SOL    HW2 5097   3.455   5.406   0.550
 1400SOL     OW 5098   0.096   1.398   2.949
 1400SOL    HW1 5099   0.074   1.468   2.882
 1400SOL    HW2 5100   0.192   1.371   2.940
 1401SOL     OW 5101   6.399   1.500   4.652
 1401SOL    HW1 5102   6.384   1.432   4.724
 1401SOL    HW2 5103   6.312   1.523   4.609
 1402SOL     OW 5104   0.193   3.636   6.984
 1402SOL    HW1 5105   0.283   3.668   7.014
 1402SOL    HW2 5106   0.204   3.563   6.916
 1403SOL     OW 5107   2.146   2.192   1.786
 1403SOL    HW1 5108   2.201   2.193   1.702
 1403SOL    HW2 5109   2.169   2.273   1.841
 1404SOL     OW 5110   5.504   6.591   0.164
 1404SOL    HW1 5111   5.584   6.532   0.156
 1404SOL    HW2 5112   5.533   6.687   0.167
 1405SOL     OW 5113   2.110   3.871   1.198
 1405SOL    HW1 5114   2.186   3.874   1.263
 1405SOL    HW2 5115   2.113   3.952   1.139
 1406SOL     OW 5116   1.102   5.392   0.823
 1406SOL    HW1 5117   1.027   5.325   0.825
 1406SOL    HW2 5118   1.116   5.428   0.915
 1407SOL     OW 5119   0.426   2.381   2.622
 1407SOL    HW1 5120   0.521   2.410   2.639
 1407SOL    HW2 5121   0.412   2.289   2.659
 1408SOL     OW 5122   5.470   1.126   5.735
 1408SOL    HW1 5123   5.557   1.115   5.783
 1408SOL    HW2 5124   5.430   1.214   5.760
 1409SOL     OW 5125   0.781   0.946   5.308
 1409SOL    HW1 5126   0.692   0.981   5.337
 1409SOL    HW2 5127   0.773   0.906   5.217
 1410SOL     OW 5128   1.553   3.186   6.360
 1410SOL    HW1 5129   1.558   3.254   6.433
 1410SOL    HW2 5130   1.502   3.224   6.282
 1411SOL     OW 5131   3.062   6.607   1.387
 1411SOL    HW1 5132   3.066   6.508   1.397
 1411SOL    HW2 5133   3.128   6.636   1.317
 1412SOL     OW 5134   0.449   2.025   0.828
 1412SOL    HW1 5135   0.368   1.970   0.806
 1412SOL    HW2 5136   0.485   2.066   0.744
 1413SOL     OW 5137   1.831   2.012   5.321
 1413SOL    HW1 5138   1.905   2.058   5.370
 1413SOL    HW2 5139   1.867   1.935   5.269
 1414SOL     OW 5140   2.485   1.535   2.272
 1414SOL    HW1 5141   2.532   1.555   2.186
 1414SOL    HW2 5142   2.394   1.574   2.270
 1415SOL     OW 5143   2.448   0.834   4.733
 1415SOL    HW1 5144   2.529   0.796   4.777
 1415SOL    HW2 5145   2.411   0.768   4.668
 1416SOL     OW 5146   4.957   5.202   4.458
 1416SOL    HW1 5147   5.056   5.208   4.444
 1416SOL    HW2 5148   4.938   5.160   4.547
 1417SOL     OW 5149   2.605   2.251   0.268
 1417SOL    HW1 5150   2.662   2.174   0.297
 1417SOL    HW2 5151   2.565   2.231   0.178
 1418SOL     OW 5152   3.131   3.838   3.524
 1418SOL    HW1 5153   3.061   3.783   3.479
 1418SOL    HW2 5154   3.221   3.811   3.491
 1419SOL     OW 5155   2.426   5.439   4.547
 1419SOL    HW1 5156   2.360   5.373   4.582
 1419SOL    HW2 5157   2.466   5.405   4.462
 1420SOL     OW 5158   2.692   0.279   1.026
 1420SOL    HW1 5159   2.595   0.298   1.008
 1420SOL    HW2 5160   2.719   0.197   0.975
 1421SOL     OW 5161   1.972   4.194   3.111
 1421SOL    HW1 5162   2.041   4.265   3.127
 1421SOL    HW2 5163   1.955   4.145   3.197
 1422SOL     OW 5164   1.150   3.790   1.466
 1422SOL    HW1 5165   1.108   3.709   1.508
 1422SOL    HW2 5166   1.242   3.767   1.434
 1423SOL     OW 5167   5.295   6.165   3.113
 1423SOL    HW1 5168   5.200   6.161   3.082
 1423SOL    HW2 5169   5.301   6.131   3.206
 1424SOL     OW 5170   6.544   5.466   6.371
 1424SOL    HW1 5171   6.532   5.511   6.460
 1424SOL    HW2 5172   6.641   5.452   6.354
 1425SOL     OW 5173   1.042   6.087   4.918
 1425SOL    HW1 5174   0.963   6.085   4.979
 1425SOL    HW2 5175   1.012   6.112   4.826
 1426SOL     OW 5176   1.962   3.512   6.315
 1426SOL    HW1 5177   2.060   3.528   6.327
 1426SOL    HW2 5178   1.929   3.449   6.385
 1427SOL     OW 5179   0.337   6.952   3.719
 1427SOL    HW1 5180   0.414   6.987   3.664
 1427SOL    HW2 5181   0.372   6.891   3.790
 1428SOL     OW 5182   6.632   3.404   0.458
 1428SOL    HW1 5183   6.630   3.502   0.479
 1428SOL    HW2 5184   6.595   3.352   0.536
 1429SOL     OW 5185   4.650   2.392   0.100
 1429SOL    HW1 5186   4.576   2.353   0.045
 1429SOL    HW2 5187   4.670   2.332   0.177
 1430SOL     OW 5188   1.735   4.293   4.016
 1430SOL    HW1 5189   1.826   4.254   4.024
 1430SOL    HW2 5190   1.742   4.390   3.993
 1431SOL     OW 5191   2.617   2.179   1.105
 1431SOL    HW1 5192   2.519   2.158   1.109
 1431SOL    HW2 5193   2.636   2.261   1.160
 1432SOL     OW 5194   2.808   1.367   2.151
 1432SOL    HW1 5195   2.845   1.423   2.076
 1432SOL    HW2 5196   2.727   1.317   2.119
 1433SOL     OW 5197   3.877   0.677   5.358
 1433SOL    HW1 5198   3.975   0.691   5.361
 1433SOL    HW2 5199   3.836   0.710   5.444
 1434SOL     OW 5200   0.201   0.141   5.677
 1434SOL    HW1 5201   0.149   0.221   5.704
 1434SOL    HW2 5202   0.256   0.109   5.755
 1435SOL     OW 5203   6.170   0.326   3.304
 1435SOL    HW1 5204   6.258   0.281   3.316
 1435SOL    HW2 5205   6.125   0.289   3.223
 1436SOL     OW 5206   5.451   3.788   0.172
 1436SOL    HW1 5207   5.354   3.761   0.174
 1436SOL    HW2 5208   5.485   3.795   0.266
 1437SOL     OW 5209   2.609   2.338   3.502
 1437SOL    HW1 5210   2.525   2.283   3.508
 1437SOL    HW2 5211   2.668   2.300   3.431
 1438SOL     OW 5212   3.187   5.911   1.368
 1438SOL    HW1 5213   3.241   5.832   1.337
 1438SOL    HW2 5214   3.214   5.935   1.461
 1439SOL     OW 5215   6.881   5.447   1.522
 1439SOL    HW1 5216   6.966   5.395   1.516
 1439SOL    HW2 5217   6.874   5.490   1.612
 1440SOL     OW 5218   3.228   2.906   6.835
 1440SOL    HW1 5219   3.221   3.000   6.803
 1440SOL    HW2 5220   3.139   2.861   6.827
 1441SOL     OW 5221   6.070   0.718   3.984
 1441SOL    HW1 5222   6.032   0.648   3.923
 1441SOL    HW2 5223   6.011   0.798   3.983
 1442SOL     OW 5224   0.564   5.967   0.276
 1442SOL    HW1 5225   0.527   5.914   0.353
 1442SOL    HW2 5226   0.492   6.027   0.239
 1443SOL     OW 5227   0.511   3.056   3.523
 1443SOL    HW1 5228   0.429   3.110   3.543
 1443SOL    HW2 5229   0.592   3.111   3.544
 1444SOL     OW 5230   4.907   5.985   0.967
 1444SOL    HW1 5231   4.986   5.991   1.028
 1444SOL    HW2 5232   4.887   6.076   0.930
 1445SOL     OW 5233   1.006   2.883   3.246
 1445SOL    HW1 5234   1.083   2.946   3.249
 1445SOL    HW2 5235   1.026   2.803   3.303
 1446SOL     OW 5236   6.245   1.480   0.078
 1446SOL    HW1 5237   6.290   1.463   7.013
 1446SOL    HW2 5238   6.198   1.397   0.108
 1447SOL     OW 5239   5.851   6.105   4.383
 1447SOL    HW1 5240   5.896   6.047   4.316
 1447SOL    HW2 5241   5.899   6.101   4.470
 1448SOL     OW 5242   6.657   3.320   5.403
 1448SOL    HW1 5243   6.702   3.232   5.420
 1448SOL    HW2 5244   6.560   3.304   5.385
 1449SOL     OW 5245   1.828   3.135   5.879
 1449SOL    HW1 5246   1.745   3.079   5.881
 1449SOL    HW2 5247   1.847   3.164   5.785
 1450SOL     OW 5248   1.195   1.915   0.171
 1450SOL    HW1 5249   1.260   1.874   0.107
 1450SOL    HW2 5250   1.102   1.897   0.140
 1451SOL     OW 5251   0.899   5.804   2.512
 1451SOL    HW1 5252   0.841   5.816   2.432
 1451SOL    HW2 5253   0.871   5.869   2.583
 1452SOL     OW 5254   4.304   2.115   5.368
 1452SOL    HW1 5255   4.225   2.075   5.414
 1452SOL    HW2 5256   4.385   2.105   5.426
 1453SOL     OW 5257   0.518   4.241   6.052
 1453SOL    HW1 5258   0.554   4.332   6.029
 1453SOL    HW2 5259   0.459   4.248   6.133
 1454SOL     OW 5260   0.237   2.580   2.166
 1454SOL    HW1 5261   0.302   2.564   2.240
 1454SOL    HW2 5262   0.285   2.619   2.087
 1455SOL     OW 5263   1.722   6.936   1.730
 1455SOL    HW1 5264   1.697   6.840   1.720
 1455SOL    HW2 5265   1.782   6.962   1.654
 1456SOL     OW 5266   6.420   0.428   6.402
 1456SOL    HW1 5267   6.432   0.453   6.306
 1456SOL    HW2 5268   6.358   0.493   6.446
 1457SOL     OW 5269   0.923   6.201   1.145
 1457SOL    HW1 5270   0.843   6.149   1.115
 1457SOL    HW2 5271   0.908   6.235   1.238
 1458SOL     OW 5272   5.924   5.193   4.498
 1458SOL    HW1 5273   5.948   5.102   4.465
 1458SOL    HW2 5274   5.839   5.223   4.456
 1459SOL     OW 5275   3.767   6.448   5.723
 1459SOL    HW1 5276   3.837   6.518   5.732
 1459SOL    HW2 5277   3.799   6.363   5.764
 1460SOL     OW 5278   0.965   0.420   5.004
 1460SOL    HW1 5279   0.868   0.413   5.027
 1460SOL    HW2 5280   0.993   0.516   5.004
 1461SOL     OW 5281   6.619   4.179   2.647
 1461SOL    HW1 5282   6.660   4.159   2.558
 1461SOL    HW2 5283   6.688   4.171   2.719
 1462SOL     OW 5284   1.767   1.205   6.780
 1462SOL    HW1 5285   1.717   1.215   6.866
 1462SOL    HW2 5286   1.717   1.251   6.706
 1463SOL     OW 5287   0.108   5.700   5.974
 1463SOL    HW1 5288   0.203   5.671   5.983
 1463SOL    HW2 5289   0.098   5.755   5.891
 1464SOL     OW 5290   0.273   5.936   2.211
 1464SOL    HW1 5291   0.334   6.012   2.191
 1464SOL    HW2 5292   0.179   5.970   2.217
 1465SOL     OW 5293   1.282   1.094   3.987
 1465SOL    HW1 5294   1.226   1.030   3.935
 1465SOL    HW2 5295   1.372   1.053   4.004
 1466SOL     OW 5296   2.586   1.828   2.711
 1466SOL    HW1 5297   2.583   1.911   2.655
 1466SOL    HW2 5298   2.568   1.749   2.653
 1467SOL     OW 5299   2.229   1.219   3.594
 1467SOL    HW1 5300   2.136   1.244   3.623
 1467SOL    HW2 5301   2.290   1.220   3.673
 1468SOL     OW 5302   2.438   5.516   2.244
 1468SOL    HW1 5303   2.500   5.595   2.239
 1468SOL    HW2 5304   2.346   5.547   2.264
 1469SOL     OW 5305   0.018   0.263   2.781
 1469SOL    HW1 5306   0.032   0.165   2.771
 1469SOL    HW2 5307   0.062   0.295   2.864
 1470SOL     OW 5308   1.089   1.828   2.403
 1470SOL    HW1 5309   1.007   1.780   2.432
 1470SOL    HW2 5310   1.126   1.784   2.321
 1471SOL     OW 5311   0.755   0.253   0.524
 1471SOL    HW1 5312   0.836   0.200   0.501
 1471SOL    HW2 5313   0.708   0.281   0.441
 1472SOL     OW 5314   2.052   5.414   5.812
 1472SOL    HW1 5315   2.102   5.418   5.725
 1472SOL    HW2 5316   1.954   5.404   5.794
 1473SOL     OW 5317   3.620   5.503   5.549
 1473SOL    HW1 5318   3.575   5.478   5.635
 1473SOL    HW2 5319   3.552   5.503   5.475
 1474SOL     OW 5320   5.148   5.140   1.878
 1474SOL    HW1 5321   5.098   5.059   1.848
 1474SOL    HW2 5322   5.182   5.125   1.972
 1475SOL     OW 5323   5.162   0.695   1.342
 1475SOL    HW1 5324   5.072   0.660   1.318
 1475SOL    HW2 5325   5.188   0.767   1.277
 1476SOL     OW 5326   2.738   0.951   1.730
 1476SOL    HW1 5327   2.708   0.989   1.643
 1476SOL    HW2 5328   2.658   0.934   1.789
 1477SOL     OW 5329   3.339   6.297   5.971
 1477SOL    HW1 5330   3.360   6.395   5.966
 1477SOL    HW2 5331   3.248   6.281   5.932
 1478SOL     OW 5332   5.905   6.010   5.188
 1478SOL    HW1 5333   5.849   6.089   5.212
 1478SOL    HW2 5334   5.847   5.938   5.150
 1479SOL     OW 5335   2.439   2.792   1.040
 1479SOL    HW1 5336   2.445   2.864   0.971
 1479SOL    HW2 5337   2.503   2.813   1.115
 1480SOL     OW 5338   3.102   0.310   4.505
 1480SOL    HW1 5339   3.156   0.254   4.442
 1480SOL    HW2 5340   3.157   0.332   4.585
 1481SOL     OW 5341   6.128   3.160   6.084
 1481SOL    HW1 5342   6.136   3.078   6.026
 1481SOL    HW2 5343   6.121   3.132   6.180
 1482SOL     OW 5344   4.565   1.144   1.415
 1482SOL    HW1 5345   4.623   1.064   1.426
 1482SOL    HW2 5346   4.566   1.174   1.320
 1483SOL     OW 5347   5.221   2.310   5.741
 1483SOL    HW1 5348   5.123   2.291   5.743
 1483SOL    HW2 5349   5.270   2.232   5.702
 1484SOL     OW 5350   4.572   5.099   4.045
 1484SOL    HW1 5351   4.501   5.135   4.105
 1484SOL    HW2 5352   4.592   5.166   3.974
 1485SOL     OW 5353   4.390   0.925   4.712
 1485SOL    HW1 5354   4.487   0.903   4.699
 1485SOL    HW2 5355   4.350   0.950   4.624
 1486SOL     OW 5356   5.745   0.694   3.145
 1486SOL    HW1 5357   5.684   0.633   3.095
 1486SOL    HW2 5358   5.693   0.773   3.178
 1487SOL     OW 5359   0.195   2.426   0.125
 1487SOL    HW1 5360   0.286   2.384   0.123
 1487SOL    HW2 5361   0.153   2.408   0.214
 1488SOL     OW 5362   5.601   6.915   3.970
 1488SOL    HW1 5363   5.696   6.909   3.939
 1488SOL    HW2 5364   5.550   6.977   3.909
 1489SOL     OW 5365   4.209   5.265   6.347
 1489SOL    HW1 5366   4.127   5.277   6.402
 1489SOL    HW2 5367   4.288   5.302   6.396
 1490SOL     OW 5368   0.421   3.450   0.940
 1490SOL    HW1 5369   0.394   3.382   0.872
 1490SOL    HW2 5370   0.433   3.405   1.029
 1491SOL     OW 5371   6.406   4.798   2.291
 1491SOL    HW1 5372   6.449   4.867   2.350
 1491SOL    HW2 5373   6.458   4.791   2.205
 1492SOL     OW 5374   6.169   0.080   2.336
 1492SOL    HW1 5375   6.146   0.171   2.370
 1492SOL    HW2 5376   6.266   0.076   2.315
 1493SOL     OW 5377   3.844   6.618   6.064
 1493SOL    HW1 5378   3.816   6.639   5.970
 1493SOL    HW2 5379   3.784   6.667   6.128
 1494SOL     OW 5380   5.147   2.339   6.538
 1494SOL    HW1 5381   5.160   2.385   6.626
 1494SOL    HW2 5382   5.205   2.382   6.469
 1495SOL     OW 5383   0.685   3.873   5.211
 1495SOL    HW1 5384   0.693   3.918   5.300
 1495SOL    HW2 5385   0.671   3.943   5.140
 1496SOL     OW 5386   1.138   1.475   0.867
 1496SOL    HW1 5387   1.153   1.381   0.835
 1496SOL    HW2 5388   1.075   1.474   0.944
 1497SOL     OW 5389   5.046   2.838   2.535
 1497SOL    HW1 5390   5.118   2.905   2.551
 1497SOL    HW2 5391   4.970   2.855   2.597
 1498SOL     OW 5392   2.590   4.620   6.487
 1498SOL    HW1 5393   2.620   4.672   6.567
 1498SOL    HW2 5394   2.603   4.522   6.504
 1499SOL     OW 5395   0.854   2.410   5.450
 1499SOL    HW1 5396   0.814   2.319   5.455
 1499SOL    HW2 5397   0.838   2.449   5.359
 1500SOL     OW 5398   0.736   6.893   6.995
 1500SOL    HW1 5399   0.671   6.831   0.016
 1500SOL    HW2 5400   0.687   6.958   6.937
 1501SOL     OW 5401   5.455   2.243   6.534
 1501SOL    HW1 5402   5.411   2.159   6.504
 1501SOL    HW2 5403   5.416   2.321   6.484
 1502SOL     OW 5404   4.188   0.627   6.943
 1502SOL    HW1 5405   4.279   0.665   6.929
 1502SOL    HW2 5406   4.173   0.551   6.880
 1503SOL     OW 5407   1.475   2.758   2.465
 1503SOL    HW1 5408   1.389   2.709   2.480
 1503SOL    HW2 5409   1.472   2.846   2.512
 1504SOL     OW 5410   0.461   0.549   3.995
 1504SOL    HW1 5411   0.487   0.632   3.946
 1504SOL    HW2 5412   0.436   0.478   3.930
 1505SOL     OW 5413   4.409   0.420   5.156
 1505SOL    HW1 5414   4.438   0.483   5.228
 1505SOL    HW2 5415   4.310   0.423   5.148
 1506SOL     OW 5416   0.689   6.385   0.588
 1506SOL    HW1 5417   0.673   6.364   0.685
 1506SOL    HW2 5418   0.690   6.484   0.576
 1507SOL     OW 5419   6.890   1.999   5.850
 1507SOL    HW1 5420   6.975   1.952   5.824
 1507SOL    HW2 5421   6.910   2.093   5.877
 1508SOL     OW 5422   6.102   1.078   0.861
 1508SOL    HW1 5423   6.119   1.125   0.947
 1508SOL    HW2 5424   6.029   1.011   0.873
 1509SOL     OW 5425   4.436   2.070   4.866
 1509SOL    HW1 5426   4.448   2.005   4.941
 1509SOL    HW2 5427   4.344   2.110   4.870
 1510SOL     OW 5428   5.190   0.625   4.947
 1510SOL    HW1 5429   5.174   0.651   5.043
 1510SOL    HW2 5430   5.282   0.587   4.938
 1511SOL     OW 5431   4.067   3.531   3.809
 1511SOL    HW1 5432   4.099   3.494   3.896
 1511SOL    HW2 5433   4.028   3.458   3.753
 1512SOL     OW 5434   6.378   6.229   0.718
 1512SOL    HW1 5435   6.372   6.145   0.773
 1512SOL    HW2 5436   6.472   6.262   0.718
 1513SOL     OW 5437   3.802   0.694   4.796
 1513SOL    HW1 5438   3.811   0.717   4.893
 1513SOL    HW2 5439   3.891   0.662   4.761
 1514SOL     OW 5440   3.861   2.798   5.239
 1514SOL    HW1 5441   3.881   2.701   5.251
 1514SOL    HW2 5442   3.914   2.851   5.305
 1515SOL     OW 5443   5.182   2.425   2.149
 1515SOL    HW1 5444   5.090   2.451   2.120
 1515SOL    HW2 5445   5.211   2.484   2.224
 1516SOL     OW 5446   6.165   5.445   5.872
 1516SOL    HW1 5447   6.162   5.345   5.869
 1516SOL    HW2 5448   6.198   5.480   5.784
 1517SOL     OW 5449   3.889   5.723   2.594
 1517SOL    HW1 5450   3.942   5.639   2.587
 1517SOL    HW2 5451   3.878   5.748   2.690
 1518SOL     OW 5452   0.323   2.107   0.218
 1518SOL    HW1 5453   0.323   2.068   0.310
 1518SOL    HW2 5454   0.416   2.111   0.184
 1519SOL     OW 5455   6.572   4.679   1.566
 1519SOL    HW1 5456   6.552   4.755   1.628
 1519SOL    HW2 5457   6.664   4.690   1.528
 1520SOL     OW 5458   0.155   4.460   1.693
 1520SOL    HW1 5459   0.241   4.473   1.643
 1520SOL    HW2 5460   0.166   4.490   1.788
 1521SOL     OW 5461   2.265   4.378   6.090
 1521SOL    HW1 5462   2.318   4.398   6.173
 1521SOL    HW2 5463   2.313   4.415   6.010
 1522SOL     OW 5464   5.576   6.403   4.967
 1522SOL    HW1 5465   5.521   6.328   5.003
 1522SOL    HW2 5466   5.561   6.411   4.868
 1523SOL     OW 5467   4.400   6.586   6.840
 1523SOL    HW1 5468   4.310   6.630   6.844
 1523SOL    HW2 5469   4.425   6.569   6.745
 1524SOL     OW 5470   2.114   1.829   2.867
 1524SOL    HW1 5471   2.200   1.879   2.881
 1524SOL    HW2 5472   2.130   1.731   2.881
 1525SOL     OW 5473   6.659   3.675   0.523
 1525SOL    HW1 5474   6.635   3.710   0.614
 1525SOL    HW2 5475   6.759   3.675   0.513
 1526SOL     OW 5476   6.889   0.806   6.842
 1526SOL    HW1 5477   6.834   0.723   6.831
 1526SOL    HW2 5478   6.852   0.860   6.918
 1527SOL     OW 5479   4.291   1.650   4.609
 1527SOL    HW1 5480   4.315   1.746   4.625
 1527SOL    HW2 5481   4.335   1.594   4.679
 1528SOL     OW 5482   3.876   4.836   3.021
 1528SOL    HW1 5483   3.943   4.843   3.094
 1528SOL    HW2 5484   3.787   4.868   3.055
 1529SOL     OW 5485   4.130   0.197   6.953
 1529SOL    HW1 5486   4.212   0.225   7.003
 1529SOL    HW2 5487   4.116   0.099   6.964
 1530SOL     OW 5488   4.133   1.852   2.247
 1530SOL    HW1 5489   4.145   1.909   2.328
 1530SOL    HW2 5490   4.037   1.854   2.218
 1531SOL     OW 5491   4.583   0.060   5.467
 1531SOL    HW1 5492   4.507   0.119   5.441
 1531SOL    HW2 5493   4.593   7.011   5.398
 1532SOL     OW 5494   3.686   4.144   6.201
 1532SOL    HW1 5495   3.597   4.139   6.156
 1532SOL    HW2 5496   3.721   4.051   6.215
 1533SOL     OW 5497   5.923   5.195   6.789
 1533SOL    HW1 5498   5.865   5.258   6.841
 1533SOL    HW2 5499   5.915   5.103   6.828
 1534SOL     OW 5500   2.920   5.957   6.773
 1534SOL    HW1 5501   2.824   5.927   6.766
 1534SOL    HW2 5502   2.952   5.941   6.867
 1535SOL     OW 5503   4.898   6.249   4.281
 1535SOL    HW1 5504   4.985   6.292   4.260
 1535SOL    HW2 5505   4.884   6.249   4.380
 1536SOL     OW 5506   3.849   4.384   5.942
 1536SOL    HW1 5507   3.754   4.414   5.953
 1536SOL    HW2 5508   3.879   4.336   6.024
 1537SOL     OW 5509   4.143   5.730   3.840
 1537SOL    HW1 5510   4.232   5.686   3.853
 1537SOL    HW2 5511   4.156   5.829   3.835
 1538SOL     OW 5512   2.896   7.011   6.576
 1538SOL    HW1 5513   2.991   6.983   6.592
 1538SOL    HW2 5514   2.893   0.083   6.546
 1539SOL     OW 5515   4.910   3.608   1.978
 1539SOL    HW1 5516   4.922   3.621   1.880
 1539SOL    HW2 5517   4.911   3.510   1.999
 1540SOL     OW 5518   0.393   6.723   5.264
 1540SOL    HW1 5519   0.486   6.695   5.286
 1540SOL    HW2 5520   0.332   6.698   5.340
 1541SOL     OW 5521   3.035   3.199   4.151
 1541SOL    HW1 5522   3.038   3.143   4.234
 1541SOL    HW2 5523   3.126   3.203   4.110
 1542SOL     OW 5524   6.562   0.240   2.749
 1542SOL    HW1 5525   6.647   0.288   2.774
 1542SOL    HW2 5526   6.484   0.302   2.760
 1543SOL     OW 5527   3.597   4.883   5.200
 1543SOL    HW1 5528   3.568   4.958   5.260
 1543SOL    HW2 5529   3.649   4.920   5.123
 1544SOL     OW 5530   3.042   3.292   2.981
 1544SOL    HW1 5531   3.067   3.373   3.034
 1544SOL    HW2 5532   2.993   3.320   2.899
 1545SOL     OW 5533   5.027   0.561   2.939
 1545SOL    HW1 5534   4.986   0.489   2.996
 1545SOL    HW2 5535   5.009   0.650   2.981
 1546SOL     OW 5536   3.918   6.627   5.570
 1546SOL    HW1 5537   4.007   6.671   5.568
 1546SOL    HW2 5538   3.849   6.693   5.600
 1547SOL     OW 5539   2.169   3.963   1.500
 1547SOL    HW1 5540   2.111   3.881   1.499
 1547SOL    HW2 5541   2.112   4.045   1.499
 1548SOL     OW 5542   5.484   4.105   6.192
 1548SOL    HW1 5543   5.412   4.040   6.166
 1548SOL    HW2 5544   5.572   4.060   6.190
 1549SOL     OW 5545   4.432   2.197   1.764
 1549SOL    HW1 5546   4.439   2.256   1.844
 1549SOL    HW2 5547   4.340   2.157   1.760
 1550SOL     OW 5548   2.407   3.818   0.196
 1550SOL    HW1 5549   2.369   3.745   0.253
 1550SOL    HW2 5550   2.408   3.788   0.101
 1551SOL     OW 5551   2.022   4.176   6.155
 1551SOL    HW1 5552   1.992   4.266   6.123
 1551SOL    HW2 5553   2.116   4.159   6.125
 1552SOL     OW 5554   1.840   5.473   0.398
 1552SOL    HW1 5555   1.809   5.462   0.493
 1552SOL    HW2 5556   1.783   5.417   0.338
 1553SOL     OW 5557   6.743   1.675   6.632
 1553SOL    HW1 5558   6.811   1.741   6.600
 1553SOL    HW2 5559   6.668   1.669   6.566
 1554SOL     OW 5560   4.062   2.222   2.735
 1554SOL    HW1 5561   4.041   2.126   2.750
 1554SOL    HW2 5562   4.128   2.253   2.804
 1555SOL     OW 5563   5.311   2.806   0.419
 1555SOL    HW1 5564   5.236   2.742   0.436
 1555SOL    HW2 5565   5.295   2.854   0.333
 1556SOL     OW 5566   2.930   2.299   0.172
 1556SOL    HW1 5567   2.874   2.224   0.137
 1556SOL    HW2 5568   3.026   2.270   0.176
 1557SOL     OW 5569   1.790   2.318   5.235
 1557SOL    HW1 5570   1.724   2.385   5.268
 1557SOL    HW2 5571   1.875   2.327   5.286
 1558SOL     OW 5572   5.816   0.699   4.864
 1558SOL    HW1 5573   5.753   0.728   4.935
 1558SOL    HW2 5574   5.892   0.764   4.858
 1559SOL     OW 5575   1.852   3.107   6.740
 1559SOL    HW1 5576   1.911   3.188   6.746
 1559SOL    HW2 5577   1.788   3.117   6.665
 1560SOL     OW 5578   6.719   0.966   5.615
 1560SOL    HW1 5579   6.734   0.971   5.714
 1560SOL    HW2 5580   6.783   1.026   5.568
 1561SOL     OW 5581   6.074   6.237   4.052
 1561SOL    HW1 5582   6.119   6.229   3.963
 1561SOL    HW2 5583   6.143   6.239   4.125
 1562SOL     OW 5584   4.587   5.404   2.674
 1562SOL    HW1 5585   4.557   5.367   2.762
 1562SOL    HW2 5586   4.662   5.350   2.639
 1563SOL     OW 5587   2.141   6.780   5.509
 1563SOL    HW1 5588   2.132   6.808   5.605
 1563SOL    HW2 5589   2.056   6.798   5.461
 1564SOL     OW 5590   1.197   2.423   3.499
 1564SOL    HW1 5591   1.149   2.340   3.471
 1564SOL    HW2 5592   1.207   2.424   3.599
 1565SOL     OW 5593   4.413   4.594   3.454
 1565SOL    HW1 5594   4.510   4.577   3.465
 1565SOL    HW2 5595   4.364   4.560   3.535
 1566SOL     OW 5596   5.920   4.932   2.914
 1566SOL    HW1 5597   5.822   4.943   2.897
 1566SOL    HW2 5598   5.948   4.993   2.988
 1567SOL     OW 5599   6.296   5.951   0.562
 1567SOL    HW1 5600   6.381   5.953   0.510
 1567SOL    HW2 5601   6.295   6.025   0.629
 1568SOL     OW 5602   1.322   6.691   0.011
 1568SOL    HW1 5603   1.356   6.777   6.995
 1568SOL    HW2 5604   1.258   6.711   0.085
 1569SOL     OW 5605   4.648   6.102   3.283
 1569SOL    HW1 5606   4.611   6.137   3.369
 1569SOL    HW2 5607   4.665   6.178   3.220
 1570SOL     OW 5608   1.948   0.514   1.298
 1570SOL    HW1 5609   2.005   0.489   1.220
 1570SOL    HW2 5610   1.984   0.470   1.380
 1571SOL     OW 5611   5.163   2.345   0.983
 1571SOL    HW1 5612   5.156   2.246   0.976
 1571SOL    HW2 5613   5.253   2.375   0.952
 1572SOL     OW 5614   0.564   6.636   0.770
 1572SOL    HW1 5615   0.651   6.684   0.780
 1572SOL    HW2 5616   0.565   6.552   0.824
 1573SOL     OW 5617   5.456   2.738   2.653
 1573SOL    HW1 5618   5.461   2.785   2.565
 1573SOL    HW2 5619   5.363   2.703   2.667
 1574SOL     OW 5620   6.551   0.571   1.712
 1574SOL    HW1 5621   6.461   0.562   1.670
 1574SOL    HW2 5622   6.544   0.554   1.811
 1575SOL     OW 5623   3.215   1.377   0.728
 1575SOL    HW1 5624   3.217   1.292   0.781
 1575SOL    HW2 5625   3.181   1.357   0.636
 1576SOL     OW 5626   0.748   6.685   3.528
 1576SOL    HW1 5627   0.819   6.627   3.568
 1576SOL    HW2 5628   0.777   6.781   3.534
 1577SOL     OW 5629   3.116   2.183   4.385
 1577SOL    HW1 5630   3.056   2.256   4.352
 1577SOL    HW2 5631   3.113   2.180   4.485
 1578SOL     OW 5632   6.313   3.141   5.868
 1578SOL    HW1 5633   6.316   3.196   5.952
 1578SOL    HW2 5634   6.388   3.168   5.809
 1579SOL     OW 5635   6.923   1.688   2.846
 1579SOL    HW1 5636   6.868   1.768   2.821
 1579SOL    HW2 5637   6.993   1.715   2.913
 1580SOL     OW 5638   2.763   3.709   5.471
 1580SOL    HW1 5639   2.806   3.667   5.392
 1580SOL    HW2 5640   2.831   3.765   5.520
 1581SOL     OW 5641   0.087   4.284   4.965
 1581SOL    HW1 5642   0.017   4.275   4.893
 1581SOL    HW2 5643   0.118   4.193   4.992
 1582SOL     OW 5644   1.323   6.743   4.460
 1582SOL    HW1 5645   1.294   6.687   4.538
 1582SOL    HW2 5646   1.327   6.839   4.487
 1583SOL     OW 5647   0.929   4.452   3.566
 1583SOL    HW1 5648   1.025   4.463   3.590
 1583SOL    HW2 5649   0.903   4.356   3.574
 1584SOL     OW 5650   1.520   6.735   5.026
 1584SOL    HW1 5651   1.500   6.812   5.087
 1584SOL    HW2 5652   1.448   6.728   4.957
 1585SOL     OW 5653   5.500   1.294   3.650
 1585SOL    HW1 5654   5.572   1.232   3.620
 1585SOL    HW2 5655   5.453   1.332   3.570
 1586SOL     OW 5656   3.345   4.090   0.828
 1586SOL    HW1 5657   3.366   3.993   0.845
 1586SOL    HW2 5658   3.272   4.120   0.890
 1587SOL     OW 5659   2.707   5.643   6.600
 1587SOL    HW1 5660   2.665   5.733   6.611
 1587SOL    HW2 5661   2.711   5.596   6.688
 1588SOL     OW 5662   5.171   1.405   3.020
 1588SOL    HW1 5663   5.125   1.380   2.935
 1588SOL    HW2 5664   5.105   1.444   3.084
 1589SOL     OW 5665   6.303   4.282   2.260
 1589SOL    HW1 5666   6.254   4.223   2.325
 1589SOL    HW2 5667   6.341   4.361   2.308
 1590SOL     OW 5668   2.427   6.198   6.586
 1590SOL    HW1 5669   2.501   6.146   6.544
 1590SOL    HW2 5670   2.438   6.295   6.565
 1591SOL     OW 5671   0.670   4.978   2.522
 1591SOL    HW1 5672   0.586   5.032   2.528
 1591SOL    HW2 5673   0.684   4.929   2.608
 1592SOL     OW 5674   2.123   4.544   1.240
 1592SOL    HW1 5675   2.148   4.612   1.310
 1592SOL    HW2 5676   2.024   4.545   1.227
 1593SOL     OW 5677   0.680   6.477   3.791
 1593SOL    HW1 5678   0.741   6.469   3.712
 1593SOL    HW2 5679   0.633   6.565   3.787
 1594SOL     OW 5680   6.616   5.960   2.781
 1594SOL    HW1 5681   6.695   6.006   2.741
 1594SOL    HW2 5682   6.645   5.903   2.858
 1595SOL     OW 5683   1.000   5.157   6.996
 1595SOL    HW1 5684   0.959   5.248   6.993
 1595SOL    HW2 5685   0.972   5.110   0.056
 1596SOL     OW 5686   0.591   3.247   4.672
 1596SOL    HW1 5687   0.567   3.228   4.577
 1596SOL    HW2 5688   0.687   3.222   4.687
 1597SOL     OW 5689   2.664   6.055   6.960
 1597SOL    HW1 5690   2.648   6.115   0.015
 1597SOL    HW2 5691   2.703   6.107   6.884
 1598SOL     OW 5692   0.957   3.573   0.304
 1598SOL    HW1 5693   0.893   3.497   0.316
 1598SOL    HW2 5694   0.924   3.634   0.232
 1599SOL     OW 5695   5.308   4.089   5.786
 1599SOL    HW1 5696   5.280   4.185   5.780
 1599SOL    HW2 5697   5.280   4.041   5.703
 1600SOL     OW 5698   5.296   2.012   5.122
 1600SOL    HW1 5699   5.233   1.987   5.048
 1600SOL    HW2 5700   5.267   1.970   5.207
 1601SOL     OW 5701   0.069   4.343   4.226
 1601SOL    HW1 5702   0.030   4.298   4.307
 1601SOL    HW2 5703   0.094   4.275   4.158
 1602SOL     OW 5704   2.257   5.080   3.783
 1602SOL    HW1 5705   2.345   5.063   3.827
 1602SOL    HW2 5706   2.229   4.999   3.733
 1603SOL     OW 5707   0.495   5.926   2.558
 1603SOL    HW1 5708   0.560   5.987   2.514
 1603SOL    HW2 5709   0.428   5.894   2.491
 1604SOL     OW 5710   6.345   4.609   6.636
 1604SOL    HW1 5711   6.337   4.512   6.611
 1604SOL    HW2 5712   6.280   4.629   6.709
 1605SOL     OW 5713   6.329   6.654   2.235
 1605SOL    HW1 5714   6.288   6.598   2.307
 1605SOL    HW2 5715   6.400   6.601   2.189
 1606SOL     OW 5716   3.150   0.221   4.983
 1606SOL    HW1 5717   3.229   0.251   5.037
 1606SOL    HW2 5718   3.154   0.262   4.892
 1607SOL     OW 5719   4.366   2.372   0.554
 1607SOL    HW1 5720   4.282   2.345   0.600
 1607SOL    HW2 5721   4.346   2.396   0.459
 1608SOL     OW 5722   1.599   0.828   5.363
 1608SOL    HW1 5723   1.515   0.799   5.317
 1608SOL    HW2 5724   1.604   0.784   5.453
 1609SOL     OW 5725   4.462   0.681   6.923
 1609SOL    HW1 5726   4.491   0.609   6.860
 1609SOL    HW2 5727   4.525   0.687   7.000
 1610SOL     OW 5728   5.913   4.419   5.620
 1610SOL    HW1 5729   5.820   4.386   5.635
 1610SOL    HW2 5730   5.970   4.398   5.699
 1611SOL     OW 5731   3.255   3.247   1.693
 1611SOL    HW1 5732   3.195   3.317   1.731
 1611SOL    HW2 5733   3.259   3.257   1.594
 1612SOL     OW 5734   2.864   1.048   5.383
 1612SOL    HW1 5735   2.862   1.147   5.402
 1612SOL    HW2 5736   2.806   1.028   5.304
 1613SOL     OW 5737   1.700   6.036   1.637
 1613SOL    HW1 5738   1.674   6.108   1.701
 1613SOL    HW2 5739   1.799   6.031   1.631
 1614SOL     OW 5740   6.370   3.637   0.286
 1614SOL    HW1 5741   6.397   3.687   0.368
 1614SOL    HW2 5742   6.271   3.620   0.288
 1615SOL     OW 5743   6.350   4.745   0.838
 1615SOL    HW1 5744   6.371   4.656   0.798
 1615SOL    HW2 5745   6.318   4.732   0.932
 1616SOL     OW 5746   4.078   2.051   5.534
 1616SOL    HW1 5747   3.979   2.059   5.530
 1616SOL    HW2 5748   4.110   2.078   5.625
 1617SOL     OW 5749   6.432   6.623   1.397
 1617SOL    HW1 5750   6.445   6.650   1.493
 1617SOL    HW2 5751   6.493   6.677   1.339
 1618SOL     OW 5752   1.162   3.518   1.186
 1618SOL    HW1 5753   1.085   3.458   1.203
 1618SOL    HW2 5754   1.129   3.610   1.164
 1619SOL     OW 5755   1.169   1.511   3.545
 1619SOL    HW1 5756   1.159   1.414   3.528
 1619SOL    HW2 5757   1.090   1.545   3.597
 1620SOL     OW 5758   2.108   5.693   0.969
 1620SOL    HW1 5759   2.044   5.740   1.029
 1620SOL    HW2 5760   2.196   5.741   0.971
 1621SOL     OW 5761   1.226   1.648   0.085
 1621SOL    HW1 5762   1.175   1.689   0.010
 1621SOL    HW2 5763   1.244   1.552   0.064
 1622SOL     OW 5764   0.755   2.678   4.422
 1622SOL    HW1 5765   0.716   2.587   4.431
 1622SOL    HW2 5766   0.855   2.672   4.426
 1623SOL     OW 5767   2.582   3.159   5.572
 1623SOL    HW1 5768   2.636   3.154   5.488
 1623SOL    HW2 5769   2.599   3.247   5.617
 1624SOL     OW 5770   3.196   0.762   5.732
 1624SOL    HW1 5771   3.292   0.758   5.707
 1624SOL    HW2 5772   3.142   0.795   5.654
 1625SOL     OW 5773   1.389   5.840   1.877
 1625SOL    HW1 5774   1.336   5.801   1.952
 1625SOL    HW2 5775   1.411   5.936   1.898
 1626SOL     OW 5776   2.884   2.433   6.408
 1626SOL    HW1 5777   2.898   2.343   6.449
 1626SOL    HW2 5778   2.859   2.498   6.479
 1627SOL     OW 5779   6.307   2.371   4.067
 1627SOL    HW1 5780   6.281   2.279   4.037
 1627SOL    HW2 5781   6.309   2.432   3.987
 1628SOL     OW 5782   4.382   4.742   0.113
 1628SOL    HW1 5783   4.334   4.676   0.171
 1628SOL    HW2 5784   4.343   4.833   0.127
 1629SOL     OW 5785   2.653   1.750   4.289
 1629SOL    HW1 5786   2.631   1.839   4.328
 1629SOL    HW2 5787   2.595   1.680   4.332
 1630SOL     OW 5788   0.982   5.998   5.501
 1630SOL    HW1 5789   0.976   5.973   5.598
 1630SOL    HW2 5790   1.078   6.016   5.478
 1631SOL     OW 5791   0.253   1.407   6.645
 1631SOL    HW1 5792   0.260   1.397   6.545
 1631SOL    HW2 5793   0.192   1.484   6.666
 1632SOL     OW 5794   0.267   1.586   7.002
 1632SOL    HW1 5795   0.263   1.568   0.078
 1632SOL    HW2 5796   0.275   1.684   6.987
 1633SOL     OW 5797   4.931   2.055   4.172
 1633SOL    HW1 5798   4.981   2.103   4.101
 1633SOL    HW2 5799   4.894   1.969   4.135
 1634SOL     OW 5800   4.161   4.750   5.860
 1634SOL    HW1 5801   4.092   4.717   5.924
 1634SOL    HW2 5802   4.241   4.690   5.861
 1635SOL     OW 5803   6.354   5.487   5.263
 1635SOL    HW1 5804   6.283   5.511   5.329
 1635SOL    HW2 5805   6.369   5.388   5.265
 1636SOL     OW 5806   2.519   3.578   1.461
 1636SOL    HW1 5807   2.555   3.491   1.494
 1636SOL    HW2 5808   2.438   3.604   1.513
 1637SOL     OW 5809   0.179   0.725   2.984
 1637SOL    HW1 5810   0.241   0.788   3.031
 1637SOL    HW2 5811   0.143   0.659   3.050
 1638SOL     OW 5812   0.686   3.779   4.130
 1638SOL    HW1 5813   0.622   3.830   4.074
 1638SOL    HW2 5814   0.773   3.828   4.135
 1639SOL     OW 5815   4.299   6.938   3.112
 1639SOL    HW1 5816   4.252   6.852   3.089
 1639SOL    HW2 5817   4.390   6.938   3.071
 1640SOL     OW 5818   5.723   1.721   1.297
 1640SOL    HW1 5819   5.665   1.796   1.265
 1640SOL    HW2 5820   5.734   1.728   1.396
 1641SOL     OW 5821   5.099   3.103   4.207
 1641SOL    HW1 5822   5.075   3.014   4.168
 1641SOL    HW2 5823   5.041   3.174   4.168
 1642SOL     OW 5824   6.393   3.300   6.843
 1642SOL    HW1 5825   6.450   3.317   6.763
 1642SOL    HW2 5826   6.450   3.285   6.923
 1643SOL     OW 5827   2.454   5.189   3.967
 1643SOL    HW1 5828   2.550   5.218   3.976
 1643SOL    HW2 5829   2.424   5.204   3.873
 1644SOL     OW 5830   1.433   2.751   1.506
 1644SOL    HW1 5831   1.438   2.815   1.583
 1644SOL    HW2 5832   1.453   2.658   1.538
 1645SOL     OW 5833   2.737   6.034   5.258
 1645SOL    HW1 5834   2.691   6.099   5.319
 1645SOL    HW2 5835   2.736   6.071   5.165
 1646SOL     OW 5836   2.714   6.511   1.056
 1646SOL    HW1 5837   2.614   6.508   1.065
 1646SOL    HW2 5838   2.740   6.584   0.993
 1647SOL     OW 5839   5.625   2.960   4.542
 1647SOL    HW1 5840   5.602   2.879   4.596
 1647SOL    HW2 5841   5.574   2.959   4.456
 1648SOL     OW 5842   5.941   6.288   0.904
 1648SOL    HW1 5843   5.956   6.190   0.890
 1648SOL    HW2 5844   6.028   6.337   0.895
 1649SOL     OW 5845   3.868   0.290   3.747
 1649SOL    HW1 5846   3.810   0.215   3.780
 1649SOL    HW2 5847   3.811   0.365   3.714
 1650SOL     OW 5848   2.131   6.754   4.467
 1650SOL    HW1 5849   2.088   6.666   4.445
 1650SOL    HW2 5850   2.079   6.799   4.540
 1651SOL     OW 5851   1.152   0.989   1.907
 1651SOL    HW1 5852   1.237   1.024   1.868
 1651SOL    HW2 5853   1.165   0.970   2.004
 1652SOL     OW 5854   1.694   3.095   1.981
 1652SOL    HW1 5855   1.746   3.129   1.903
 1652SOL    HW2 5856   1.639   3.016   1.954
 1653SOL     OW 5857   0.068   6.696   1.331
 1653SOL    HW1 5858   0.064   6.601   1.362
 1653SOL    HW2 5859   7.017   6.748   1.373
 1654SOL     OW 5860   6.905   2.842   2.069
 1654SOL    HW1 5861   6.949   2.867   1.983
 1654SOL    HW2 5862   6.877   2.746   2.066
 1655SOL     OW 5863   5.903   3.400   5.312
 1655SOL    HW1 5864   5.951   3.351   5.384
 1655SOL    HW2 5865   5.809   3.419   5.342
 1656SOL     OW 5866   1.672   4.524   3.013
 1656SOL    HW1 5867   1.718   4.609   3.038
 1656SOL    HW2 5868   1.621   4.488   3.091
 1657SOL     OW 5869   6.842   0.536   4.234
 1657SOL    HW1 5870   6.942   0.526   4.227
 1657SOL    HW2 5871   6.816   0.541   4.330
 1658SOL     OW 5872   0.690   0.698   2.622
 1658SOL    HW1 5873   0.735   0.763   2.560
 1658SOL    HW2 5874   0.652   0.622   2.569
 1659SOL     OW 5875   3.478   1.157   6.122
 1659SOL    HW1 5876   3.518   1.143   6.213
 1659SOL    HW2 5877   3.460   1.067   6.081
 1660SOL     OW 5878   1.794   4.802   4.125
 1660SOL    HW1 5879   1.882   4.842   4.103
 1660SOL    HW2 5880   1.802   4.747   4.208
 1661SOL     OW 5881   3.195   1.768   1.557
 1661SOL    HW1 5882   3.191   1.839   1.628
 1661SOL    HW2 5883   3.215   1.680   1.599
 1662SOL     OW 5884   6.509   1.137   4.106
 1662SOL    HW1 5885   6.568   1.110   4.182
 1662SOL    HW2 5886   6.432   1.073   4.100
 1663SOL     OW 5887   3.278   1.229   3.227
 1663SOL    HW1 5888   3.309   1.133   3.229
 1663SOL    HW2 5889   3.261   1.256   3.133
 1664SOL     OW 5890   1.356   0.446   4.070
 1664SOL    HW1 5891   1.394   0.384   4.002
 1664SOL    HW2 5892   1.306   0.519   4.023
 1665SOL     OW 5893   6.711   1.661   2.562
 1665SOL    HW1 5894   6.630   1.626   2.609
 1665SOL    HW2 5895   6.765   1.584   2.526
 1666SOL     OW 5896   5.867   3.613   0.297
 1666SOL    HW1 5897   5.808   3.535   0.316
 1666SOL    HW2 5898   5.959   3.580   0.272
 1667SOL     OW 5899   5.392   6.928   0.916
 1667SOL    HW1 5900   5.405   0.000   0.892
 1667SOL    HW2 5901   5.441   6.869   0.852
 1668SOL     OW 5902   5.479   5.807   5.767
 1668SOL    HW1 5903   5.477   5.861   5.682
 1668SOL    HW2 5904   5.391   5.815   5.813
 1669SOL     OW 5905   5.954   6.956   0.196
 1669SOL    HW1 5906   5.931   6.913   0.283
 1669SOL    HW2 5907   6.039   6.918   0.161
 1670SOL     OW 5908   6.723   5.280   6.716
 1670SOL    HW1 5909   6.820   5.257   6.713
 1670SOL    HW2 5910   6.671   5.211   6.667
 1671SOL     OW 5911   4.369   2.270   1.139
 1671SOL    HW1 5912   4.449   2.236   1.089
 1671SOL    HW2 5913   4.367   2.228   1.230
 1672SOL     OW 5914   2.062   4.081   2.331
 1672SOL    HW1 5915   1.967   4.055   2.347
 1672SOL    HW2 5916   2.108   4.011   2.276
 1673SOL     OW 5917   0.539   2.522   4.454
 1673SOL    HW1 5918   0.478   2.509   4.375
 1673SOL    HW2 5919   0.519   2.452   4.522
 1674SOL     OW 5920   0.626   3.905   1.968
 1674SOL    HW1 5921   0.675   3.959   1.900
 1674SOL    HW2 5922   0.645   3.939   2.060
 1675SOL     OW 5923   4.071   0.205   5.993
 1675SOL    HW1 5924   4.090   0.297   5.956
 1675SOL    HW2 5925   4.102   0.136   5.928
 1676SOL     OW 5926   2.984   1.141   2.227
 1676SOL    HW1 5927   2.915   1.068   2.219
 1676SOL    HW2 5928   2.941   1.229   2.210
 1677SOL     OW 5929   4.239   2.729   5.355
 1677SOL    HW1 5930   4.183   2.667   5.300
 1677SOL    HW2 5931   4.335   2.719   5.329
 1678SOL     OW 5932   5.063   4.624   4.825
 1678SOL    HW1 5933   5.033   4.541   4.776
 1678SOL    HW2 5934   5.050   4.611   4.923
 1679SOL     OW 5935   2.115   3.362   4.856
 1679SOL    HW1 5936   2.120   3.271   4.898
 1679SOL    HW2 5937   2.137   3.432   4.924
 1680SOL     OW 5938   0.748   1.718   4.013
 1680SOL    HW1 5939   0.722   1.798   4.067
 1680SOL    HW2 5940   0.826   1.741   3.955
 1681SOL     OW 5941   6.633   5.946   1.082
 1681SOL    HW1 5942   6.721   5.992   1.085
 1681SOL    HW2 5943   6.578   5.971   1.161
 1682SOL     OW 5944   6.486   2.538   4.774
 1682SOL    HW1 5945   6.401   2.509   4.818
 1682SOL    HW2 5946   6.486   2.508   4.678
 1683SOL     OW 5947   3.688   5.555   0.928
 1683SOL    HW1 5948   3.770   5.528   0.878
 1683SOL    HW2 5949   3.713   5.612   1.006
 1684SOL     OW 5950   1.795   6.118   2.607
 1684SOL    HW1 5951   1.830   6.045   2.548
 1684SOL    HW2 5952   1.710   6.154   2.568
 1685SOL     OW 5953   2.848   1.246   6.356
 1685SOL    HW1 5954   2.945   1.242   6.376
 1685SOL    HW2 5955   2.835   1.250   6.257
 1686SOL     OW 5956   1.909   4.811   5.132
 1686SOL    HW1 5957   1.977   4.870   5.088
 1686SOL    HW2 5958   1.923   4.716   5.104
 1687SOL     OW 5959   2.260   3.118   1.228
 1687SOL    HW1 5960   2.287   3.058   1.153
 1687SOL    HW2 5961   2.253   3.212   1.195
 1688SOL     OW 5962   1.224   2.286   4.028
 1688SOL    HW1 5963   1.276   2.357   3.979
 1688SOL    HW2 5964   1.127   2.311   4.030
 1689SOL     OW 5965   4.171   1.165   1.692
 1689SOL    HW1 5966   4.218   1.099   1.752
 1689SOL    HW2 5967   4.128   1.236   1.748
 1690SOL     OW 5968   1.367   2.747   3.443
 1690SOL    HW1 5969   1.403   2.839   3.461
 1690SOL    HW2 5970   1.392   2.686   3.519
 1691SOL     OW 5971   4.801   4.024   3.516
 1691SOL    HW1 5972   4.751   4.096   3.564
 1691SOL    HW2 5973   4.889   4.010   3.561
 1692SOL     OW 5974   6.643   0.122   1.229
 1692SOL    HW1 5975   6.699   0.155   1.153
 1692SOL    HW2 5976   6.554   0.092   1.194
 1693SOL     OW 5977   0.361   2.220   2.399
 1693SOL    HW1 5978   0.321   2.289   2.460
 1693SOL    HW2 5979   0.304   2.138   2.398
 1694SOL     OW 5980   5.033   0.112   4.078
 1694SOL    HW1 5981   5.114   0.092   4.133
 1694SOL    HW2 5982   5.009   0.209   4.088
 1695SOL     OW 5983   2.195   1.232   5.846
 1695SOL    HW1 5984   2.115   1.269   5.894
 1695SOL    HW2 5985   2.187   1.132   5.842
 1696SOL     OW 5986   5.500   4.933   0.325
 1696SOL    HW1 5987   5.468   4.982   0.406
 1696SOL    HW2 5988   5.564   4.991   0.274
 1697SOL     OW 5989   5.757   6.523   2.165
 1697SOL    HW1 5990   5.762   6.538   2.066
 1697SOL    HW2 5991   5.778   6.428   2.185
 1698SOL     OW 5992   4.671   1.028   0.643
 1698SOL    HW1 5993   4.650   0.957   0.576
 1698SOL    HW2 5994   4.586   1.068   0.678
 1699SOL     OW 5995   2.896   1.062   1.949
 1699SOL    HW1 5996   2.876   1.046   2.045
 1699SOL    HW2 5997   2.855   0.989   1.894
 1700SOL     OW 5998   6.113   1.861   3.523
 1700SOL    HW1 5999   6.028   1.907   3.549
 1700SOL    HW2 6000   6.154   1.908   3.446
 1701SOL     OW 6001   5.083   2.791   5.276
 1701SOL    HW1 6002   5.090   2.710   5.218
 1701SOL    HW2 6003   5.001   2.843   5.251
 1702SOL     OW 6004   0.075   2.844   0.789
 1702SOL    HW1 6005   0.168   2.821   0.763
 1702SOL    HW2 6006   0.076   2.910   0.865
 1703SOL     OW 6007   3.702   3.899   3.344
 1703SOL    HW1 6008   3.678   3.970   3.411
 1703SOL    HW2 6009   3.727   3.942   3.257
 1704SOL     OW 6010   0.701   1.443   1.987
 1704SOL    HW1 6011   0.700   1.443   2.087
 1704SOL    HW2 6012   0.760   1.517   1.954
 1705SOL     OW 6013   3.487   2.048   2.197
 1705SOL    HW1 6014   3.393   2.061   2.165
 1705SOL    HW2 6015   3.549   2.102   2.141
 1706SOL     OW 6016   4.495   0.093   1.508
 1706SOL    HW1 6017   4.479   0.168   1.444
 1706SOL    HW2 6018   4.593   0.072   1.511
 1707SOL     OW 6019   4.595   1.596   3.253
 1707SOL    HW1 6020   4.645   1.580   3.168
 1707SOL    HW2 6021   4.616   1.522   3.318
 1708SOL     OW 6022   4.624   5.259   2.228
 1708SOL    HW1 6023   4.546   5.321   2.213
 1708SOL    HW2 6024   4.628   5.233   2.324
 1709SOL     OW 6025   2.888   6.014   1.656
 1709SOL    HW1 6026   2.849   5.966   1.735
 1709SOL    HW2 6027   2.988   6.012   1.661
 1710SOL     OW 6028   5.712   4.371   3.636
 1710SOL    HW1 6029   5.620   4.410   3.634
 1710SOL    HW2 6030   5.775   4.435   3.680
 1711SOL     OW 6031   1.019   4.251   5.032
 1711SOL    HW1 6032   0.989   4.158   5.011
 1711SOL    HW2 6033   0.944   4.314   5.016
 1712SOL     OW 6034   1.376   2.977   6.521
 1712SOL    HW1 6035   1.456   3.027   6.489
 1712SOL    HW2 6036   1.303   2.984   6.453
 1713SOL     OW 6037   3.213   2.058   0.966
 1713SOL    HW1 6038   3.254   1.967   0.975
 1713SOL    HW2 6039   3.191   2.074   0.870
 1714SOL     OW 6040   4.516   1.514   6.205
 1714SOL    HW1 6041   4.419   1.509   6.228
 1714SOL    HW2 6042   4.554   1.600   6.241
 1715SOL     OW 6043   6.846   3.962   2.652
 1715SOL    HW1 6044   6.942   3.935   2.660
 1715SOL    HW2 6045   6.809   3.927   2.566
 1716SOL     OW 6046   5.112   6.915   1.282
 1716SOL    HW1 6047   5.188   6.974   1.254
 1716SOL    HW2 6048   5.028   6.946   1.236
 1717SOL     OW 6049   1.850   6.450   6.641
 1717SOL    HW1 6050   1.783   6.382   6.611
 1717SOL    HW2 6051   1.878   6.429   6.735
 1718SOL     OW 6052   1.772   2.114   1.116
 1718SOL    HW1 6053   1.752   2.017   1.102
 1718SOL    HW2 6054   1.871   2.129   1.110
 1719SOL     OW 6055   2.382   4.126   1.504
 1719SOL    HW1 6056   2.326   4.208   1.519
 1719SOL    HW2 6057   2.326   4.044   1.517
 1720SOL     OW 6058   6.766   0.980   1.531
 1720SOL    HW1 6059   6.684   0.970   1.588
 1720SOL    HW2 6060   6.840   1.021   1.585
 1721SOL     OW 6061   1.026   6.511   2.926
 1721SOL    HW1 6062   1.099   6.558   2.877
 1721SOL    HW2 6063   0.941   6.565   2.919
 1722SOL     OW 6064   4.887   1.382   3.763
 1722SOL    HW1 6065   4.803   1.400   3.710
 1722SOL    HW2 6066   4.949   1.325   3.708
 1723SOL     OW 6067   6.779   2.927   3.206
 1723SOL    HW1 6068   6.858   2.866   3.208
 1723SOL    HW2 6069   6.778   2.976   3.119
 1724SOL     OW 6070   5.647   1.968   1.206
 1724SOL    HW1 6071   5.663   1.994   1.111
 1724SOL    HW2 6072   5.570   2.022   1.242
 1725SOL     OW 6073   2.662   5.081   0.225
 1725SOL    HW1 6074   2.750   5.128   0.221
 1725SOL    HW2 6075   2.648   5.045   0.317
 1726SOL     OW 6076   6.237   4.346   5.261
 1726SOL    HW1 6077   6.212   4.388   5.348
 1726SOL    HW2 6078   6.302   4.272   5.277
 1727SOL     OW 6079   3.825   2.944   4.730
 1727SOL    HW1 6080   3.835   2.981   4.822
 1727SOL    HW2 6081   3.879   2.860   4.722
 1728SOL     OW 6082   5.599   5.455   4.891
 1728SOL    HW1 6083   5.571   5.392   4.964
 1728SOL    HW2 6084   5.586   5.410   4.802
 1729SOL     OW 6085   2.181   3.881   3.353
 1729SOL    HW1 6086   2.158   3.925   3.440
 1729SOL    HW2 6087   2.275   3.903   3.328
 1730SOL     OW 6088   6.614   0.254   4.522
 1730SOL    HW1 6089   6.531   0.310   4.521
 1730SOL    HW2 6090   6.591   0.159   4.503
 1731SOL     OW 6091   0.966   5.479   2.022
 1731SOL    HW1 6092   1.027   5.404   1.996
 1731SOL    HW2 6093   0.885   5.441   2.067
 1732SOL     OW 6094   2.064   4.303   5.707
 1732SOL    HW1 6095   2.132   4.254   5.762
 1732SOL    HW2 6096   2.063   4.400   5.733
 1733SOL     OW 6097   0.987   3.741   2.518
 1733SOL    HW1 6098   0.919   3.806   2.486
 1733SOL    HW2 6099   0.960   3.705   2.607
 1734SOL     OW 6100   4.994   3.030   1.967
 1734SOL    HW1 6101   5.034   3.003   2.054
 1734SOL    HW2 6102   4.896   3.010   1.967
 1735SOL     OW 6103   5.928   5.756   0.882
 1735SOL    HW1 6104   5.950   5.669   0.927
 1735SOL    HW2 6105   5.884   5.738   0.794
 1736SOL     OW 6106   4.552   1.998   0.452
 1736SOL    HW1 6107   4.456   2.007   0.477
 1736SOL    HW2 6108   4.583   2.084   0.411
 1737SOL     OW 6109   3.092   1.258   4.581
 1737SOL    HW1 6110   3.063   1.305   4.665
 1737SOL    HW2 6111   3.067   1.313   4.501
 1738SOL     OW 6112   1.898   2.022   3.856
 1738SOL    HW1 6113   1.837   2.020   3.935
 1738SOL    HW2 6114   1.850   2.061   3.778
 1739SOL     OW 6115   5.041   2.523   5.190
 1739SOL    HW1 6116   4.943   2.531   5.168
 1739SOL    HW2 6117   5.073   2.432   5.165
 1740SOL     OW 6118   0.243   1.794   6.484
 1740SOL    HW1 6119   0.233   1.753   6.393
 1740SOL    HW2 6120   0.328   1.762   6.526
 1741SOL     OW 6121   2.580   0.792   3.868
 1741SOL    HW1 6122   2.516   0.830   3.801
 1741SOL    HW2 6123   2.673   0.816   3.842
 1742SOL     OW 6124   4.526   6.158   5.927
 1742SOL    HW1 6125   4.605   6.217   5.946
 1742SOL    HW2 6126   4.556   6.081   5.871
 1743SOL     OW 6127   2.028   1.807   2.295
 1743SOL    HW1 6128   2.089   1.885   2.279
 1743SOL    HW2 6129   1.933   1.836   2.282
 1744SOL     OW 6130   0.994   0.417   1.386
 1744SOL    HW1 6131   0.920   0.407   1.452
 1744SOL    HW2 6132   1.056   0.339   1.394
 1745SOL     OW 6133   6.664   0.697   4.098
 1745SOL    HW1 6134   6.587   0.715   4.160
 1745SOL    HW2 6135   6.738   0.652   4.148
 1746SOL     OW 6136   1.907   5.319   4.768
 1746SOL    HW1 6137   1.927   5.313   4.670
 1746SOL    HW2 6138   1.966   5.256   4.818
 1747SOL     OW 6139   5.160   0.226   2.588
 1747SOL    HW1 6140   5.147   0.324   2.605
 1747SOL    HW2 6141   5.254   0.210   2.558
 1748SOL     OW 6142   0.128   0.949   3.685
 1748SOL    HW1 6143   0.169   0.862   3.660
 1748SOL    HW2 6144   0.108   0.950   3.783
 1749SOL     OW 6145   2.567   6.481   5.472
 1749SOL    HW1 6146   2.501   6.555   5.490
 1749SOL    HW2 6147   2.582   6.429   5.556
 1750SOL     OW 6148   6.479   0.335   3.296
 1750SOL    HW1 6149   6.490   0.430   3.325
 1750SOL    HW2 6150   6.499   0.274   3.372
 1751SOL     OW 6151   3.696   5.830   4.654
 1751SOL    HW1 6152   3.675   5.736   4.629
 1751SOL    HW2 6153   3.789   5.835   4.691
 1752SOL     OW 6154   6.932   2.246   2.593
 1752SOL    HW1 6155   6.904   2.185   2.519
 1752SOL    HW2 6156   6.866   2.321   2.601
 1753SOL     OW 6157   0.530   2.105   0.499
 1753SOL    HW1 6158   0.521   2.010   0.471
 1753SOL    HW2 6159   0.625   2.125   0.521
 1754SOL     OW 6160   3.506   3.426   1.308
 1754SOL    HW1 6161   3.571   3.419   1.383
 1754SOL    HW2 6162   3.538   3.496   1.244
 1755SOL     OW 6163   5.661   5.204   2.273
 1755SOL    HW1 6164   5.704   5.114   2.261
 1755SOL    HW2 6165   5.718   5.259   2.335
 1756SOL     OW 6166   4.400   4.143   6.502
 1756SOL    HW1 6167   4.479   4.203   6.492
 1756SOL    HW2 6168   4.365   4.119   6.411
 1757SOL     OW 6169   2.366   5.152   4.721
 1757SOL    HW1 6170   2.414   5.100   4.791
 1757SOL    HW2 6171   2.322   5.231   4.762
 1758SOL     OW 6172   2.239   0.488   3.996
 1758SOL    HW1 6173   2.173   0.438   3.942
 1758SOL    HW2 6174   2.327   0.440   3.996
 1759SOL     OW 6175   0.980   4.684   5.439
 1759SOL    HW1 6176   0.954   4.595   5.476
 1759SOL    HW2 6177   1.061   4.674   5.382
 1760SOL     OW 6178   6.777   1.432   1.557
 1760SOL    HW1 6179   6.697   1.491   1.559
 1760SOL    HW2 6180   6.792   1.392   1.647
 1761SOL     OW 6181   0.048   0.392   0.371
 1761SOL    HW1 6182   7.017   0.476   0.378
 1761SOL    HW2 6183   0.012   0.323   0.434
 1762SOL     OW 6184   6.130   1.766   4.957
 1762SOL    HW1 6185   6.073   1.718   5.023
 1762SOL    HW2 6186   6.183   1.837   5.003
 1763SOL     OW 6187   2.052   3.522   4.412
 1763SOL    HW1 6188   2.096   3.574   4.339
 1763SOL    HW2 6189   2.038   3.580   4.491
 1764SOL     OW 6190   1.557   4.120   2.882
 1764SOL    HW1 6191   1.649   4.128   2.920
 1764SOL    HW2 6192   1.546   4.029   2.841
 1765SOL     OW 6193   3.512   1.539   6.540
 1765SOL    HW1 6194   3.488   1.513   6.446
 1765SOL    HW2 6195   3.444   1.603   6.575
 1766SOL     OW 6196   4.935   3.179   3.780
 1766SOL    HW1 6197   4.899   3.106   3.838
 1766SOL    HW2 6198   5.034   3.169   3.772
 1767SOL     OW 6199   6.304   3.748   3.068
 1767SOL    HW1 6200   6.297   3.738   2.969
 1767SOL    HW2 6201   6.399   3.767   3.093
 1768SOL     OW 6202   3.939   1.525   4.917
 1768SOL    HW1 6203   3.943   1.426   4.934
 1768SOL    HW2 6204   3.985   1.545   4.830
 1769SOL     OW 6205   4.271   2.330   4.808
 1769SOL    HW1 6206   4.324   2.392   4.866
 1769SOL    HW2 6207   4.173   2.350   4.818
 1770SOL     OW 6208   0.538   5.164   4.754
 1770SOL    HW1 6209   0.573   5.090   4.696
 1770SOL    HW2 6210   0.479   5.224   4.700
 1771SOL     OW 6211   2.439   5.048   0.078
 1771SOL    HW1 6212   2.529   5.070   0.116
 1771SOL    HW2 6213   2.370   5.050   0.151
 1772SOL     OW 6214   2.700   6.770   3.686
 1772SOL    HW1 6215   2.631   6.796   3.753
 1772SOL    HW2 6216   2.675   6.807   3.597
 1773SOL     OW 6217   2.496   4.572   6.087
 1773SOL    HW1 6218   2.456   4.522   6.010
 1773SOL    HW2 6219   2.535   4.508   6.152
 1774SOL     OW 6220   4.303   0.052   1.697
 1774SOL    HW1 6221   4.387   0.078   1.649
 1774SOL    HW2 6222   4.230   0.039   1.630
 1775SOL     OW 6223   0.908   3.940   4.215
 1775SOL    HW1 6224   0.995   3.989   4.220
 1775SOL    HW2 6225   0.848   3.972   4.288
 1776SOL     OW 6226   3.347   0.161   4.388
 1776SOL    HW1 6227   3.323   0.173   4.291
 1776SOL    HW2 6228   3.435   0.114   4.395
 1777SOL     OW 6229   3.304   5.192   5.851
 1777SOL    HW1 6230   3.229   5.196   5.917
 1777SOL    HW2 6231   3.375   5.129   5.884
 1778SOL     OW 6232   4.807   2.871   6.046
 1778SOL    HW1 6233   4.810   2.938   5.972
 1778SOL    HW2 6234   4.751   2.793   6.017
 1779SOL     OW 6235   4.207   0.995   4.917
 1779SOL    HW1 6236   4.271   0.950   4.855
 1779SOL    HW2 6237   4.231   1.091   4.926
 1780SOL     OW 6238   2.846   3.003   5.844
 1780SOL    HW1 6239   2.881   2.971   5.931
 1780SOL    HW2 6240   2.849   3.103   5.841
 1781SOL     OW 6241   4.500   6.033   3.782
 1781SOL    HW1 6242   4.433   6.064   3.849
 1781SOL    HW2 6243   4.521   5.936   3.797
 1782SOL     OW 6244   3.260   1.880   2.700
 1782SOL    HW1 6245   3.318   1.939   2.756
 1782SOL    HW2 6246   3.166   1.884   2.734
 1783SOL     OW 6247   1.324   4.183   6.485
 1783SOL    HW1 6248   1.315   4.114   6.414
 1783SOL    HW2 6249   1.416   4.178   6.525
 1784SOL     OW 6250   3.746   1.480   5.481
 1784SOL    HW1 6251   3.805   1.400   5.492
 1784SOL    HW2 6252   3.767   1.548   5.551
 1785SOL     OW 6253   6.428   5.238   3.570
 1785SOL    HW1 6254   6.372   5.267   3.493
 1785SOL    HW2 6255   6.440   5.314   3.634
 1786SOL     OW 6256   1.154   2.857   1.421
 1786SOL    HW1 6257   1.152   2.788   1.349
 1786SOL    HW2 6258   1.242   2.852   1.469
 1787SOL     OW 6259   2.213   0.688   4.960
 1787SOL    HW1 6260   2.203   0.752   4.885
 1787SOL    HW2 6261   2.302   0.642   4.953
 1788SOL     OW 6262   3.488   2.842   6.897
 1788SOL    HW1 6263   3.538   2.921   6.933
 1788SOL    HW2 6264   3.400   2.873   6.860
 1789SOL     OW 6265   5.887   2.598   3.315
 1789SOL    HW1 6266   5.799   2.644   3.311
 1789SOL    HW2 6267   5.885   2.528   3.386
 1790SOL     OW 6268   4.051   6.354   4.267
 1790SOL    HW1 6269   4.026   6.288   4.196
 1790SOL    HW2 6270   4.091   6.305   4.345
 1791SOL     OW 6271   6.574   1.042   3.372
 1791SOL    HW1 6272   6.649   1.107   3.376
 1791SOL    HW2 6273   6.585   0.974   3.445
 1792SOL     OW 6274   0.043   3.147   4.033
 1792SOL    HW1 6275   0.039   3.169   3.936
 1792SOL    HW2 6276   0.137   3.155   4.065
 1793SOL     OW 6277   6.474   6.668   3.133
 1793SOL    HW1 6278   6.563   6.638   3.101
 1793SOL    HW2 6279   6.485   6.736   3.206
 1794SOL     OW 6280   6.065   6.156   5.980
 1794SOL    HW1 6281   6.160   6.187   5.966
 1794SOL    HW2 6282   6.012   6.228   6.024
 1795SOL     OW 6283   0.568   3.313   1.353
 1795SOL    HW1 6284   0.600   3.287   1.263
 1795SOL    HW2 6285   0.491   3.256   1.380
 1796SOL     OW 6286   2.507   0.427   4.401
 1796SOL    HW1 6287   2.603   0.455   4.397
 1796SOL    HW2 6288   2.459   0.461   4.320
 1797SOL     OW 6289   1.458   0.272   0.072
 1797SOL    HW1 6290   1.360   0.286   0.059
 1797SOL    HW2 6291   1.481   0.282   0.169
 1798SOL     OW 6292   5.052   1.974   4.540
 1798SOL    HW1 6293   5.094   1.897   4.590
 1798SOL    HW2 6294   5.057   1.956   4.442
 1799SOL     OW 6295   6.469   2.014   5.890
 1799SOL    HW1 6296   6.449   1.949   5.963
 1799SOL    HW2 6297   6.538   1.974   5.829
 1800SOL     OW 6298   3.835   4.880   2.549
 1800SOL    HW1 6299   3.914   4.832   2.512
 1800SOL    HW2 6300   3.780   4.818   2.604
 1801SOL     OW 6301   0.568   0.940   2.416
 1801SOL    HW1 6302   0.666   0.923   2.428
 1801SOL    HW2 6303   0.520   0.853   2.406
 1802SOL     OW 6304   5.477   5.548   2.542
 1802SOL    HW1 6305   5.425   5.496   2.609
 1802SOL    HW2 6306   5.574   5.544   2.564
 1803SOL     OW 6307   0.266   6.173   6.777
 1803SOL    HW1 6308   0.353   6.182   6.825
 1803SOL    HW2 6309   0.219   6.261   6.775
 1804SOL     OW 6310   2.292   3.827   5.632
 1804SOL    HW1 6311   2.361   3.822   5.560
 1804SOL    HW2 6312   2.271   3.735   5.665
 1805SOL     OW 6313   6.226   4.199   5.821
 1805SOL    HW1 6314   6.276   4.127   5.774
 1805SOL    HW2 6315   6.139   4.163   5.856
 1806SOL     OW 6316   1.294   1.380   0.455
 1806SOL    HW1 6317   1.325   1.474   0.469
 1806SOL    HW2 6318   1.201   1.370   0.490
 1807SOL     OW 6319   4.913   2.179   5.735
 1807SOL    HW1 6320   4.875   2.241   5.804
 1807SOL    HW2 6321   4.904   2.221   5.645
 1808SOL     OW 6322   0.349   3.511   5.880
 1808SOL    HW1 6323   0.379   3.439   5.943
 1808SOL    HW2 6324   0.414   3.587   5.883
 1809SOL     OW 6325   2.041   2.509   4.649
 1809SOL    HW1 6326   2.068   2.468   4.736
 1809SOL    HW2 6327   2.023   2.436   4.583
 1810SOL     OW 6328   2.995   0.300   3.839
 1810SOL    HW1 6329   3.031   0.340   3.755
 1810SOL    HW2 6330   2.970   0.373   3.902
 1811SOL     OW 6331   4.682   4.575   3.567
 1811SOL    HW1 6332   4.744   4.529   3.504
 1811SOL    HW2 6333   4.710   4.557   3.661
 1812SOL     OW 6334   4.292   6.651   5.394
 1812SOL    HW1 6335   4.325   6.572   5.343
 1812SOL    HW2 6336   4.256   6.719   5.330
 1813SOL     OW 6337   6.180   5.116   0.718
 1813SOL    HW1 6338   6.187   5.206   0.675
 1813SOL    HW2 6339   6.160   5.127   0.815
 1814SOL     OW 6340   6.679   1.656   0.447
 1814SOL    HW1 6341   6.594   1.618   0.485
 1814SOL    HW2 6342   6.680   1.642   0.348
 1815SOL     OW 6343   6.101   2.303   2.083
 1815SOL    HW1 6344   6.083   2.352   1.997
 1815SOL    HW2 6345   6.112   2.370   2.157
 1816SOL     OW 6346   2.634   3.617   1.175
 1816SOL    HW1 6347   2.535   3.615   1.188
 1816SOL    HW2 6348   2.679   3.599   1.263
 1817SOL     OW 6349   3.332   0.053   3.291
 1817SOL    HW1 6350   3.389   0.025   3.214
 1817SOL    HW2 6351   3.238   0.067   3.259
 1818SOL     OW 6352   1.742   6.402   2.253
 1818SOL    HW1 6353   1.686   6.408   2.171
 1818SOL    HW2 6354   1.709   6.326   2.310
 1819SOL     OW 6355   0.464   5.152   1.598
 1819SOL    HW1 6356   0.559   5.157   1.630
 1819SOL    HW2 6357   0.405   5.117   1.671
 1820SOL     OW 6358   5.107   0.986   1.918
 1820SOL    HW1 6359   5.187   1.045   1.928
 1820SOL    HW2 6360   5.135   0.899   1.877
 1821SOL     OW 6361   2.232   0.903   1.936
 1821SOL    HW1 6362   2.225   0.997   1.904
 1821SOL    HW2 6363   2.144   0.857   1.925
 1822SOL     OW 6364   1.980   2.436   1.679
 1822SOL    HW1 6365   2.019   2.476   1.596
 1822SOL    HW2 6366   2.032   2.466   1.759
 1823SOL     OW 6367   2.838   5.862   3.097
 1823SOL    HW1 6368   2.839   5.791   3.168
 1823SOL    HW2 6369   2.749   5.908   3.096
 1824SOL     OW 6370   3.490   2.968   1.705
 1824SOL    HW1 6371   3.518   2.900   1.773
 1824SOL    HW2 6372   3.461   2.921   1.621
 1825SOL     OW 6373   1.426   1.569   3.565
 1825SOL    HW1 6374   1.328   1.557   3.577
 1825SOL    HW2 6375   1.472   1.481   3.580
 1826SOL     OW 6376   3.049   0.111   0.959
 1826SOL    HW1 6377   3.031   0.181   1.027
 1826SOL    HW2 6378   3.098   0.035   1.001
 1827SOL     OW 6379   0.015   6.169   1.785
 1827SOL    HW1 6380   6.997   6.244   1.734
 1827SOL    HW2 6381   0.084   6.124   1.729
 1828SOL     OW 6382   1.540   2.777   0.441
 1828SOL    HW1 6383   1.526   2.801   0.345
 1828SOL    HW2 6384   1.533   2.678   0.451
 1829SOL     OW 6385   3.458   0.287   3.371
 1829SOL    HW1 6386   3.404   0.205   3.357
 1829SOL    HW2 6387   3.424   0.338   3.450
 1830SOL     OW 6388   6.016   5.964   3.942
 1830SOL    HW1 6389   6.032   6.062   3.925
 1830SOL    HW2 6390   6.104   5.916   3.943
 1831SOL     OW 6391   6.137   0.128   2.033
 1831SOL    HW1 6392   6.179   0.116   2.123
 1831SOL    HW2 6393   6.111   0.223   2.021
 1832SOL     OW 6394   5.294   1.053   1.159
 1832SOL    HW1 6395   5.354   1.002   1.097
 1832SOL    HW2 6396   5.257   1.133   1.112
 1833SOL     OW 6397   5.297   0.210   5.952
 1833SOL    HW1 6398   5.211   0.186   5.997
 1833SOL    HW2 6399   5.371   0.206   6.018
 1834SOL     OW 6400   2.632   3.889   0.484
 1834SOL    HW1 6401   2.632   3.906   0.386
 1834SOL    HW2 6402   2.706   3.825   0.507
 1835SOL     OW 6403   0.892   3.461   1.872
 1835SOL    HW1 6404   0.896   3.433   1.968
 1835SOL    HW2 6405   0.800   3.492   1.850
 1836SOL     OW 6406   5.069   1.843   0.816
 1836SOL    HW1 6407   5.004   1.779   0.858
 1836SOL    HW2 6408   5.161   1.803   0.820
 1837SOL     OW 6409   0.791   1.847   4.277
 1837SOL    HW1 6410   0.703   1.842   4.324
 1837SOL    HW2 6411   0.845   1.923   4.315
 1838SOL     OW 6412   0.221   1.488   4.244
 1838SOL    HW1 6413   0.315   1.456   4.251
 1838SOL    HW2 6414   0.216   1.563   4.179
 1839SOL     OW 6415   5.309   2.627   4.701
 1839SOL    HW1 6416   5.280   2.598   4.792
 1839SOL    HW2 6417   5.324   2.726   4.701
 1840SOL     OW 6418   3.659   5.638   1.659
 1840SOL    HW1 6419   3.696   5.726   1.630
 1840SOL    HW2 6420   3.640   5.582   1.579
 1841SOL     OW 6421   2.250   1.473   3.792
 1841SOL    HW1 6422   2.181   1.544   3.804
 1841SOL    HW2 6423   2.226   1.393   3.846
 1842SOL     OW 6424   1.064   5.211   0.291
 1842SOL    HW1 6425   1.097   5.268   0.217
 1842SOL    HW2 6426   1.132   5.141   0.313
 1843SOL     OW 6427   6.585   2.091   3.890
 1843SOL    HW1 6428   6.573   1.993   3.874
 1843SOL    HW2 6429   6.593   2.139   3.802
 1844SOL     OW 6430   3.663   6.995   5.344
 1844SOL    HW1 6431   3.564   7.012   5.341
 1844SOL    HW2 6432   3.692   6.949   5.260
 1845SOL     OW 6433   1.868   6.627   4.861
 1845SOL    HW1 6434   1.793   6.584   4.911
 1845SOL    HW2 6435   1.856   6.611   4.763
 1846SOL     OW 6436   4.299   2.132   0.248
 1846SOL    HW1 6437   4.206   2.098   0.245
 1846SOL    HW2 6438   4.304   2.210   0.311
 1847SOL     OW 6439   1.239   0.617   6.184
 1847SOL    HW1 6440   1.334   0.605   6.213
 1847SOL    HW2 6441   1.236   0.675   6.103
 1848SOL     OW 6442   1.054   6.954   2.376
 1848SOL    HW1 6443   1.086   0.011   2.326
 1848SOL    HW2 6444   1.021   6.981   2.466
 1849SOL     OW 6445   3.541   2.133   0.815
 1849SOL    HW1 6446   3.476   2.207   0.800
 1849SOL    HW2 6447   3.493   2.054   0.852
 1850SOL     OW 6448   0.600   3.217   2.513
 1850SOL    HW1 6449   0.624   3.244   2.606
 1850SOL    HW2 6450   0.502   3.228   2.499
 1851SOL     OW 6451   0.269   2.457   1.499
 1851SOL    HW1 6452   0.329   2.470   1.420
 1851SOL    HW2 6453   0.284   2.366   1.538
 1852SOL     OW 6454   5.985   3.731   2.294
 1852SOL    HW1 6455   5.920   3.682   2.352
 1852SOL    HW2 6456   5.986   3.690   2.203
 1853SOL     OW 6457   0.228   3.438   2.959
 1853SOL    HW1 6458   0.321   3.453   2.993
 1853SOL    HW2 6459   0.201   3.343   2.976
 1854SOL     OW 6460   2.624   6.251   3.499
 1854SOL    HW1 6461   2.529   6.235   3.524
 1854SOL    HW2 6462   2.633   6.259   3.400
 1855SOL     OW 6463   5.383   3.728   6.401
 1855SOL    HW1 6464   5.458   3.724   6.468
 1855SOL    HW2 6465   5.308   3.782   6.439
 1856SOL     OW 6466   6.059   3.514   5.892
 1856SOL    HW1 6467   6.018   3.549   5.807
 1856SOL    HW2 6468   5.996   3.449   5.934
 1857SOL     OW 6469   3.846   1.223   5.527
 1857SOL    HW1 6470   3.919   1.250   5.588
 1857SOL    HW2 6471   3.767   1.192   5.581
 1858SOL     OW 6472   6.133   3.522   3.659
 1858SOL    HW1 6473   6.107   3.612   3.693
 1858SOL    HW2 6474   6.051   3.467   3.644
 1859SOL     OW 6475   4.590   1.760   3.609
 1859SOL    HW1 6476   4.515   1.737   3.671
 1859SOL    HW2 6477   4.582   1.707   3.525
 1860SOL     OW 6478   6.633   0.332   4.236
 1860SOL    HW1 6479   6.633   0.307   4.333
 1860SOL    HW2 6480   6.706   0.398   4.218
 1861SOL     OW 6481   5.568   0.316   1.913
 1861SOL    HW1 6482   5.560   0.239   1.977
 1861SOL    HW2 6483   5.648   0.371   1.936
 1862SOL     OW 6484   2.385   0.834   6.001
 1862SOL    HW1 6485   2.466   0.775   6.001
 1862SOL    HW2 6486   2.395   0.904   6.072
 1863SOL     OW 6487   1.622   1.776   1.421
 1863SOL    HW1 6488   1.599   1.712   1.347
 1863SOL    HW2 6489   1.593   1.868   1.395
 1864SOL     OW 6490   1.041   0.083   5.815
 1864SOL    HW1 6491   1.024   0.099   5.912
 1864SOL    HW2 6492   1.130   0.038   5.804
 1865SOL     OW 6493   3.548   6.472   6.256
 1865SOL    HW1 6494   3.528   6.375   6.273
 1865SOL    HW2 6495   3.463   6.523   6.244
 1866SOL     OW 6496   3.992   4.832   3.517
 1866SOL    HW1 6497   3.935   4.864   3.441
 1866SOL    HW2 6498   4.088   4.830   3.489
 1867SOL     OW 6499   0.446   3.710   0.022
 1867SOL    HW1 6500   0.474   3.804   7.021
 1867SOL    HW2 6501   0.505   3.675   0.094
 1868SOL     OW 6502   4.590   4.389   0.145
 1868SOL    HW1 6503   4.497   4.424   0.163
 1868SOL    HW2 6504   4.638   4.378   0.232
 1869SOL     OW 6505   6.135   2.577   5.690
 1869SOL    HW1 6506   6.225   2.532   5.685
 1869SOL    HW2 6507   6.121   2.634   5.609
 1870SOL     OW 6508   2.099   2.737   5.861
 1870SOL    HW1 6509   2.186   2.736   5.810
 1870SOL    HW2 6510   2.024   2.754   5.797
 1871SOL     OW 6511   0.488   0.561   0.400
 1871SOL    HW1 6512   0.493   0.649   0.448
 1871SOL    HW2 6513   0.409   0.561   0.339
 1872SOL     OW 6514   3.435   2.361   6.345
 1872SOL    HW1 6515   3.483   2.307   6.276
 1872SOL    HW2 6516   3.341   2.326   6.356
 1873SOL     OW 6517   4.831   1.697   5.570
 1873SOL    HW1 6518   4.930   1.680   5.576
 1873SOL    HW2 6519   4.810   1.785   5.612
 1874SOL     OW 6520   3.595   1.277   1.166
 1874SOL    HW1 6521   3.693   1.279   1.182
 1874SOL    HW2 6522   3.559   1.370   1.164
 1875SOL     OW 6523   0.543   1.222   0.378
 1875SOL    HW1 6524   0.473   1.289   0.356
 1875SOL    HW2 6525   0.569   1.172   0.295
 1876SOL     OW 6526   4.123   6.564   5.987
 1876SOL    HW1 6527   4.043   6.617   6.017
 1876SOL    HW2 6528   4.095   6.501   5.915
 1877SOL     OW 6529   0.493   6.888   2.489
 1877SOL    HW1 6530   0.569   6.943   2.525
 1877SOL    HW2 6531   0.520   6.849   2.401
 1878SOL     OW 6532   6.959   2.381   3.547
 1878SOL    HW1 6533   6.913   2.470   3.550
 1878SOL    HW2 6534   0.031   2.393   3.518
 1879SOL     OW 6535   1.383   4.281   4.392
 1879SOL    HW1 6536   1.457   4.242   4.446
 1879SOL    HW2 6537   1.418   4.358   4.339
 1880SOL     OW 6538   6.554   1.291   4.379
 1880SOL    HW1 6539   6.528   1.387   4.390
 1880SOL    HW2 6540   6.593   1.278   4.288
 1881SOL     OW 6541   6.047   2.238   3.347
 1881SOL    HW1 6542   5.956   2.249   3.306
 1881SOL    HW2 6543   6.061   2.307   3.418
 1882SOL     OW 6544   1.310   4.019   6.262
 1882SOL    HW1 6545   1.252   3.951   6.218
 1882SOL    HW2 6546   1.400   4.020   6.218
 1883SOL     OW 6547   0.010   2.100   3.315
 1883SOL    HW1 6548   0.010   2.103   3.415
 1883SOL    HW2 6549   7.008   2.007   3.285
 1884SOL     OW 6550   0.061   2.500   0.939
 1884SOL    HW1 6551   0.092   2.551   1.019
 1884SOL    HW2 6552   6.984   2.503   0.936
 1885SOL     OW 6553   1.835   2.085   6.616
 1885SOL    HW1 6554   1.762   2.031   6.658
 1885SOL    HW2 6555   1.923   2.057   6.655
 1886SOL     OW 6556   1.876   1.171   1.846
 1886SOL    HW1 6557   1.866   1.126   1.934
 1886SOL    HW2 6558   1.888   1.269   1.859
 1887SOL     OW 6559   0.943   6.207   4.679
 1887SOL    HW1 6560   0.866   6.148   4.700
 1887SOL    HW2 6561   0.912   6.281   4.618
 1888SOL     OW 6562   2.801   2.046   0.279
 1888SOL    HW1 6563   2.794   1.993   0.195
 1888SOL    HW2 6564   2.866   2.003   0.341
 1889SOL     OW 6565   0.416   3.149   5.685
 1889SOL    HW1 6566   0.511   3.164   5.658
 1889SOL    HW2 6567   0.366   3.236   5.678
 1890SOL     OW 6568   1.956   6.075   4.526
 1890SOL    HW1 6569   1.961   6.012   4.603
 1890SOL    HW2 6570   1.916   6.162   4.557
 1891SOL     OW 6571   5.738   2.750   2.114
 1891SOL    HW1 6572   5.685   2.784   2.037
 1891SOL    HW2 6573   5.720   2.653   2.128
 1892SOL     OW 6574   2.201   0.194   2.702
 1892SOL    HW1 6575   2.292   0.173   2.668
 1892SOL    HW2 6576   2.206   0.229   2.795
 1893SOL     OW 6577   3.041   3.400   0.281
 1893SOL    HW1 6578   3.017   3.388   0.377
 1893SOL    HW2 6579   3.121   3.459   0.274
 1894SOL     OW 6580   3.702   4.162   4.359
 1894SOL    HW1 6581   3.644   4.201   4.287
 1894SOL    HW2 6582   3.661   4.182   4.448
 1895SOL     OW 6583   4.495   0.754   1.486
 1895SOL    HW1 6584   4.532   0.678   1.539
 1895SOL    HW2 6585   4.497   0.731   1.389
 1896SOL     OW 6586   4.875   0.663   1.354
 1896SOL    HW1 6587   4.834   0.572   1.343
 1896SOL    HW2 6588   4.810   0.733   1.326
 1897SOL     OW 6589   2.571   5.630   1.468
 1897SOL    HW1 6590   2.540   5.724   1.450
 1897SOL    HW2 6591   2.494   5.575   1.499
 1898SOL     OW 6592   2.388   5.588   3.255
 1898SOL    HW1 6593   2.446   5.611   3.177
 1898SOL    HW2 6594   2.316   5.657   3.265
 1899SOL     OW 6595   0.729   1.042   1.776
 1899SOL    HW1 6596   0.685   1.059   1.688
 1899SOL    HW2 6597   0.661   1.016   1.843
 1900SOL     OW 6598   1.864   0.455   6.524
 1900SOL    HW1 6599   1.829   0.418   6.610
 1900SOL    HW2 6600   1.962   0.434   6.516
 1901SOL     OW 6601   1.547   2.275   0.992
 1901SOL    HW1 6602   1.634   2.235   1.021
 1901SOL    HW2 6603   1.556   2.375   0.986
 1902SOL     OW 6604   2.164   0.922   5.421
 1902SOL    HW1 6605   2.166   0.899   5.324
 1902SOL    HW2 6606   2.139   1.019   5.432
 1903SOL     OW 6607   0.377   3.427   2.499
 1903SOL    HW1 6608   0.324   3.455   2.418
 1903SOL    HW2 6609   0.439   3.500   2.525
 1904SOL     OW 6610   5.536   5.741   3.568
 1904SOL    HW1 6611   5.516   5.651   3.606
 1904SOL    HW2 6612   5.635   5.755   3.565
 1905SOL     OW 6613   1.122   6.851   3.276
 1905SOL    HW1 6614   1.135   6.817   3.369
 1905SOL    HW2 6615   1.197   6.912   3.252
 1906SOL     OW 6616   1.908   0.121   4.700
 1906SOL    HW1 6617   1.892   0.136   4.602
 1906SOL    HW2 6618   1.983   0.180   4.730
 1907SOL     OW 6619   3.627   1.598   1.828
 1907SOL    HW1 6620   3.568   1.567   1.902
 1907SOL    HW2 6621   3.584   1.578   1.740
 1908SOL     OW 6622   3.340   6.744   5.516
 1908SOL    HW1 6623   3.304   6.721   5.606
 1908SOL    HW2 6624   3.360   6.660   5.466
 1909SOL     OW 6625   0.695   3.677   3.075
 1909SOL    HW1 6626   0.660   3.724   2.994
 1909SOL    HW2 6627   0.739   3.743   3.136
 1910SOL     OW 6628   0.200   4.842   6.310
 1910SOL    HW1 6629   0.232   4.797   6.393
 1910SOL    HW2 6630   0.248   4.929   6.298
 1911SOL     OW 6631   6.986   3.831   5.051
 1911SOL    HW1 6632   0.047   3.778   5.036
 1911SOL    HW2 6633   6.935   3.792   5.128
 1912SOL     OW 6634   2.914   5.644   0.342
 1912SOL    HW1 6635   2.855   5.651   0.262
 1912SOL    HW2 6636   2.862   5.672   0.424
 1913SOL     OW 6637   2.095   0.265   4.819
 1913SOL    HW1 6638   2.189   0.273   4.788
 1913SOL    HW2 6639   2.072   0.343   4.877
 1914SOL     OW 6640   3.678   2.883   6.419
 1914SOL    HW1 6641   3.635   2.798   6.387
 1914SOL    HW2 6642   3.627   2.917   6.499
 1915SOL     OW 6643   3.868   2.186   5.229
 1915SOL    HW1 6644   3.821   2.098   5.234
 1915SOL    HW2 6645   3.835   2.246   5.302
 1916SOL     OW 6646   4.011   5.454   1.520
 1916SOL    HW1 6647   4.042   5.537   1.567
 1916SOL    HW2 6648   4.077   5.430   1.449
 1917SOL     OW 6649   2.303   3.002   6.483
 1917SOL    HW1 6650   2.365   3.009   6.561
 1917SOL    HW2 6651   2.355   2.977   6.401
 1918SOL     OW 6652   1.452   1.288   4.702
 1918SOL    HW1 6653   1.402   1.322   4.622
 1918SOL    HW2 6654   1.549   1.282   4.680
 1919SOL     OW 6655   1.363   1.532   1.887
 1919SOL    HW1 6656   1.393   1.507   1.795
 1919SOL    HW2 6657   1.328   1.450   1.934
 1920SOL     OW 6658   0.559   4.174   3.015
 1920SOL    HW1 6659   0.647   4.221   3.010
 1920SOL    HW2 6660   0.547   4.136   3.107
 1921SOL     OW 6661   1.479   3.531   6.575
 1921SOL    HW1 6662   1.421   3.508   6.497
 1921SOL    HW2 6663   1.538   3.608   6.551
 1922SOL     OW 6664   2.653   2.880   1.673
 1922SOL    HW1 6665   2.752   2.886   1.677
 1922SOL    HW2 6666   2.615   2.971   1.657
 1923SOL     OW 6667   3.810   1.449   6.243
 1923SOL    HW1 6668   3.777   1.398   6.322
 1923SOL    HW2 6669   3.856   1.387   6.180
 1924SOL     OW 6670   4.720   6.587   0.021
 1924SOL    HW1 6671   4.667   6.504   0.035
 1924SOL    HW2 6672   4.756   6.589   6.951
 1925SOL     OW 6673   1.893   4.906   0.733
 1925SOL    HW1 6674   1.947   4.943   0.809
 1925SOL    HW2 6675   1.948   4.843   0.679
 1926SOL     OW 6676   3.115   6.889   2.932
 1926SOL    HW1 6677   3.140   6.985   2.919
 1926SOL    HW2 6678   3.056   6.880   3.013
 1927SOL     OW 6679   2.346   4.665   6.978
 1927SOL    HW1 6680   2.395   4.635   6.896
 1927SOL    HW2 6681   2.281   4.737   6.954
 1928SOL     OW 6682   6.002   4.187   4.866
 1928SOL    HW1 6683   6.008   4.261   4.933
 1928SOL    HW2 6684   5.980   4.101   4.912
 1929SOL     OW 6685   2.369   0.318   1.319
 1929SOL    HW1 6686   2.279   0.354   1.297
 1929SOL    HW2 6687   2.436   0.392   1.319
 1930SOL     OW 6688   4.981   3.833   6.573
 1930SOL    HW1 6689   4.934   3.882   6.646
 1930SOL    HW2 6690   5.080   3.841   6.586
 1931SOL     OW 6691   0.905   2.298   1.436
 1931SOL    HW1 6692   0.961   2.272   1.357
 1931SOL    HW2 6693   0.938   2.384   1.474
 1932SOL     OW 6694   4.822   2.852   3.103
 1932SOL    HW1 6695   4.865   2.791   3.169
 1932SOL    HW2 6696   4.845   2.823   3.010
 1933SOL     OW 6697   1.528   3.113   0.650
 1933SOL    HW1 6698   1.592   3.049   0.606
 1933SOL    HW2 6699   1.487   3.171   0.580
 1934SOL     OW 6700   6.894   1.005   4.836
 1934SOL    HW1 6701   6.836   1.067   4.889
 1934SOL    HW2 6702   6.942   0.942   4.898
 1935SOL     OW 6703   4.656   4.831   3.652
 1935SOL    HW1 6704   4.652   4.737   3.620
 1935SOL    HW2 6705   4.614   4.837   3.743
 1936SOL     OW 6706   5.221   4.541   4.151
 1936SOL    HW1 6707   5.167   4.525   4.233
 1936SOL    HW2 6708   5.193   4.628   4.109
 1937SOL     OW 6709   3.962   5.917   0.027
 1937SOL    HW1 6710   3.939   5.891   0.121
 1937SOL    HW2 6711   4.026   5.994   0.030
 1938SOL     OW 6712   1.206   1.757   1.613
 1938SOL    HW1 6713   1.217   1.850   1.578
 1938SOL    HW2 6714   1.108   1.735   1.617
 1939SOL     OW 6715   6.683   6.625   4.619
 1939SOL    HW1 6716   6.755   6.656   4.557
 1939SOL    HW2 6717   6.717   6.627   4.713
 1940SOL     OW 6718   6.657   4.886   0.863
 1940SOL    HW1 6719   6.731   4.850   0.806
 1940SOL    HW2 6720   6.580   4.913   0.805
 1941SOL     OW 6721   1.473   2.648   4.217
 1941SOL    HW1 6722   1.487   2.559   4.260
 1941SOL    HW2 6723   1.410   2.702   4.273
 1942SOL     OW 6724   5.471   2.799   2.385
 1942SOL    HW1 6725   5.459   2.893   2.416
 1942SOL    HW2 6726   5.535   2.796   2.309
 1943SOL     OW 6727   1.867   6.702   3.469
 1943SOL    HW1 6728   1.861   6.675   3.373
 1943SOL    HW2 6729   1.888   6.800   3.474
 1944SOL     OW 6730   5.690   3.881   6.997
 1944SOL    HW1 6731   5.773   3.859   0.024
 1944SOL    HW2 6732   5.611   3.871   0.035
 1945SOL     OW 6733   3.681   5.385   6.739
 1945SOL    HW1 6734   3.718   5.339   6.658
 1945SOL    HW2 6735   3.748   5.383   6.812
 1946SOL     OW 6736   5.491   0.200   1.010
 1946SOL    HW1 6737   5.536   0.279   1.051
 1946SOL    HW2 6738   5.461   0.222   0.917
 1947SOL     OW 6739   5.002   6.174   4.969
 1947SOL    HW1 6740   4.940   6.248   4.942
 1947SOL    HW2 6741   5.096   6.198   4.943
 1948SOL     OW 6742   5.944   5.271   2.861
 1948SOL    HW1 6743   5.968   5.330   2.784
 1948SOL    HW2 6744   6.028   5.243   2.909
 1949SOL     OW 6745   3.787   3.594   0.057
 1949SOL    HW1 6746   3.722   3.568   7.008
 1949SOL    HW2 6747   3.754   3.677   0.102
 1950SOL     OW 6748   3.270   3.041   2.462
 1950SOL    HW1 6749   3.297   3.002   2.551
 1950SOL    HW2 6750   3.292   2.976   2.390
 1951SOL     OW 6751   6.703   4.463   6.389
 1951SOL    HW1 6752   6.658   4.486   6.475
 1951SOL    HW2 6753   6.801   4.452   6.405
 1952SOL     OW 6754   5.870   4.425   1.124
 1952SOL    HW1 6755   5.808   4.502   1.111
 1952SOL    HW2 6756   5.856   4.358   1.051
 1953SOL     OW 6757   6.684   1.935   5.701
 1953SOL    HW1 6758   6.695   1.972   5.609
 1953SOL    HW2 6759   6.762   1.962   5.758
 1954SOL     OW 6760   6.180   0.181   1.135
 1954SOL    HW1 6761   6.111   0.111   1.155
 1954SOL    HW2 6762   6.267   0.137   1.112
 1955SOL     OW 6763   0.443   0.263   2.428
 1955SOL    HW1 6764   0.461   0.252   2.526
 1955SOL    HW2 6765   0.347   0.244   2.409
 1956SOL     OW 6766   4.861   0.531   1.641
 1956SOL    HW1 6767   4.885   0.436   1.662
 1956SOL    HW2 6768   4.945   0.586   1.640
 1957SOL     OW 6769   5.127   4.777   4.071
 1957SOL    HW1 6770   5.191   4.815   4.004
 1957SOL    HW2 6771   5.033   4.799   4.044
 1958SOL     OW 6772   4.903   1.751   1.526
 1958SOL    HW1 6773   4.971   1.805   1.476
 1958SOL    HW2 6774   4.811   1.775   1.493
 1959SOL     OW 6775   0.549   6.746   3.747
 1959SOL    HW1 6776   0.631   6.791   3.784
 1959SOL    HW2 6777   0.562   6.731   3.649
 1960SOL     OW 6778   0.346   3.973   2.549
 1960SOL    HW1 6779   0.412   3.998   2.620
 1960SOL    HW2 6780   0.393   3.959   2.462
 1961SOL     OW 6781   6.071   4.145   4.459
 1961SOL    HW1 6782   6.032   4.237   4.473
 1961SOL    HW2 6783   6.170   4.151   4.465
 1962SOL     OW 6784   1.400   6.919   2.121
 1962SOL    HW1 6785   1.437   6.921   2.214
 1962SOL    HW2 6786   1.450   6.853   2.066
 1963SOL     OW 6787   1.120   1.248   1.731
 1963SOL    HW1 6788   1.065   1.168   1.706
 1963SOL    HW2 6789   1.202   1.218   1.780
 1964SOL     OW 6790   3.694   5.147   1.324
 1964SOL    HW1 6791   3.623   5.106   1.267
 1964SOL    HW2 6792   3.752   5.075   1.362
 1965SOL     OW 6793   1.903   2.174   4.322
 1965SOL    HW1 6794   1.908   2.197   4.225
 1965SOL    HW2 6795   1.854   2.088   4.334
 1966SOL     OW 6796   0.956   5.988   1.399
 1966SOL    HW1 6797   1.021   6.026   1.335
 1966SOL    HW2 6798   0.936   5.893   1.375
 1967SOL     OW 6799   6.493   2.727   4.168
 1967SOL    HW1 6800   6.524   2.643   4.123
 1967SOL    HW2 6801   6.401   2.712   4.206
 1968SOL     OW 6802   2.158   0.351   5.582
 1968SOL    HW1 6803   2.227   0.392   5.642
 1968SOL    HW2 6804   2.077   0.409   5.579
 1969SOL     OW 6805   2.909   1.213   1.451
 1969SOL    HW1 6806   2.995   1.189   1.496
 1969SOL    HW2 6807   2.928   1.254   1.362
 1970SOL     OW 6808   0.671   0.459   5.000
 1970SOL    HW1 6809   0.584   0.439   5.047
 1970SOL    HW2 6810   0.658   0.536   4.938
 1971SOL     OW 6811   0.357   1.177   5.873
 1971SOL    HW1 6812   0.267   1.148   5.905
 1971SOL    HW2 6813   0.378   1.268   5.910
 1972SOL     OW 6814   5.864   2.412   1.083
 1972SOL    HW1 6815   5.847   2.452   1.173
 1972SOL    HW2 6816   5.777   2.396   1.036
 1973SOL     OW 6817   2.743   4.290   1.695
 1973SOL    HW1 6818   2.814   4.360   1.706
 1973SOL    HW2 6819   2.785   4.199   1.695
 1974SOL     OW 6820   4.776   0.051   4.601
 1974SOL    HW1 6821   4.845   0.123   4.598
 1974SOL    HW2 6822   4.773   0.012   4.693
 1975SOL     OW 6823   2.355   1.853   4.259
 1975SOL    HW1 6824   2.319   1.760   4.261
 1975SOL    HW2 6825   2.342   1.891   4.167
 1976SOL     OW 6826   5.632   6.039   0.713
 1976SOL    HW1 6827   5.579   6.044   0.798
 1976SOL    HW2 6828   5.728   6.021   0.734
 1977SOL     OW 6829   1.697   3.187   4.965
 1977SOL    HW1 6830   1.762   3.245   4.916
 1977SOL    HW2 6831   1.742   3.101   4.990
 1978SOL     OW 6832   1.824   5.904   3.048
 1978SOL    HW1 6833   1.797   5.904   2.952
 1978SOL    HW2 6834   1.756   5.954   3.102
 1979SOL     OW 6835   5.208   5.107   0.190
 1979SOL    HW1 6836   5.218   5.014   0.226
 1979SOL    HW2 6837   5.219   5.173   0.264
 1980SOL     OW 6838   4.093   0.512   3.758
 1980SOL    HW1 6839   4.021   0.443   3.752
 1980SOL    HW2 6840   4.139   0.519   3.669
 1981SOL     OW 6841   5.706   2.836   2.631
 1981SOL    HW1 6842   5.722   2.816   2.534
 1981SOL    HW2 6843   5.617   2.799   2.658
 1982SOL     OW 6844   0.052   3.735   3.958
 1982SOL    HW1 6845   0.013   3.732   4.050
 1982SOL    HW2 6846   7.003   3.759   3.892
 1983SOL     OW 6847   2.010   0.742   1.572
 1983SOL    HW1 6848   1.919   0.723   1.536
 1983SOL    HW2 6849   2.003   0.804   1.650
 1984SOL     OW 6850   4.481   2.511   4.949
 1984SOL    HW1 6851   4.522   2.597   4.980
 1984SOL    HW2 6852   4.389   2.503   4.986
 1985SOL     OW 6853   0.258   6.222   1.903
 1985SOL    HW1 6854   0.164   6.218   1.869
 1985SOL    HW2 6855   0.257   6.220   2.003
 1986SOL     OW 6856   2.904   0.938   6.158
 1986SOL    HW1 6857   2.988   0.992   6.156
 1986SOL    HW2 6858   2.920   0.849   6.116
 1987SOL     OW 6859   2.442   1.675   3.851
 1987SOL    HW1 6860   2.522   1.641   3.901
 1987SOL    HW2 6861   2.381   1.599   3.830
 1988SOL     OW 6862   0.727   2.608   0.856
 1988SOL    HW1 6863   0.660   2.683   0.860
 1988SOL    HW2 6864   0.756   2.583   0.948
 1989SOL     OW 6865   2.222   5.931   4.652
 1989SOL    HW1 6866   2.283   5.854   4.633
 1989SOL    HW2 6867   2.202   5.980   4.566
 1990SOL     OW 6868   3.575   5.635   0.014
 1990SOL    HW1 6869   3.652   5.667   6.982
 1990SOL    HW2 6870   3.585   5.538   0.034
 1991SOL     OW 6871   1.706   5.917   0.337
 1991SOL    HW1 6872   1.724   6.015   0.347
 1991SOL    HW2 6873   1.634   5.903   0.270
 1992SOL     OW 6874   6.926   0.635   0.419
 1992SOL    HW1 6875   6.947   0.730   0.394
 1992SOL    HW2 6876   6.895   0.632   0.514
 1993SOL     OW 6877   3.214   1.842   5.530
 1993SOL    HW1 6878   3.186   1.766   5.471
 1993SOL    HW2 6879   3.301   1.879   5.498
 1994SOL     OW 6880   6.188   2.239   1.655
 1994SOL    HW1 6881   6.276   2.281   1.677
 1994SOL    HW2 6882   6.191   2.202   1.562
 1995SOL     OW 6883   5.515   3.154   3.934
 1995SOL    HW1 6884   5.505   3.064   3.892
 1995SOL    HW2 6885   5.588   3.151   4.003
 1996SOL     OW 6886   2.542   1.791   1.386
 1996SOL    HW1 6887   2.625   1.814   1.436
 1996SOL    HW2 6888   2.547   1.696   1.354
 1997SOL     OW 6889   3.686   1.601   3.910
 1997SOL    HW1 6890   3.681   1.594   4.010
 1997SOL    HW2 6891   3.759   1.664   3.884
 1998SOL     OW 6892   1.673   4.134   1.123
 1998SOL    HW1 6893   1.593   4.185   1.090
 1998SOL    HW2 6894   1.721   4.093   1.046
 1999SOL     OW 6895   0.926   0.297   5.667
 1999SOL    HW1 6896   0.951   0.300   5.570
 1999SOL    HW2 6897   0.976   0.223   5.712
 2000SOL     OW 6898   3.825   2.961   5.538
 2000SOL    HW1 6899   3.884   2.993   5.613
 2000SOL    HW2 6900   3.857   2.872   5.507
 2001SOL     OW 6901   2.206   1.537   0.782
 2001SOL    HW1 6902   2.163   1.449   0.804
 2001SOL    HW2 6903   2.277   1.556   0.850
 2002SOL     OW 6904   0.515   4.996   0.913
 2002SOL    HW1 6905   0.443   5.063   0.894
 2002SOL    HW2 6906   0.475   4.916   0.958
 2003SOL     OW 6907   6.817   4.878   2.142
 2003SOL    HW1 6908   6.781   4.963   2.103
 2003SOL    HW2 6909   6.798   4.802   2.079
 2004SOL     OW 6910   4.650   0.611   4.936
 2004SOL    HW1 6911   4.620   0.599   4.842
 2004SOL    HW2 6912   4.682   0.523   4.973
 2005SOL     OW 6913   0.152   4.704   0.174
 2005SOL    HW1 6914   0.191   4.783   0.126
 2005SOL    HW2 6915   0.216   4.627   0.170
 2006SOL     OW 6916   5.580   6.670   4.152
 2006SOL    HW1 6917   5.537   6.697   4.238
 2006SOL    HW2 6918   5.555   6.734   4.080
 2007SOL     OW 6919   5.425   4.499   0.957
 2007SOL    HW1 6920   5.394   4.547   1.039
 2007SOL    HW2 6921   5.441   4.565   0.884
 2008SOL     OW 6922   2.083   3.235   3.316
 2008SOL    HW1 6923   2.084   3.274   3.408
 2008SOL    HW2 6924   1.989   3.224   3.285
 2009SOL     OW 6925   4.822   6.166   2.279
 2009SOL    HW1 6926   4.840   6.252   2.327
 2009SOL    HW2 6927   4.876   6.163   2.195
 2010SOL     OW 6928   2.225   1.612   2.226
 2010SOL    HW1 6929   2.258   1.656   2.143
 2010SOL    HW2 6930   2.139   1.653   2.255
 2011SOL     OW 6931   0.427   1.059   5.117
 2011SOL    HW1 6932   0.526   1.072   5.107
 2011SOL    HW2 6933   0.379   1.133   5.068
 2012SOL     OW 6934   1.476   3.753   2.240
 2012SOL    HW1 6935   1.404   3.806   2.195
 2012SOL    HW2 6936   1.525   3.699   2.172
 2013SOL     OW 6937   6.634   3.428   4.002
 2013SOL    HW1 6938   6.704   3.401   4.068
 2013SOL    HW2 6939   6.675   3.442   3.912
 2014SOL     OW 6940   3.085   0.118   3.168
 2014SOL    HW1 6941   3.035   0.175   3.233
 2014SOL    HW2 6942   3.064   0.147   3.074
 2015SOL     OW 6943   3.070   6.664   0.435
 2015SOL    HW1 6944   3.018   6.607   0.372
 2015SOL    HW2 6945   3.088   6.753   0.392
 2016SOL     OW 6946   1.368   5.603   4.956
 2016SOL    HW1 6947   1.330   5.545   4.883
 2016SOL    HW2 6948   1.452   5.646   4.924
 2017SOL     OW 6949   4.426   0.187   3.141
 2017SOL    HW1 6950   4.431   0.087   3.139
 2017SOL    HW2 6951   4.481   0.222   3.217
 2018SOL     OW 6952   6.339   2.854   3.792
 2018SOL    HW1 6953   6.333   2.760   3.825
 2018SOL    HW2 6954   6.423   2.865   3.738
 2019SOL     OW 6955   6.014   4.201   6.401
 2019SOL    HW1 6956   6.035   4.297   6.417
 2019SOL    HW2 6957   5.937   4.174   6.459
 2020SOL     OW 6958   1.925   6.177   5.742
 2020SOL    HW1 6959   1.843   6.165   5.798
 2020SOL    HW2 6960   1.928   6.271   5.708
 2021SOL     OW 6961   6.384   6.498   4.386
 2021SOL    HW1 6962   6.457   6.449   4.434
 2021SOL    HW2 6963   6.362   6.582   4.436
 2022SOL     OW 6964   1.619   4.413   4.386
 2022SOL    HW1 6965   1.639   4.387   4.291
 2022SOL    HW2 6966   1.673   4.355   4.448
 2023SOL     OW 6967   0.761   0.326   7.020
 2023SOL    HW1 6968   0.833   0.266   0.032
 2023SOL    HW2 6969   0.803   0.406   6.978
 2024SOL     OW 6970   0.159   5.956   3.832
 2024SOL    HW1 6971   0.117   6.024   3.892
 2024SOL    HW2 6972   0.096   5.879   3.821
 2025SOL     OW 6973   3.484   0.912   4.276
 2025SOL    HW1 6974   3.520   0.829   4.234
 2025SOL    HW2 6975   3.540   0.990   4.248
 2026SOL     OW 6976   6.877   2.222   6.860
 2026SOL    HW1 6977   6.921   2.138   6.827
 2026SOL    HW2 6978   6.778   2.215   6.845
 2027SOL     OW 6979   0.467   0.101   1.558
 2027SOL    HW1 6980   0.488   0.041   1.635
 2027SOL    HW2 6981   0.436   0.046   1.481
 2028SOL     OW 6982   3.279   5.353   3.757
 2028SOL    HW1 6983   3.220   5.302   3.820
 2028SOL    HW2 6984   3.367   5.306   3.749
 2029SOL     OW 6985   6.413   2.368   6.808
 2029SOL    HW1 6986   6.462   2.391   6.892
 2029SOL    HW2 6987   6.363   2.449   6.775
 2030SOL     OW 6988   3.768   0.278   2.544
 2030SOL    HW1 6989   3.848   0.339   2.549
 2030SOL    HW2 6990   3.768   0.218   2.624
 2031SOL     OW 6991   6.958   6.290   2.563
 2031SOL    HW1 6992   6.981   6.384   2.586
 2031SOL    HW2 6993   0.018   6.237   2.548
 2032SOL     OW 6994   3.839   1.402   1.626
 2032SOL    HW1 6995   3.768   1.407   1.556
 2032SOL    HW2 6996   3.894   1.485   1.622
 2033SOL     OW 6997   2.392   1.116   1.221
 2033SOL    HW1 6998   2.431   1.051   1.156
 2033SOL    HW2 6999   2.354   1.067   1.299
 2034SOL     OW 7000   1.492   4.860   5.611
 2034SOL    HW1 7001   1.495   4.762   5.631
 2034SOL    HW2 7002   1.585   4.894   5.597
 2035SOL     OW 7003   6.427   6.517   2.538
 2035SOL    HW1 7004   6.400   6.527   2.633
 2035SOL    HW2 7005   6.487   6.593   2.511
 2036SOL     OW 7006   1.449   3.929   3.521
 2036SOL    HW1 7007   1.398   3.843   3.523
 2036SOL    HW2 7008   1.494   3.943   3.609
 2037SOL     OW 7009   6.097   2.820   6.308
 2037SOL    HW1 7010   6.085   2.771   6.221
 2037SOL    HW2 7011   6.163   2.772   6.365
 2038SOL     OW 7012   2.616   1.517   0.655
 2038SOL    HW1 7013   2.656   1.601   0.618
 2038SOL    HW2 7014   2.557   1.540   0.733
 2039SOL     OW 7015   0.411   6.709   2.887
 2039SOL    HW1 7016   0.325   6.663   2.909
 2039SOL    HW2 7017   0.475   6.698   2.964
 2040SOL     OW 7018   2.332   2.124   0.312
 2040SOL    HW1 7019   2.313   2.039   0.263
 2040SOL    HW2 7020   2.430   2.129   0.333
 2041SOL     OW 7021   1.402   0.341   5.397
 2041SOL    HW1 7022   1.480   0.334   5.458
 2041SOL    HW2 7023   1.362   0.250   5.383
 2042SOL     OW 7024   5.041   0.148   6.035
 2042SOL    HW1 7025   5.005   0.208   6.107
 2042SOL    HW2 7026   4.988   0.063   6.032
 2043SOL     OW 7027   6.290   2.726   2.781
 2043SOL    HW1 7028   6.242   2.639   2.769
 2043SOL    HW2 7029   6.236   2.786   2.840
 2044SOL     OW 7030   6.206   0.685   0.768
 2044SOL    HW1 7031   6.151   0.630   0.831
 2044SOL    HW2 7032   6.303   0.675   0.791
 2045SOL     OW 7033   1.154   5.326   4.347
 2045SOL    HW1 7034   1.154   5.424   4.366
 2045SOL    HW2 7035   1.100   5.279   4.417
 2046SOL     OW 7036   6.235   2.293   5.441
 2046SOL    HW1 7037   6.211   2.212   5.495
 2046SOL    HW2 7038   6.152   2.343   5.417
 2047SOL     OW 7039   6.599   2.680   0.928
 2047SOL    HW1 7040   6.632   2.761   0.880
 2047SOL    HW2 7041   6.501   2.668   0.911
 2048SOL     OW 7042   0.351   0.789   4.801
 2048SOL    HW1 7043   0.308   0.707   4.764
 2048SOL    HW2 7044   0.325   0.868   4.746
 2049SOL     OW 7045   5.264   1.467   4.236
 2049SOL    HW1 7046   5.342   1.412   4.207
 2049SOL    HW2 7047   5.250   1.542   4.172
 2050SOL     OW 7048   6.827   2.638   4.441
 2050SOL    HW1 7049   6.860   2.617   4.349
 2050SOL    HW2 7050   6.749   2.700   4.435
 2051SOL     OW 7051   1.867   5.845   6.842
 2051SOL    HW1 7052   1.893   5.880   6.932
 2051SOL    HW2 7053   1.775   5.878   6.819
 2052SOL     OW 7054   1.388   2.905   0.762
 2052SOL    HW1 7055   1.291   2.926   0.746
 2052SOL    HW2 7056   1.444   2.983   0.735
 2053SOL     OW 7057   0.961   5.435   4.853
 2053SOL    HW1 7058   0.969   5.371   4.929
 2053SOL    HW2 7059   0.966   5.529   4.887
 2054SOL     OW 7060   3.202   3.983   3.265
 2054SOL    HW1 7061   3.251   4.060   3.305
 2054SOL    HW2 7062   3.126   3.957   3.325
 2055SOL     OW 7063   6.242   3.049   4.961
 2055SOL    HW1 7064   6.237   3.146   4.985
 2055SOL    HW2 7065   6.336   3.028   4.933
 2056SOL     OW 7066   4.254   5.033   1.556
 2056SOL    HW1 7067   4.176   5.087   1.525
 2056SOL    HW2 7068   4.248   5.018   1.654
 2057SOL     OW 7069   4.834   3.353   5.250
 2057SOL    HW1 7070   4.840   3.406   5.165
 2057SOL    HW2 7071   4.740   3.356   5.285
 2058SOL     OW 7072   0.695   6.464   2.232
 2058SOL    HW1 7073   0.601   6.493   2.253
 2058SOL    HW2 7074   0.754   6.479   2.311
 2059SOL     OW 7075   2.435   6.770   5.791
 2059SOL    HW1 7076   2.415   6.857   5.746
 2059SOL    HW2 7077   2.383   6.697   5.747
 2060SOL     OW 7078   0.060   3.581   1.910
 2060SOL    HW1 7079   0.011   3.519   1.971
 2060SOL    HW2 7080   0.033   3.675   1.929
 2061SOL     OW 7081   2.030   2.184   2.399
 2061SOL    HW1 7082   2.114   2.135   2.422
 2061SOL    HW2 7083   1.962   2.119   2.365
 2062SOL     OW 7084   6.935   5.793   5.261
 2062SOL    HW1 7085   6.961   5.707   5.304
 2062SOL    HW2 7086   6.877   5.846   5.323
 2063SOL     OW 7087   1.255   6.662   4.923
 2063SOL    HW1 7088   1.259   6.668   5.023
 2063SOL    HW2 7089   1.201   6.583   4.897
 2064SOL     OW 7090   0.501   3.127   4.398
 2064SOL    HW1 7091   0.592   3.120   4.356
 2064SOL    HW2 7092   0.460   3.215   4.374
 2065SOL     OW 7093   5.508   3.509   5.668
 2065SOL    HW1 7094   5.424   3.462   5.644
 2065SOL    HW2 7095   5.500   3.550   5.759
 2066SOL     OW 7096   6.388   4.328   5.635
 2066SOL    HW1 7097   6.363   4.347   5.540
 2066SOL    HW2 7098   6.307   4.295   5.684
 2067SOL     OW 7099   6.502   5.074   1.013
 2067SOL    HW1 7100   6.565   5.003   0.979
 2067SOL    HW2 7101   6.408   5.046   0.994
 2068SOL     OW 7102   3.875   1.076   4.513
 2068SOL    HW1 7103   3.942   1.050   4.583
 2068SOL    HW2 7104   3.784   1.047   4.542
 2069SOL     OW 7105   0.190   2.283   3.980
 2069SOL    HW1 7106   0.165   2.363   4.035
 2069SOL    HW2 7107   0.233   2.214   4.039
 2070SOL     OW 7108   1.351   2.689   0.991
 2070SOL    HW1 7109   1.369   2.631   0.912
 2070SOL    HW2 7110   1.349   2.785   0.963
 2071SOL     OW 7111   5.594   1.873   6.454
 2071SOL    HW1 7112   5.534   1.895   6.531
 2071SOL    HW2 7113   5.688   1.898   6.477
 2072SOL     OW 7114   4.275   5.113   5.176
 2072SOL    HW1 7115   4.215   5.193   5.166
 2072SOL    HW2 7116   4.265   5.075   5.268
 2073SOL     OW 7117   3.623   6.249   5.443
 2073SOL    HW1 7118   3.628   6.178   5.373
 2073SOL    HW2 7119   3.692   6.233   5.513
 2074SOL     OW 7120   1.692   2.325   6.579
 2074SOL    HW1 7121   1.724   2.419   6.567
 2074SOL    HW2 7122   1.768   2.266   6.607
 2075SOL     OW 7123   6.579   2.286   3.224
 2075SOL    HW1 7124   6.674   2.276   3.194
 2075SOL    HW2 7125   6.520   2.289   3.143
 2076SOL     OW 7126   5.831   0.521   5.571
 2076SOL    HW1 7127   5.854   0.586   5.499
 2076SOL    HW2 7128   5.848   0.428   5.538
 2077SOL     OW 7129   6.319   1.690   1.776
 2077SOL    HW1 7130   6.219   1.691   1.781
 2077SOL    HW2 7131   6.354   1.784   1.781
 2078SOL     OW 7132   1.407   4.809   5.862
 2078SOL    HW1 7133   1.496   4.770   5.885
 2078SOL    HW2 7134   1.412   4.848   5.770
 2079SOL     OW 7135   5.954   0.806   2.605
 2079SOL    HW1 7136   5.919   0.887   2.558
 2079SOL    HW2 7137   6.004   0.833   2.687
 2080SOL     OW 7138   3.547   1.821   4.864
 2080SOL    HW1 7139   3.492   1.857   4.939
 2080SOL    HW2 7140   3.523   1.725   4.848
 2081SOL     OW 7141   0.931   6.664   3.833
 2081SOL    HW1 7142   0.910   6.760   3.814
 2081SOL    HW2 7143   0.890   6.638   3.921
 2082SOL     OW 7144   0.730   6.402   3.175
 2082SOL    HW1 7145   0.735   6.420   3.077
 2082SOL    HW2 7146   0.684   6.315   3.191
 2083SOL     OW 7147   1.125   5.769   4.597
 2083SOL    HW1 7148   1.150   5.734   4.507
 2083SOL    HW2 7149   1.095   5.864   4.590
 2084SOL     OW 7150   0.864   2.592   1.681
 2084SOL    HW1 7151   0.957   2.577   1.647
 2084SOL    HW2 7152   0.799   2.569   1.608
 2085SOL     OW 7153   5.019   6.399   0.804
 2085SOL    HW1 7154   4.937   6.440   0.762
 2085SOL    HW2 7155   5.087   6.471   0.820
 2086SOL     OW 7156   3.928   5.593   6.645
 2086SOL    HW1 7157   3.845   5.550   6.610
 2086SOL    HW2 7158   3.979   5.527   6.700
 2087SOL     OW 7159   4.510   1.774   0.307
 2087SOL    HW1 7160   4.535   1.851   0.366
 2087SOL    HW2 7161   4.475   1.699   0.363
 2088SOL     OW 7162   1.089   5.702   5.698
 2088SOL    HW1 7163   1.069   5.608   5.673
 2088SOL    HW2 7164   1.099   5.757   5.615
 2089SOL     OW 7165   4.177   2.198   5.103
 2089SOL    HW1 7166   4.208   2.184   5.009
 2089SOL    HW2 7167   4.078   2.186   5.109
 2090SOL     OW 7168   4.993   2.801   5.737
 2090SOL    HW1 7169   5.063   2.731   5.752
 2090SOL    HW2 7170   4.902   2.761   5.752
 2091SOL     OW 7171   6.657   6.063   0.767
 2091SOL    HW1 7172   6.671   6.108   0.856
 2091SOL    HW2 7173   6.727   5.993   0.754
 2092SOL     OW 7174   5.610   3.718   0.928
 2092SOL    HW1 7175   5.594   3.722   1.027
 2092SOL    HW2 7176   5.707   3.699   0.911
 2093SOL     OW 7177   3.414   2.126   2.466
 2093SOL    HW1 7178   3.422   2.058   2.393
 2093SOL    HW2 7179   3.323   2.168   2.462
 2094SOL     OW 7180   5.468   2.275   0.884
 2094SOL    HW1 7181   5.546   2.289   0.823
 2094SOL    HW2 7182   5.386   2.259   0.830
 2095SOL     OW 7183   6.185   6.113   3.546
 2095SOL    HW1 7184   6.203   6.168   3.464
 2095SOL    HW2 7185   6.249   6.036   3.549
 2096SOL     OW 7186   4.634   5.652   2.715
 2096SOL    HW1 7187   4.608   5.555   2.713
 2096SOL    HW2 7188   4.554   5.708   2.693
 2097SOL     OW 7189   2.675   3.468   6.849
 2097SOL    HW1 7190   2.660   3.494   6.944
 2097SOL    HW2 7191   2.671   3.550   6.791
 2098SOL     OW 7192   4.047   5.689   3.242
 2098SOL    HW1 7193   4.098   5.749   3.303
 2098SOL    HW2 7194   4.062   5.718   3.147
 2099SOL     OW 7195   4.054   1.806   6.834
 2099SOL    HW1 7196   4.043   1.772   6.928
 2099SOL    HW2 7197   3.967   1.842   6.801
 2100SOL     OW 7198   5.038   1.520   0.660
 2100SOL    HW1 7199   5.101   1.576   0.714
 2100SOL    HW2 7200   4.960   1.495   0.716
 2101SOL     OW 7201   6.888   6.242   0.777
 2101SOL    HW1 7202   6.917   6.227   0.683
 2101SOL    HW2 7203   6.789   6.259   0.780
 2102SOL     OW 7204   4.847   3.658   1.233
 2102SOL    HW1 7205   4.759   3.671   1.280
 2102SOL    HW2 7206   4.915   3.718   1.275
 2103SOL     OW 7207   2.874   3.698   0.441
 2103SOL    HW1 7208   2.931   3.636   0.386
 2103SOL    HW2 7209   2.928   3.736   0.515
 2104SOL     OW 7210   1.085   4.993   1.958
 2104SOL    HW1 7211   1.074   5.082   1.912
 2104SOL    HW2 7212   1.182   4.974   1.969
 2105SOL     OW 7213   3.756   4.481   6.790
 2105SOL    HW1 7214   3.738   4.403   6.730
 2105SOL    HW2 7215   3.854   4.493   6.801
 2106SOL     OW 7216   5.542   3.371   1.054
 2106SOL    HW1 7217   5.485   3.398   1.132
 2106SOL    HW2 7218   5.525   3.276   1.031
 2107SOL     OW 7219   6.053   2.999   5.745
 2107SOL    HW1 7220   6.144   2.993   5.705
 2107SOL    HW2 7221   6.005   3.079   5.710
 2108SOL     OW 7222   5.572   6.372   5.762
 2108SOL    HW1 7223   5.649   6.327   5.716
 2108SOL    HW2 7224   5.550   6.457   5.714
 2109SOL     OW 7225   3.128   5.785   2.066
 2109SOL    HW1 7226   3.192   5.786   1.990
 2109SOL    HW2 7227   3.139   5.868   2.121
 2110SOL     OW 7228   3.711   0.743   5.566
 2110SOL    HW1 7229   3.622   0.788   5.561
 2110SOL    HW2 7230   3.705   0.663   5.626
 2111SOL     OW 7231   1.232   1.949   5.890
 2111SOL    HW1 7232   1.253   2.017   5.960
 2111SOL    HW2 7233   1.146   1.974   5.844
 2112SOL     OW 7234   5.730   2.320   6.556
 2112SOL    HW1 7235   5.793   2.303   6.480
 2112SOL    HW2 7236   5.637   2.293   6.528
 2113SOL     OW 7237   1.659   6.807   4.665
 2113SOL    HW1 7238   1.738   6.831   4.720
 2113SOL    HW2 7239   1.582   6.867   4.687
 2114SOL     OW 7240   2.316   2.829   6.913
 2114SOL    HW1 7241   2.227   2.865   6.887
 2114SOL    HW2 7242   2.314   2.729   6.909
 2115SOL     OW 7243   1.121   4.447   1.562
 2115SOL    HW1 7244   1.197   4.509   1.542
 2115SOL    HW2 7245   1.129   4.414   1.655
 2116SOL     OW 7246   0.673   2.671   1.210
 2116SOL    HW1 7247   0.679   2.718   1.298
 2116SOL    HW2 7248   0.590   2.701   1.163
 2117SOL     OW 7249   5.196   3.220   1.848
 2117SOL    HW1 7250   5.125   3.172   1.900
 2117SOL    HW2 7251   5.280   3.167   1.847
 2118SOL     OW 7252   6.242   3.649   2.288
 2118SOL    HW1 7253   6.278   3.635   2.380
 2118SOL    HW2 7254   6.148   3.684   2.294
 2119SOL     OW 7255   1.561   1.512   0.418
 2119SOL    HW1 7256   1.490   1.582   0.425
 2119SOL    HW2 7257   1.643   1.543   0.466
 2120SOL     OW 7258   6.421   2.328   2.623
 2120SOL    HW1 7259   6.496   2.317   2.688
 2120SOL    HW2 7260   6.420   2.250   2.560
 2121SOL     OW 7261   2.046   2.258   6.223
 2121SOL    HW1 7262   1.982   2.210   6.284
 2121SOL    HW2 7263   2.116   2.194   6.192
 2122SOL     OW 7264   6.107   6.838   6.228
 2122SOL    HW1 7265   6.165   6.883   6.295
 2122SOL    HW2 7266   6.164   6.800   6.155
 2123SOL     OW 7267   6.717   6.001   2.374
 2123SOL    HW1 7268   6.653   5.933   2.409
 2123SOL    HW2 7269   6.676   6.092   2.377
 2124SOL     OW 7270   2.914   1.707   5.679
 2124SOL    HW1 7271   2.924   1.729   5.582
 2124SOL    HW2 7272   2.817   1.694   5.700
 2125SOL     OW 7273   1.466   6.150   2.586
 2125SOL    HW1 7274   1.444   6.168   2.489
 2125SOL    HW2 7275   1.414   6.213   2.643
 2126SOL     OW 7276   4.210   2.939   6.944
 2126SOL    HW1 7277   4.203   3.013   7.011
 2126SOL    HW2 7278   4.262   2.971   6.865
 2127SOL     OW 7279   0.377   1.957   5.662
 2127SOL    HW1 7280   0.444   1.888   5.633
 2127SOL    HW2 7281   0.423   2.045   5.674
 2128SOL     OW 7282   6.063   3.519   0.903
 2128SOL    HW1 7283   5.971   3.489   0.928
 2128SOL    HW2 7284   6.130   3.466   0.956
 2129SOL     OW 7285   5.122   4.517   4.421
 2129SOL    HW1 7286   5.042   4.550   4.471
 2129SOL    HW2 7287   5.138   4.421   4.443
 2130SOL     OW 7288   2.542   1.509   1.360
 2130SOL    HW1 7289   2.445   1.484   1.363
 2130SOL    HW2 7290   2.591   1.462   1.434
 2131SOL     OW 7291   5.343   1.935   0.576
 2131SOL    HW1 7292   5.295   1.848   0.581
 2131SOL    HW2 7293   5.366   1.955   0.480
 2132SOL     OW 7294   3.291   1.392   6.897
 2132SOL    HW1 7295   3.239   1.307   6.886
 2132SOL    HW2 7296   3.234   1.470   6.870
 2133SOL     OW 7297   2.302   2.341   1.369
 2133SOL    HW1 7298   2.302   2.257   1.423
 2133SOL    HW2 7299   2.372   2.336   1.298
 2134SOL     OW 7300   1.316   0.941   4.637
 2134SOL    HW1 7301   1.410   0.933   4.671
 2134SOL    HW2 7302   1.318   0.977   4.544
 2135SOL     OW 7303   0.537   1.938   4.082
 2135SOL    HW1 7304   0.563   1.983   3.997
 2135SOL    HW2 7305   0.454   1.980   4.118
 2136SOL     OW 7306   0.940   3.490   4.625
 2136SOL    HW1 7307   1.017   3.517   4.567
 2136SOL    HW2 7308   0.875   3.566   4.631
 2137SOL     OW 7309   0.752   0.222   4.785
 2137SOL    HW1 7310   0.703   0.265   4.709
 2137SOL    HW2 7311   0.697   0.230   4.868
 2138SOL     OW 7312   6.131   2.676   1.715
 2138SOL    HW1 7313   6.207   2.717   1.766
 2138SOL    HW2 7314   6.129   2.714   1.623
 2139SOL     OW 7315   3.954   0.851   3.694
 2139SOL    HW1 7316   3.970   0.813   3.785
 2139SOL    HW2 7317   3.870   0.905   3.695
 2140SOL     OW 7318   3.099   6.248   2.930
 2140SOL    HW1 7319   3.154   6.175   2.889
 2140SOL    HW2 7320   3.051   6.212   3.010
 2141SOL     OW 7321   6.818   3.051   1.785
 2141SOL    HW1 7322   6.791   3.027   1.692
 2141SOL    HW2 7323   6.876   2.979   1.823
 2142SOL     OW 7324   1.277   1.715   3.338
 2142SOL    HW1 7325   1.353   1.679   3.391
 2142SOL    HW2 7326   1.313   1.765   3.258
 2143SOL     OW 7327   3.570   6.101   0.903
 2143SOL    HW1 7328   3.563   6.193   0.865
 2143SOL    HW2 7329   3.503   6.041   0.860
 2144SOL     OW 7330   1.656   0.516   3.390
 2144SOL    HW1 7331   1.680   0.612   3.375
 2144SOL    HW2 7332   1.624   0.475   3.305
 2145SOL     OW 7333   3.672   5.447   3.855
 2145SOL    HW1 7334   3.768   5.458   3.830
 2145SOL    HW2 7335   3.615   5.505   3.796
 2146SOL     OW 7336   3.551   4.156   2.415
 2146SOL    HW1 7337   3.475   4.129   2.475
 2146SOL    HW2 7338   3.541   4.110   2.327
 2147SOL     OW 7339   0.346   1.292   0.050
 2147SOL    HW1 7340   0.271   1.240   0.010
 2147SOL    HW2 7341   0.353   1.381   0.005
 2148SOL     OW 7342   4.981   3.360   4.139
 2148SOL    HW1 7343   5.055   3.396   4.195
 2148SOL    HW2 7344   4.973   3.414   4.055
 2149SOL     OW 7345   3.564   0.609   1.978
 2149SOL    HW1 7346   3.629   0.565   1.916
 2149SOL    HW2 7347   3.593   0.595   2.073
 2150SOL     OW 7348   2.983   2.213   2.796
 2150SOL    HW1 7349   3.042   2.222   2.715
 2150SOL    HW2 7350   3.040   2.191   2.875
 2151SOL     OW 7351   2.945   1.905   5.111
 2151SOL    HW1 7352   2.849   1.875   5.107
 2151SOL    HW2 7353   2.948   2.004   5.123
 2152SOL     OW 7354   5.523   6.390   1.658
 2152SOL    HW1 7355   5.568   6.302   1.675
 2152SOL    HW2 7356   5.583   6.448   1.604
 2153SOL     OW 7357   4.243   0.937   4.468
 2153SOL    HW1 7358   4.280   0.883   4.393
 2153SOL    HW2 7359   4.148   0.910   4.484
 2154SOL     OW 7360   3.269   5.910   4.688
 2154SOL    HW1 7361   3.181   5.865   4.670
 2154SOL    HW2 7362   3.255   5.985   4.753
 2155SOL     OW 7363   1.641   5.199   0.045
 2155SOL    HW1 7364   1.590   5.206   6.983
 2155SOL    HW2 7365   1.707   5.124   0.038
 2156SOL     OW 7366   2.596   0.366   1.976
 2156SOL    HW1 7367   2.667   0.433   1.955
 2156SOL    HW2 7368   2.561   0.327   1.890
 2157SOL     OW 7369   6.483   0.892   4.478
 2157SOL    HW1 7370   6.462   0.850   4.390
 2157SOL    HW2 7371   6.435   0.980   4.485
 2158SOL     OW 7372   3.168   6.537   0.136
 2158SOL    HW1 7373   3.195   6.485   0.055
 2158SOL    HW2 7374   3.157   6.633   0.112
 2159SOL     OW 7375   1.207   6.206   5.151
 2159SOL    HW1 7376   1.176   6.172   5.062
 2159SOL    HW2 7377   1.163   6.294   5.170
 2160SOL     OW 7378   4.666   4.111   1.416
 2160SOL    HW1 7379   4.690   4.150   1.505
 2160SOL    HW2 7380   4.568   4.091   1.414
 2161SOL     OW 7381   4.884   3.764   3.696
 2161SOL    HW1 7382   4.854   3.796   3.786
 2161SOL    HW2 7383   4.894   3.664   3.697
 2162SOL     OW 7384   1.862   0.780   0.482
 2162SOL    HW1 7385   1.874   0.877   0.507
 2162SOL    HW2 7386   1.944   0.747   0.435
 2163SOL     OW 7387   0.762   6.473   6.358
 2163SOL    HW1 7388   0.683   6.458   6.418
 2163SOL    HW2 7389   0.820   6.544   6.397
 2164SOL     OW 7390   1.839   0.965   6.158
 2164SOL    HW1 7391   1.802   0.960   6.065
 2164SOL    HW2 7392   1.765   0.954   6.224
 2165SOL     OW 7393   1.725   1.182   2.370
 2165SOL    HW1 7394   1.775   1.243   2.309
 2165SOL    HW2 7395   1.789   1.137   2.432
 2166SOL     OW 7396   2.028   2.456   6.043
 2166SOL    HW1 7397   2.096   2.495   5.981
 2166SOL    HW2 7398   2.068   2.379   6.093
 2167SOL     OW 7399   2.954   0.188   2.322
 2167SOL    HW1 7400   3.014   0.117   2.284
 2167SOL    HW2 7401   2.870   0.192   2.268
 2168SOL     OW 7402   6.280   2.913   5.198
 2168SOL    HW1 7403   6.259   2.946   5.106
 2168SOL    HW2 7404   6.210   2.944   5.262
 2169SOL     OW 7405   5.197   2.611   5.708
 2169SOL    HW1 7406   5.227   2.520   5.738
 2169SOL    HW2 7407   5.254   2.641   5.632
 2170SOL     OW 7408   5.343   4.588   5.223
 2170SOL    HW1 7409   5.408   4.576   5.299
 2170SOL    HW2 7410   5.359   4.518   5.154
 2171SOL     OW 7411   6.594   2.396   0.034
 2171SOL    HW1 7412   6.566   2.475   0.088
 2171SOL    HW2 7413   6.606   2.317   0.094
 2172SOL     OW 7414   3.322   1.270   0.342
 2172SOL    HW1 7415   3.249   1.289   0.407
 2172SOL    HW2 7416   3.322   1.339   0.270
 2173SOL     OW 7417   3.909   0.279   5.640
 2173SOL    HW1 7418   3.895   0.192   5.687
 2173SOL    HW2 7419   3.880   0.271   5.545
 2174SOL     OW 7420   6.482   4.628   6.079
 2174SOL    HW1 7421   6.571   4.627   6.034
 2174SOL    HW2 7422   6.472   4.547   6.136
 2175SOL     OW 7423   3.596   1.388   3.248
 2175SOL    HW1 7424   3.547   1.325   3.308
 2175SOL    HW2 7425   3.537   1.467   3.230
 2176SOL     OW 7426   1.340   1.922   1.794
 2176SOL    HW1 7427   1.278   1.861   1.745
 2176SOL    HW2 7428   1.435   1.892   1.779
 2177SOL     OW 7429   6.558   0.854   2.304
 2177SOL    HW1 7430   6.484   0.868   2.370
 2177SOL    HW2 7431   6.643   0.834   2.352
 2178SOL     OW 7432   1.064   4.036   0.402
 2178SOL    HW1 7433   1.016   4.029   0.490
 2178SOL    HW2 7434   1.081   3.944   0.366
 2179SOL     OW 7435   1.967   5.540   3.941
 2179SOL    HW1 7436   1.981   5.456   3.888
 2179SOL    HW2 7437   1.985   5.619   3.882
 2180SOL     OW 7438   3.082   3.536   3.093
 2180SOL    HW1 7439   3.099   3.513   3.189
 2180SOL    HW2 7440   3.105   3.632   3.076
 2181SOL     OW 7441   4.981   4.240   5.733
 2181SOL    HW1 7442   4.959   4.207   5.825
 2181SOL    HW2 7443   5.066   4.293   5.737
 2182SOL     OW 7444   0.097   3.426   6.491
 2182SOL    HW1 7445   0.123   3.513   6.449
 2182SOL    HW2 7446   0.035   3.377   6.430
 2183SOL     OW 7447   3.328   2.878   0.736
 2183SOL    HW1 7448   3.290   2.953   0.789
 2183SOL    HW2 7449   3.398   2.831   0.789
 2184SOL     OW 7450   3.627   0.359   6.057
 2184SOL    HW1 7451   3.691   0.422   6.013
 2184SOL    HW2 7452   3.560   0.328   5.989
 2185SOL     OW 7453   1.779   1.904   0.420
 2185SOL    HW1 7454   1.689   1.947   0.411
 2185SOL    HW2 7455   1.844   1.969   0.459
 2186SOL     OW 7456   6.973   4.643   2.210
 2186SOL    HW1 7457   6.925   4.608   2.290
 2186SOL    HW2 7458   6.933   4.731   2.183
 2187SOL     OW 7459   0.354   1.378   1.672
 2187SOL    HW1 7460   0.290   1.387   1.596
 2187SOL    HW2 7461   0.421   1.307   1.652
 2188SOL     OW 7462   4.851   5.930   3.811
 2188SOL    HW1 7463   4.837   5.943   3.713
 2188SOL    HW2 7464   4.925   5.864   3.826
 2189SOL     OW 7465   1.385   6.692   5.834
 2189SOL    HW1 7466   1.459   6.724   5.894
 2189SOL    HW2 7467   1.362   6.598   5.858
 2190SOL     OW 7468   5.869   3.000   1.789
 2190SOL    HW1 7469   5.906   2.908   1.774
 2190SOL    HW2 7470   5.795   3.017   1.725
 2191SOL     OW 7471   3.275   2.270   5.974
 2191SOL    HW1 7472   3.234   2.178   5.968
 2191SOL    HW2 7473   3.202   2.338   5.980
 2192SOL     OW 7474   4.428   6.477   5.258
 2192SOL    HW1 7475   4.495   6.480   5.184
 2192SOL    HW2 7476   4.341   6.441   5.223
 2193SOL     OW 7477   0.361   5.343   6.101
 2193SOL    HW1 7478   0.278   5.288   6.089
 2193SOL    HW2 7479   0.394   5.333   6.195
 2194SOL     OW 7480   1.679   5.724   0.542
 2194SOL    HW1 7481   1.710   5.780   0.466
 2194SOL    HW2 7482   1.631   5.643   0.507
 2195SOL     OW 7483   0.059   6.561   1.863
 2195SOL    HW1 7484   0.159   6.554   1.870
 2195SOL    HW2 7485   0.035   6.642   1.810
 2196SOL     OW 7486   2.738   0.340   5.499
 2196SOL    HW1 7487   2.653   0.390   5.482
 2196SOL    HW2 7488   2.748   0.323   5.597
 2197SOL     OW 7489   4.846   3.870   2.012
 2197SOL    HW1 7490   4.853   3.770   2.015
 2197SOL    HW2 7491   4.922   3.910   2.064
 2198SOL     OW 7492   6.804   3.598   6.908
 2198SOL    HW1 7493   6.840   3.569   6.819
 2198SOL    HW2 7494   6.790   3.518   6.966
 2199SOL     OW 7495   5.105   6.941   0.899
 2199SOL    HW1 7496   5.088   0.010   0.864
 2199SOL    HW2 7497   5.203   6.929   0.916
 2200SOL     OW 7498   4.327   0.624   4.505
 2200SOL    HW1 7499   4.361   0.547   4.451
 2200SOL    HW2 7500   4.376   0.707   4.478
 2201SOL     OW 7501   6.073   3.772   1.918
 2201SOL    HW1 7502   6.061   3.705   1.992
 2201SOL    HW2 7503   5.996   3.836   1.919
 2202SOL     OW 7504   3.306   4.929   4.319
 2202SOL    HW1 7505   3.291   4.948   4.416
 2202SOL    HW2 7506   3.402   4.947   4.296
 2203SOL     OW 7507   3.437   2.087   2.928
 2203SOL    HW1 7508   3.479   2.121   2.844
 2203SOL    HW2 7509   3.503   2.092   3.003
 2204SOL     OW 7510   3.647   1.126   6.944
 2204SOL    HW1 7511   3.548   1.116   6.948
 2204SOL    HW2 7512   3.673   1.219   6.969
 2205SOL     OW 7513   1.801   0.690   6.674
 2205SOL    HW1 7514   1.860   0.771   6.675
 2205SOL    HW2 7515   1.840   0.621   6.613
 2206SOL     OW 7516   3.060   3.672   5.907
 2206SOL    HW1 7517   3.114   3.756   5.905
 2206SOL    HW2 7518   3.120   3.594   5.925
 2207SOL     OW 7519   0.821   4.319   6.200
 2207SOL    HW1 7520   0.827   4.304   6.102
 2207SOL    HW2 7521   0.895   4.270   6.246
 2208SOL     OW 7522   1.255   4.167   2.178
 2208SOL    HW1 7523   1.334   4.226   2.197
 2208SOL    HW2 7524   1.285   4.087   2.126
 2209SOL     OW 7525   1.837   5.882   6.019
 2209SOL    HW1 7526   1.863   5.820   6.093
 2209SOL    HW2 7527   1.895   5.963   6.021
 2210SOL     OW 7528   0.620   5.176   3.129
 2210SOL    HW1 7529   0.600   5.168   3.227
 2210SOL    HW2 7530   0.588   5.094   3.082
 2211SOL     OW 7531   5.683   1.738   5.455
 2211SOL    HW1 7532   5.683   1.735   5.555
 2211SOL    HW2 7533   5.739   1.814   5.424
 2212SOL     OW 7534   0.129   6.332   6.181
 2212SOL    HW1 7535   0.205   6.340   6.116
 2212SOL    HW2 7536   0.065   6.263   6.149
 2213SOL     OW 7537   4.496   2.483   4.120
 2213SOL    HW1 7538   4.410   2.503   4.167
 2213SOL    HW2 7539   4.477   2.424   4.041
 2214SOL     OW 7540   4.636   0.613   5.685
 2214SOL    HW1 7541   4.693   0.691   5.660
 2214SOL    HW2 7542   4.627   0.551   5.607
 2215SOL     OW 7543   0.140   1.571   5.738
 2215SOL    HW1 7544   0.122   1.653   5.792
 2215SOL    HW2 7545   0.238   1.550   5.742
 2216SOL     OW 7546   1.360   0.452   0.991
 2216SOL    HW1 7547   1.456   0.462   1.017
 2216SOL    HW2 7548   1.319   0.543   0.981
 2217SOL     OW 7549   4.010   0.294   0.512
 2217SOL    HW1 7550   4.080   0.314   0.580
 2217SOL    HW2 7551   4.054   0.276   0.424
 2218SOL     OW 7552   1.235   6.258   6.693
 2218SOL    HW1 7553   1.310   6.199   6.720
 2218SOL    HW2 7554   1.256   6.353   6.716
 2219SOL     OW 7555   1.530   3.769   3.049
 2219SOL    HW1 7556   1.505   3.838   3.117
 2219SOL    HW2 7557   1.623   3.737   3.067
 2220SOL     OW 7558   0.295   1.629   4.861
 2220SOL    HW1 7559   0.240   1.573   4.799
 2220SOL    HW2 7560   0.392   1.621   4.835
 2221SOL     OW 7561   6.631   2.060   1.009
 2221SOL    HW1 7562   6.561   2.115   1.054
 2221SOL    HW2 7563   6.610   1.963   1.022
 2222SOL     OW 7564   3.991   0.463   1.382
 2222SOL    HW1 7565   4.000   0.542   1.442
 2222SOL    HW2 7566   3.962   0.494   1.291
 2223SOL     OW 7567   6.177   5.376   3.472
 2223SOL    HW1 7568   6.165   5.367   3.373
 2223SOL    HW2 7569   6.107   5.437   3.509
 2224SOL     OW 7570   1.508   4.684   1.619
 2224SOL    HW1 7571   1.526   4.587   1.631
 2224SOL    HW2 7572   1.576   4.723   1.557
 2225SOL     OW 7573   6.179   4.711   2.133
 2225SOL    HW1 7574   6.224   4.750   2.213
 2225SOL    HW2 7575   6.117   4.638   2.161
 2226SOL     OW 7576   3.835   3.159   1.323
 2226SOL    HW1 7577   3.811   3.072   1.367
 2226SOL    HW2 7578   3.754   3.196   1.277
 2227SOL     OW 7579   6.405   4.134   6.104
 2227SOL    HW1 7580   6.356   4.141   6.017
 2227SOL    HW2 7581   6.372   4.204   6.166
 2228SOL     OW 7582   2.862   4.902   7.014
 2228SOL    HW1 7583   2.904   4.976   0.043
 2228SOL    HW2 7584   2.841   4.826   0.052
 2229SOL     OW 7585   4.639   1.453   4.136
 2229SOL    HW1 7586   4.602   1.360   4.140
 2229SOL    HW2 7587   4.734   1.453   4.166
 2230SOL     OW 7588   1.552   5.130   3.807
 2230SOL    HW1 7589   1.580   5.187   3.730
 2230SOL    HW2 7590   1.634   5.095   3.853
 2231SOL     OW 7591   1.862   1.645   2.486
 2231SOL    HW1 7592   1.900   1.683   2.402
 2231SOL    HW2 7593   1.823   1.718   2.542
 2232SOL     OW 7594   0.461   3.284   3.197
 2232SOL    HW1 7595   0.535   3.218   3.208
 2232SOL    HW2 7596   0.498   3.368   3.158
 2233SOL     OW 7597   3.750   4.940   6.955
 2233SOL    HW1 7598   3.677   4.894   6.903
 2233SOL    HW2 7599   3.782   4.880   0.004
 2234SOL     OW 7600   4.084   2.474   0.722
 2234SOL    HW1 7601   4.163   2.453   0.780
 2234SOL    HW2 7602   4.005   2.491   0.781
 2235SOL     OW 7603   1.106   6.841   6.684
 2235SOL    HW1 7604   1.156   6.810   6.603
 2235SOL    HW2 7605   1.110   6.941   6.689
 2236SOL     OW 7606   0.710   4.038   0.775
 2236SOL    HW1 7607   0.662   3.993   0.700
 2236SOL    HW2 7608   0.652   4.038   0.857
 2237SOL     OW 7609   6.705   3.706   4.318
 2237SOL    HW1 7610   6.645   3.707   4.238
 2237SOL    HW2 7611   6.731   3.611   4.339
 2238SOL     OW 7612   6.913   5.667   1.926
 2238SOL    HW1 7613   6.967   5.669   2.010
 2238SOL    HW2 7614   6.972   5.640   1.850
 2239SOL     OW 7615   4.300   4.729   3.793
 2239SOL    HW1 7616   4.207   4.747   3.825
 2239SOL    HW2 7617   4.348   4.670   3.858
 2240SOL     OW 7618   6.681   5.362   3.286
 2240SOL    HW1 7619   6.581   5.364   3.281
 2240SOL    HW2 7620   6.712   5.269   3.305
 2241SOL     OW 7621   0.099   6.486   2.167
 2241SOL    HW1 7622   0.134   6.546   2.239
 2241SOL    HW2 7623   0.162   6.486   2.090
 2242SOL     OW 7624   5.253   1.702   2.716
 2242SOL    HW1 7625   5.234   1.744   2.804
 2242SOL    HW2 7626   5.312   1.622   2.729
 2243SOL     OW 7627   2.747   5.897   4.891
 2243SOL    HW1 7628   2.715   5.989   4.866
 2243SOL    HW2 7629   2.729   5.834   4.816
 2244SOL     OW 7630   3.978   1.207   3.855
 2244SOL    HW1 7631   3.921   1.145   3.800
 2244SOL    HW2 7632   3.925   1.239   3.934
 2245SOL     OW 7633   6.680   1.996   2.006
 2245SOL    HW1 7634   6.680   2.094   1.987
 2245SOL    HW2 7635   6.706   1.946   1.923
 2246SOL     OW 7636   1.532   2.979   5.159
 2246SOL    HW1 7637   1.620   3.017   5.131
 2246SOL    HW2 7638   1.489   3.039   5.226
 2247SOL     OW 7639   2.760   2.152   5.600
 2247SOL    HW1 7640   2.850   2.145   5.642
 2247SOL    HW2 7641   2.690   2.147   5.671
 2248SOL     OW 7642   4.881   4.230   5.232
 2248SOL    HW1 7643   4.978   4.225   5.206
 2248SOL    HW2 7644   4.857   4.325   5.250
 2249SOL     OW 7645   5.463   6.049   2.933
 2249SOL    HW1 7646   5.409   6.048   2.849
 2249SOL    HW2 7647   5.406   6.077   3.010
 2250SOL     OW 7648   5.334   3.689   1.550
 2250SOL    HW1 7649   5.323   3.700   1.451
 2250SOL    HW2 7650   5.430   3.706   1.575
 2251SOL     OW 7651   6.008   1.646   0.262
 2251SOL    HW1 7652   5.981   1.721   0.201
 2251SOL    HW2 7653   6.104   1.624   0.248
 2252SOL     OW 7654   5.941   3.150   5.152
 2252SOL    HW1 7655   5.964   3.149   5.055
 2252SOL    HW2 7656   5.903   3.239   5.177
 2253SOL     OW 7657   1.822   3.404   6.531
 2253SOL    HW1 7658   1.805   3.501   6.547
 2253SOL    HW2 7659   1.749   3.350   6.575
 2254SOL     OW 7660   2.294   3.162   5.847
 2254SOL    HW1 7661   2.379   3.117   5.872
 2254SOL    HW2 7662   2.302   3.200   5.755
 2255SOL     OW 7663   6.201   2.685   2.097
 2255SOL    HW1 7664   6.265   2.707   2.023
 2255SOL    HW2 7665   6.108   2.712   2.070
 2256SOL     OW 7666   3.007   4.793   1.936
 2256SOL    HW1 7667   2.940   4.719   1.943
 2256SOL    HW2 7668   3.002   4.850   2.018
 2257SOL     OW 7669   1.486   3.241   4.508
 2257SOL    HW1 7670   1.424   3.173   4.545
 2257SOL    HW2 7671   1.581   3.216   4.530
 2258SOL     OW 7672   1.677   4.548   4.805
 2258SOL    HW1 7673   1.736   4.512   4.877
 2258SOL    HW2 7674   1.621   4.474   4.767
 2259SOL     OW 7675   5.753   4.457   6.395
 2259SOL    HW1 7676   5.790   4.397   6.466
 2259SOL    HW2 7677   5.820   4.469   6.322
 2260SOL     OW 7678   3.707   4.886   2.815
 2260SOL    HW1 7679   3.722   4.975   2.770
 2260SOL    HW2 7680   3.773   4.875   2.889
 2261SOL     OW 7681   5.244   6.584   0.793
 2261SOL    HW1 7682   5.271   6.649   0.864
 2261SOL    HW2 7683   5.289   6.496   0.809
 2262SOL     OW 7684   5.760   1.653   4.282
 2262SOL    HW1 7685   5.758   1.678   4.185
 2262SOL    HW2 7686   5.713   1.723   4.335
 2263SOL     OW 7687   2.332   5.666   6.173
 2263SOL    HW1 7688   2.293   5.583   6.213
 2263SOL    HW2 7689   2.261   5.713   6.120
 2264SOL     OW 7690   2.880   3.631   2.823
 2264SOL    HW1 7691   2.781   3.640   2.831
 2264SOL    HW2 7692   2.924   3.677   2.900
 2265SOL     OW 7693   0.213   1.301   2.656
 2265SOL    HW1 7694   0.145   1.365   2.692
 2265SOL    HW2 7695   0.294   1.301   2.715
 2266SOL     OW 7696   6.309   1.243   0.715
 2266SOL    HW1 7697   6.225   1.215   0.760
 2266SOL    HW2 7698   6.388   1.205   0.764
 2267SOL     OW 7699   5.674   2.480   4.988
 2267SOL    HW1 7700   5.744   2.532   4.939
 2267SOL    HW2 7701   5.715   2.437   5.068
 2268SOL     OW 7702   6.575   6.011   0.508
 2268SOL    HW1 7703   6.593   6.063   0.425
 2268SOL    HW2 7704   6.608   6.061   0.588
 2269SOL     OW 7705   6.245   5.819   5.563
 2269SOL    HW1 7706   6.313   5.840   5.493
 2269SOL    HW2 7707   6.278   5.847   5.652
 2270SOL     OW 7708   3.428   3.913   1.856
 2270SOL    HW1 7709   3.365   3.924   1.779
 2270SOL    HW2 7710   3.455   4.004   1.890
 2271SOL     OW 7711   6.261   4.379   1.611
 2271SOL    HW1 7712   6.329   4.306   1.610
 2271SOL    HW2 7713   6.249   4.414   1.518
 2272SOL     OW 7714   5.557   2.261   4.877
 2272SOL    HW1 7715   5.601   2.336   4.926
 2272SOL    HW2 7716   5.472   2.294   4.836
 2273SOL     OW 7717   0.746   0.728   3.120
 2273SOL    HW1 7718   0.728   0.661   3.191
 2273SOL    HW2 7719   0.758   0.818   3.162
 2274SOL     OW 7720   1.716   3.565   4.894
 2274SOL    HW1 7721   1.619   3.544   4.904
 2274SOL    HW2 7722   1.757   3.582   4.983
 2275SOL     OW 7723   4.635   6.183   4.952
 2275SOL    HW1 7724   4.691   6.101   4.951
 2275SOL    HW2 7725   4.596   6.199   4.861
 2276SOL     OW 7726   3.460   4.776   0.819
 2276SOL    HW1 7727   3.539   4.834   0.799
 2276SOL    HW2 7728   3.428   4.795   0.912
 2277SOL     OW 7729   3.268   3.483   5.122
 2277SOL    HW1 7730   3.285   3.416   5.195
 2277SOL    HW2 7731   3.355   3.521   5.091
 2278SOL     OW 7732   4.648   6.010   2.429
 2278SOL    HW1 7733   4.702   6.090   2.404
 2278SOL    HW2 7734   4.708   5.939   2.466
 2279SOL     OW 7735   5.241   3.928   4.387
 2279SOL    HW1 7736   5.249   4.024   4.359
 2279SOL    HW2 7737   5.222   3.872   4.307
 2280SOL     OW 7738   6.438   6.286   5.055
 2280SOL    HW1 7739   6.419   6.270   5.152
 2280SOL    HW2 7740   6.400   6.211   5.001
 2281SOL     OW 7741   3.597   2.033   1.797
 2281SOL    HW1 7742   3.646   2.113   1.834
 2281SOL    HW2 7743   3.527   2.004   1.861
 2282SOL     OW 7744   4.544   5.806   4.599
 2282SOL    HW1 7745   4.622   5.842   4.548
 2282SOL    HW2 7746   4.556   5.822   4.696
 2283SOL     OW 7747   6.568   3.838   3.104
 2283SOL    HW1 7748   6.649   3.801   3.150
 2283SOL    HW2 7749   6.597   3.902   3.032
 2284SOL     OW 7750   2.369   2.261   2.115
 2284SOL    HW1 7751   2.287   2.288   2.064
 2284SOL    HW2 7752   2.426   2.342   2.132
 2285SOL     OW 7753   1.398   4.044   0.759
 2285SOL    HW1 7754   1.490   4.013   0.738
 2285SOL    HW2 7755   1.354   4.077   0.675
 2286SOL     OW 7756   6.553   5.554   5.053
 2286SOL    HW1 7757   6.488   5.575   4.980
 2286SOL    HW2 7758   6.506   5.560   5.141
 2287SOL     OW 7759   2.030   3.142   1.558
 2287SOL    HW1 7760   1.986   3.154   1.469
 2287SOL    HW2 7761   2.116   3.093   1.546
 2288SOL     OW 7762   1.014   6.012   3.471
 2288SOL    HW1 7763   0.963   5.934   3.435
 2288SOL    HW2 7764   0.955   6.068   3.529
 2289SOL     OW 7765   5.544   2.212   1.983
 2289SOL    HW1 7766   5.626   2.269   1.984
 2289SOL    HW2 7767   5.569   2.117   2.000
 2290SOL     OW 7768   3.460   3.365   3.333
 2290SOL    HW1 7769   3.437   3.346   3.238
 2290SOL    HW2 7770   3.546   3.320   3.356
 2291SOL     OW 7771   2.012   1.999   1.372
 2291SOL    HW1 7772   2.096   1.947   1.358
 2291SOL    HW2 7773   2.005   2.072   1.304
 2292SOL     OW 7774   5.228   2.813   3.889
 2292SOL    HW1 7775   5.327   2.819   3.873
 2292SOL    HW2 7776   5.183   2.890   3.844
 2293SOL     OW 7777   5.481   1.318   0.937
 2293SOL    HW1 7778   5.388   1.330   0.972
 2293SOL    HW2 7779   5.498   1.220   0.920
 2294SOL     OW 7780   2.408   2.194   5.631
 2294SOL    HW1 7781   2.379   2.193   5.727
 2294SOL    HW2 7782   2.388   2.105   5.590
 2295SOL     OW 7783   6.678   0.333   1.650
 2295SOL    HW1 7784   6.751   0.342   1.582
 2295SOL    HW2 7785   6.625   0.418   1.653
 2296SOL     OW 7786   2.459   4.964   3.380
 2296SOL    HW1 7787   2.461   5.044   3.441
 2296SOL    HW2 7788   2.553   4.933   3.363
 2297SOL     OW 7789   5.430   4.560   5.996
 2297SOL    HW1 7790   5.512   4.562   6.054
 2297SOL    HW2 7791   5.365   4.494   6.034
 2298SOL     OW 7792   3.878   3.239   4.176
 2298SOL    HW1 7793   3.958   3.297   4.161
 2298SOL    HW2 7794   3.878   3.206   4.270
 2299SOL     OW 7795   4.942   3.694   4.817
 2299SOL    HW1 7796   4.935   3.667   4.721
 2299SOL    HW2 7797   4.883   3.635   4.872
 2300SOL     OW 7798   3.186   6.777   3.409
 2300SOL    HW1 7799   3.261   6.799   3.346
 2300SOL    HW2 7800   3.199   6.685   3.445
 2301SOL     OW 7801   3.427   2.937   4.624
 2301SOL    HW1 7802   3.503   2.906   4.681
 2301SOL    HW2 7803   3.346   2.883   4.644
 2302SOL     OW 7804   3.989   0.947   0.200
 2302SOL    HW1 7805   4.036   0.864   0.230
 2302SOL    HW2 7806   3.922   0.924   0.130
 2303SOL     OW 7807   2.201   2.721   1.199
 2303SOL    HW1 7808   2.242   2.751   1.112
 2303SOL    HW2 7809   2.120   2.776   1.218
 2304SOL     OW 7810   6.969   5.768   3.786
 2304SOL    HW1 7811   6.886   5.824   3.789
 2304SOL    HW2 7812   6.949   5.675   3.817
 2305SOL     OW 7813   1.541   1.003   4.080
 2305SOL    HW1 7814   1.571   1.022   4.173
 2305SOL    HW2 7815   1.589   1.064   4.016
 2306SOL     OW 7816   1.857   5.016   3.024
 2306SOL    HW1 7817   1.946   5.041   2.986
 2306SOL    HW2 7818   1.791   5.002   2.949
 2307SOL     OW 7819   1.247   2.872   5.110
 2307SOL    HW1 7820   1.205   2.782   5.101
 2307SOL    HW2 7821   1.335   2.872   5.062
 2308SOL     OW 7822   2.017   5.103   1.529
 2308SOL    HW1 7823   2.088   5.079   1.463
 2308SOL    HW2 7824   1.995   5.023   1.585
 2309SOL     OW 7825   1.453   0.440   4.334
 2309SOL    HW1 7826   1.408   0.501   4.399
 2309SOL    HW2 7827   1.418   0.458   4.242
 2310SOL     OW 7828   5.123   6.920   2.003
 2310SOL    HW1 7829   5.162   6.856   2.069
 2310SOL    HW2 7830   5.185   6.997   1.991
 2311SOL     OW 7831   2.382   6.007   0.368
 2311SOL    HW1 7832   2.392   5.909   0.353
 2311SOL    HW2 7833   2.393   6.055   0.281
 2312SOL     OW 7834   3.850   5.833   2.847
 2312SOL    HW1 7835   3.822   5.929   2.849
 2312SOL    HW2 7836   3.771   5.775   2.865
 2313SOL     OW 7837   4.999   4.935   2.388
 2313SOL    HW1 7838   5.019   5.029   2.361
 2313SOL    HW2 7839   4.926   4.899   2.329
 2314SOL     OW 7840   3.401   5.655   3.206
 2314SOL    HW1 7841   3.440   5.734   3.158
 2314SOL    HW2 7842   3.464   5.625   3.277
 2315SOL     OW 7843   4.861   2.853   6.344
 2315SOL    HW1 7844   4.818   2.835   6.256
 2315SOL    HW2 7845   4.884   2.950   6.352
 2316SOL     OW 7846   5.020   2.650   3.622
 2316SOL    HW1 7847   4.941   2.617   3.569
 2316SOL    HW2 7848   5.089   2.687   3.560
 2317SOL     OW 7849   1.013   4.683   2.136
 2317SOL    HW1 7850   1.095   4.710   2.186
 2317SOL    HW2 7851   0.934   4.735   2.171
 2318SOL     OW 7852   0.594   1.772   3.512
 2318SOL    HW1 7853   0.583   1.680   3.475
 2318SOL    HW2 7854   0.505   1.808   3.541
 2319SOL     OW 7855   2.099   4.017   4.596
 2319SOL    HW1 7856   2.092   3.936   4.654
 2319SOL    HW2 7857   2.024   4.017   4.529
 2320SOL     OW 7858   0.089   2.542   4.189
 2320SOL    HW1 7859   0.062   2.638   4.185
 2320SOL    HW2 7860   0.009   2.484   4.203
 2321SOL     OW 7861   2.707   0.067   4.880
 2321SOL    HW1 7862   2.780   0.135   4.892
 2321SOL    HW2 7863   2.705   0.038   4.784
 2322SOL     OW 7864   1.128   1.871   5.557
 2322SOL    HW1 7865   1.226   1.892   5.555
 2322SOL    HW2 7866   1.114   1.779   5.593
 2323SOL     OW 7867   4.369   5.474   3.466
 2323SOL    HW1 7868   4.340   5.434   3.379
 2323SOL    HW2 7869   4.379   5.573   3.456
 2324SOL     OW 7870   1.055   6.151   2.527
 2324SOL    HW1 7871   0.980   6.215   2.540
 2324SOL    HW2 7872   1.107   6.142   2.612
 2325SOL     OW 7873   1.037   3.589   1.581
 2325SOL    HW1 7874   0.942   3.556   1.575
 2325SOL    HW2 7875   1.071   3.575   1.674
 2326SOL     OW 7876   1.648   4.503   6.221
 2326SOL    HW1 7877   1.634   4.468   6.128
 2326SOL    HW2 7878   1.566   4.485   6.275
 2327SOL     OW 7879   4.780   2.729   4.606
 2327SOL    HW1 7880   4.754   2.805   4.666
 2327SOL    HW2 7881   4.789   2.763   4.512
 2328SOL     OW 7882   5.050   1.328   2.802
 2328SOL    HW1 7883   5.041   1.401   2.733
 2328SOL    HW2 7884   5.087   1.246   2.758
 2329SOL     OW 7885   1.056   5.323   4.006
 2329SOL    HW1 7886   1.097   5.353   4.092
 2329SOL    HW2 7887   1.075   5.225   3.993
 2330SOL     OW 7888   0.433   4.771   1.792
 2330SOL    HW1 7889   0.420   4.831   1.713
 2330SOL    HW2 7890   0.401   4.818   1.874
 2331SOL     OW 7891   0.136   4.001   5.384
 2331SOL    HW1 7892   0.094   3.916   5.416
 2331SOL    HW2 7893   0.225   3.981   5.343
 2332SOL     OW 7894   5.058   2.972   6.140
 2332SOL    HW1 7895   4.970   2.939   6.106
 2332SOL    HW2 7896   5.126   2.969   6.067
 2333SOL     OW 7897   0.894   5.281   3.104
 2333SOL    HW1 7898   0.820   5.239   3.154
 2333SOL    HW2 7899   0.867   5.372   3.073
 2334SOL     OW 7900   3.155   6.793   0.078
 2334SOL    HW1 7901   3.234   6.807   0.019
 2334SOL    HW2 7902   3.179   6.819   0.172
 2335SOL     OW 7903   5.577   0.411   3.300
 2335SOL    HW1 7904   5.546   0.330   3.250
 2335SOL    HW2 7905   5.515   0.430   3.375
 2336SOL     OW 7906   4.884   1.215   6.115
 2336SOL    HW1 7907   4.808   1.265   6.075
 2336SOL    HW2 7908   4.867   1.200   6.212
 2337SOL     OW 7909   5.390   0.204   3.131
 2337SOL    HW1 7910   5.438   0.164   3.053
 2337SOL    HW2 7911   5.370   0.132   3.198
 2338SOL     OW 7912   0.205   6.278   0.413
 2338SOL    HW1 7913   0.298   6.247   0.433
 2338SOL    HW2 7914   0.194   6.286   0.314
 2339SOL     OW 7915   3.414   4.577   6.456
 2339SOL    HW1 7916   3.319   4.559   6.430
 2339SOL    HW2 7917   3.420   4.665   6.503
 2340SOL     OW 7918   3.364   6.084   5.156
 2340SOL    HW1 7919   3.460   6.076   5.185
 2340SOL    HW2 7920   3.316   6.146   5.218
 2341SOL     OW 7921   5.869   4.860   0.800
 2341SOL    HW1 7922   5.957   4.853   0.753
 2341SOL    HW2 7923   5.827   4.770   0.808
 2342SOL     OW 7924   6.910   0.015   5.158
 2342SOL    HW1 7925   6.913   0.054   5.066
 2342SOL    HW2 7926   6.995   6.990   5.177
 2343SOL     OW 7927   1.307   6.270   1.029
 2343SOL    HW1 7928   1.238   6.287   0.958
 2343SOL    HW2 7929   1.364   6.192   1.003
 2344SOL     OW 7930   2.482   1.675   2.942
 2344SOL    HW1 7931   2.498   1.731   3.023
 2344SOL    HW2 7932   2.475   1.734   2.861
 2345SOL     OW 7933   1.438   0.872   4.942
 2345SOL    HW1 7934   1.364   0.805   4.942
 2345SOL    HW2 7935   1.524   0.825   4.965
 2346SOL     OW 7936   4.939   3.237   5.521
 2346SOL    HW1 7937   4.901   3.261   5.431
 2346SOL    HW2 7938   4.998   3.157   5.512
 2347SOL     OW 7939   1.557   3.660   1.988
 2347SOL    HW1 7940   1.493   3.709   1.928
 2347SOL    HW2 7941   1.646   3.652   1.943
 2348SOL     OW 7942   2.500   6.552   3.686
 2348SOL    HW1 7943   2.466   6.529   3.595
 2348SOL    HW2 7944   2.591   6.592   3.680
 2349SOL     OW 7945   6.997   6.877   6.142
 2349SOL    HW1 7946   0.049   6.852   6.202
 2349SOL    HW2 7947   6.911   6.839   6.178
 2350SOL     OW 7948   3.022   0.562   5.085
 2350SOL    HW1 7949   3.066   0.636   5.034
 2350SOL    HW2 7950   3.085   0.526   5.153
 2351SOL     OW 7951   2.723   4.933   3.366
 2351SOL    HW1 7952   2.769   4.852   3.401
 2351SOL    HW2 7953   2.762   4.958   3.278
 2352SOL     OW 7954   6.468   4.413   2.722
 2352SOL    HW1 7955   6.493   4.325   2.681
 2352SOL    HW2 7956   6.411   4.397   2.803
 2353SOL     OW 7957   2.631   3.974   5.814
 2353SOL    HW1 7958   2.612   4.058   5.866
 2353SOL    HW2 7959   2.611   3.990   5.718
 2354SOL     OW 7960   4.014   2.414   0.482
 2354SOL    HW1 7961   3.926   2.458   0.464
 2354SOL    HW2 7962   4.048   2.441   0.572
 2355SOL     OW 7963   0.720   6.765   1.074
 2355SOL    HW1 7964   0.733   6.860   1.046
 2355SOL    HW2 7965   0.753   6.705   1.001
 2356SOL     OW 7966   2.351   5.093   2.655
 2356SOL    HW1 7967   2.421   5.071   2.588
 2356SOL    HW2 7968   2.261   5.064   2.621
 2357SOL     OW 7969   5.357   4.402   2.970
 2357SOL    HW1 7970   5.331   4.340   2.895
 2357SOL    HW2 7971   5.456   4.414   2.970
 2358SOL     OW 7972   3.415   0.117   4.686
 2358SOL    HW1 7973   3.513   0.119   4.707
 2358SOL    HW2 7974   3.402   0.111   4.587
 2359SOL     OW 7975   2.674   1.617   5.806
 2359SOL    HW1 7976   2.715   1.658   5.887
 2359SOL    HW2 7977   2.575   1.633   5.806
 2360SOL     OW 7978   3.829   4.764   0.583
 2360SOL    HW1 7979   3.757   4.698   0.562
 2360SOL    HW2 7980   3.818   4.845   0.526
 2361SOL     OW 7981   3.353   6.590   3.125
 2361SOL    HW1 7982   3.332   6.658   3.055
 2361SOL    HW2 7983   3.285   6.517   3.122
 2362SOL     OW 7984   4.303   6.078   4.797
 2362SOL    HW1 7985   4.254   6.043   4.718
 2362SOL    HW2 7986   4.386   6.125   4.767
 2363SOL     OW 7987   3.849   2.519   6.675
 2363SOL    HW1 7988   3.912   2.478   6.740
 2363SOL    HW2 7989   3.804   2.598   6.718
 2364SOL     OW 7990   5.187   1.907   2.053
 2364SOL    HW1 7991   5.104   1.855   2.032
 2364SOL    HW2 7992   5.219   1.881   2.144
 2365SOL     OW 7993   4.826   3.830   4.374
 2365SOL    HW1 7994   4.855   3.808   4.281
 2365SOL    HW2 7995   4.756   3.901   4.371
 2366SOL     OW 7996   1.756   4.119   5.470
 2366SOL    HW1 7997   1.683   4.152   5.410
 2366SOL    HW2 7998   1.718   4.060   5.541
 2367SOL     OW 7999   0.902   3.461   5.757
 2367SOL    HW1 8000   0.864   3.543   5.800
 2367SOL    HW2 8001   0.999   3.454   5.778
 2368SOL     OW 8002   4.639   0.675   4.421
 2368SOL    HW1 8003   4.657   0.751   4.359
 2368SOL    HW2 8004   4.665   0.589   4.376
 2369SOL     OW 8005   3.643   1.703   3.196
 2369SOL    HW1 8006   3.679   1.609   3.200
 2369SOL    HW2 8007   3.701   1.758   3.136
 2370SOL     OW 8008   4.539   2.547   1.104
 2370SOL    HW1 8009   4.563   2.474   1.040
 2370SOL    HW2 8010   4.449   2.584   1.081
 2371SOL     OW 8011   0.731   6.744   2.645
 2371SOL    HW1 8012   0.743   6.710   2.738
 2371SOL    HW2 8013   0.687   6.834   2.648
 2372SOL     OW 8014   6.185   1.708   6.043
 2372SOL    HW1 8015   6.265   1.764   6.068
 2372SOL    HW2 8016   6.159   1.651   6.121
 2373SOL     OW 8017   6.070   0.924   6.275
 2373SOL    HW1 8018   5.984   0.950   6.319
 2373SOL    HW2 8019   6.146   0.950   6.334
 2374SOL     OW 8020   6.150   5.690   3.394
 2374SOL    HW1 8021   6.057   5.657   3.382
 2374SOL    HW2 8022   6.214   5.630   3.346
 2375SOL     OW 8023   0.898   0.312   3.863
 2375SOL    HW1 8024   0.825   0.292   3.928
 2375SOL    HW2 8025   0.966   0.238   3.866
 2376SOL     OW 8026   0.162   2.418   3.179
 2376SOL    HW1 8027   0.229   2.360   3.133
 2376SOL    HW2 8028   0.142   2.381   3.269
 2377SOL     OW 8029   3.142   4.569   6.350
 2377SOL    HW1 8030   3.106   4.589   6.259
 2377SOL    HW2 8031   3.067   4.539   6.410
 2378SOL     OW 8032   5.899   1.984   0.697
 2378SOL    HW1 8033   5.953   1.951   0.620
 2378SOL    HW2 8034   5.891   2.084   0.691
 2379SOL     OW 8035   0.167   4.907   0.473
 2379SOL    HW1 8036   0.157   4.924   0.571
 2379SOL    HW2 8037   0.243   4.960   0.437
 2380SOL     OW 8038   6.057   3.033   5.378
 2380SOL    HW1 8039   6.034   3.081   5.463
 2380SOL    HW2 8040   5.997   3.065   5.305
 2381SOL     OW 8041   2.171   4.606   5.276
 2381SOL    HW1 8042   2.187   4.508   5.277
 2381SOL    HW2 8043   2.258   4.654   5.270
 2382SOL     OW 8044   2.043   6.185   2.712
 2382SOL    HW1 8045   2.098   6.102   2.712
 2382SOL    HW2 8046   1.950   6.163   2.683
 2383SOL     OW 8047   5.757   5.858   5.558
 2383SOL    HW1 8048   5.805   5.925   5.501
 2383SOL    HW2 8049   5.777   5.875   5.654
 2384SOL     OW 8050   0.419   2.098   1.454
 2384SOL    HW1 8051   0.516   2.123   1.457
 2384SOL    HW2 8052   0.365   2.168   1.502
 2385SOL     OW 8053   0.912   2.021   0.211
 2385SOL    HW1 8054   0.854   1.944   0.238
 2385SOL    HW2 8055   0.889   2.101   0.267
 2386SOL     OW 8056   3.235   5.283   4.278
 2386SOL    HW1 8057   3.260   5.327   4.364
 2386SOL    HW2 8058   3.137   5.295   4.262
 2387SOL     OW 8059   0.501   2.640   4.101
 2387SOL    HW1 8060   0.570   2.690   4.153
 2387SOL    HW2 8061   0.475   2.693   4.020
 2388SOL     OW 8062   0.382   2.308   6.236
 2388SOL    HW1 8063   0.369   2.367   6.157
 2388SOL    HW2 8064   0.363   2.358   6.320
 2389SOL     OW 8065   5.253   5.166   4.239
 2389SOL    HW1 8066   5.266   5.202   4.331
 2389SOL    HW2 8067   5.179   5.100   4.239
 2390SOL     OW 8068   4.408   3.634   6.362
 2390SOL    HW1 8069   4.357   3.720   6.358
 2390SOL    HW2 8070   4.347   3.562   6.395
 2391SOL     OW 8071   3.567   2.996   6.658
 2391SOL    HW1 8072   3.609   3.002   6.749
 2391SOL    HW2 8073   3.512   2.913   6.652
 2392SOL     OW 8074   3.153   4.436   5.771
 2392SOL    HW1 8075   3.154   4.448   5.870
 2392SOL    HW2 8076   3.232   4.380   5.744
 2393SOL     OW 8077   4.205   5.303   1.692
 2393SOL    HW1 8078   4.116   5.269   1.723
 2393SOL    HW2 8079   4.231   5.382   1.747
 2394SOL     OW 8080   6.969   4.468   3.877
 2394SOL    HW1 8081   6.985   4.389   3.935
 2394SOL    HW2 8082   0.026   4.483   3.819
 2395SOL     OW 8083   0.921   2.833   6.663
 2395SOL    HW1 8084   0.979   2.904   6.702
 2395SOL    HW2 8085   0.865   2.792   6.735
 2396SOL     OW 8086   5.083   0.912   5.702
 2396SOL    HW1 8087   5.071   0.831   5.644
 2396SOL    HW2 8088   5.177   0.916   5.735
 2397SOL     OW 8089   0.492   4.947   6.163
 2397SOL    HW1 8090   0.553   4.970   6.087
 2397SOL    HW2 8091   0.537   4.882   6.224
 2398SOL     OW 8092   2.591   5.589   3.544
 2398SOL    HW1 8093   2.605   5.611   3.448
 2398SOL    HW2 8094   2.543   5.664   3.589
 2399SOL     OW 8095   3.092   2.139   3.862
 2399SOL    HW1 8096   2.996   2.124   3.884
 2399SOL    HW2 8097   3.149   2.107   3.938
 2400SOL     OW 8098   2.298   3.622   0.385
 2400SOL    HW1 8099   2.308   3.542   0.444
 2400SOL    HW2 8100   2.278   3.702   0.440
 2401SOL     OW 8101   3.659   6.995   4.057
 2401SOL    HW1 8102   3.717   0.011   4.128
 2401SOL    HW2 8103   3.563   6.999   4.086
 2402SOL     OW 8104   0.740   2.412   3.010
 2402SOL    HW1 8105   0.713   2.444   3.101
 2402SOL    HW2 8106   0.818   2.467   2.978
 2403SOL     OW 8107   4.031   3.320   1.482
 2403SOL    HW1 8108   3.969   3.254   1.440
 2403SOL    HW2 8109   4.125   3.288   1.473
 2404SOL     OW 8110   5.946   1.317   1.325
 2404SOL    HW1 8111   5.915   1.393   1.268
 2404SOL    HW2 8112   5.999   1.253   1.269
 2405SOL     OW 8113   2.670   4.952   5.732
 2405SOL    HW1 8114   2.717   5.017   5.673
 2405SOL    HW2 8115   2.575   4.942   5.702
 2406SOL     OW 8116   1.915   6.967   3.456
 2406SOL    HW1 8117   1.921   0.037   3.492
 2406SOL    HW2 8118   1.865   6.968   3.370
 2407SOL     OW 8119   4.603   2.264   3.183
 2407SOL    HW1 8120   4.524   2.205   3.163
 2407SOL    HW2 8121   4.570   2.350   3.223
 2408SOL     OW 8122   2.524   5.693   3.041
 2408SOL    HW1 8123   2.563   5.662   2.954
 2408SOL    HW2 8124   2.552   5.788   3.058
 2409SOL     OW 8125   2.946   2.720   1.042
 2409SOL    HW1 8126   2.877   2.762   1.101
 2409SOL    HW2 8127   2.994   2.791   0.991
 2410SOL     OW 8128   6.284   3.540   6.039
 2410SOL    HW1 8129   6.329   3.620   5.998
 2410SOL    HW2 8130   6.197   3.523   5.992
 2411SOL     OW 8131   2.993   4.072   6.018
 2411SOL    HW1 8132   2.932   4.032   6.086
 2411SOL    HW2 8133   2.949   4.152   5.976
 2412SOL     OW 8134   2.859   3.096   6.977
 2412SOL    HW1 8135   2.869   3.015   0.011
 2412SOL    HW2 8136   2.928   3.163   7.002
 2413SOL     OW 8137   6.450   3.388   6.577
 2413SOL    HW1 8138   6.355   3.380   6.545
 2413SOL    HW2 8139   6.512   3.374   6.499
 2414SOL     OW 8140   5.547   2.010   3.891
 2414SOL    HW1 8141   5.638   2.034   3.857
 2414SOL    HW2 8142   5.501   2.092   3.925
 2415SOL     OW 8143   2.238   6.875   6.984
 2415SOL    HW1 8144   2.293   6.792   6.976
 2415SOL    HW2 8145   2.195   6.878   0.051
 2416SOL     OW 8146   0.768   3.278   3.321
 2416SOL    HW1 8147   0.765   3.273   3.421
 2416SOL    HW2 8148   0.863   3.292   3.292
 2417SOL     OW 8149   4.686   2.601   6.957
 2417SOL    HW1 8150   4.759   2.574   6.894
 2417SOL    HW2 8151   4.672   2.530   0.003
 2418SOL     OW 8152   4.156   4.161   5.312
 2418SOL    HW1 8153   4.172   4.068   5.346
 2418SOL    HW2 8154   4.237   4.217   5.328
 2419SOL     OW 8155   1.947   6.869   4.234
 2419SOL    HW1 8156   1.915   6.823   4.316
 2419SOL    HW2 8157   1.941   6.806   4.156
 2420SOL     OW 8158   3.599   5.540   2.050
 2420SOL    HW1 8159   3.509   5.502   2.027
 2420SOL    HW2 8160   3.665   5.515   1.979
 2421SOL     OW 8161   3.909   6.856   3.659
 2421SOL    HW1 8162   3.983   6.871   3.594
 2421SOL    HW2 8163   3.821   6.879   3.617
 2422SOL     OW 8164   4.102   0.206   1.175
 2422SOL    HW1 8165   4.196   0.188   1.149
 2422SOL    HW2 8166   4.072   0.138   1.241
 2423SOL     OW 8167   1.998   5.988   1.762
 2423SOL    HW1 8168   2.098   5.994   1.756
 2423SOL    HW2 8169   1.963   6.069   1.808
 2424SOL     OW 8170   5.421   6.150   6.680
 2424SOL    HW1 8171   5.336   6.190   6.715
 2424SOL    HW2 8172   5.402   6.060   6.641
 2425SOL     OW 8173   4.702   5.226   5.688
 2425SOL    HW1 8174   4.680   5.289   5.763
 2425SOL    HW2 8175   4.792   5.247   5.652
 2426SOL     OW 8176   1.430   5.777   4.690
 2426SOL    HW1 8177   1.362   5.704   4.698
 2426SOL    HW2 8178   1.385   5.865   4.708
 2427SOL     OW 8179   4.839   6.083   6.427
 2427SOL    HW1 8180   4.891   6.059   6.345
 2427SOL    HW2 8181   4.788   6.167   6.410
 2428SOL     OW 8182   0.254   1.327   3.324
 2428SOL    HW1 8183   0.316   1.342   3.401
 2428SOL    HW2 8184   0.226   1.416   3.287
 2429SOL     OW 8185   5.148   4.736   2.284
 2429SOL    HW1 8186   5.090   4.804   2.328
 2429SOL    HW2 8187   5.120   4.644   2.314
 2430SOL     OW 8188   5.718   2.311   0.721
 2430SOL    HW1 8189   5.705   2.225   0.672
 2430SOL    HW2 8190   5.699   2.387   0.658
 2431SOL     OW 8191   5.842   1.552   1.957
 2431SOL    HW1 8192   5.900   1.623   1.917
 2431SOL    HW2 8193   5.788   1.591   2.032
 2432SOL     OW 8194   3.241   5.475   1.808
 2432SOL    HW1 8195   3.262   5.397   1.750
 2432SOL    HW2 8196   3.161   5.523   1.773
 2433SOL     OW 8197   0.548   5.632   0.155
 2433SOL    HW1 8198   0.482   5.624   0.230
 2433SOL    HW2 8199   0.632   5.675   0.190
 2434SOL     OW 8200   4.399   1.819   2.200
 2434SOL    HW1 8201   4.419   1.721   2.207
 2434SOL    HW2 8202   4.302   1.834   2.221
 2435SOL     OW 8203   5.645   5.716   0.473
 2435SOL    HW1 8204   5.620   5.678   0.385
 2435SOL    HW2 8205   5.563   5.732   0.528
 2436SOL     OW 8206   1.961   1.449   1.854
 2436SOL    HW1 8207   2.015   1.427   1.936
 2436SOL    HW2 8208   1.923   1.541   1.863
 2437SOL     OW 8209   5.847   5.806   2.083
 2437SOL    HW1 8210   5.818   5.835   2.174
 2437SOL    HW2 8211   5.819   5.710   2.068
 2438SOL     OW 8212   3.919   1.839   4.799
 2438SOL    HW1 8213   3.961   1.751   4.778
 2438SOL    HW2 8214   3.822   1.825   4.819
 2439SOL     OW 8215   0.208   5.303   6.781
 2439SOL    HW1 8216   0.226   5.372   6.850
 2439SOL    HW2 8217   0.251   5.329   6.695
 2440SOL     OW 8218   4.095   0.027   5.383
 2440SOL    HW1 8219   4.044   0.112   5.395
 2440SOL    HW2 8220   4.112   7.009   5.473
 2441SOL     OW 8221   5.571   0.962   0.266
 2441SOL    HW1 8222   5.503   1.020   0.309
 2441SOL    HW2 8223   5.537   0.868   0.261
 2442SOL     OW 8224   5.719   4.210   2.960
 2442SOL    HW1 8225   5.697   4.137   2.894
 2442SOL    HW2 8226   5.795   4.181   3.018
 2443SOL     OW 8227   2.204   0.644   6.163
 2443SOL    HW1 8228   2.276   0.672   6.100
 2443SOL    HW2 8229   2.168   0.724   6.211
 2444SOL     OW 8230   3.904   4.837   0.119
 2444SOL    HW1 8231   3.909   4.928   0.159
 2444SOL    HW2 8232   3.993   4.812   0.080
 2445SOL     OW 8233   6.375   1.275   2.288
 2445SOL    HW1 8234   6.296   1.329   2.259
 2445SOL    HW2 8235   6.411   1.223   2.210
 2446SOL     OW 8236   0.974   2.760   3.019
 2446SOL    HW1 8237   0.986   2.791   3.113
 2446SOL    HW2 8238   0.928   2.831   2.966
 2447SOL     OW 8239   2.106   1.132   1.092
 2447SOL    HW1 8240   2.048   1.183   1.156
 2447SOL    HW2 8241   2.199   1.127   1.129
 2448SOL     OW 8242   6.245   2.064   4.135
 2448SOL    HW1 8243   6.242   1.974   4.178
 2448SOL    HW2 8244   6.340   2.093   4.125
 2449SOL     OW 8245   1.368   3.218   1.908
 2449SOL    HW1 8246   1.271   3.213   1.933
 2449SOL    HW2 8247   1.416   3.280   1.971
 2450SOL     OW 8248   2.945   5.105   6.817
 2450SOL    HW1 8249   2.904   5.049   6.890
 2450SOL    HW2 8250   2.991   5.184   6.858
 2451SOL     OW 8251   0.796   6.927   3.870
 2451SOL    HW1 8252   0.745   6.907   3.954
 2451SOL    HW2 8253   0.840   7.016   3.878
 2452SOL     OW 8254   2.145   2.005   3.775
 2452SOL    HW1 8255   2.046   2.000   3.773
 2452SOL    HW2 8256   2.174   2.101   3.766
 2453SOL     OW 8257   6.687   3.077   0.961
 2453SOL    HW1 8258   6.692   3.033   1.051
 2453SOL    HW2 8259   6.693   3.007   0.890
 2454SOL     OW 8260   2.597   6.074   6.441
 2454SOL    HW1 8261   2.622   6.119   6.355
 2454SOL    HW2 8262   2.575   5.978   6.423
 2455SOL     OW 8263   4.285   1.304   0.611
 2455SOL    HW1 8264   4.193   1.291   0.647
 2455SOL    HW2 8265   4.283   1.297   0.511
 2456SOL     OW 8266   0.801   2.874   6.375
 2456SOL    HW1 8267   0.728   2.808   6.392
 2456SOL    HW2 8268   0.841   2.902   6.462
 2457SOL     OW 8269   6.375   0.749   5.243
 2457SOL    HW1 8270   6.447   0.796   5.295
 2457SOL    HW2 8271   6.320   0.695   5.306
 2458SOL     OW 8272   1.022   0.078   3.819
 2458SOL    HW1 8273   1.082   0.065   3.739
 2458SOL    HW2 8274   1.051   0.016   3.892
 2459SOL     OW 8275   3.036   5.894   6.117
 2459SOL    HW1 8276   2.971   5.968   6.101
 2459SOL    HW2 8277   3.014   5.848   6.203
 2460SOL     OW 8278   1.366   1.164   0.617
 2460SOL    HW1 8279   1.346   1.247   0.565
 2460SOL    HW2 8280   1.382   1.089   0.554
 2461SOL     OW 8281   5.070   0.403   4.125
 2461SOL    HW1 8282   5.090   0.500   4.137
 2461SOL    HW2 8283   5.145   0.360   4.074
 2462SOL     OW 8284   2.216   4.978   0.301
 2462SOL    HW1 8285   2.128   5.011   0.267
 2462SOL    HW2 8286   2.217   4.878   0.301
 2463SOL     OW 8287   6.478   1.934   0.207
 2463SOL    HW1 8288   6.400   1.874   0.190
 2463SOL    HW2 8289   6.550   1.883   0.254
 2464SOL     OW 8290   1.141   3.169   3.380
 2464SOL    HW1 8291   1.186   3.157   3.468
 2464SOL    HW2 8292   1.185   3.109   3.312
 2465SOL     OW 8293   6.881   6.197   6.349
 2465SOL    HW1 8294   6.787   6.173   6.373
 2465SOL    HW2 8295   6.881   6.277   6.289
 2466SOL     OW 8296   1.625   1.431   2.636
 2466SOL    HW1 8297   1.609   1.337   2.605
 2466SOL    HW2 8298   1.557   1.455   2.704
 2467SOL     OW 8299   4.775   1.913   5.717
 2467SOL    HW1 8300   4.835   1.991   5.701
 2467SOL    HW2 8301   4.733   1.921   5.807
 2468SOL     OW 8302   4.347   6.962   0.459
 2468SOL    HW1 8303   4.380   0.020   0.508
 2468SOL    HW2 8304   4.325   6.987   0.365
 2469SOL     OW 8305   3.804   3.304   5.171
 2469SOL    HW1 8306   3.839   3.267   5.257
 2469SOL    HW2 8307   3.805   3.404   5.175
 2470SOL     OW 8308   3.785   4.705   6.037
 2470SOL    HW1 8309   3.838   4.770   6.090
 2470SOL    HW2 8310   3.753   4.631   6.096
 2471SOL     OW 8311   3.220   6.894   0.350
 2471SOL    HW1 8312   3.234   6.984   0.390
 2471SOL    HW2 8313   3.298   6.835   0.373
 2472SOL     OW 8314   4.481   2.294   3.601
 2472SOL    HW1 8315   4.573   2.255   3.597
 2472SOL    HW2 8316   4.415   2.220   3.612
 2473SOL     OW 8317   1.244   4.237   5.536
 2473SOL    HW1 8318   1.340   4.217   5.517
 2473SOL    HW2 8319   1.186   4.165   5.496
 2474SOL     OW 8320   1.021   6.009   0.950
 2474SOL    HW1 8321   1.032   6.080   1.019
 2474SOL    HW2 8322   1.106   5.957   0.942
 2475SOL     OW 8323   4.217   0.887   2.137
 2475SOL    HW1 8324   4.257   0.925   2.221
 2475SOL    HW2 8325   4.145   0.822   2.162
 2476SOL     OW 8326   5.646   0.180   2.326
 2476SOL    HW1 8327   5.692   0.261   2.289
 2476SOL    HW2 8328   5.713   0.124   2.375
 2477SOL     OW 8329   4.279   1.110   3.539
 2477SOL    HW1 8330   4.348   1.072   3.477
 2477SOL    HW2 8331   4.191   1.115   3.491
 2478SOL     OW 8332   6.116   1.368   1.868
 2478SOL    HW1 8333   6.042   1.338   1.928
 2478SOL    HW2 8334   6.101   1.332   1.776
 2479SOL     OW 8335   0.968   3.315   2.124
 2479SOL    HW1 8336   1.007   3.244   2.066
 2479SOL    HW2 8337   1.002   3.303   2.218
 2480SOL     OW 8338   4.548   3.317   0.768
 2480SOL    HW1 8339   4.496   3.279   0.845
 2480SOL    HW2 8340   4.603   3.245   0.727
 2481SOL     OW 8341   3.696   6.863   0.911
 2481SOL    HW1 8342   3.748   6.807   0.847
 2481SOL    HW2 8343   3.614   6.898   0.866
 2482SOL     OW 8344   5.278   3.394   6.427
 2482SOL    HW1 8345   5.353   3.457   6.403
 2482SOL    HW2 8346   5.199   3.447   6.457
 2483SOL     OW 8347   2.069   2.055   6.816
 2483SOL    HW1 8348   2.107   2.129   6.760
 2483SOL    HW2 8349   2.018   2.095   6.893
 2484SOL     OW 8350   3.286   0.726   0.022
 2484SOL    HW1 8351   3.268   0.753   0.117
 2484SOL    HW2 8352   3.302   0.627   0.019
 2485SOL     OW 8353   5.799   3.027   1.275
 2485SOL    HW1 8354   5.862   3.049   1.200
 2485SOL    HW2 8355   5.825   2.939   1.316
 2486SOL     OW 8356   1.420   4.956   5.149
 2486SOL    HW1 8357   1.390   4.869   5.110
 2486SOL    HW2 8358   1.409   4.954   5.249
 2487SOL     OW 8359   4.394   6.444   0.398
 2487SOL    HW1 8360   4.469   6.493   0.442
 2487SOL    HW2 8361   4.336   6.402   0.469
 2488SOL     OW 8362   0.855   4.199   2.082
 2488SOL    HW1 8363   0.770   4.235   2.042
 2488SOL    HW2 8364   0.930   4.262   2.061
 2489SOL     OW 8365   0.727   6.239   4.281
 2489SOL    HW1 8366   0.648   6.184   4.309
 2489SOL    HW2 8367   0.711   6.276   4.190
 2490SOL     OW 8368   0.170   5.097   1.167
 2490SOL    HW1 8369   0.167   5.197   1.159
 2490SOL    HW2 8370   0.081   5.060   1.143
 2491SOL     OW 8371   3.174   4.206   0.302
 2491SOL    HW1 8372   3.135   4.187   0.392
 2491SOL    HW2 8373   3.273   4.218   0.310
 2492SOL     OW 8374   4.742   3.718   0.906
 2492SOL    HW1 8375   4.711   3.796   0.959
 2492SOL    HW2 8376   4.828   3.684   0.944
 2493SOL     OW 8377   6.513   6.908   1.913
 2493SOL    HW1 8378   6.525   6.845   1.836
 2493SOL    HW2 8379   6.513   6.857   1.998
 2494SOL     OW 8380   5.636   4.469   3.037
 2494SOL    HW1 8381   5.663   4.376   3.015
 2494SOL    HW2 8382   5.579   4.470   3.119
 2495SOL     OW 8383   5.121   6.171   3.769
 2495SOL    HW1 8384   5.127   6.071   3.775
 2495SOL    HW2 8385   5.054   6.196   3.699
 2496SOL     OW 8386   0.531   2.736   6.337
 2496SOL    HW1 8387   0.473   2.681   6.397
 2496SOL    HW2 8388   0.520   2.833   6.359
 2497SOL     OW 8389   0.382   0.003   0.350
 2497SOL    HW1 8390   0.288   0.033   0.366
 2497SOL    HW2 8391   0.436   0.016   0.434
 2498SOL     OW 8392   2.929   1.801   5.377
 2498SOL    HW1 8393   2.942   1.839   5.286
 2498SOL    HW2 8394   2.835   1.816   5.407
 2499SOL     OW 8395   6.169   2.938   2.897
 2499SOL    HW1 8396   6.205   3.029   2.876
 2499SOL    HW2 8397   6.109   2.944   2.977
 2500SOL     OW 8398   3.850   4.116   0.063
 2500SOL    HW1 8399   3.900   4.060   0.128
 2500SOL    HW2 8400   3.908   4.137   7.007
 2501SOL     OW 8401   5.349   5.685   0.929
 2501SOL    HW1 8402   5.300   5.762   0.888
 2501SOL    HW2 8403   5.306   5.600   0.900
 2502SOL     OW 8404   0.969   0.497   4.089
 2502SOL    HW1 8405   0.955   0.418   4.030
 2502SOL    HW2 8406   0.881   0.525   4.129
 2503SOL     OW 8407   2.343   6.506   4.990
 2503SOL    HW1 8408   2.280   6.561   4.936
 2503SOL    HW2 8409   2.410   6.463   4.929
 2504SOL     OW 8410   4.010   5.111   3.983
 2504SOL    HW1 8411   3.922   5.068   3.964
 2504SOL    HW2 8412   4.051   5.068   4.064
 2505SOL     OW 8413   0.115   0.031   3.062
 2505SOL    HW1 8414   0.021   0.030   3.095
 2505SOL    HW2 8415   0.136   0.122   3.025
 2506SOL     OW 8416   6.392   3.885   6.203
 2506SOL    HW1 8417   6.382   3.975   6.162
 2506SOL    HW2 8418   6.405   3.894   6.302
 2507SOL     OW 8419   6.428   3.073   0.061
 2507SOL    HW1 8420   6.492   3.010   0.104
 2507SOL    HW2 8421   6.417   3.154   0.118
 2508SOL     OW 8422   3.090   1.541   3.099
 2508SOL    HW1 8423   3.006   1.530   3.151
 2508SOL    HW2 8424   3.092   1.632   3.057
 2509SOL     OW 8425   0.251   3.900   0.923
 2509SOL    HW1 8426   0.338   3.899   0.972
 2509SOL    HW2 8427   0.176   3.880   0.986
 2510SOL     OW 8428   2.915   5.175   1.190
 2510SOL    HW1 8429   2.903   5.271   1.165
 2510SOL    HW2 8430   2.886   5.161   1.284
 2511SOL     OW 8431   3.922   1.919   4.123
 2511SOL    HW1 8432   4.007   1.972   4.118
 2511SOL    HW2 8433   3.844   1.982   4.121
 2512SOL     OW 8434   4.366   3.413   5.513
 2512SOL    HW1 8435   4.273   3.379   5.500
 2512SOL    HW2 8436   4.390   3.410   5.610
 2513SOL     OW 8437   1.599   3.981   5.091
 2513SOL    HW1 8438   1.683   3.933   5.119
 2513SOL    HW2 8439   1.622   4.072   5.057
 2514SOL     OW 8440   0.179   4.036   5.046
 2514SOL    HW1 8441   0.110   3.967   5.069
 2514SOL    HW2 8442   0.259   4.024   5.106
 2515SOL     OW 8443   1.304   6.920   0.823
 2515SOL    HW1 8444   1.381   6.863   0.853
 2515SOL    HW2 8445   1.322   7.015   0.847
 2516SOL     OW 8446   5.398   2.047   2.968
 2516SOL    HW1 8447   5.456   2.129   2.968
 2516SOL    HW2 8448   5.456   1.965   2.970
 2517SOL     OW 8449   0.435   6.728   6.047
 2517SOL    HW1 8450   0.522   6.756   6.008
 2517SOL    HW2 8451   0.362   6.787   6.013
 2518SOL     OW 8452   1.534   4.800   0.071
 2518SOL    HW1 8453   1.616   4.743   0.083
 2518SOL    HW2 8454   1.487   4.774   7.010
 2519SOL     OW 8455   3.929   6.004   1.915
 2519SOL    HW1 8456   3.958   5.959   2.000
 2519SOL    HW2 8457   3.883   6.090   1.938
 2520SOL     OW 8458   3.281   1.833   0.808
 2520SOL    HW1 8459   3.270   1.895   0.731
 2520SOL    HW2 8460   3.376   1.801   0.812
 2521SOL     OW 8461   2.941   0.521   5.500
 2521SOL    HW1 8462   2.908   0.610   5.471
 2521SOL    HW2 8463   2.867   0.454   5.495
 2522SOL     OW 8464   1.033   2.683   5.437
 2522SOL    HW1 8465   1.005   2.637   5.522
 2522SOL    HW2 8466   0.959   2.678   5.371
 2523SOL     OW 8467   0.105   3.169   1.127
 2523SOL    HW1 8468   0.131   3.081   1.087
 2523SOL    HW2 8469   0.058   3.225   1.059
 2524SOL     OW 8470   0.873   6.454   5.075
 2524SOL    HW1 8471   0.833   6.543   5.093
 2524SOL    HW2 8472   0.802   6.383   5.083
 2525SOL     OW 8473   1.231   2.400   5.489
 2525SOL    HW1 8474   1.151   2.347   5.518
 2525SOL    HW2 8475   1.233   2.406   5.389
 2526SOL     OW 8476   1.215   4.573   6.337
 2526SOL    HW1 8477   1.309   4.543   6.353
 2526SOL    HW2 8478   1.162   4.561   6.421
 2527SOL     OW 8479   5.404   6.147   5.739
 2527SOL    HW1 8480   5.448   6.094   5.666
 2527SOL    HW2 8481   5.467   6.216   5.773
 2528SOL     OW 8482   6.244   4.985   0.011
 2528SOL    HW1 8483   6.318   5.052   0.000
 2528SOL    HW2 8484   6.248   4.946   0.103
 2529SOL     OW 8485   6.790   5.850   6.327
 2529SOL    HW1 8486   6.740   5.764   6.320
 2529SOL    HW2 8487   6.752   5.916   6.263
 2530SOL     OW 8488   2.682   6.526   4.755
 2530SOL    HW1 8489   2.621   6.495   4.681
 2530SOL    HW2 8490   2.648   6.612   4.791
 2531SOL     OW 8491   5.310   5.859   4.883
 2531SOL    HW1 8492   5.392   5.802   4.875
 2531SOL    HW2 8493   5.326   5.946   4.837
 2532SOL     OW 8494   0.872   5.208   0.818
 2532SOL    HW1 8495   0.872   5.152   0.901
 2532SOL    HW2 8496   0.782   5.251   0.808
 2533SOL     OW 8497   3.312   6.633   4.429
 2533SOL    HW1 8498   3.400   6.598   4.397
 2533SOL    HW2 8499   3.253   6.557   4.457
 2534SOL     OW 8500   4.170   0.680   2.786
 2534SOL    HW1 8501   4.070   0.674   2.777
 2534SOL    HW2 8502   4.213   0.650   2.702
 2535SOL     OW 8503   3.583   2.487   5.421
 2535SOL    HW1 8504   3.607   2.565   5.364
 2535SOL    HW2 8505   3.490   2.457   5.400
 2536SOL     OW 8506   1.339   1.518   4.816
 2536SOL    HW1 8507   1.383   1.429   4.802
 2536SOL    HW2 8508   1.252   1.520   4.766
 2537SOL     OW 8509   3.561   0.456   6.331
 2537SOL    HW1 8510   3.587   0.455   6.234
 2537SOL    HW2 8511   3.640   0.481   6.387
 2538SOL     OW 8512   0.947   4.538   2.717
 2538SOL    HW1 8513   0.959   4.635   2.737
 2538SOL    HW2 8514   1.007   4.485   2.777
 2539SOL     OW 8515   6.103   1.001   4.786
 2539SOL    HW1 8516   6.201   1.021   4.781
 2539SOL    HW2 8517   6.055   1.077   4.829
 2540SOL     OW 8518   4.083   1.937   2.748
 2540SOL    HW1 8519   4.066   1.902   2.840
 2540SOL    HW2 8520   4.015   1.899   2.686
 2541SOL     OW 8521   2.678   0.480   5.055
 2541SOL    HW1 8522   2.662   0.524   5.143
 2541SOL    HW2 8523   2.638   0.388   5.055
 2542SOL     OW 8524   3.092   2.158   5.481
 2542SOL    HW1 8525   3.110   2.061   5.499
 2542SOL    HW2 8526   3.039   2.197   5.556
 2543SOL     OW 8527   1.250   0.695   2.909
 2543SOL    HW1 8528   1.313   0.670   2.982
 2543SOL    HW2 8529   1.160   0.716   2.949
 2544SOL     OW 8530   0.242   6.565   1.058
 2544SOL    HW1 8531   0.271   6.479   1.100
 2544SOL    HW2 8532   0.201   6.546   0.969
 2545SOL     OW 8533   1.103   0.156   2.233
 2545SOL    HW1 8534   1.109   0.120   2.140
 2545SOL    HW2 8535   1.048   0.240   2.232
 2546SOL     OW 8536   0.219   0.817   1.971
 2546SOL    HW1 8537   0.256   0.724   1.974
 2546SOL    HW2 8538   0.264   0.873   2.040
 2547SOL     OW 8539   6.605   5.004   0.500
 2547SOL    HW1 8540   6.617   5.103   0.489
 2547SOL    HW2 8541   6.539   4.987   0.572
 2548SOL     OW 8542   1.074   6.506   5.562
 2548SOL    HW1 8543   1.054   6.445   5.486
 2548SOL    HW2 8544   0.996   6.508   5.625
 2549SOL     OW 8545   2.055   0.232   0.959
 2549SOL    HW1 8546   2.042   0.134   0.941
 2549SOL    HW2 8547   2.090   0.277   0.877
 2550SOL     OW 8548   6.857   0.324   6.613
 2550SOL    HW1 8549   6.765   0.315   6.577
 2550SOL    HW2 8550   6.861   0.286   6.706
 2551SOL     OW 8551   2.705   5.260   0.520
 2551SOL    HW1 8552   2.643   5.181   0.528
 2551SOL    HW2 8553   2.779   5.238   0.456
 2552SOL     OW 8554   1.401   6.074   4.701
 2552SOL    HW1 8555   1.424   6.151   4.761
 2552SOL    HW2 8556   1.348   6.106   4.623
 2553SOL     OW 8557   4.804   3.321   5.764
 2553SOL    HW1 8558   4.744   3.398   5.787
 2553SOL    HW2 8559   4.831   3.328   5.668
 2554SOL     OW 8560   2.011   6.797   0.197
 2554SOL    HW1 8561   1.987   6.762   0.106
 2554SOL    HW2 8562   1.948   6.759   0.265
 2555SOL     OW 8563   5.630   0.035   5.181
 2555SOL    HW1 8564   5.561   0.107   5.187
 2555SOL    HW2 8565   5.720   0.072   5.205
 2556SOL     OW 8566   4.080   5.616   0.269
 2556SOL    HW1 8567   4.153   5.606   0.336
 2556SOL    HW2 8568   4.024   5.695   0.293
 2557SOL     OW 8569   2.281   4.624   6.704
 2557SOL    HW1 8570   2.273   4.535   6.750
 2557SOL    HW2 8571   2.311   4.609   6.609
 2558SOL     OW 8572   5.409   1.427   4.821
 2558SOL    HW1 8573   5.460   1.401   4.904
 2558SOL    HW2 8574   5.433   1.365   4.746
 2559SOL     OW 8575   0.561   3.835   4.512
 2559SOL    HW1 8576   0.480   3.826   4.454
 2559SOL    HW2 8577   0.540   3.803   4.604
 2560SOL     OW 8578   5.674   3.255   4.137
 2560SOL    HW1 8579   5.648   3.319   4.209
 2560SOL    HW2 8580   5.773   3.248   4.131
 2561SOL     OW 8581   3.095   6.026   5.174
 2561SOL    HW1 8582   3.061   5.960   5.107
 2561SOL    HW2 8583   3.195   6.028   5.170
 2562SOL     OW 8584   2.355   5.493   1.627
 2562SOL    HW1 8585   2.349   5.491   1.727
 2562SOL    HW2 8586   2.279   5.441   1.588
 2563SOL     OW 8587   3.765   2.120   0.413
 2563SOL    HW1 8588   3.727   2.188   0.350
 2563SOL    HW2 8589   3.779   2.161   0.502
 2564SOL     OW 8590   2.231   5.430   6.271
 2564SOL    HW1 8591   2.182   5.385   6.346
 2564SOL    HW2 8592   2.199   5.392   6.184
 2565SOL     OW 8593   1.518   0.558   0.212
 2565SOL    HW1 8594   1.428   0.523   0.187
 2565SOL    HW2 8595   1.543   0.633   0.151
 2566SOL     OW 8596   2.840   6.759   0.970
 2566SOL    HW1 8597   2.936   6.735   0.955
 2566SOL    HW2 8598   2.834   6.854   1.002
 2567SOL     OW 8599   0.597   1.102   0.804
 2567SOL    HW1 8600   0.610   1.040   0.881
 2567SOL    HW2 8601   0.641   1.190   0.824
 2568SOL     OW 8602   4.150   0.398   6.520
 2568SOL    HW1 8603   4.110   0.427   6.433
 2568SOL    HW2 8604   4.177   0.302   6.512
 2569SOL     OW 8605   3.199   1.482   1.883
 2569SOL    HW1 8606   3.228   1.486   1.978
 2569SOL    HW2 8607   3.135   1.556   1.865
 2570SOL     OW 8608   5.364   0.280   6.546
 2570SOL    HW1 8609   5.370   0.337   6.628
 2570SOL    HW2 8610   5.271   0.280   6.511
 2571SOL     OW 8611   2.634   4.316   5.302
 2571SOL    HW1 8612   2.541   4.287   5.325
 2571SOL    HW2 8613   2.662   4.391   5.362
 2572SOL     OW 8614   2.465   5.720   0.713
 2572SOL    HW1 8615   2.436   5.755   0.802
 2572SOL    HW2 8616   2.426   5.629   0.699
 2573SOL     OW 8617   6.934   2.251   1.807
 2573SOL    HW1 8618   7.020   2.259   1.857
 2573SOL    HW2 8619   6.945   2.290   1.716
 2574SOL     OW 8620   6.127   3.929   0.271
 2574SOL    HW1 8621   6.143   3.875   0.354
 2574SOL    HW2 8622   6.201   3.995   0.260
 2575SOL     OW 8623   5.203   5.440   0.796
 2575SOL    HW1 8624   5.270   5.377   0.835
 2575SOL    HW2 8625   5.139   5.469   0.868
 2576SOL     OW 8626   4.457   6.800   4.801
 2576SOL    HW1 8627   4.504   6.855   4.732
 2576SOL    HW2 8628   4.371   6.843   4.826
 2577SOL     OW 8629   4.562   6.516   2.049
 2577SOL    HW1 8630   4.521   6.607   2.039
 2577SOL    HW2 8631   4.644   6.523   2.107
 2578SOL     OW 8632   4.767   1.827   5.327
 2578SOL    HW1 8633   4.786   1.756   5.259
 2578SOL    HW2 8634   4.718   1.788   5.404
 2579SOL     OW 8635   1.854   6.615   2.909
 2579SOL    HW1 8636   1.922   6.586   2.842
 2579SOL    HW2 8637   1.819   6.705   2.884
 2580SOL     OW 8638   3.372   3.969   6.084
 2580SOL    HW1 8639   3.365   4.069   6.079
 2580SOL    HW2 8640   3.304   3.928   6.023
 2581SOL     OW 8641   1.764   5.156   1.603
 2581SOL    HW1 8642   1.774   5.119   1.695
 2581SOL    HW2 8643   1.855   5.178   1.566
 2582SOL     OW 8644   0.362   3.966   1.677
 2582SOL    HW1 8645   0.440   3.904   1.671
 2582SOL    HW2 8646   0.286   3.919   1.721
 2583SOL     OW 8647   1.452   1.610   6.518
 2583SOL    HW1 8648   1.419   1.691   6.470
 2583SOL    HW2 8649   1.374   1.560   6.556
 2584SOL     OW 8650   4.357   4.886   6.177
 2584SOL    HW1 8651   4.282   4.829   6.210
 2584SOL    HW2 8652   4.326   4.940   6.099
 2585SOL     OW 8653   4.408   3.395   0.544
 2585SOL    HW1 8654   4.428   3.373   0.640
 2585SOL    HW2 8655   4.327   3.345   0.514
 2586SOL     OW 8656   3.770   1.083   3.738
 2586SOL    HW1 8657   3.736   1.175   3.722
 2586SOL    HW2 8658   3.695   1.017   3.726
 2587SOL     OW 8659   6.839   0.672   3.113
 2587SOL    HW1 8660   6.765   0.679   3.046
 2587SOL    HW2 8661   6.856   0.761   3.154
 2588SOL     OW 8662   4.901   1.784   6.667
 2588SOL    HW1 8663   4.896   1.883   6.654
 2588SOL    HW2 8664   4.928   1.741   6.581
 2589SOL     OW 8665   1.122   6.463   5.193
 2589SOL    HW1 8666   1.157   6.557   5.195
 2589SOL    HW2 8667   1.025   6.465   5.168
 2590SOL     OW 8668   3.336   4.768   0.131
 2590SOL    HW1 8669   3.414   4.782   0.070
 2590SOL    HW2 8670   3.288   4.854   0.145
 2591SOL     OW 8671   0.016   4.723   3.073
 2591SOL    HW1 8672   0.046   4.778   2.995
 2591SOL    HW2 8673   0.016   4.780   3.156
 2592SOL     OW 8674   3.363   5.702   0.170
 2592SOL    HW1 8675   3.453   5.682   0.131
 2592SOL    HW2 8676   3.304   5.622   0.161
 2593SOL     OW 8677   4.156   5.442   0.028
 2593SOL    HW1 8678   4.063   5.428   7.018
 2593SOL    HW2 8679   4.156   5.512   0.099
 2594SOL     OW 8680   1.763   4.281   5.736
 2594SOL    HW1 8681   1.731   4.206   5.794
 2594SOL    HW2 8682   1.863   4.287   5.742
 2595SOL     OW 8683   0.001   0.511   3.896
 2595SOL    HW1 8684   6.944   0.453   3.909
 2595SOL    HW2 8685   0.044   0.490   3.808
 2596SOL     OW 8686   3.156   2.184   1.887
 2596SOL    HW1 8687   3.227   2.217   1.825
 2596SOL    HW2 8688   3.077   2.246   1.884
 2597SOL     OW 8689   0.569   5.042   5.907
 2597SOL    HW1 8690   0.626   5.023   5.827
 2597SOL    HW2 8691   0.477   5.068   5.878
 2598SOL     OW 8692   6.436   1.529   2.954
 2598SOL    HW1 8693   6.531   1.549   2.927
 2598SOL    HW2 8694   6.405   1.445   2.911
 2599SOL     OW 8695   1.311   5.763   0.954
 2599SOL    HW1 8696   1.365   5.781   0.872
 2599SOL    HW2 8697   1.264   5.847   0.982
 2600SOL     OW 8698   5.893   2.985   4.649
 2600SOL    HW1 8699   5.800   2.952   4.667
 2600SOL    HW2 8700   5.890   3.052   4.574
 2601SOL     OW 8701   1.580   1.469   2.206
 2601SOL    HW1 8702   1.582   1.510   2.297
 2601SOL    HW2 8703   1.547   1.536   2.140
 2602SOL     OW 8704   0.862   4.957   4.722
 2602SOL    HW1 8705   0.927   4.885   4.746
 2602SOL    HW2 8706   0.772   4.934   4.759
 2603SOL     OW 8707   3.149   0.879   3.366
 2603SOL    HW1 8708   3.172   0.893   3.270
 2603SOL    HW2 8709   3.208   0.937   3.423
 2604SOL     OW 8710   4.704   2.308   2.709
 2604SOL    HW1 8711   4.635   2.360   2.758
 2604SOL    HW2 8712   4.761   2.370   2.655
 2605SOL     OW 8713   1.622   2.882   3.068
 2605SOL    HW1 8714   1.713   2.840   3.075
 2605SOL    HW2 8715   1.602   2.933   3.152
 2606SOL     OW 8716   5.633   4.567   1.479
 2606SOL    HW1 8717   5.723   4.603   1.454
 2606SOL    HW2 8718   5.596   4.621   1.555
 2607SOL     OW 8719   1.122   1.328   2.306
 2607SOL    HW1 8720   1.191   1.261   2.335
 2607SOL    HW2 8721   1.094   1.308   2.212
 2608SOL     OW 8722   3.740   5.303   0.685
 2608SOL    HW1 8723   3.771   5.210   0.705
 2608SOL    HW2 8724   3.805   5.347   0.623
 2609SOL     OW 8725   6.673   1.070   2.566
 2609SOL    HW1 8726   6.586   1.025   2.584
 2609SOL    HW2 8727   6.683   1.085   2.468
 2610SOL     OW 8728   0.755   3.997   4.415
 2610SOL    HW1 8729   0.776   4.072   4.478
 2610SOL    HW2 8730   0.690   3.934   4.458
 2611SOL     OW 8731   4.365   5.975   0.966
 2611SOL    HW1 8732   4.411   6.008   1.049
 2611SOL    HW2 8733   4.276   5.936   0.992
 2612SOL     OW 8734   6.136   6.358   4.623
 2612SOL    HW1 8735   6.152   6.432   4.688
 2612SOL    HW2 8736   6.215   6.297   4.622
 2613SOL     OW 8737   1.796   5.288   6.209
 2613SOL    HW1 8738   1.879   5.277   6.155
 2613SOL    HW2 8739   1.773   5.385   6.215
 2614SOL     OW 8740   6.589   2.184   0.219
 2614SOL    HW1 8741   6.509   2.125   0.234
 2614SOL    HW2 8742   6.658   2.165   0.288
 2615SOL     OW 8743   0.647   3.354   2.276
 2615SOL    HW1 8744   0.735   3.339   2.231
 2615SOL    HW2 8745   0.645   3.304   2.363
 2616SOL     OW 8746   2.488   2.750   5.994
 2616SOL    HW1 8747   2.410   2.706   6.039
 2616SOL    HW2 8748   2.562   2.764   6.060
 2617SOL     OW 8749   4.392   0.416   0.330
 2617SOL    HW1 8750   4.389   0.462   0.419
 2617SOL    HW2 8751   4.433   0.326   0.340
 2618SOL     OW 8752   6.827   0.292   3.971
 2618SOL    HW1 8753   6.884   0.212   3.950
 2618SOL    HW2 8754   6.837   0.316   4.067
 2619SOL     OW 8755   5.219   1.986   1.652
 2619SOL    HW1 8756   5.231   2.033   1.739
 2619SOL    HW2 8757   5.280   2.027   1.584
 2620SOL     OW 8758   6.889   6.729   3.478
 2620SOL    HW1 8759   6.912   6.764   3.387
 2620SOL    HW2 8760   6.954   6.766   3.545
 2621SOL     OW 8761   1.211   5.446   2.337
 2621SOL    HW1 8762   1.145   5.422   2.408
 2621SOL    HW2 8763   1.205   5.544   2.317
 2622SOL     OW 8764   2.222   3.829   6.236
 2622SOL    HW1 8765   2.241   3.920   6.198
 2622SOL    HW2 8766   2.205   3.765   6.161
 2623SOL     OW 8767   0.920   0.994   5.534
 2623SOL    HW1 8768   0.853   0.977   5.462
 2623SOL    HW2 8769   0.881   0.966   5.622
 2624SOL     OW 8770   0.328   1.930   4.934
 2624SOL    HW1 8771   0.355   1.923   5.030
 2624SOL    HW2 8772   0.306   1.840   4.898
 2625SOL     OW 8773   2.609   3.515   5.903
 2625SOL    HW1 8774   2.624   3.614   5.912
 2625SOL    HW2 8775   2.636   3.486   5.811
 2626SOL     OW 8776   6.717   0.281   6.153
 2626SOL    HW1 8777   6.802   0.228   6.153
 2626SOL    HW2 8778   6.689   0.297   6.058
 2627SOL     OW 8779   1.510   0.914   6.112
 2627SOL    HW1 8780   1.547   0.840   6.169
 2627SOL    HW2 8781   1.446   0.875   6.045
 2628SOL     OW 8782   1.997   3.989   5.691
 2628SOL    HW1 8783   2.060   4.003   5.615
 2628SOL    HW2 8784   2.021   4.051   5.766
 2629SOL     OW 8785   3.494   3.185   2.170
 2629SOL    HW1 8786   3.545   3.238   2.103
 2629SOL    HW2 8787   3.399   3.217   2.173
 2630SOL     OW 8788   3.489   1.366   2.723
 2630SOL    HW1 8789   3.504   1.277   2.766
 2630SOL    HW2 8790   3.454   1.352   2.630
 2631SOL     OW 8791   5.181   0.842   6.872
 2631SOL    HW1 8792   5.272   0.826   6.911
 2631SOL    HW2 8793   5.164   0.940   6.865
 2632SOL     OW 8794   5.592   3.459   0.662
 2632SOL    HW1 8795   5.645   3.376   0.675
 2632SOL    HW2 8796   5.495   3.438   0.664
 2633SOL     OW 8797   6.969   1.954   4.776
 2633SOL    HW1 8798   6.875   1.977   4.799
 2633SOL    HW2 8799   6.997   1.874   4.828
 2634SOL     OW 8800   1.044   5.695   3.561
 2634SOL    HW1 8801   1.059   5.613   3.616
 2634SOL    HW2 8802   1.090   5.685   3.473
 2635SOL     OW 8803   6.815   6.237   4.435
 2635SOL    HW1 8804   6.800   6.243   4.336
 2635SOL    HW2 8805   6.856   6.148   4.457
 2636SOL     OW 8806   3.939   0.568   6.594
 2636SOL    HW1 8807   3.946   0.629   6.673
 2636SOL    HW2 8808   3.997   0.488   6.609
 2637SOL     OW 8809   5.980   1.712   3.856
 2637SOL    HW1 8810   6.009   1.808   3.861
 2637SOL    HW2 8811   5.886   1.705   3.889
 2638SOL     OW 8812   0.094   6.737   4.630
 2638SOL    HW1 8813   0.106   6.783   4.718
 2638SOL    HW2 8814   0.137   6.647   4.632
 2639SOL     OW 8815   6.527   6.167   0.056
 2639SOL    HW1 8816   6.605   6.228   0.071
 2639SOL    HW2 8817   6.555   6.073   0.073
 2640SOL     OW 8818   6.710   6.634   5.388
 2640SOL    HW1 8819   6.784   6.702   5.380
 2640SOL    HW2 8820   6.666   6.623   5.299
 2641SOL     OW 8821   5.465   2.325   1.741
 2641SOL    HW1 8822   5.423   2.414   1.760
 2641SOL    HW2 8823   5.478   2.276   1.827
 2642SOL     OW 8824   6.122   0.353   3.907
 2642SOL    HW1 8825   6.044   0.407   3.874
 2642SOL    HW2 8826   6.105   0.323   4.001
 2643SOL     OW 8827   1.274   3.724   3.644
 2643SOL    HW1 8828   1.276   3.807   3.700
 2643SOL    HW2 8829   1.180   3.695   3.631
 2644SOL     OW 8830   4.793   5.050   4.931
 2644SOL    HW1 8831   4.710   5.100   4.956
 2644SOL    HW2 8832   4.821   4.992   5.008
 2645SOL     OW 8833   4.558   5.322   3.643
 2645SOL    HW1 8834   4.577   5.239   3.592
 2645SOL    HW2 8835   4.509   5.388   3.585
 2646SOL     OW 8836   6.824   2.067   0.356
 2646SOL    HW1 8837   6.810   2.053   0.454
 2646SOL    HW2 8838   6.917   2.040   0.331
 2647SOL     OW 8839   6.036   6.881   1.686
 2647SOL    HW1 8840   6.052   6.906   1.590
 2647SOL    HW2 8841   6.115   6.908   1.741
 2648SOL     OW 8842   6.963   6.459   4.547
 2648SOL    HW1 8843   6.885   6.405   4.515
 2648SOL    HW2 8844   6.939   6.503   4.634
 2649SOL     OW 8845   6.165   3.180   1.228
 2649SOL    HW1 8846   6.135   3.207   1.319
 2649SOL    HW2 8847   6.085   3.169   1.169
 2650SOL     OW 8848   1.959   5.019   4.290
 2650SOL    HW1 8849   1.862   5.008   4.313
 2650SOL    HW2 8850   2.003   5.076   4.359
 2651SOL     OW 8851   2.947   1.329   1.196
 2651SOL    HW1 8852   3.037   1.372   1.195
 2651SOL    HW2 8853   2.878   1.398   1.173
 2652SOL     OW 8854   4.502   3.426   5.755
 2652SOL    HW1 8855   4.560   3.487   5.702
 2652SOL    HW2 8856   4.475   3.471   5.840
 2653SOL     OW 8857   4.616   5.979   5.757
 2653SOL    HW1 8858   4.627   6.039   5.678
 2653SOL    HW2 8859   4.553   5.905   5.733
 2654SOL     OW 8860   4.849   6.567   1.238
 2654SOL    HW1 8861   4.815   6.554   1.146
 2654SOL    HW2 8862   4.824   6.659   1.271
 2655SOL     OW 8863   4.790   5.452   3.619
 2655SOL    HW1 8864   4.697   5.416   3.611
 2655SOL    HW2 8865   4.813   5.463   3.715
 2656SOL     OW 8866   3.588   5.636   4.298
 2656SOL    HW1 8867   3.610   5.553   4.247
 2656SOL    HW2 8868   3.583   5.614   4.396
 2657SOL     OW 8869   1.555   3.624   0.392
 2657SOL    HW1 8870   1.508   3.685   0.328
 2657SOL    HW2 8871   1.622   3.569   0.343
 2658SOL     OW 8872   4.763   4.633   0.368
 2658SOL    HW1 8873   4.818   4.558   0.329
 2658SOL    HW2 8874   4.820   4.714   0.379
 2659SOL     OW 8875   4.630   3.106   5.397
 2659SOL    HW1 8876   4.585   3.105   5.486
 2659SOL    HW2 8877   4.621   3.198   5.356
 2660SOL     OW 8878   0.743   0.551   1.706
 2660SOL    HW1 8879   0.812   0.620   1.685
 2660SOL    HW2 8880   0.744   0.480   1.635
 2661SOL     OW 8881   2.282   6.536   1.571
 2661SOL    HW1 8882   2.246   6.540   1.478
 2661SOL    HW2 8883   2.297   6.629   1.605
 2662SOL     OW 8884   2.920   0.080   4.067
 2662SOL    HW1 8885   2.947   7.011   4.097
 2662SOL    HW2 8886   2.850   0.074   3.997
 2663SOL     OW 8887   4.431   4.735   6.502
 2663SOL    HW1 8888   4.362   4.680   6.453
 2663SOL    HW2 8889   4.460   4.811   6.444
 2664SOL     OW 8890   4.242   3.121   5.555
 2664SOL    HW1 8891   4.186   3.142   5.636
 2664SOL    HW2 8892   4.334   3.097   5.585
 2665SOL     OW 8893   2.384   3.484   5.333
 2665SOL    HW1 8894   2.403   3.581   5.342
 2665SOL    HW2 8895   2.285   3.468   5.344
 2666SOL     OW 8896   1.255   4.677   1.524
 2666SOL    HW1 8897   1.187   4.735   1.569
 2666SOL    HW2 8898   1.342   4.726   1.519
 2667SOL     OW 8899   1.265   5.832   3.985
 2667SOL    HW1 8900   1.272   5.911   3.923
 2667SOL    HW2 8901   1.343   5.771   3.970
 2668SOL     OW 8902   6.247   2.921   4.632
 2668SOL    HW1 8903   6.181   2.996   4.635
 2668SOL    HW2 8904   6.303   2.923   4.715
 2669SOL     OW 8905   3.159   5.315   6.494
 2669SOL    HW1 8906   3.248   5.358   6.509
 2669SOL    HW2 8907   3.094   5.383   6.459
 2670SOL     OW 8908   5.817   2.654   4.857
 2670SOL    HW1 8909   5.896   2.615   4.809
 2670SOL    HW2 8910   5.848   2.729   4.915
 2671SOL     OW 8911   4.710   5.275   6.201
 2671SOL    HW1 8912   4.710   5.203   6.271
 2671SOL    HW2 8913   4.675   5.360   6.240
 2672SOL     OW 8914   2.952   6.468   1.731
 2672SOL    HW1 8915   3.046   6.501   1.724
 2672SOL    HW2 8916   2.940   6.420   1.818
 2673SOL     OW 8917   6.409   1.946   2.061
 2673SOL    HW1 8918   6.375   1.959   2.154
 2673SOL    HW2 8919   6.501   1.985   2.053
 2674SOL     OW 8920   1.128   4.584   3.957
 2674SOL    HW1 8921   1.137   4.563   4.054
 2674SOL    HW2 8922   1.134   4.500   3.904
 2675SOL     OW 8923   6.853   6.631   4.242
 2675SOL    HW1 8924   6.830   6.661   4.149
 2675SOL    HW2 8925   6.884   6.536   4.240
 2676SOL     OW 8926   3.235   3.372   2.105
 2676SOL    HW1 8927   3.153   3.315   2.112
 2676SOL    HW2 8928   3.219   3.444   2.037
 2677SOL     OW 8929   2.462   4.920   1.342
 2677SOL    HW1 8930   2.479   4.862   1.422
 2677SOL    HW2 8931   2.404   4.872   1.278
 2678SOL     OW 8932   0.033   2.280   2.159
 2678SOL    HW1 8933   0.071   2.372   2.145
 2678SOL    HW2 8934   6.974   2.285   2.215
 2679SOL     OW 8935   1.583   4.732   2.643
 2679SOL    HW1 8936   1.619   4.705   2.554
 2679SOL    HW2 8937   1.492   4.693   2.656
 2680SOL     OW 8938   1.096   2.431   0.161
 2680SOL    HW1 8939   1.142   2.412   0.248
 2680SOL    HW2 8940   1.144   2.382   0.087
 2681SOL     OW 8941   1.062   2.245   4.940
 2681SOL    HW1 8942   1.137   2.311   4.938
 2681SOL    HW2 8943   1.009   2.252   4.856
 2682SOL     OW 8944   4.845   4.215   3.308
 2682SOL    HW1 8945   4.785   4.142   3.341
 2682SOL    HW2 8946   4.922   4.174   3.258
 2683SOL     OW 8947   2.502   4.763   2.193
 2683SOL    HW1 8948   2.471   4.705   2.118
 2683SOL    HW2 8949   2.464   4.728   2.279
 2684SOL     OW 8950   4.883   0.035   1.859
 2684SOL    HW1 8951   4.956   7.019   1.915
 2684SOL    HW2 8952   4.832   6.984   1.815
 2685SOL     OW 8953   5.928   5.021   5.808
 2685SOL    HW1 8954   5.935   4.956   5.884
 2685SOL    HW2 8955   5.910   5.112   5.844
 2686SOL     OW 8956   0.966   1.636   5.726
 2686SOL    HW1 8957   0.876   1.674   5.750
 2686SOL    HW2 8958   0.960   1.537   5.721
 2687SOL     OW 8959   3.663   5.684   0.346
 2687SOL    HW1 8960   3.625   5.646   0.430
 2687SOL    HW2 8961   3.600   5.752   0.309
 2688SOL     OW 8962   2.462   2.363   0.531
 2688SOL    HW1 8963   2.489   2.281   0.481
 2688SOL    HW2 8964   2.531   2.385   0.600
 2689SOL     OW 8965   6.996   4.040   2.332
 2689SOL    HW1 8966   0.063   4.055   2.291
 2689SOL    HW2 8967   6.959   4.127   2.364
 2690SOL     OW 8968   3.289   3.419   6.656
 2690SOL    HW1 8969   3.197   3.459   6.656
 2690SOL    HW2 8970   3.340   3.452   6.577
 2691SOL     OW 8971   0.168   4.625   4.018
 2691SOL    HW1 8972   0.232   4.686   4.065
 2691SOL    HW2 8973   0.120   4.675   3.947
 2692SOL     OW 8974   2.324   7.003   2.970
 2692SOL    HW1 8975   2.303   6.955   2.884
 2692SOL    HW2 8976   2.379   6.944   3.028
 2693SOL     OW 8977   2.301   4.761   3.862
 2693SOL    HW1 8978   2.344   4.688   3.808
 2693SOL    HW2 8979   2.244   4.720   3.934
 2694SOL     OW 8980   3.664   6.458   3.530
 2694SOL    HW1 8981   3.628   6.535   3.583
 2694SOL    HW2 8982   3.632   6.464   3.436
 2695SOL     OW 8983   5.854   0.348   2.951
 2695SOL    HW1 8984   5.817   0.295   2.875
 2695SOL    HW2 8985   5.893   0.433   2.917
 2696SOL     OW 8986   4.716   3.955   5.567
 2696SOL    HW1 8987   4.720   3.906   5.654
 2696SOL    HW2 8988   4.645   4.025   5.571
 2697SOL     OW 8989   4.077   1.656   2.476
 2697SOL    HW1 8990   4.004   1.707   2.522
 2697SOL    HW2 8991   4.147   1.720   2.444
 2698SOL     OW 8992   1.572   4.730   6.661
 2698SOL    HW1 8993   1.552   4.755   6.566
 2698SOL    HW2 8994   1.639   4.793   6.699
 2699SOL     OW 8995   3.093   6.332   0.851
 2699SOL    HW1 8996   3.020   6.315   0.917
 2699SOL    HW2 8997   3.100   6.255   0.788
 2700SOL     OW 8998   2.744   1.510   1.165
 2700SOL    HW1 8999   2.667   1.519   1.228
 2700SOL    HW2 9000   2.796   1.595   1.163
 2701SOL     OW 9001   5.354   2.285   5.409
 2701SOL    HW1 9002   5.395   2.245   5.327
 2701SOL    HW2 9003   5.364   2.384   5.406
 2702SOL     OW 9004   1.060   2.232   2.795
 2702SOL    HW1 9005   1.043   2.312   2.853
 2702SOL    HW2 9006   0.973   2.191   2.769
 2703SOL     OW 9007   1.321   5.817   1.563
 2703SOL    HW1 9008   1.297   5.721   1.545
 2703SOL    HW2 9009   1.383   5.821   1.641
 2704SOL     OW 9010   6.564   6.044   1.757
 2704SOL    HW1 9011   6.547   5.991   1.839
 2704SOL    HW2 9012   6.477   6.070   1.715
 2705SOL     OW 9013   6.955   0.426   5.444
 2705SOL    HW1 9014   0.017   0.457   5.402
 2705SOL    HW2 9015   6.880   0.487   5.416
 2706SOL     OW 9016   6.480   4.580   3.681
 2706SOL    HW1 9017   6.503   4.658   3.622
 2706SOL    HW2 9018   6.403   4.531   3.641
 2707SOL     OW 9019   4.061   0.561   4.059
 2707SOL    HW1 9020   4.073   0.481   4.116
 2707SOL    HW2 9021   4.073   0.536   3.963
 2708SOL     OW 9022   6.436   2.884   1.281
 2708SOL    HW1 9023   6.352   2.878   1.227
 2708SOL    HW2 9024   6.497   2.809   1.257
 2709SOL     OW 9025   5.088   0.231   6.506
 2709SOL    HW1 9026   5.073   0.168   6.429
 2709SOL    HW2 9027   5.077   0.181   6.592
 2710SOL     OW 9028   1.630   2.578   3.912
 2710SOL    HW1 9029   1.650   2.611   4.004
 2710SOL    HW2 9030   1.619   2.478   3.914
 2711SOL     OW 9031   3.478   0.784   3.359
 2711SOL    HW1 9032   3.416   0.736   3.421
 2711SOL    HW2 9033   3.520   0.718   3.296
 2712SOL     OW 9034   2.096   5.936   2.401
 2712SOL    HW1 9035   2.083   5.972   2.308
 2712SOL    HW2 9036   2.192   5.913   2.415
 2713SOL     OW 9037   3.920   3.882   6.730
 2713SOL    HW1 9038   3.836   3.907   6.682
 2713SOL    HW2 9039   3.921   3.783   6.746
 2714SOL     OW 9040   3.627   3.477   6.877
 2714SOL    HW1 9041   3.539   3.511   6.910
 2714SOL    HW2 9042   3.612   3.398   6.818
 2715SOL     OW 9043   5.687   2.031   0.939
 2715SOL    HW1 9044   5.637   2.109   0.902
 2715SOL    HW2 9045   5.745   1.992   0.868
 2716SOL     OW 9046   5.210   3.102   3.772
 2716SOL    HW1 9047   5.215   3.100   3.672
 2716SOL    HW2 9048   5.291   3.147   3.808
 2717SOL     OW 9049   0.779   0.025   1.835
 2717SOL    HW1 9050   0.804   6.988   1.910
 2717SOL    HW2 9051   0.690   7.019   1.798
 2718SOL     OW 9052   0.545   1.103   5.384
 2718SOL    HW1 9053   0.593   1.190   5.380
 2718SOL    HW2 9054   0.467   1.105   5.322
 2719SOL     OW 9055   1.193   4.209   1.439
 2719SOL    HW1 9056   1.159   4.298   1.469
 2719SOL    HW2 9057   1.240   4.219   1.352
 2720SOL     OW 9058   1.295   0.317   3.133
 2720SOL    HW1 9059   1.229   0.382   3.095
 2720SOL    HW2 9060   1.261   0.282   3.220
 2721SOL     OW 9061   3.279   6.311   3.330
 2721SOL    HW1 9062   3.352   6.295   3.263
 2721SOL    HW2 9063   3.258   6.225   3.377
 2722SOL     OW 9064   4.926   5.191   6.609
 2722SOL    HW1 9065   4.938   5.125   6.683
 2722SOL    HW2 9066   4.840   5.173   6.561
 2723SOL     OW 9067   2.104   5.998   6.752
 2723SOL    HW1 9068   2.024   5.956   6.795
 2723SOL    HW2 9069   2.176   5.930   6.743
 2724SOL     OW 9070   1.661   6.033   6.783
 2724SOL    HW1 9071   1.565   6.056   6.764
 2724SOL    HW2 9072   1.694   6.091   6.858
 2725SOL     OW 9073   5.528   4.209   4.651
 2725SOL    HW1 9074   5.533   4.233   4.555
 2725SOL    HW2 9075   5.609   4.243   4.699
 2726SOL     OW 9076   0.562   2.381   1.986
 2726SOL    HW1 9077   0.472   2.416   1.961
 2726SOL    HW2 9078   0.553   2.306   2.051
 2727SOL     OW 9079   1.364   3.544   4.117
 2727SOL    HW1 9080   1.367   3.614   4.188
 2727SOL    HW2 9081   1.456   3.528   4.083
 2728SOL     OW 9082   5.319   5.932   6.377
 2728SOL    HW1 9083   5.378   5.916   6.298
 2728SOL    HW2 9084   5.279   6.023   6.371
 2729SOL     OW 9085   6.605   6.563   0.079
 2729SOL    HW1 9086   6.576   6.598   0.168
 2729SOL    HW2 9087   6.647   6.473   0.091
 2730SOL     OW 9088   1.023   6.263   2.014
 2730SOL    HW1 9089   1.039   6.193   2.083
 2730SOL    HW2 9090   1.092   6.255   1.942
 2731SOL     OW 9091   3.255   3.755   3.132
 2731SOL    HW1 9092   3.337   3.702   3.151
 2731SOL    HW2 9093   3.256   3.839   3.187
 2732SOL     OW 9094   5.971   1.943   0.948
 2732SOL    HW1 9095   5.983   2.030   0.996
 2732SOL    HW2 9096   5.928   1.960   0.859
 2733SOL     OW 9097   6.840   1.401   5.093
 2733SOL    HW1 9098   6.774   1.331   5.065
 2733SOL    HW2 9099   6.857   1.462   5.016
 2734SOL     OW 9100   3.426   5.721   1.445
 2734SOL    HW1 9101   3.492   5.646   1.437
 2734SOL    HW2 9102   3.340   5.685   1.481
 2735SOL     OW 9103   1.210   2.073   1.967
 2735SOL    HW1 9104   1.251   2.002   1.908
 2735SOL    HW2 9105   1.276   2.147   1.979
 2736SOL     OW 9106   5.992   6.120   4.607
 2736SOL    HW1 9107   5.975   6.107   4.705
 2736SOL    HW2 9108   6.041   6.206   4.592
 2737SOL     OW 9109   2.901   3.495   5.690
 2737SOL    HW1 9110   2.939   3.473   5.600
 2737SOL    HW2 9111   2.925   3.589   5.714
 2738SOL     OW 9112   5.846   6.267   2.139
 2738SOL    HW1 9113   5.929   6.322   2.152
 2738SOL    HW2 9114   5.857   6.179   2.185
 2739SOL     OW 9115   0.853   4.650   0.846
 2739SOL    HW1 9116   0.950   4.630   0.864
 2739SOL    HW2 9117   0.802   4.564   0.846
 2740SOL     OW 9118   6.605   5.222   1.821
 2740SOL    HW1 9119   6.633   5.309   1.861
 2740SOL    HW2 9120   6.512   5.230   1.785
 2741SOL     OW 9121   0.029   1.705   5.189
 2741SOL    HW1 9122   0.048   1.705   5.091
 2741SOL    HW2 9123   6.988   1.778   5.211
 2742SOL     OW 9124   1.672   5.398   0.611
 2742SOL    HW1 9125   1.682   5.434   0.704
 2742SOL    HW2 9126   1.577   5.408   0.581
 2743SOL     OW 9127   0.095   4.963   2.242
 2743SOL    HW1 9128   0.017   4.971   2.304
 2743SOL    HW2 9129   0.101   4.869   2.209
 2744SOL     OW 9130   4.302   3.318   1.411
 2744SOL    HW1 9131   4.273   3.392   1.350
 2744SOL    HW2 9132   4.402   3.312   1.411
 2745SOL     OW 9133   6.702   1.537   5.293
 2745SOL    HW1 9134   6.765   1.468   5.256
 2745SOL    HW2 9135   6.644   1.496   5.363
 2746SOL     OW 9136   0.950   2.321   4.226
 2746SOL    HW1 9137   0.997   2.329   4.314
 2746SOL    HW2 9138   0.890   2.240   4.228
 2747SOL     OW 9139   4.780   5.639   7.011
 2747SOL    HW1 9140   4.845   5.609   6.941
 2747SOL    HW2 9141   4.729   5.718   6.978
 2748SOL     OW 9142   4.545   0.899   1.841
 2748SOL    HW1 9143   4.595   0.966   1.896
 2748SOL    HW2 9144   4.608   0.849   1.783
 2749SOL     OW 9145   6.993   4.205   1.262
 2749SOL    HW1 9146   6.898   4.233   1.248
 2749SOL    HW2 9147   0.009   4.257   1.338
 2750SOL     OW 9148   1.997   4.290   2.138
 2750SOL    HW1 9149   2.044   4.284   2.050
 2750SOL    HW2 9150   2.046   4.235   2.206
 2751SOL     OW 9151   1.079   2.330   1.690
 2751SOL    HW1 9152   1.103   2.250   1.635
 2751SOL    HW2 9153   0.981   2.329   1.711
 2752SOL     OW 9154   3.142   4.442   6.048
 2752SOL    HW1 9155   3.061   4.496   6.070
 2752SOL    HW2 9156   3.135   4.353   6.093
 2753SOL     OW 9157   0.026   6.228   5.232
 2753SOL    HW1 9158   0.014   6.176   5.148
 2753SOL    HW2 9159   0.021   6.166   5.310
 2754SOL     OW 9160   0.203   0.208   0.052
 2754SOL    HW1 9161   0.144   0.134   0.086
 2754SOL    HW2 9162   0.257   0.245   0.127
 2755SOL     OW 9163   3.960   0.012   2.789
 2755SOL    HW1 9164   3.944   6.968   2.716
 2755SOL    HW2 9165   4.058   0.032   2.795
 2756SOL     OW 9166   4.341   5.790   0.028
 2756SOL    HW1 9167   4.262   5.737   0.059
 2756SOL    HW2 9168   4.344   5.792   6.952
 2757SOL     OW 9169   2.566   6.739   0.564
 2757SOL    HW1 9170   2.495   6.674   0.588
 2757SOL    HW2 9171   2.651   6.715   0.612
 2758SOL     OW 9172   4.596   0.201   4.152
 2758SOL    HW1 9173   4.566   0.259   4.076
 2758SOL    HW2 9174   4.685   0.162   4.130
 2759SOL     OW 9175   5.572   6.819   5.699
 2759SOL    HW1 9176   5.650   6.845   5.757
 2759SOL    HW2 9177   5.553   6.893   5.634
 2760SOL     OW 9178   0.840   5.690   1.574
 2760SOL    HW1 9179   0.797   5.622   1.633
 2760SOL    HW2 9180   0.820   5.782   1.608
 2761SOL     OW 9181   2.178   4.472   3.871
 2761SOL    HW1 9182   2.156   4.559   3.916
 2761SOL    HW2 9183   2.252   4.427   3.921
 2762SOL     OW 9184   1.325   1.010   5.389
 2762SOL    HW1 9185   1.338   1.067   5.308
 2762SOL    HW2 9186   1.312   0.915   5.361
 2763SOL     OW 9187   5.227   1.347   3.902
 2763SOL    HW1 9188   5.318   1.330   3.863
 2763SOL    HW2 9189   5.237   1.382   3.995
 2764SOL     OW 9190   6.461   0.573   1.162
 2764SOL    HW1 9191   6.369   0.591   1.198
 2764SOL    HW2 9192   6.528   0.585   1.235
 2765SOL     OW 9193   5.599   6.942   0.514
 2765SOL    HW1 9194   5.643   6.977   0.597
 2765SOL    HW2 9195   5.597   6.842   0.518
 2766SOL     OW 9196   4.871   2.672   0.502
 2766SOL    HW1 9197   4.878   2.771   0.506
 2766SOL    HW2 9198   4.807   2.645   0.430
 2767SOL     OW 9199   6.495   5.062   0.061
 2767SOL    HW1 9200   6.590   5.079   0.038
 2767SOL    HW2 9201   6.489   4.997   0.137
 2768SOL     OW 9202   5.080   0.762   0.191
 2768SOL    HW1 9203   5.069   0.765   0.290
 2768SOL    HW2 9204   5.065   0.854   0.153
 2769SOL     OW 9205   0.314   4.211   3.823
 2769SOL    HW1 9206   0.342   4.120   3.793
 2769SOL    HW2 9207   0.319   4.274   3.746
 2770SOL     OW 9208   2.643   5.424   6.128
 2770SOL    HW1 9209   2.629   5.328   6.103
 2770SOL    HW2 9210   2.643   5.433   6.228
 2771SOL     OW 9211   6.206   0.868   2.475
 2771SOL    HW1 9212   6.278   0.845   2.541
 2771SOL    HW2 9213   6.119   0.829   2.504
 2772SOL     OW 9214   4.396   1.143   0.807
 2772SOL    HW1 9215   4.442   1.210   0.866
 2772SOL    HW2 9216   4.373   1.186   0.719
 2773SOL     OW 9217   5.520   2.895   5.531
 2773SOL    HW1 9218   5.573   2.871   5.451
 2773SOL    HW2 9219   5.543   2.988   5.560
 2774SOL     OW 9220   6.441   3.813   3.375
 2774SOL    HW1 9221   6.384   3.734   3.396
 2774SOL    HW2 9222   6.497   3.794   3.294
 2775SOL     OW 9223   6.983   5.247   6.660
 2775SOL    HW1 9224   6.989   5.149   6.644
 2775SOL    HW2 9225   0.053   5.284   6.671
 2776SOL     OW 9226   5.588   5.083   5.877
 2776SOL    HW1 9227   5.500   5.101   5.834
 2776SOL    HW2 9228   5.633   5.170   5.899
 2777SOL     OW 9229   2.514   0.905   1.898
 2777SOL    HW1 9230   2.557   0.830   1.948
 2777SOL    HW2 9231   2.416   0.909   1.920
 2778SOL     OW 9232   1.325   0.390   4.925
 2778SOL    HW1 9233   1.267   0.310   4.943
 2778SOL    HW2 9234   1.387   0.404   5.002
 2779SOL     OW 9235   4.804   6.627   0.955
 2779SOL    HW1 9236   4.791   6.616   0.857
 2779SOL    HW2 9237   4.901   6.637   0.975
 2780SOL     OW 9238   6.759   6.273   6.672
 2780SOL    HW1 9239   6.858   6.276   6.659
 2780SOL    HW2 9240   6.716   6.338   6.610
 2781SOL     OW 9241   6.020   5.708   1.259
 2781SOL    HW1 9242   5.982   5.798   1.281
 2781SOL    HW2 9243   6.093   5.685   1.324
 2782SOL     OW 9244   3.610   2.105   5.627
 2782SOL    HW1 9245   3.576   2.069   5.714
 2782SOL    HW2 9246   3.536   2.153   5.580
 2783SOL     OW 9247   5.708   3.376   4.671
 2783SOL    HW1 9248   5.780   3.378   4.602
 2783SOL    HW2 9249   5.699   3.466   4.714
 2784SOL     OW 9250   3.010   2.061   1.165
 2784SOL    HW1 9251   3.093   2.048   1.111
 2784SOL    HW2 9252   2.930   2.060   1.105
 2785SOL     OW 9253   5.631   1.766   0.943
 2785SOL    HW1 9254   5.662   1.839   1.004
 2785SOL    HW2 9255   5.623   1.801   0.850
 2786SOL     OW 9256   3.966   5.319   2.042
 2786SOL    HW1 9257   4.054   5.271   2.040
 2786SOL    HW2 9258   3.980   5.416   2.020
 2787SOL     OW 9259   2.995   2.313   6.833
 2787SOL    HW1 9260   2.904   2.286   6.864
 2787SOL    HW2 9261   3.064   2.266   6.887
 2788SOL     OW 9262   2.306   4.772   6.174
 2788SOL    HW1 9263   2.378   4.730   6.119
 2788SOL    HW2 9264   2.345   4.848   6.227
 2789SOL     OW 9265   1.746   2.505   3.383
 2789SOL    HW1 9266   1.685   2.457   3.446
 2789SOL    HW2 9267   1.841   2.477   3.400
 2790SOL     OW 9268   2.710   5.576   2.433
 2790SOL    HW1 9269   2.728   5.571   2.532
 2790SOL    HW2 9270   2.661   5.661   2.413
 2791SOL     OW 9271   1.255   4.033   3.960
 2791SOL    HW1 9272   1.305   4.056   3.877
 2791SOL    HW2 9273   1.298   4.079   4.038
 2792SOL     OW 9274   0.724   6.998   4.661
 2792SOL    HW1 9275   0.812   6.959   4.635
 2792SOL    HW2 9276   0.736   0.070   4.688
 2793SOL     OW 9277   4.951   3.536   3.412
 2793SOL    HW1 9278   5.050   3.519   3.406
 2793SOL    HW2 9279   4.931   3.627   3.378
 2794SOL     OW 9280   0.178   2.664   1.140
 2794SOL    HW1 9281   0.254   2.619   1.188
 2794SOL    HW2 9282   0.100   2.672   1.202
 2795SOL     OW 9283   1.915   2.960   0.751
 2795SOL    HW1 9284   1.946   3.055   0.746
 2795SOL    HW2 9285   1.863   2.939   0.668
 2796SOL     OW 9286   6.063   4.875   2.671
 2796SOL    HW1 9287   6.003   4.874   2.751
 2796SOL    HW2 9288   6.158   4.867   2.701
 2797SOL     OW 9289   4.663   5.220   4.390
 2797SOL    HW1 9290   4.757   5.212   4.422
 2797SOL    HW2 9291   4.627   5.310   4.414
 2798SOL     OW 9292   0.960   4.704   1.456
 2798SOL    HW1 9293   1.008   4.724   1.371
 2798SOL    HW2 9294   1.000   4.623   1.499
 2799SOL     OW 9295   0.102   6.741   0.298
 2799SOL    HW1 9296   0.191   6.759   0.256
 2799SOL    HW2 9297   0.113   6.734   0.397
 2800SOL     OW 9298   4.531   4.783   0.338
 2800SOL    HW1 9299   4.624   4.747   0.347
 2800SOL    HW2 9300   4.503   4.776   0.242
 2801SOL     OW 9301   5.084   5.439   4.990
 2801SOL    HW1 9302   5.023   5.489   5.052
 2801SOL    HW2 9303   5.149   5.384   5.043
 2802SOL     OW 9304   4.922   2.538   6.421
 2802SOL    HW1 9305   4.906   2.613   6.486
 2802SOL    HW2 9306   4.982   2.570   6.347
 2803SOL     OW 9307   3.390   5.727   6.363
 2803SOL    HW1 9308   3.477   5.760   6.401
 2803SOL    HW2 9309   3.405   5.698   6.268
 2804SOL     OW 9310   6.527   4.649   5.108
 2804SOL    HW1 9311   6.607   4.625   5.053
 2804SOL    HW2 9312   6.445   4.638   5.053
 2805SOL     OW 9313   5.085   2.987   2.217
 2805SOL    HW1 9314   4.990   3.019   2.218
 2805SOL    HW2 9315   5.133   3.020   2.298
 2806SOL     OW 9316   0.124   5.144   4.418
 2806SOL    HW1 9317   0.203   5.087   4.441
 2806SOL    HW2 9318   0.079   5.106   4.337
 2807SOL     OW 9319   5.443   5.391   3.622
 2807SOL    HW1 9320   5.451   5.415   3.526
 2807SOL    HW2 9321   5.397   5.303   3.631
 2808SOL     OW 9322   5.401   3.094   2.721
 2808SOL    HW1 9323   5.323   3.093   2.784
 2808SOL    HW2 9324   5.486   3.090   2.774
 2809SOL     OW 9325   5.992   2.812   1.996
 2809SOL    HW1 9326   5.901   2.806   2.035
 2809SOL    HW2 9327   6.031   2.902   2.017
 2810SOL     OW 9328   3.142   5.782   3.564
 2810SOL    HW1 9329   3.203   5.839   3.619
 2810SOL    HW2 9330   3.144   5.688   3.600
 2811SOL     OW 9331   1.086   1.094   3.158
 2811SOL    HW1 9332   1.131   1.093   3.248
 2811SOL    HW2 9333   1.095   1.185   3.118
 2812SOL     OW 9334   5.413   3.426   0.272
 2812SOL    HW1 9335   5.465   3.465   0.196
 2812SOL    HW2 9336   5.474   3.410   0.350
 2813SOL     OW 9337   6.355   0.359   5.900
 2813SOL    HW1 9338   6.387   0.267   5.925
 2813SOL    HW2 9339   6.392   0.426   5.965
 2814SOL     OW 9340   4.887   3.047   6.877
 2814SOL    HW1 9341   4.865   3.066   6.782
 2814SOL    HW2 9342   4.803   3.027   6.927
 2815SOL     OW 9343   6.589   1.195   5.423
 2815SOL    HW1 9344   6.544   1.283   5.407
 2815SOL    HW2 9345   6.523   1.132   5.465
 2816SOL     OW 9346   6.635   5.796   3.463
 2816SOL    HW1 9347   6.624   5.751   3.552
 2816SOL    HW2 9348   6.575   5.752   3.396
 2817SOL     OW 9349   2.756   7.005   1.078
 2817SOL    HW1 9350   2.752   0.037   1.161
 2817SOL    HW2 9351   2.675   6.947   1.072
 2818SOL     OW 9352   0.417   0.494   6.955
 2818SOL    HW1 9353   0.354   0.424   6.987
 2818SOL    HW2 9354   0.462   0.464   6.871
 2819SOL     OW 9355   0.511   1.089   1.328
 2819SOL    HW1 9356   0.457   1.051   1.253
 2819SOL    HW2 9357   0.596   1.127   1.291
 2820SOL     OW 9358   1.617   1.893   3.061
 2820SOL    HW1 9359   1.546   1.952   3.021
 2820SOL    HW2 9360   1.688   1.875   2.993
 2821SOL     OW 9361   4.046   3.234   0.129
 2821SOL    HW1 9362   4.033   3.188   0.217
 2821SOL    HW2 9363   4.137   3.214   0.094
 2822SOL     OW 9364   4.668   2.308   6.639
 2822SOL    HW1 9365   4.661   2.307   6.739
 2822SOL    HW2 9366   4.735   2.241   6.609
 2823SOL     OW 9367   3.584   6.008   0.575
 2823SOL    HW1 9368   3.556   6.009   0.479
 2823SOL    HW2 9369   3.681   6.029   0.581
 2824SOL     OW 9370   3.026   1.226   4.115
 2824SOL    HW1 9371   2.966   1.304   4.094
 2824SOL    HW2 9372   3.092   1.253   4.185
 2825SOL     OW 9373   6.584   0.370   6.836
 2825SOL    HW1 9374   6.557   0.316   6.756
 2825SOL    HW2 9375   6.535   0.337   6.917
 2826SOL     OW 9376   4.849   1.975   0.258
 2826SOL    HW1 9377   4.790   2.051   0.286
 2826SOL    HW2 9378   4.792   1.895   0.237
 2827SOL     OW 9379   6.242   0.635   5.487
 2827SOL    HW1 9380   6.166   0.699   5.474
 2827SOL    HW2 9381   6.238   0.596   5.579
 2828SOL     OW 9382   3.070   1.342   0.462
 2828SOL    HW1 9383   2.992   1.386   0.507
 2828SOL    HW2 9384   3.038   1.261   0.413
 2829SOL     OW 9385   3.566   3.570   5.818
 2829SOL    HW1 9386   3.648   3.519   5.792
 2829SOL    HW2 9387   3.576   3.666   5.792
 2830SOL     OW 9388   0.953   3.210   6.038
 2830SOL    HW1 9389   0.977   3.118   6.069
 2830SOL    HW2 9390   0.897   3.204   5.955
 2831SOL     OW 9391   0.857   5.798   3.370
 2831SOL    HW1 9392   0.906   5.757   3.447
 2831SOL    HW2 9393   0.760   5.777   3.377
 2832SOL     OW 9394   1.078   0.394   2.510
 2832SOL    HW1 9395   1.071   0.465   2.579
 2832SOL    HW2 9396   1.174   0.381   2.484
 2833SOL     OW 9397   4.439   2.409   2.444
 2833SOL    HW1 9398   4.374   2.485   2.451
 2833SOL    HW2 9399   4.423   2.344   2.518
 2834SOL     OW 9400   2.647   5.900   5.504
 2834SOL    HW1 9401   2.675   5.903   5.408
 2834SOL    HW2 9402   2.614   5.808   5.526
 2835SOL     OW 9403   6.596   0.467   2.156
 2835SOL    HW1 9404   6.546   0.404   2.096
 2835SOL    HW2 9405   6.671   0.509   2.106
 2836SOL     OW 9406   5.829   0.267   2.626
 2836SOL    HW1 9407   5.927   0.266   2.644
 2836SOL    HW2 9408   5.805   0.192   2.564
 2837SOL     OW 9409   5.496   3.916   3.275
 2837SOL    HW1 9410   5.581   3.966   3.293
 2837SOL    HW2 9411   5.422   3.957   3.328
 2838SOL     OW 9412   2.178   4.729   0.753
 2838SOL    HW1 9413   2.214   4.647   0.797
 2838SOL    HW2 9414   2.156   4.797   0.823
 2839SOL     OW 9415   6.373   1.437   1.856
 2839SOL    HW1 9416   6.371   1.533   1.827
 2839SOL    HW2 9417   6.279   1.405   1.868
 2840SOL     OW 9418   1.681   0.757   3.293
 2840SOL    HW1 9419   1.694   0.751   3.194
 2840SOL    HW2 9420   1.590   0.794   3.313
 2841SOL     OW 9421   0.459   0.786   6.323
 2841SOL    HW1 9422   0.444   0.884   6.311
 2841SOL    HW2 9423   0.557   0.767   6.322
 2842SOL     OW 9424   7.019   3.957   4.357
 2842SOL    HW1 9425   0.087   3.990   4.332
 2842SOL    HW2 9426   7.011   3.956   4.457
 2843SOL     OW 9427   2.931   1.223   2.944
 2843SOL    HW1 9428   2.882   1.291   2.998
 2843SOL    HW2 9429   3.028   1.246   2.942
 2844SOL     OW 9430   0.579   5.575   0.916
 2844SOL    HW1 9431   0.609   5.558   1.010
 2844SOL    HW2 9432   0.482   5.553   0.908
 2845SOL     OW 9433   0.232   2.709   1.477
 2845SOL    HW1 9434   0.303   2.729   1.409
 2845SOL    HW2 9435   0.252   2.621   1.520
 2846SOL     OW 9436   4.456   1.140   6.705
 2846SOL    HW1 9437   4.509   1.224   6.689
 2846SOL    HW2 9438   4.383   1.159   6.770
 2847SOL     OW 9439   5.055   3.976   3.686
 2847SOL    HW1 9440   5.045   4.009   3.780
 2847SOL    HW2 9441   5.004   3.890   3.676
 2848SOL     OW 9442   1.288   3.182   5.810
 2848SOL    HW1 9443   1.376   3.208   5.771
 2848SOL    HW2 9444   1.303   3.131   5.895
 2849SOL     OW 9445   3.441   6.989   0.853
 2849SOL    HW1 9446   3.361   6.932   0.835
 2849SOL    HW2 9447   3.425   0.022   0.934
 2850SOL     OW 9448   3.354   0.154   2.154
 2850SOL    HW1 9449   3.324   0.194   2.241
 2850SOL    HW2 9450   3.432   0.094   2.170
 2851SOL     OW 9451   7.000   2.224   5.640
 2851SOL    HW1 9452   7.008   2.242   5.738
 2851SOL    HW2 9453   6.998   2.125   5.624
 2852SOL     OW 9454   6.002   4.552   0.188
 2852SOL    HW1 9455   5.934   4.619   0.218
 2852SOL    HW2 9456   6.086   4.599   0.163
 2853SOL     OW 9457   2.114   3.012   6.894
 2853SOL    HW1 9458   2.103   3.007   6.993
 2853SOL    HW2 9459   2.024   3.023   6.850
 2854SOL     OW 9460   3.769   0.880   5.227
 2854SOL    HW1 9461   3.807   0.954   5.283
 2854SOL    HW2 9462   3.809   0.793   5.254
 2855SOL     OW 9463   2.607   0.945   6.693
 2855SOL    HW1 9464   2.513   0.977   6.680
 2855SOL    HW2 9465   2.669   1.001   6.638
 2856SOL     OW 9466   1.938   2.615   6.245
 2856SOL    HW1 9467   1.981   2.702   6.265
 2856SOL    HW2 9468   1.987   2.569   6.170
 2857SOL     OW 9469   3.273   1.525   2.158
 2857SOL    HW1 9470   3.257   1.619   2.185
 2857SOL    HW2 9471   3.222   1.463   2.218
 2858SOL     OW 9472   5.196   4.316   2.700
 2858SOL    HW1 9473   5.176   4.400   2.649
 2858SOL    HW2 9474   5.112   4.263   2.711
 2859SOL     OW 9475   5.120   1.939   0.204
 2859SOL    HW1 9476   5.025   1.961   0.226
 2859SOL    HW2 9477   5.126   1.914   0.108
 2860SOL     OW 9478   3.686   2.092   1.146
 2860SOL    HW1 9479   3.681   2.189   1.122
 2860SOL    HW2 9480   3.780   2.060   1.135
 2861SOL     OW 9481   4.238   4.025   6.289
 2861SOL    HW1 9482   4.243   4.025   6.189
 2861SOL    HW2 9483   4.148   3.991   6.318
 2862SOL     OW 9484   5.435   1.955   3.524
 2862SOL    HW1 9485   5.494   2.035   3.511
 2862SOL    HW2 9486   5.358   1.961   3.461
 2863SOL     OW 9487   4.730   1.745   0.135
 2863SOL    HW1 9488   4.654   1.722   0.195
 2863SOL    HW2 9489   4.799   1.673   0.138
 2864SOL     OW 9490   4.131   1.427   0.887
 2864SOL    HW1 9491   4.192   1.368   0.940
 2864SOL    HW2 9492   4.085   1.492   0.949
 2865SOL     OW 9493   5.231   4.357   5.781
 2865SOL    HW1 9494   5.280   4.388   5.863
 2865SOL    HW2 9495   5.204   4.437   5.727
 2866SOL     OW 9496   6.155   6.202   6.745
 2866SOL    HW1 9497   6.223   6.144   6.701
 2866SOL    HW2 9498   6.201   6.278   6.792
 2867SOL     OW 9499   5.812   3.638   2.492
 2867SOL    HW1 9500   5.737   3.641   2.426
 2867SOL    HW2 9501   5.792   3.700   2.568
 2868SOL     OW 9502   0.154   2.380   5.478
 2868SOL    HW1 9503   0.212   2.414   5.552
 2868SOL    HW2 9504   0.081   2.324   5.516
 2869SOL     OW 9505   6.555   0.900   3.615
 2869SOL    HW1 9506   6.652   0.880   3.604
 2869SOL    HW2 9507   6.528   0.880   3.710
 2870SOL     OW 9508   0.434   1.532   4.645
 2870SOL    HW1 9509   0.412   1.445   4.689
 2870SOL    HW2 9510   0.350   1.577   4.616
 2871SOL     OW 9511   0.573   2.118   0.089
 2871SOL    HW1 9512   0.669   2.098   0.111
 2871SOL    HW2 9513   0.547   2.068   0.006
 2872SOL     OW 9514   3.202   1.316   2.975
 2872SOL    HW1 9515   3.291   1.357   2.956
 2872SOL    HW2 9516   3.143   1.383   3.020
 2873SOL     OW 9517   6.694   4.836   2.639
 2873SOL    HW1 9518   6.702   4.740   2.665
 2873SOL    HW2 9519   6.646   4.886   2.711
 2874SOL     OW 9520   3.631   6.216   3.650
 2874SOL    HW1 9521   3.643   6.307   3.612
 2874SOL    HW2 9522   3.539   6.208   3.688
 2875SOL     OW 9523   5.009   6.829   0.666
 2875SOL    HW1 9524   5.027   6.868   0.757
 2875SOL    HW2 9525   5.075   6.756   0.648
 2876SOL     OW 9526   0.764   0.337   1.505
 2876SOL    HW1 9527   0.674   0.302   1.477
 2876SOL    HW2 9528   0.815   0.264   1.551
 2877SOL     OW 9529   3.617   2.816   5.369
 2877SOL    HW1 9530   3.688   2.792   5.303
 2877SOL    HW2 9531   3.617   2.916   5.381
 2878SOL     OW 9532   4.224   5.405   4.535
 2878SOL    HW1 9533   4.273   5.485   4.570
 2878SOL    HW2 9534   4.290   5.333   4.512
 2879SOL     OW 9535   5.054   4.657   0.806
 2879SOL    HW1 9536   5.093   4.622   0.720
 2879SOL    HW2 9537   4.972   4.710   0.786
 2880SOL     OW 9538   6.064   6.847   1.313
 2880SOL    HW1 9539   6.007   6.927   1.292
 2880SOL    HW2 9540   6.160   6.876   1.319
 2881SOL     OW 9541   5.290   6.203   0.035
 2881SOL    HW1 9542   5.333   6.276   7.005
 2881SOL    HW2 9543   5.282   6.231   0.131
 2882SOL     OW 9544   0.565   4.430   2.282
 2882SOL    HW1 9545   0.492   4.361   2.279
 2882SOL    HW2 9546   0.612   4.434   2.194
 2883SOL     OW 9547   6.056   6.399   3.583
 2883SOL    HW1 9548   6.121   6.347   3.527
 2883SOL    HW2 9549   5.978   6.341   3.606
 2884SOL     OW 9550   0.751   5.523   3.132
 2884SOL    HW1 9551   0.675   5.586   3.117
 2884SOL    HW2 9552   0.747   5.487   3.225
 2885SOL     OW 9553   0.779   3.418   2.733
 2885SOL    HW1 9554   0.732   3.338   2.771
 2885SOL    HW2 9555   0.809   3.478   2.807
 2886SOL     OW 9556   2.761   3.759   5.896
 2886SOL    HW1 9557   2.717   3.840   5.857
 2886SOL    HW2 9558   2.856   3.753   5.862
 2887SOL     OW 9559   1.201   0.042   4.730
 2887SOL    HW1 9560   1.198   0.117   4.663
 2887SOL    HW2 9561   1.115   0.040   4.781
 2888SOL     OW 9562   0.695   4.443   0.401
 2888SOL    HW1 9563   0.753   4.507   0.452
 2888SOL    HW2 9564   0.670   4.366   0.459
 2889SOL     OW 9565   2.052   6.726   2.070
 2889SOL    HW1 9566   2.150   6.708   2.064
 2889SOL    HW2 9567   2.021   6.771   1.986
 2890SOL     OW 9568   2.671   6.864   0.798
 2890SOL    HW1 9569   2.614   6.805   0.741
 2890SOL    HW2 9570   2.705   6.811   0.876
 2891SOL     OW 9571   1.797   4.023   3.312
 2891SOL    HW1 9572   1.796   4.120   3.339
 2891SOL    HW2 9573   1.875   3.977   3.353
 2892SOL     OW 9574   5.483   3.353   6.867
 2892SOL    HW1 9575   5.485   3.388   6.961
 2892SOL    HW2 9576   5.437   3.420   6.808
 2893SOL     OW 9577   0.319   6.623   5.006
 2893SOL    HW1 9578   0.318   6.708   4.953
 2893SOL    HW2 9579   0.321   6.645   5.104
 2894SOL     OW 9580   2.763   3.224   0.398
 2894SOL    HW1 9581   2.727   3.235   0.306
 2894SOL    HW2 9582   2.729   3.298   0.457
 2895SOL     OW 9583   4.262   3.045   6.342
 2895SOL    HW1 9584   4.182   2.999   6.380
 2895SOL    HW2 9585   4.316   2.981   6.288
 2896SOL     OW 9586   4.076   5.164   6.814
 2896SOL    HW1 9587   4.018   5.105   6.759
 2896SOL    HW2 9588   4.071   5.136   6.910
 2897SOL     OW 9589   3.611   5.321   3.488
 2897SOL    HW1 9590   3.532   5.355   3.437
 2897SOL    HW2 9591   3.694   5.363   3.453
 2898SOL     OW 9592   4.045   6.130   4.084
 2898SOL    HW1 9593   4.002   6.135   3.994
 2898SOL    HW2 9594   4.042   6.035   4.117
 2899SOL     OW 9595   1.056   1.788   0.402
 2899SOL    HW1 9596   1.002   1.870   0.420
 2899SOL    HW2 9597   1.125   1.807   0.333
 2900SOL     OW 9598   2.110   5.078   5.506
 2900SOL    HW1 9599   2.028   5.065   5.451
 2900SOL    HW2 9600   2.131   4.994   5.556
 2901SOL     OW 9601   2.139   6.863   3.719
 2901SOL    HW1 9602   2.095   6.787   3.767
 2901SOL    HW2 9603   2.174   6.832   3.631
 2902SOL     OW 9604   4.857   6.505   1.499
 2902SOL    HW1 9605   4.881   6.502   1.402
 2902SOL    HW2 9606   4.821   6.416   1.527
 2903SOL     OW 9607   2.806   0.844   0.556
 2903SOL    HW1 9608   2.792   0.779   0.482
 2903SOL    HW2 9609   2.792   0.798   0.644
 2904SOL     OW 9610   2.209   3.736   5.198
 2904SOL    HW1 9611   2.167   3.723   5.287
 2904SOL    HW2 9612   2.282   3.805   5.205
 2905SOL     OW 9613   1.425   2.341   3.340
 2905SOL    HW1 9614   1.348   2.379   3.392
 2905SOL    HW2 9615   1.505   2.333   3.399
 2906SOL     OW 9616   5.065   5.471   2.271
 2906SOL    HW1 9617   4.982   5.498   2.320
 2906SOL    HW2 9618   5.141   5.529   2.300
 2907SOL     OW 9619   0.495   1.496   4.257
 2907SOL    HW1 9620   0.552   1.521   4.335
 2907SOL    HW2 9621   0.448   1.578   4.223
 2908SOL     OW 9622   4.605   6.604   4.169
 2908SOL    HW1 9623   4.509   6.602   4.198
 2908SOL    HW2 9624   4.643   6.512   4.173
 2909SOL     OW 9625   0.427   6.381   3.728
 2909SOL    HW1 9626   0.403   6.373   3.631
 2909SOL    HW2 9627   0.508   6.438   3.738
 2910SOL     OW 9628   4.865   6.264   4.708
 2910SOL    HW1 9629   4.775   6.300   4.684
 2910SOL    HW2 9630   4.885   6.183   4.652
 2911SOL     OW 9631   1.982   5.597   3.403
 2911SOL    HW1 9632   2.046   5.639   3.468
 2911SOL    HW2 9633   1.895   5.579   3.448
 2912SOL     OW 9634   4.442   6.747   6.343
 2912SOL    HW1 9635   4.448   6.835   6.297
 2912SOL    HW2 9636   4.352   6.736   6.384
 2913SOL     OW 9637   2.040   4.646   2.881
 2913SOL    HW1 9638   2.040   4.734   2.832
 2913SOL    HW2 9639   2.041   4.571   2.814
 2914SOL     OW 9640   5.992   6.525   5.866
 2914SOL    HW1 9641   5.947   6.498   5.951
 2914SOL    HW2 9642   5.974   6.457   5.795
 2915SOL     OW 9643   5.536   1.413   5.136
 2915SOL    HW1 9644   5.476   1.337   5.158
 2915SOL    HW2 9645   5.529   1.483   5.207
 2916SOL     OW 9646   6.625   6.075   6.367
 2916SOL    HW1 9647   6.587   6.024   6.445
 2916SOL    HW2 9648   6.570   6.058   6.286
 2917SOL     OW 9649   4.010   6.495   2.103
 2917SOL    HW1 9650   4.097   6.473   2.059
 2917SOL    HW2 9651   4.028   6.536   2.192
 2918SOL     OW 9652   6.953   4.003   3.738
 2918SOL    HW1 9653   6.931   4.095   3.771
 2918SOL    HW2 9654   0.028   3.986   3.752
 2919SOL     OW 9655   6.824   1.022   0.999
 2919SOL    HW1 9656   6.856   1.077   1.077
 2919SOL    HW2 9657   6.825   1.078   0.916
 2920SOL     OW 9658   2.900   1.820   2.100
 2920SOL    HW1 9659   2.969   1.840   2.170
 2920SOL    HW2 9660   2.873   1.905   2.055
 2921SOL     OW 9661   1.078   0.467   3.048
 2921SOL    HW1 9662   1.057   0.561   3.021
 2921SOL    HW2 9663   1.066   0.406   2.970
 2922SOL     OW 9664   5.056   0.175   0.162
 2922SOL    HW1 9665   5.126   0.157   0.092
 2922SOL    HW2 9666   5.086   0.251   0.220
 2923SOL     OW 9667   6.922   4.845   1.822
 2923SOL    HW1 9668   6.921   4.748   1.796
 2923SOL    HW2 9669   6.851   4.894   1.772
 2924SOL     OW 9670   0.679   1.655   6.907
 2924SOL    HW1 9671   0.756   1.664   6.969
 2924SOL    HW2 9672   0.650   1.560   6.903
 2925SOL     OW 9673   4.663   0.978   3.456
 2925SOL    HW1 9674   4.572   0.989   3.415
 2925SOL    HW2 9675   4.731   1.022   3.398
 2926SOL     OW 9676   6.994   1.354   4.713
 2926SOL    HW1 9677   6.917   1.330   4.654
 2926SOL    HW2 9678   0.046   1.290   4.697
 2927SOL     OW 9679   1.444   1.528   2.809
 2927SOL    HW1 9680   1.465   1.515   2.906
 2927SOL    HW2 9681   1.454   1.624   2.785
 2928SOL     OW 9682   0.094   2.500   5.821
 2928SOL    HW1 9683   0.030   2.577   5.815
 2928SOL    HW2 9684   0.173   2.518   5.763
 2929SOL     OW 9685   0.371   1.036   6.294
 2929SOL    HW1 9686   0.395   1.099   6.367
 2929SOL    HW2 9687   0.305   1.080   6.232
 2930SOL     OW 9688   4.191   6.472   5.104
 2930SOL    HW1 9689   4.169   6.403   5.035
 2930SOL    HW2 9690   4.108   6.496   5.155
 2931SOL     OW 9691   5.464   5.051   0.569
 2931SOL    HW1 9692   5.552   5.054   0.617
 2931SOL    HW2 9693   5.417   5.138   0.582
 2932SOL     OW 9694   1.507   5.329   1.607
 2932SOL    HW1 9695   1.603   5.303   1.599
 2932SOL    HW2 9696   1.483   5.391   1.533
 2933SOL     OW 9697   6.211   4.195   3.107
 2933SOL    HW1 9698   6.212   4.148   3.018
 2933SOL    HW2 9699   6.293   4.169   3.159
 2934SOL     OW 9700   4.560   1.331   0.130
 2934SOL    HW1 9701   4.583   1.347   0.226
 2934SOL    HW2 9702   4.522   1.415   0.091
 2935SOL     OW 9703   6.098   3.476   1.366
 2935SOL    HW1 9704   6.163   3.484   1.441
 2935SOL    HW2 9705   6.094   3.563   1.316
 2936SOL     OW 9706   4.154   5.058   2.257
 2936SOL    HW1 9707   4.219   4.982   2.256
 2936SOL    HW2 9708   4.066   5.026   2.293
 2937SOL     OW 9709   3.905   5.057   0.291
 2937SOL    HW1 9710   3.837   5.002   0.339
 2937SOL    HW2 9711   3.940   5.128   0.352
 2938SOL     OW 9712   5.193   4.970   5.891
 2938SOL    HW1 9713   5.097   4.961   5.864
 2938SOL    HW2 9714   5.201   5.040   5.962
 2939SOL     OW 9715   0.482   0.184   4.164
 2939SOL    HW1 9716   0.500   0.191   4.262
 2939SOL    HW2 9717   0.441   0.095   4.144
 2940SOL     OW 9718   6.042   6.549   6.235
 2940SOL    HW1 9719   6.136   6.519   6.248
 2940SOL    HW2 9720   6.040   6.647   6.218
 2941SOL     OW 9721   2.297   2.529   4.076
 2941SOL    HW1 9722   2.208   2.562   4.045
 2941SOL    HW2 9723   2.293   2.430   4.088
 2942SOL     OW 9724   3.040   2.110   1.495
 2942SOL    HW1 9725   3.140   2.114   1.491
 2942SOL    HW2 9726   3.003   2.120   1.403
 2943SOL     OW 9727   5.896   4.377   2.706
 2943SOL    HW1 9728   5.926   4.471   2.723
 2943SOL    HW2 9729   5.892   4.328   2.793
 2944SOL     OW 9730   2.483   5.924   5.200
 2944SOL    HW1 9731   2.463   5.921   5.102
 2944SOL    HW2 9732   2.574   5.964   5.214
 2945SOL     OW 9733   3.677   3.931   4.112
 2945SOL    HW1 9734   3.764   3.934   4.161
 2945SOL    HW2 9735   3.633   4.021   4.117
 2946SOL     OW 9736   1.135   5.629   7.022
 2946SOL    HW1 9737   1.221   5.628   6.971
 2946SOL    HW2 9738   1.117   5.721   0.033
 2947SOL     OW 9739   0.645   3.506   6.514
 2947SOL    HW1 9740   0.572   3.462   6.462
 2947SOL    HW2 9741   0.724   3.445   6.518
 2948SOL     OW 9742   6.833   4.894   5.701
 2948SOL    HW1 9743   6.922   4.893   5.746
 2948SOL    HW2 9744   6.774   4.824   5.742
 2949SOL     OW 9745   2.948   5.851   1.267
 2949SOL    HW1 9746   3.037   5.849   1.310
 2949SOL    HW2 9747   2.891   5.922   1.309
 2950SOL     OW 9748   4.862   4.110   4.708
 2950SOL    HW1 9749   4.899   4.195   4.670
 2950SOL    HW2 9750   4.840   4.124   4.805
 2951SOL     OW 9751   6.123   2.583   1.080
 2951SOL    HW1 9752   6.086   2.491   1.093
 2951SOL    HW2 9753   6.084   2.624   0.997
 2952SOL     OW 9754   0.626   5.810   5.231
 2952SOL    HW1 9755   0.699   5.741   5.224
 2952SOL    HW2 9756   0.667   5.901   5.241
 2953SOL     OW 9757   4.884   3.454   3.701
 2953SOL    HW1 9758   4.892   3.484   3.606
 2953SOL    HW2 9759   4.886   3.354   3.704
 2954SOL     OW 9760   0.601   5.683   1.799
 2954SOL    HW1 9761   0.560   5.652   1.714
 2954SOL    HW2 9762   0.531   5.691   1.870
 2955SOL     OW 9763   0.941   3.997   1.433
 2955SOL    HW1 9764   0.961   4.090   1.461
 2955SOL    HW2 9765   1.020   3.938   1.451
 2956SOL     OW 9766   6.062   6.349   3.057
 2956SOL    HW1 9767   6.102   6.404   3.130
 2956SOL    HW2 9768   5.986   6.296   3.094
 2957SOL     OW 9769   6.345   3.170   2.001
 2957SOL    HW1 9770   6.302   3.203   1.917
 2957SOL    HW2 9771   6.352   3.245   2.067
 2958SOL     OW 9772   2.325   4.479   4.567
 2958SOL    HW1 9773   2.345   4.487   4.664
 2958SOL    HW2 9774   2.407   4.504   4.514
 2959SOL     OW 9775   4.510   4.633   0.763
 2959SOL    HW1 9776   4.459   4.705   0.716
 2959SOL    HW2 9777   4.578   4.594   0.700
 2960SOL     OW 9778   3.932   6.696   6.374
 2960SOL    HW1 9779   3.982   6.629   6.319
 2960SOL    HW2 9780   3.845   6.717   6.329
 2961SOL     OW 9781   4.678   2.244   4.448
 2961SOL    HW1 9782   4.639   2.242   4.540
 2961SOL    HW2 9783   4.776   2.224   4.453
 2962SOL     OW 9784   4.406   0.511   3.538
 2962SOL    HW1 9785   4.355   0.428   3.556
 2962SOL    HW2 9786   4.460   0.536   3.619
 2963SOL     OW 9787   2.030   1.357   6.022
 2963SOL    HW1 9788   2.020   1.278   6.082
 2963SOL    HW2 9789   1.952   1.419   6.035
 2964SOL     OW 9790   6.824   0.395   2.463
 2964SOL    HW1 9791   6.810   0.464   2.392
 2964SOL    HW2 9792   6.900   0.423   2.522
 2965SOL     OW 9793   7.013   0.790   4.563
 2965SOL    HW1 9794   0.067   0.845   4.531
 2965SOL    HW2 9795   6.929   0.823   4.520
 2966SOL     OW 9796   5.689   5.404   4.457
 2966SOL    HW1 9797   5.760   5.460   4.501
 2966SOL    HW2 9798   5.711   5.391   4.361
 2967SOL     OW 9799   6.157   2.034   4.631
 2967SOL    HW1 9800   6.197   2.065   4.545
 2967SOL    HW2 9801   6.197   1.946   4.657
 2968SOL     OW 9802   0.784   3.242   6.399
 2968SOL    HW1 9803   0.853   3.287   6.455
 2968SOL    HW2 9804   0.737   3.173   6.453
 2969SOL     OW 9805   6.175   1.351   5.028
 2969SOL    HW1 9806   6.101   1.289   5.001
 2969SOL    HW2 9807   6.166   1.375   5.124
 2970SOL     OW 9808   0.849   3.604   6.193
 2970SOL    HW1 9809   0.780   3.530   6.191
 2970SOL    HW2 9810   0.907   3.593   6.274
 2971SOL     OW 9811   5.794   3.740   6.008
 2971SOL    HW1 9812   5.785   3.662   6.069
 2971SOL    HW2 9813   5.891   3.759   5.991
 2972SOL     OW 9814   6.684   4.748   6.331
 2972SOL    HW1 9815   6.609   4.771   6.393
 2972SOL    HW2 9816   6.698   4.649   6.331
 2973SOL     OW 9817   5.324   1.080   4.173
 2973SOL    HW1 9818   5.341   1.069   4.271
 2973SOL    HW2 9819   5.351   1.172   4.145
 2974SOL     OW 9820   0.769   4.054   2.541
 2974SOL    HW1 9821   0.791   4.129   2.478
 2974SOL    HW2 9822   0.810   4.073   2.631
 2975SOL     OW 9823   0.278   2.448   4.652
 2975SOL    HW1 9824   0.227   2.410   4.576
 2975SOL    HW2 9825   0.349   2.383   4.681
 2976SOL     OW 9826   4.214   1.908   3.193
 2976SOL    HW1 9827   4.175   1.861   3.114
 2976SOL    HW2 9828   4.256   1.842   3.255
 2977SOL     OW 9829   1.899   6.597   4.085
 2977SOL    HW1 9830   1.900   6.510   4.136
 2977SOL    HW2 9831   1.809   6.640   4.095
 2978SOL     OW 9832   4.415   4.736   6.768
 2978SOL    HW1 9833   4.422   4.739   6.668
 2978SOL    HW2 9834   4.496   4.779   6.807
 2979SOL     OW 9835   5.185   6.851   4.210
 2979SOL    HW1 9836   5.242   6.783   4.258
 2979SOL    HW2 9837   5.174   6.932   4.267
 2980SOL     OW 9838   1.151   6.316   3.561
 2980SOL    HW1 9839   1.228   6.293   3.620
 2980SOL    HW2 9840   1.170   6.284   3.468
 2981SOL     OW 9841   1.649   1.515   5.771
 2981SOL    HW1 9842   1.632   1.583   5.842
 2981SOL    HW2 9843   1.634   1.557   5.681
 2982SOL     OW 9844   4.576   5.625   3.193
 2982SOL    HW1 9845   4.554   5.580   3.106
 2982SOL    HW2 9846   4.550   5.721   3.189
 2983SOL     OW 9847   0.753   1.338   3.872
 2983SOL    HW1 9848   0.806   1.375   3.949
 2983SOL    HW2 9849   0.655   1.344   3.894
 2984SOL     OW 9850   5.287   5.587   1.587
 2984SOL    HW1 9851   5.287   5.529   1.505
 2984SOL    HW2 9852   5.192   5.608   1.612
 2985SOL     OW 9853   1.420   2.330   5.197
 2985SOL    HW1 9854   1.495   2.385   5.233
 2985SOL    HW2 9855   1.391   2.367   5.108
 2986SOL     OW 9856   2.324   4.267   6.410
 2986SOL    HW1 9857   2.242   4.230   6.455
 2986SOL    HW2 9858   2.314   4.366   6.398
 2987SOL     OW 9859   5.576   1.038   3.826
 2987SOL    HW1 9860   5.603   0.985   3.746
 2987SOL    HW2 9861   5.477   1.051   3.826
 2988SOL     OW 9862   0.739   6.628   2.928
 2988SOL    HW1 9863   0.683   6.635   3.011
 2988SOL    HW2 9864   0.716   6.543   2.879
 2989SOL     OW 9865   6.657   6.457   0.534
 2989SOL    HW1 9866   6.694   6.540   0.578
 2989SOL    HW2 9867   6.566   6.477   0.497
 2990SOL     OW 9868   4.565   1.728   4.232
 2990SOL    HW1 9869   4.605   1.644   4.195
 2990SOL    HW2 9870   4.553   1.795   4.159
 2991SOL     OW 9871   6.868   3.939   6.409
 2991SOL    HW1 9872   6.821   4.024   6.433
 2991SOL    HW2 9873   6.962   3.942   6.442
 2992SOL     OW 9874   1.930   4.871   5.771
 2992SOL    HW1 9875   1.874   4.946   5.806
 2992SOL    HW2 9876   2.024   4.881   5.806
 2993SOL     OW 9877   0.947   5.152   1.296
 2993SOL    HW1 9878   0.910   5.066   1.331
 2993SOL    HW2 9879   0.994   5.135   1.209
 2994SOL     OW 9880   3.723   6.999   0.324
 2994SOL    HW1 9881   3.815   6.991   0.363
 2994SOL    HW2 9882   3.684   0.065   0.348
 2995SOL     OW 9883   1.859   4.092   6.724
 2995SOL    HW1 9884   1.770   4.045   6.728
 2995SOL    HW2 9885   1.932   4.024   6.724
 2996SOL     OW 9886   2.138   7.013   3.957
 2996SOL    HW1 9887   2.220   0.035   3.993
 2996SOL    HW2 9888   2.165   6.947   3.887
 2997SOL     OW 9889   5.189   0.403   2.264
 2997SOL    HW1 9890   5.165   0.487   2.312
 2997SOL    HW2 9891   5.242   0.425   2.182
 2998SOL     OW 9892   5.304   6.818   4.599
 2998SOL    HW1 9893   5.213   6.777   4.589
 2998SOL    HW2 9894   5.364   6.754   4.645
 2999SOL     OW 9895   3.132   4.866   4.116
 2999SOL    HW1 9896   3.210   4.888   4.174
 2999SOL    HW2 9897   3.050   4.857   4.172
 3000SOL     OW 9898   2.041   4.140   6.457
 3000SOL    HW1 9899   1.987   4.189   6.525
 3000SOL    HW2 9900   2.005   4.160   6.366
 3001SOL     OW 9901   5.557   5.783   6.688
 3001SOL    HW1 9902   5.586   5.872   6.722
 3001SOL    HW2 9903   5.608   5.761   6.604
 3002SOL     OW 9904   3.839   0.183   6.170
 3002SOL    HW1 9905   3.762   0.246   6.158
 3002SOL    HW2 9906   3.903   0.194   6.094
 3003SOL     OW 9907   2.085   0.201   6.721
 3003SOL    HW1 9908   2.086   0.281   6.661
 3003SOL    HW2 9909   2.122   0.122   6.672
 3004SOL     OW 9910   1.278   5.076   3.758
 3004SOL    HW1 9911   1.262   5.049   3.663
 3004SOL    HW2 9912   1.377   5.076   3.777
 3005SOL     OW 9913   2.863   2.333   0.475
 3005SOL    HW1 9914   2.863   2.287   0.386
 3005SOL    HW2 9915   2.872   2.432   0.461
 3006SOL     OW 9916   5.517   2.335   6.772
 3006SOL    HW1 9917   5.437   2.329   6.832
 3006SOL    HW2 9918   5.490   2.310   6.679
 3007SOL     OW 9919   5.580   5.183   1.614
 3007SOL    HW1 9920   5.502   5.183   1.677
 3007SOL    HW2 9921   5.634   5.100   1.628
 3008SOL     OW 9922   3.148   0.797   6.466
 3008SOL    HW1 9923   3.210   0.719   6.478
 3008SOL    HW2 9924   3.195   0.869   6.416
 3009SOL     OW 9925   0.484   0.146   3.153
 3009SOL    HW1 9926   0.571   0.122   3.195
 3009SOL    HW2 9927   0.409   0.113   3.209
 3010SOL     OW 9928   3.370   6.479   3.774
 3010SOL    HW1 9929   3.342   6.565   3.816
 3010SOL    HW2 9930   3.333   6.473   3.682
 3011SOL     OW 9931   5.583   1.215   1.208
 3011SOL    HW1 9932   5.504   1.162   1.175
 3011SOL    HW2 9933   5.609   1.283   1.139
 3012SOL     OW 9934   0.788   3.465   4.880
 3012SOL    HW1 9935   0.786   3.560   4.911
 3012SOL    HW2 9936   0.818   3.462   4.785
 3013SOL     OW 9937   5.116   5.703   4.790
 3013SOL    HW1 9938   5.203   5.750   4.803
 3013SOL    HW2 9939   5.104   5.634   4.861
 3014SOL     OW 9940   4.945   3.639   4.524
 3014SOL    HW1 9941   4.942   3.563   4.460
 3014SOL    HW2 9942   4.909   3.721   4.480
 3015SOL     OW 9943   2.538   2.515   0.302
 3015SOL    HW1 9944   2.545   2.551   0.395
 3015SOL    HW2 9945   2.555   2.416   0.304
 3016SOL     OW 9946   2.742   5.510   3.763
 3016SOL    HW1 9947   2.679   5.533   3.689
 3016SOL    HW2 9948   2.830   5.556   3.749
 3017SOL     OW 9949   1.189   5.359   1.891
 3017SOL    HW1 9950   1.136   5.284   1.853
 3017SOL    HW2 9951   1.280   5.326   1.918
 3018SOL     OW 9952   1.772   6.431   5.437
 3018SOL    HW1 9953   1.831   6.424   5.356
 3018SOL    HW2 9954   1.677   6.416   5.409
 3019SOL     OW 9955   1.932   6.641   7.004
 3019SOL    HW1 9956   1.842   6.598   6.997
 3019SOL    HW2 9957   1.968   6.658   6.913
 3020SOL     OW 9958   4.140   3.731   1.789
 3020SOL    HW1 9959   4.239   3.728   1.774
 3020SOL    HW2 9960   4.110   3.643   1.827
 3021SOL     OW 9961   3.555   0.296   6.687
 3021SOL    HW1 9962   3.609   0.235   6.629
 3021SOL    HW2 9963   3.527   0.246   6.769
 3022SOL     OW 9964   4.029   5.380   4.081
 3022SOL    HW1 9965   4.043   5.379   4.180
 3022SOL    HW2 9966   3.986   5.294   4.053
 3023SOL     OW 9967   4.756   0.112   2.528
 3023SOL    HW1 9968   4.793   0.089   2.439
 3023SOL    HW2 9969   4.680   0.176   2.517
 3024SOL     OW 9970   4.047   6.381   5.826
 3024SOL    HW1 9971   3.995   6.297   5.841
 3024SOL    HW2 9972   4.128   6.360   5.771
 3025SOL     OW 9973   3.908   1.238   0.448
 3025SOL    HW1 9974   3.919   1.231   0.349
 3025SOL    HW2 9975   3.828   1.293   0.469
 3026SOL     OW 9976   1.981   1.977   0.659
 3026SOL    HW1 9977   2.063   2.031   0.641
 3026SOL    HW2 9978   1.998   1.918   0.738
 3027SOL     OW 9979   4.198   0.431   2.156
 3027SOL    HW1 9980   4.257   0.445   2.236
 3027SOL    HW2 9981   4.254   0.405   2.077
 3028SOL     OW 9982   1.920   3.446   6.044
 3028SOL    HW1 9983   1.915   3.457   6.143
 3028SOL    HW2 9984   1.953   3.354   6.023
 3029SOL     OW 9985   0.222   4.378   4.545
 3029SOL    HW1 9986   0.228   4.415   4.453
 3029SOL    HW2 9987   0.188   4.449   4.608
 3030SOL     OW 9988   1.168   2.428   5.790
 3030SOL    HW1 9989   1.253   2.433   5.842
 3030SOL    HW2 9990   1.162   2.338   5.746
 3031SOL     OW 9991   0.319   2.884   0.672
 3031SOL    HW1 9992   0.409   2.888   0.716
 3031SOL    HW2 9993   0.305   2.967   0.619
 3032SOL     OW 9994   4.572   6.610   1.591
 3032SOL    HW1 9995   4.523   6.695   1.571
 3032SOL    HW2 9996   4.665   6.616   1.555
 3033SOL     OW 9997   0.247   2.200   1.637
 3033SOL    HW1 9998   0.174   2.212   1.705
 3033SOL    HW2 9999   0.335   2.221   1.679
 3034SOL     OW10000   2.021   5.810   3.814
 3034SOL    HW110001   2.106   5.807   3.762
 3034SOL    HW210002   1.943   5.805   3.752
 3035SOL     OW10003   6.870   2.880   0.143
 3035SOL    HW110004   6.889   2.782   0.136
 3035SOL    HW210005   6.943   2.932   0.098
 3036SOL     OW10006   1.682   2.986   6.160
 3036SOL    HW110007   1.657   3.017   6.069
 3036SOL    HW210008   1.661   3.058   6.227
 3037SOL     OW10009   0.668   5.974   4.378
 3037SOL    HW110010   0.616   5.909   4.322
 3037SOL    HW210011   0.735   6.021   4.321
 3038SOL     OW10012   5.747   5.742   6.498
 3038SOL    HW110013   5.808   5.689   6.557
 3038SOL    HW210014   5.800   5.808   6.446
 3039SOL     OW10015   0.060   4.062   1.751
 3039SOL    HW110016   0.095   3.970   1.735
 3039SOL    HW210017   0.002   4.063   1.833
 3040SOL     OW10018   4.697   3.528   6.356
 3040SOL    HW110019   4.730   3.532   6.262
 3040SOL    HW210020   4.686   3.621   6.392
 3041SOL     OW10021   2.289   2.914   4.739
 3041SOL    HW110022   2.295   2.896   4.838
 3041SOL    HW210023   2.358   2.859   4.692
 3042SOL     OW10024   5.257   6.761   1.461
 3042SOL    HW110025   5.208   6.798   1.382
 3042SOL    HW210026   5.350   6.737   1.435
 3043SOL     OW10027   0.921   5.726   1.336
 3043SOL    HW110028   0.967   5.644   1.300
 3043SOL    HW210029   0.902   5.713   1.433
 3044SOL     OW10030   3.399   4.554   6.157
 3044SOL    HW110031   3.387   4.540   6.255
 3044SOL    HW210032   3.324   4.509   6.107
 3045SOL     OW10033   4.780   1.351   2.958
 3045SOL    HW110034   4.762   1.276   3.022
 3045SOL    HW210035   4.878   1.353   2.937
 3046SOL     OW10036   2.718   2.070   6.673
 3046SOL    HW110037   2.634   2.022   6.646
 3046SOL    HW210038   2.755   2.119   6.593
 3047SOL     OW10039   5.274   6.958   2.315
 3047SOL    HW110040   5.319   6.890   2.373
 3047SOL    HW210041   5.271   0.023   2.364
 3048SOL     OW10042   3.901   2.369   1.755
 3048SOL    HW110043   3.913   2.466   1.734
 3048SOL    HW210044   3.815   2.355   1.805
 3049SOL     OW10045   1.092   6.682   1.770
 3049SOL    HW110046   1.004   6.715   1.805
 3049SOL    HW210047   1.130   6.749   1.707
 3050SOL     OW10048   3.508   0.938   2.569
 3050SOL    HW110049   3.521   0.873   2.494
 3050SOL    HW210050   3.411   0.957   2.580
 3051SOL     OW10051   2.300   3.970   6.548
 3051SOL    HW110052   2.393   3.940   6.528
 3051SOL    HW210053   2.237   3.932   6.479
 3052SOL     OW10054   4.786   0.372   2.141
 3052SOL    HW110055   4.811   0.454   2.193
 3052SOL    HW210056   4.860   0.305   2.146
 3053SOL     OW10057   0.059   1.552   6.797
 3053SOL    HW110058   0.105   1.584   6.880
 3053SOL    HW210059   0.037   1.455   6.806
 3054SOL     OW10060   6.779   2.393   1.342
 3054SOL    HW110061   6.869   2.351   1.331
 3054SOL    HW210062   6.746   2.379   1.435
 3055SOL     OW10063   5.108   0.147   3.796
 3055SOL    HW110064   5.148   0.065   3.756
 3055SOL    HW210065   5.107   0.139   3.895
 3056SOL     OW10066   6.188   1.863   5.404
 3056SOL    HW110067   6.281   1.825   5.403
 3056SOL    HW210068   6.165   1.896   5.313
 3057SOL     OW10069   4.240   6.022   3.521
 3057SOL    HW110070   4.147   6.041   3.489
 3057SOL    HW210071   4.241   6.014   3.620
 3058SOL     OW10072   0.301   5.485   0.951
 3058SOL    HW110073   0.271   5.468   1.045
 3058SOL    HW210074   0.226   5.527   0.899
 3059SOL     OW10075   2.069   2.390   4.372
 3059SOL    HW110076   2.028   2.307   4.334
 3059SOL    HW210077   2.157   2.367   4.414
 3060SOL     OW10078   0.814   5.577   0.261
 3060SOL    HW110079   0.828   5.591   0.359
 3060SOL    HW210080   0.854   5.654   0.211
 3061SOL     OW10081   5.640   0.710   5.648
 3061SOL    HW110082   5.704   0.633   5.640
 3061SOL    HW210083   5.639   0.742   5.743
 3062SOL     OW10084   1.619   6.547   6.991
 3062SOL    HW110085   1.652   6.593   6.909
 3062SOL    HW210086   1.522   6.568   7.005
 3063SOL     OW10087   2.661   5.356   1.843
 3063SOL    HW110088   2.624   5.361   1.935
 3063SOL    HW210089   2.749   5.308   1.844
 3064SOL     OW10090   5.422   3.587   4.141
 3064SOL    HW110091   5.469   3.514   4.191
 3064SOL    HW210092   5.355   3.546   4.079
 3065SOL     OW10093   2.169   0.701   6.604
 3065SOL    HW110094   2.159   0.780   6.664
 3065SOL    HW210095   2.239   0.720   6.535
 3066SOL     OW10096   5.237   4.968   0.712
 3066SOL    HW110097   5.323   4.993   0.666
 3066SOL    HW210098   5.251   4.886   0.767
 3067SOL     OW10099   3.581   2.061   4.758
 3067SOL    HW110100   3.589   1.962   4.755
 3067SOL    HW210101   3.610   2.094   4.848
 3068SOL     OW10102   5.386   6.365   0.856
 3068SOL    HW110103   5.389   6.334   0.951
 3068SOL    HW210104   5.479   6.383   0.824
 3069SOL     OW10105   6.801   6.347   2.117
 3069SOL    HW110106   6.879   6.321   2.061
 3069SOL    HW210107   6.716   6.328   2.067
 3070SOL     OW10108   0.893   1.038   2.254
 3070SOL    HW110109   0.952   1.065   2.178
 3070SOL    HW210110   0.798   1.061   2.231
 3071SOL     OW10111   5.899   6.108   3.477
 3071SOL    HW110112   5.842   6.130   3.556
 3071SOL    HW210113   5.994   6.094   3.506
 3072SOL     OW10114   1.378   6.571   0.443
 3072SOL    HW110115   1.431   6.491   0.417
 3072SOL    HW210116   1.427   6.655   0.418
 3073SOL     OW10117   6.956   3.486   5.121
 3073SOL    HW110118   6.857   3.469   5.129
 3073SOL    HW210119   6.977   3.576   5.160
 3074SOL     OW10120   5.088   3.168   0.919
 3074SOL    HW110121   4.995   3.201   0.936
 3074SOL    HW210122   5.133   3.229   0.854
 3075SOL     OW10123   2.280   6.001   1.741
 3075SOL    HW110124   2.301   5.903   1.753
 3075SOL    HW210125   2.334   6.054   1.805
 3076SOL     OW10126   6.923   1.142   4.338
 3076SOL    HW110127   6.829   1.110   4.331
 3076SOL    HW210128   6.964   1.109   4.423
 3077SOL     OW10129   4.873   5.271   2.870
 3077SOL    HW110130   4.968   5.238   2.878
 3077SOL    HW210131   4.820   5.239   2.948
 3078SOL     OW10132   1.175   3.043   1.224
 3078SOL    HW110133   1.140   3.007   1.311
 3078SOL    HW210134   1.272   3.065   1.234
 3079SOL     OW10135   2.297   1.917   4.925
 3079SOL    HW110136   2.216   1.940   4.872
 3079SOL    HW210137   2.378   1.958   4.883
 3080SOL     OW10138   4.672   4.255   3.627
 3080SOL    HW110139   4.729   4.305   3.692
 3080SOL    HW210140   4.585   4.304   3.615
 3081SOL     OW10141   0.435   2.484   5.996
 3081SOL    HW110142   0.487   2.514   5.917
 3081SOL    HW210143   0.355   2.542   6.007
 3082SOL     OW10144   3.248   0.016   3.889
 3082SOL    HW110145   3.235   0.105   3.933
 3082SOL    HW210146   3.319   6.988   3.938
 3083SOL     OW10147   4.370   6.404   3.398
 3083SOL    HW110148   4.271   6.403   3.414
 3083SOL    HW210149   4.404   6.498   3.407
 3084SOL     OW10150   5.167   4.295   4.801
 3084SOL    HW110151   5.092   4.340   4.753
 3084SOL    HW210152   5.254   4.323   4.761
 3085SOL     OW10153   0.297   4.902   1.591
 3085SOL    HW110154   0.219   4.840   1.598
 3085SOL    HW210155   0.278   4.971   1.521
 3086SOL     OW10156   3.892   1.849   2.170
 3086SOL    HW110157   3.826   1.910   2.214
 3086SOL    HW210158   3.864   1.834   2.075
 3087SOL     OW10159   1.527   4.781   3.975
 3087SOL    HW110160   1.622   4.797   4.002
 3087SOL    HW210161   1.469   4.854   4.011
 3088SOL     OW10162   2.180   4.886   5.891
 3088SOL    HW110163   2.276   4.862   5.875
 3088SOL    HW210164   2.176   4.959   5.960
 3089SOL     OW10165   1.379   3.106   0.154
 3089SOL    HW110166   1.415   3.030   0.209
 3089SOL    HW210167   1.279   3.103   0.155
 3090SOL     OW10168   1.951   2.128   1.991
 3090SOL    HW110169   1.855   2.128   1.963
 3090SOL    HW210170   2.005   2.182   1.927
 3091SOL     OW10171   1.522   0.119   0.578
 3091SOL    HW110172   1.561   0.151   0.665
 3091SOL    HW210173   1.579   0.046   0.540
 3092SOL     OW10174   4.733   6.483   0.316
 3092SOL    HW110175   4.698   6.553   0.255
 3092SOL    HW210176   4.665   6.411   0.327
 3093SOL     OW10177   5.666   6.054   6.178
 3093SOL    HW110178   5.635   6.117   6.107
 3093SOL    HW210179   5.685   6.104   6.262
 3094SOL     OW10180   2.386   6.609   4.390
 3094SOL    HW110181   2.288   6.629   4.401
 3094SOL    HW210182   2.427   6.678   4.331
 3095SOL     OW10183   2.249   5.640   4.056
 3095SOL    HW110184   2.201   5.557   4.085
 3095SOL    HW210185   2.203   5.720   4.093
 3096SOL     OW10186   1.073   0.478   4.752
 3096SOL    HW110187   1.042   0.438   4.838
 3096SOL    HW210188   1.071   0.578   4.758
 3097SOL     OW10189   0.603   2.232   0.970
 3097SOL    HW110190   0.542   2.153   0.963
 3097SOL    HW210191   0.582   2.296   0.895
 3098SOL     OW10192   2.661   3.407   0.578
 3098SOL    HW110193   2.568   3.437   0.601
 3098SOL    HW210194   2.727   3.457   0.634
 3099SOL     OW10195   0.401   6.242   4.273
 3099SOL    HW110196   0.306   6.233   4.303
 3099SOL    HW210197   0.452   6.299   4.337
 3100SOL     OW10198   6.624   6.996   4.714
 3100SOL    HW110199   6.575   6.918   4.754
 3100SOL    HW210200   6.636   6.980   4.615
 3101SOL     OW10201   5.560   6.248   6.020
 3101SOL    HW110202   5.591   6.292   5.935
 3101SOL    HW210203   5.568   6.313   6.095
 3102SOL     OW10204   0.451   4.988   3.011
 3102SOL    HW110205   0.419   4.968   2.918
 3102SOL    HW210206   0.373   4.995   3.072
 3103SOL     OW10207   3.530   0.795   1.773
 3103SOL    HW110208   3.529   0.737   1.854
 3103SOL    HW210209   3.448   0.852   1.771
 3104SOL     OW10210   5.329   6.798   5.327
 3104SOL    HW110211   5.325   6.793   5.427
 3104SOL    HW210212   5.241   6.769   5.288
 3105SOL     OW10213   6.155   4.927   1.971
 3105SOL    HW110214   6.190   4.853   2.029
 3105SOL    HW210215   6.150   4.895   1.877
 3106SOL     OW10216   5.785   1.549   2.780
 3106SOL    HW110217   5.811   1.462   2.739
 3106SOL    HW210218   5.768   1.536   2.878
 3107SOL     OW10219   4.117   1.132   4.123
 3107SOL    HW110220   4.167   1.082   4.052
 3107SOL    HW210221   4.077   1.067   4.188
 3108SOL     OW10222   1.148   0.257   4.574
 3108SOL    HW110223   1.116   0.304   4.492
 3108SOL    HW210224   1.149   0.321   4.651
 3109SOL     OW10225   5.696   6.449   1.915
 3109SOL    HW110226   5.652   6.457   1.826
 3109SOL    HW210227   5.692   6.354   1.946
 3110SOL     OW10228   1.620   1.834   3.497
 3110SOL    HW110229   1.697   1.881   3.455
 3110SOL    HW210230   1.593   1.880   3.582
 3111SOL     OW10231   6.339   5.929   4.030
 3111SOL    HW110232   6.370   5.846   4.077
 3111SOL    HW210233   6.373   6.010   4.079
 3112SOL     OW10234   5.080   2.522   5.942
 3112SOL    HW110235   5.131   2.571   5.870
 3112SOL    HW210236   5.120   2.545   6.031
 3113SOL     OW10237   1.850   6.347   4.189
 3113SOL    HW110238   1.803   6.333   4.102
 3113SOL    HW210239   1.848   6.262   4.243
 3114SOL     OW10240   3.915   2.017   0.015
 3114SOL    HW110241   3.894   1.919   0.013
 3114SOL    HW210242   3.853   2.066   6.978
 3115SOL     OW10243   4.670   3.664   6.831
 3115SOL    HW110244   4.605   3.646   6.757
 3115SOL    HW210245   4.741   3.727   6.798
 3116SOL     OW10246   0.025   3.226   6.988
 3116SOL    HW110247   6.974   3.289   7.011
 3116SOL    HW210248   0.022   3.205   6.891
 3117SOL     OW10249   4.433   3.644   5.318
 3117SOL    HW110250   4.417   3.568   5.381
 3117SOL    HW210251   4.510   3.622   5.258
 3118SOL     OW10252   0.235   4.450   0.400
 3118SOL    HW110253   0.247   4.437   0.301
 3118SOL    HW210254   0.311   4.505   0.435
 3119SOL     OW10255   1.916   3.303   5.442
 3119SOL    HW110256   1.831   3.352   5.419
 3119SOL    HW210257   1.967   3.285   5.358
 3120SOL     OW10258   3.032   6.870   4.157
 3120SOL    HW110259   3.102   6.890   4.224
 3120SOL    HW210260   3.048   6.780   4.117
 3121SOL     OW10261   0.325   1.673   2.687
 3121SOL    HW110262   0.244   1.616   2.701
 3121SOL    HW210263   0.326   1.747   2.755
 3122SOL     OW10264   2.743   6.113   5.754
 3122SOL    HW110265   2.783   6.141   5.841
 3122SOL    HW210266   2.711   6.018   5.761
 3123SOL     OW10267   3.273   0.790   4.049
 3123SOL    HW110268   3.370   0.785   4.071
 3123SOL    HW210269   3.221   0.731   4.110
 3124SOL     OW10270   4.194   6.539   4.797
 3124SOL    HW110271   4.164   6.448   4.823
 3124SOL    HW210272   4.242   6.535   4.710
 3125SOL     OW10273   6.463   1.819   5.391
 3125SOL    HW110274   6.560   1.797   5.397
 3125SOL    HW210275   6.452   1.912   5.356
 3126SOL     OW10276   4.623   4.869   6.168
 3126SOL    HW110277   4.654   4.949   6.118
 3126SOL    HW210278   4.525   4.878   6.187
 3127SOL     OW10279   0.996   2.278   3.402
 3127SOL    HW110280   1.022   2.274   3.305
 3127SOL    HW210281   1.012   2.189   3.444
 3128SOL     OW10282   1.710   0.043   6.986
 3128SOL    HW110283   1.799   0.088   6.997
 3128SOL    HW210284   1.678   0.011   0.052
 3129SOL     OW10285   0.482   4.193   6.384
 3129SOL    HW110286   0.482   4.094   6.371
 3129SOL    HW210287   0.565   4.221   6.432
 3130SOL     OW10288   1.646   4.499   1.918
 3130SOL    HW110289   1.606   4.584   1.951
 3130SOL    HW210290   1.575   4.441   1.878
 3131SOL     OW10291   0.324   2.446   1.876
 3131SOL    HW110292   0.274   2.374   1.925
 3131SOL    HW210293   0.263   2.491   1.812
 3132SOL     OW10294   4.624   4.480   5.806
 3132SOL    HW110295   4.582   4.400   5.848
 3132SOL    HW210296   4.695   4.451   5.742
 3133SOL     OW10297   2.885   2.313   3.224
 3133SOL    HW110298   2.972   2.304   3.273
 3133SOL    HW210299   2.848   2.222   3.204
 3134SOL     OW10300   4.739   4.769   1.285
 3134SOL    HW110301   4.812   4.738   1.346
 3134SOL    HW210302   4.672   4.696   1.274
 3135SOL     OW10303   4.764   0.811   5.535
 3135SOL    HW110304   4.857   0.791   5.566
 3135SOL    HW210305   4.767   0.883   5.467
 3136SOL     OW10306   5.445   0.795   6.914
 3136SOL    HW110307   5.469   0.700   6.935
 3136SOL    HW210308   5.506   0.856   6.965
 3137SOL     OW10309   6.414   0.686   3.583
 3137SOL    HW110310   6.412   0.656   3.487
 3137SOL    HW210311   6.478   0.761   3.593
 3138SOL     OW10312   6.830   2.440   3.860
 3138SOL    HW110313   6.870   2.526   3.829
 3138SOL    HW210314   6.773   2.401   3.787
 3139SOL     OW10315   4.640   0.031   0.398
 3139SOL    HW110316   4.623   6.974   0.456
 3139SOL    HW210317   4.580   0.027   0.318
 3140SOL     OW10318   5.443   0.091   6.747
 3140SOL    HW110319   5.510   0.078   6.821
 3140SOL    HW210320   5.467   0.173   6.695
 3141SOL     OW10321   0.262   5.906   6.123
 3141SOL    HW110322   0.180   5.862   6.086
 3141SOL    HW210323   0.309   5.843   6.184
 3142SOL     OW10324   4.816   6.295   1.945
 3142SOL    HW110325   4.751   6.344   1.886
 3142SOL    HW210326   4.840   6.208   1.903
 3143SOL     OW10327   0.491   2.385   0.035
 3143SOL    HW110328   0.508   2.290   0.061
 3143SOL    HW210329   0.571   2.422   7.012
 3144SOL     OW10330   3.193   3.813   0.872
 3144SOL    HW110331   3.100   3.807   0.909
 3144SOL    HW210332   3.222   3.723   0.841
 3145SOL     OW10333   1.740   5.049   2.475
 3145SOL    HW110334   1.825   5.000   2.494
 3145SOL    HW210335   1.707   5.093   2.558
 3146SOL     OW10336   1.547   0.160   3.340
 3146SOL    HW110337   1.584   0.232   3.281
 3146SOL    HW210338   1.490   0.202   3.411
 3147SOL     OW10339   3.408   5.068   6.891
 3147SOL    HW110340   3.447   5.006   6.823
 3147SOL    HW210341   3.329   5.115   6.852
 3148SOL     OW10342   4.819   5.977   4.937
 3148SOL    HW110343   4.870   5.891   4.942
 3148SOL    HW210344   4.882   6.053   4.922
 3149SOL     OW10345   3.107   0.428   5.323
 3149SOL    HW110346   3.068   0.338   5.303
 3149SOL    HW210347   3.056   0.470   5.398
 3150SOL     OW10348   6.678   5.798   3.929
 3150SOL    HW110349   6.634   5.748   3.855
 3150SOL    HW210350   6.689   5.738   4.008
 3151SOL     OW10351   3.784   0.924   6.418
 3151SOL    HW110352   3.769   0.940   6.320
 3151SOL    HW210353   3.717   0.858   6.451
 3152SOL     OW10354   1.366   5.364   1.014
 3152SOL    HW110355   1.368   5.275   0.969
 3152SOL    HW210356   1.454   5.410   1.003
 3153SOL     OW10357   6.436   4.808   1.916
 3153SOL    HW110358   6.528   4.810   1.957
 3153SOL    HW210359   6.399   4.715   1.925
 3154SOL     OW10360   6.317   1.536   0.888
 3154SOL    HW110361   6.280   1.586   0.810
 3154SOL    HW210362   6.379   1.465   0.855
 3155SOL     OW10363   6.788   5.392   1.274
 3155SOL    HW110364   6.715   5.326   1.286
 3155SOL    HW210365   6.826   5.417   1.364
 3156SOL     OW10366   3.094   3.195   3.546
 3156SOL    HW110367   3.065   3.228   3.636
 3156SOL    HW210368   3.088   3.096   3.544
 3157SOL     OW10369   1.991   2.905   4.828
 3157SOL    HW110370   1.985   2.884   4.731
 3157SOL    HW210371   2.042   2.832   4.874
 3158SOL     OW10372   4.598   0.342   1.801
 3158SOL    HW110373   4.636   0.307   1.887
 3158SOL    HW210374   4.503   0.368   1.814
 3159SOL     OW10375   5.676   1.311   0.581
 3159SOL    HW110376   5.634   1.386   0.631
 3159SOL    HW210377   5.741   1.264   0.641
 3160SOL     OW10378   6.770   6.080   5.276
 3160SOL    HW110379   6.782   6.143   5.199
 3160SOL    HW210380   6.719   6.000   5.246
 3161SOL     OW10381   1.017   0.725   3.039
 3161SOL    HW110382   0.920   0.719   3.064
 3161SOL    HW210383   1.038   0.817   3.006
 3162SOL     OW10384   1.347   6.025   0.582
 3162SOL    HW110385   1.423   6.081   0.615
 3162SOL    HW210386   1.268   6.084   0.562
 3163SOL     OW10387   3.851   2.477   0.145
 3163SOL    HW110388   3.940   2.483   0.101
 3163SOL    HW210389   3.858   2.514   0.238
 3164SOL     OW10390   4.467   4.783   1.602
 3164SOL    HW110391   4.435   4.767   1.509
 3164SOL    HW210392   4.470   4.695   1.651
 3165SOL     OW10393   1.429   6.102   1.950
 3165SOL    HW110394   1.352   6.144   1.903
 3165SOL    HW210395   1.514   6.142   1.917
 3166SOL     OW10396   4.952   1.715   6.358
 3166SOL    HW110397   4.924   1.791   6.299
 3166SOL    HW210398   4.948   1.630   6.306
 3167SOL     OW10399   0.063   4.259   1.536
 3167SOL    HW110400   0.001   4.190   1.573
 3167SOL    HW210401   0.111   4.305   1.611
 3168SOL     OW10402   5.520   3.190   0.488
 3168SOL    HW110403   5.421   3.178   0.483
 3168SOL    HW210404   5.551   3.166   0.580
 3169SOL     OW10405   1.158   3.078   5.288
 3169SOL    HW110406   1.186   3.014   5.215
 3169SOL    HW210407   1.240   3.112   5.334
 3170SOL     OW10408   4.257   0.573   0.573
 3170SOL    HW110409   4.210   0.534   0.653
 3170SOL    HW210410   4.191   0.624   0.518
 3171SOL     OW10411   0.147   6.235   0.895
 3171SOL    HW110412   0.207   6.262   0.820
 3171SOL    HW210413   0.052   6.237   0.865
 3172SOL     OW10414   0.616   5.572   5.671
 3172SOL    HW110415   0.601   5.631   5.592
 3172SOL    HW210416   0.596   5.622   5.755
 3173SOL     OW10417   3.024   1.820   1.307
 3173SOL    HW110418   2.980   1.824   1.396
 3173SOL    HW210419   3.033   1.912   1.270
 3174SOL     OW10420   2.723   3.019   6.743
 3174SOL    HW110421   2.760   2.949   6.682
 3174SOL    HW210422   2.776   3.020   6.828
 3175SOL     OW10423   0.163   6.472   0.607
 3175SOL    HW110424   0.146   6.400   0.540
 3175SOL    HW210425   0.238   6.530   0.576
 3176SOL     OW10426   1.953   4.745   4.825
 3176SOL    HW110427   1.990   4.733   4.732
 3176SOL    HW210428   1.854   4.760   4.820
 3177SOL     OW10429   4.925   5.044   5.333
 3177SOL    HW110430   4.857   5.107   5.294
 3177SOL    HW210431   4.982   5.008   5.259
 3178SOL     OW10432   6.799   2.856   1.394
 3178SOL    HW110433   6.814   2.953   1.414
 3178SOL    HW210434   6.871   2.824   1.332
 3179SOL     OW10435   1.979   2.770   2.006
 3179SOL    HW110436   2.072   2.786   1.974
 3179SOL    HW210437   1.950   2.678   1.980
 3180SOL     OW10438   4.563   0.485   6.750
 3180SOL    HW110439   4.511   0.519   6.671
 3180SOL    HW210440   4.530   0.394   6.775
 3181SOL     OW10441   0.781   0.595   2.858
 3181SOL    HW110442   0.730   0.637   2.933
 3181SOL    HW210443   0.744   0.628   2.770
 3182SOL     OW10444   1.745   0.997   5.604
 3182SOL    HW110445   1.654   0.982   5.643
 3182SOL    HW210446   1.742   1.074   5.540
 3183SOL     OW10447   5.042   3.722   1.518
 3183SOL    HW110448   4.998   3.648   1.569
 3183SOL    HW210449   5.138   3.698   1.501
 3184SOL     OW10450   2.306   2.460   3.020
 3184SOL    HW110451   2.369   2.508   3.081
 3184SOL    HW210452   2.287   2.518   2.940
 3185SOL     OW10453   5.827   0.949   6.373
 3185SOL    HW110454   5.746   0.935   6.316
 3185SOL    HW210455   5.799   0.947   6.469
 3186SOL     OW10456   3.571   1.147   2.885
 3186SOL    HW110457   3.632   1.071   2.861
 3186SOL    HW210458   3.605   1.193   2.966
 3187SOL     OW10459   4.856   4.255   0.127
 3187SOL    HW110460   4.764   4.215   0.130
 3187SOL    HW210461   4.904   4.222   0.046
 3188SOL     OW10462   3.279   5.954   3.729
 3188SOL    HW110463   3.297   6.052   3.743
 3188SOL    HW210464   3.308   5.903   3.810
 3189SOL     OW10465   2.415   0.976   2.603
 3189SOL    HW110466   2.451   0.996   2.695
 3189SOL    HW210467   2.405   0.877   2.593
 3190SOL     OW10468   0.864   6.612   1.508
 3190SOL    HW110469   0.916   6.632   1.425
 3190SOL    HW210470   0.893   6.524   1.545
 3191SOL     OW10471   3.811   6.968   0.612
 3191SOL    HW110472   3.816   0.034   0.658
 3191SOL    HW210473   3.892   6.955   0.556
 3192SOL     OW10474   0.623   2.330   1.223
 3192SOL    HW110475   0.646   2.247   1.274
 3192SOL    HW210476   0.616   2.307   1.126
 3193SOL     OW10477   4.306   1.936   6.316
 3193SOL    HW110478   4.334   2.024   6.355
 3193SOL    HW210479   4.208   1.939   6.296
 3194SOL     OW10480   0.829   2.748   5.947
 3194SOL    HW110481   0.734   2.749   5.977
 3194SOL    HW210482   0.832   2.753   5.847
 3195SOL     OW10483   1.743   2.483   2.483
 3195SOL    HW110484   1.694   2.397   2.491
 3195SOL    HW210485   1.716   2.544   2.558
 3196SOL     OW10486   6.705   0.368   4.880
 3196SOL    HW110487   6.740   0.459   4.898
 3196SOL    HW210488   6.782   0.306   4.859
 3197SOL     OW10489   1.465   5.629   3.987
 3197SOL    HW110490   1.472   5.531   4.004
 3197SOL    HW210491   1.551   5.674   4.011
 3198SOL     OW10492   6.619   2.165   6.787
 3198SOL    HW110493   6.543   2.228   6.794
 3198SOL    HW210494   6.615   2.117   6.699
 3199SOL     OW10495   4.620   2.561   2.028
 3199SOL    HW110496   4.527   2.532   2.004
 3199SOL    HW210497   4.685   2.510   1.972
 3200SOL     OW10498   0.042   1.635   1.551
 3200SOL    HW110499   0.034   1.662   1.455
 3200SOL    HW210500   0.079   1.542   1.557
 3201SOL     OW10501   5.409   4.600   4.368
 3201SOL    HW110502   5.330   4.606   4.429
 3201SOL    HW210503   5.377   4.590   4.274
 3202SOL     OW10504   1.404   4.831   1.799
 3202SOL    HW110505   1.358   4.905   1.749
 3202SOL    HW210506   1.460   4.778   1.735
 3203SOL     OW10507   5.787   0.990   1.188
 3203SOL    HW110508   5.699   0.942   1.192
 3203SOL    HW210509   5.772   1.088   1.190
 3204SOL     OW10510   5.135   6.224   1.412
 3204SOL    HW110511   5.100   6.219   1.505
 3204SOL    HW210512   5.176   6.136   1.387
 3205SOL     OW10513   0.042   3.856   6.652
 3205SOL    HW110514   0.090   3.900   6.729
 3205SOL    HW210515   0.060   3.907   6.568
 3206SOL     OW10516   6.671   0.083   6.321
 3206SOL    HW110517   6.764   0.052   6.342
 3206SOL    HW210518   6.675   0.158   6.255
 3207SOL     OW10519   0.484   1.118   6.851
 3207SOL    HW110520   0.460   1.118   6.754
 3207SOL    HW210521   0.579   1.149   6.862
 3208SOL     OW10522   4.724   6.135   5.548
 3208SOL    HW110523   4.811   6.086   5.542
 3208SOL    HW210524   4.712   6.194   5.468
 3209SOL     OW10525   2.692   5.887   3.374
 3209SOL    HW110526   2.769   5.933   3.418
 3209SOL    HW210527   2.722   5.798   3.340
 3210SOL     OW10528   0.597   3.241   1.827
 3210SOL    HW110529   0.550   3.153   1.816
 3210SOL    HW210530   0.655   3.258   1.747
 3211SOL     OW10531   2.589   4.106   0.683
 3211SOL    HW110532   2.583   4.178   0.613
 3211SOL    HW210533   2.615   4.020   0.640
 3212SOL     OW10534   3.742   1.132   6.686
 3212SOL    HW110535   3.840   1.127   6.667
 3212SOL    HW210536   3.728   1.153   6.783
 3213SOL     OW10537   5.982   4.766   3.122
 3213SOL    HW110538   5.922   4.804   3.052
 3213SOL    HW210539   5.938   4.687   3.164
 3214SOL     OW10540   4.490   6.137   0.509
 3214SOL    HW110541   4.428   6.210   0.537
 3214SOL    HW210542   4.532   6.161   0.421
 3215SOL     OW10543   6.742   3.430   0.835
 3215SOL    HW110544   6.692   3.512   0.863
 3215SOL    HW210545   6.810   3.455   0.765
 3216SOL     OW10546   5.251   5.632   2.389
 3216SOL    HW110547   5.328   5.617   2.452
 3216SOL    HW210548   5.259   5.722   2.347
 3217SOL     OW10549   1.288   4.734   2.650
 3217SOL    HW110550   1.189   4.725   2.663
 3217SOL    HW210551   1.336   4.676   2.716
 3218SOL     OW10552   4.227   6.166   3.188
 3218SOL    HW110553   4.280   6.174   3.272
 3218SOL    HW210554   4.134   6.136   3.210
 3219SOL     OW10555   0.291   0.445   3.400
 3219SOL    HW110556   0.345   0.401   3.328
 3219SOL    HW210557   0.352   0.492   3.463
 3220SOL     OW10558   6.544   5.163   5.954
 3220SOL    HW110559   6.506   5.211   6.034
 3220SOL    HW210560   6.585   5.229   5.891
 3221SOL     OW10561   3.489   6.005   2.167
 3221SOL    HW110562   3.400   6.029   2.128
 3221SOL    HW210563   3.513   5.912   2.142
 3222SOL     OW10564   4.858   1.870   3.587
 3222SOL    HW110565   4.908   1.796   3.632
 3222SOL    HW210566   4.760   1.852   3.593
 3223SOL     OW10567   1.968   5.314   6.734
 3223SOL    HW110568   1.895   5.356   6.681
 3223SOL    HW210569   1.997   5.376   6.806
 3224SOL     OW10570   4.650   4.583   6.082
 3224SOL    HW110571   4.630   4.572   5.984
 3224SOL    HW210572   4.666   4.680   6.102
 3225SOL     OW10573   4.224   2.311   5.943
 3225SOL    HW110574   4.171   2.231   5.971
 3225SOL    HW210575   4.286   2.337   6.017
 3226SOL     OW10576   2.491   1.774   4.669
 3226SOL    HW110577   2.518   1.679   4.652
 3226SOL    HW210578   2.391   1.781   4.666
 3227SOL     OW10579   3.124   2.180   6.598
 3227SOL    HW110580   3.195   2.123   6.640
 3227SOL    HW210581   3.075   2.229   6.670
 3228SOL     OW10582   5.183   3.494   4.294
 3228SOL    HW110583   5.275   3.471   4.261
 3228SOL    HW210584   5.183   3.496   4.394
 3229SOL     OW10585   2.981   1.289   5.727
 3229SOL    HW110586   2.923   1.356   5.679
 3229SOL    HW210587   3.064   1.273   5.673
 3230SOL     OW10588   0.639   2.384   3.770
 3230SOL    HW110589   0.618   2.481   3.764
 3230SOL    HW210590   0.637   2.344   3.679
 3231SOL     OW10591   4.038   5.618   2.091
 3231SOL    HW110592   4.021   5.642   1.996
 3231SOL    HW210593   4.111   5.676   2.128
 3232SOL     OW10594   4.620   5.450   4.508
 3232SOL    HW110595   4.669   5.448   4.595
 3232SOL    HW210596   4.526   5.481   4.523
 3233SOL     OW10597   1.519   3.779   1.083
 3233SOL    HW110598   1.430   3.780   1.038
 3233SOL    HW210599   1.544   3.873   1.109
 3234SOL     OW10600   0.111   2.243   0.928
 3234SOL    HW110601   0.087   2.340   0.917
 3234SOL    HW210602   0.062   2.188   0.860
 3235SOL     OW10603   5.692   6.104   1.962
 3235SOL    HW110604   5.629   6.108   2.040
 3235SOL    HW210605   5.782   6.139   1.991
 3236SOL     OW10606   1.756   3.268   1.609
 3236SOL    HW110607   1.700   3.352   1.609
 3236SOL    HW210608   1.756   3.229   1.517
 3237SOL     OW10609   5.070   0.603   3.542
 3237SOL    HW110610   5.090   0.509   3.569
 3237SOL    HW210611   5.047   0.657   3.623
 3238SOL     OW10612   0.229   5.444   6.529
 3238SOL    HW110613   0.178   5.529   6.513
 3238SOL    HW210614   0.187   5.369   6.478
 3239SOL     OW10615   6.070   1.467   0.999
 3239SOL    HW110616   6.139   1.513   0.943
 3239SOL    HW210617   6.026   1.534   1.059
 3240SOL     OW10618   0.818   6.721   5.101
 3240SOL    HW110619   0.888   6.788   5.124
 3240SOL    HW210620   0.748   6.719   5.172
 3241SOL     OW10621   4.891   1.446   4.257
 3241SOL    HW110622   4.958   1.379   4.290
 3241SOL    HW210623   4.914   1.537   4.294
 3242SOL     OW10624   3.510   4.797   0.453
 3242SOL    HW110625   3.412   4.816   0.451
 3242SOL    HW210626   3.525   4.707   0.495
 3243SOL     OW10627   5.678   5.108   0.176
 3243SOL    HW110628   5.748   5.053   0.129
 3243SOL    HW210629   5.632   5.167   0.109
 3244SOL     OW10630   5.041   5.404   6.494
 3244SOL    HW110631   5.102   5.441   6.565
 3244SOL    HW210632   4.992   5.325   6.531
 3245SOL     OW10633   4.636   2.640   6.045
 3245SOL    HW110634   4.590   2.608   6.128
 3245SOL    HW210635   4.598   2.593   5.965
 3246SOL     OW10636   6.214   0.635   3.261
 3246SOL    HW110637   6.132   0.682   3.229
 3246SOL    HW210638   6.197   0.537   3.265
 3247SOL     OW10639   0.116   5.075   2.615
 3247SOL    HW110640   0.072   4.990   2.642
 3247SOL    HW210641   0.047   5.146   2.605
 3248SOL     OW10642   5.956   3.578   2.051
 3248SOL    HW110643   5.990   3.484   2.056
 3248SOL    HW210644   5.884   3.584   1.982
 3249SOL     OW10645   4.298   4.292   5.954
 3249SOL    HW110646   4.306   4.194   5.970
 3249SOL    HW210647   4.225   4.310   5.888
 3250SOL     OW10648   5.345   7.017   3.291
 3250SOL    HW110649   5.276   7.003   3.363
 3250SOL    HW210650   5.388   6.929   3.269
 3251SOL     OW10651   4.161   1.260   2.793
 3251SOL    HW110652   4.131   1.182   2.738
 3251SOL    HW210653   4.084   1.297   2.844
 3252SOL     OW10654   3.489   1.139   2.276
 3252SOL    HW110655   3.527   1.046   2.272
 3252SOL    HW210656   3.491   1.179   2.185
 3253SOL     OW10657   4.836   2.984   2.697
 3253SOL    HW110658   4.746   2.950   2.726
 3253SOL    HW210659   4.878   3.034   2.773
 3254SOL     OW10660   3.738   4.990   4.678
 3254SOL    HW110661   3.746   4.927   4.601
 3254SOL    HW210662   3.736   5.084   4.643
 3255SOL     OW10663   4.441   5.312   1.039
 3255SOL    HW110664   4.462   5.289   1.134
 3255SOL    HW210665   4.481   5.243   0.978
 3256SOL     OW10666   5.706   0.176   6.205
 3256SOL    HW110667   5.624   0.233   6.209
 3256SOL    HW210668   5.760   0.189   6.288
 3257SOL     OW10669   1.112   2.358   1.164
 3257SOL    HW110670   1.188   2.344   1.228
 3257SOL    HW210671   1.088   2.455   1.161
 3258SOL     OW10672   4.250   6.398   2.052
 3258SOL    HW110673   4.348   6.403   2.070
 3258SOL    HW210674   4.216   6.307   2.077
 3259SOL     OW10675   4.368   5.985   4.466
 3259SOL    HW110676   4.450   5.954   4.514
 3259SOL    HW210677   4.360   5.936   4.379
 3260SOL     OW10678   2.161   2.480   1.048
 3260SOL    HW110679   2.233   2.457   0.983
 3260SOL    HW210680   2.197   2.544   1.116
 3261SOL     OW10681   4.007   5.985   0.756
 3261SOL    HW110682   4.039   6.005   0.663
 3261SOL    HW210683   3.949   5.903   0.754
 3262SOL     OW10684   3.836   1.713   2.803
 3262SOL    HW110685   3.748   1.739   2.764
 3262SOL    HW210686   3.854   1.617   2.783
 3263SOL     OW10687   4.982   0.097   3.354
 3263SOL    HW110688   4.988   0.194   3.331
 3263SOL    HW210689   4.951   0.046   3.273
 3264SOL     OW10690   0.678   4.885   6.785
 3264SOL    HW110691   0.772   4.906   6.811
 3264SOL    HW210692   0.627   4.970   6.772
 3265SOL     OW10693   4.056   2.101   6.363
 3265SOL    HW110694   3.958   2.116   6.380
 3265SOL    HW210695   4.103   2.086   6.450
 3266SOL     OW10696   0.173   2.370   0.395
 3266SOL    HW110697   0.116   2.440   0.438
 3266SOL    HW210698   0.204   2.305   0.465
 3267SOL     OW10699   3.721   2.350   1.051
 3267SOL    HW110700   3.769   2.420   0.999
 3267SOL    HW210701   3.623   2.356   1.033
 3268SOL     OW10702   1.371   3.751   6.443
 3268SOL    HW110703   1.431   3.733   6.365
 3268SOL    HW210704   1.409   3.826   6.498
 3269SOL     OW10705   4.484   5.097   1.870
 3269SOL    HW110706   4.458   5.097   1.966
 3269SOL    HW210707   4.402   5.093   1.813
 3270SOL     OW10708   0.621   5.720   4.525
 3270SOL    HW110709   0.627   5.820   4.522
 3270SOL    HW210710   0.539   5.694   4.576
 3271SOL     OW10711   5.297   2.452   2.951
 3271SOL    HW110712   5.354   2.523   2.909
 3271SOL    HW210713   5.218   2.434   2.893
 3272SOL     OW10714   3.519   5.563   0.603
 3272SOL    HW110715   3.607   5.528   0.637
 3272SOL    HW210716   3.458   5.579   0.681
 3273SOL     OW10717   0.636   6.742   1.620
 3273SOL    HW110718   0.555   6.715   1.568
 3273SOL    HW210719   0.714   6.686   1.592
 3274SOL     OW10720   4.121   2.467   0.048
 3274SOL    HW110721   4.164   2.530   7.006
 3274SOL    HW210722   4.120   2.375   0.011
 3275SOL     OW10723   1.519   0.174   6.845
 3275SOL    HW110724   1.451   0.206   6.911
 3275SOL    HW210725   1.596   0.134   6.895
 3276SOL     OW10726   3.332   4.683   6.802
 3276SOL    HW110727   3.258   4.624   6.835
 3276SOL    HW210728   3.294   4.751   6.740
 3277SOL     OW10729   6.031   0.448   6.461
 3277SOL    HW110730   6.091   0.387   6.409
 3277SOL    HW210731   6.013   0.531   6.409
 3278SOL     OW10732   6.848   1.138   5.375
 3278SOL    HW110733   6.754   1.161   5.403
 3278SOL    HW210734   6.898   1.223   5.357
 3279SOL     OW10735   0.257   0.440   0.852
 3279SOL    HW110736   0.327   0.507   0.830
 3279SOL    HW210737   0.218   0.403   0.767
 3280SOL     OW10738   2.212   5.110   6.088
 3280SOL    HW110739   2.281   5.129   6.018
 3280SOL    HW210740   2.249   5.130   6.178
 3281SOL     OW10741   1.912   5.808   1.172
 3281SOL    HW110742   1.827   5.781   1.218
 3281SOL    HW210743   1.985   5.815   1.239
 3282SOL     OW10744   2.548   5.262   4.321
 3282SOL    HW110745   2.475   5.205   4.283
 3282SOL    HW210746   2.595   5.310   4.247
 3283SOL     OW10747   3.001   1.851   2.426
 3283SOL    HW110748   3.011   1.836   2.524
 3283SOL    HW210749   2.926   1.794   2.391
 3284SOL     OW10750   6.404   6.811   6.811
 3284SOL    HW110751   6.503   6.821   6.802
 3284SOL    HW210752   6.363   6.901   6.826
 3285SOL     OW10753   6.984   2.743   3.237
 3285SOL    HW110754   6.923   2.666   3.218
 3285SOL    HW210755   0.054   2.720   3.208
 3286SOL     OW10756   4.044   3.166   3.589
 3286SOL    HW110757   4.095   3.144   3.673
 3286SOL    HW210758   4.109   3.185   3.515
 3287SOL     OW10759   0.790   5.847   0.168
 3287SOL    HW110760   0.719   5.906   0.207
 3287SOL    HW210761   0.876   5.861   0.218
 3288SOL     OW10762   0.405   5.781   6.982
 3288SOL    HW110763   0.310   5.766   7.008
 3288SOL    HW210764   0.465   5.720   0.012
 3289SOL     OW10765   1.275   6.736   5.570
 3289SOL    HW110766   1.329   6.699   5.645
 3289SOL    HW210767   1.193   6.681   5.557
 3290SOL     OW10768   0.532   6.953   1.776
 3290SOL    HW110769   0.449   6.929   1.827
 3290SOL    HW210770   0.558   6.876   1.718
 3291SOL     OW10771   1.185   6.572   6.738
 3291SOL    HW110772   1.206   6.670   6.737
 3291SOL    HW210773   1.185   6.539   6.833
 3292SOL     OW10774   0.627   1.386   6.962
 3292SOL    HW110775   0.709   1.353   6.914
 3292SOL    HW210776   0.588   1.311   7.016
 3293SOL     OW10777   6.825   2.220   3.143
 3293SOL    HW110778   6.819   2.148   3.074
 3293SOL    HW210779   6.910   2.210   3.195
 3294SOL     OW10780   6.809   0.441   6.373
 3294SOL    HW110781   6.825   0.390   6.458
 3294SOL    HW210782   6.752   0.387   6.311
 3295SOL     OW10783   2.638   1.918   1.167
 3295SOL    HW110784   2.574   1.896   1.240
 3295SOL    HW210785   2.642   2.017   1.155
 3296SOL     OW10786   2.453   6.539   1.145
 3296SOL    HW110787   2.390   6.612   1.118
 3296SOL    HW210788   2.408   6.477   1.209
 3297SOL     OW10789   2.794   1.610   4.906
 3297SOL    HW110790   2.757   1.701   4.924
 3297SOL    HW210791   2.866   1.589   4.972
 3298SOL     OW10792   6.340   3.236   2.823
 3298SOL    HW110793   6.251   3.269   2.791
 3298SOL    HW210794   6.369   3.290   2.902
 3299SOL     OW10795   2.126   0.111   3.705
 3299SOL    HW110796   2.110   0.148   3.797
 3299SOL    HW210797   2.120   0.012   3.707
 3300SOL     OW10798   6.983   0.574   6.186
 3300SOL    HW110799   6.911   0.524   6.234
 3300SOL    HW210800   7.012   0.522   6.106
 3301SOL     OW10801   1.687   3.918   3.689
 3301SOL    HW110802   1.714   3.823   3.674
 3301SOL    HW210803   1.739   3.977   3.628
 3302SOL     OW10804   1.115   5.001   4.338
 3302SOL    HW110805   1.128   5.084   4.284
 3302SOL    HW210806   1.087   5.025   4.431
 3303SOL     OW10807   2.992   3.240   2.136
 3303SOL    HW110808   2.896   3.263   2.124
 3303SOL    HW210809   3.002   3.177   2.213
 3304SOL     OW10810   1.080   5.096   3.457
 3304SOL    HW110811   1.174   5.064   3.468
 3304SOL    HW210812   1.018   5.018   3.455
 3305SOL     OW10813   2.536   1.606   2.539
 3305SOL    HW110814   2.534   1.511   2.571
 3305SOL    HW210815   2.530   1.607   2.440
 3306SOL     OW10816   2.263   4.184   2.963
 3306SOL    HW110817   2.177   4.174   3.013
 3306SOL    HW210818   2.252   4.151   2.870
 3307SOL     OW10819   6.866   5.934   6.812
 3307SOL    HW110820   6.834   5.934   6.718
 3307SOL    HW210821   6.966   5.935   6.814
 3308SOL     OW10822   4.435   5.630   0.227
 3308SOL    HW110823   4.416   5.678   0.141
 3308SOL    HW210824   4.505   5.561   0.212
 3309SOL     OW10825   0.547   5.306   2.852
 3309SOL    HW110826   0.627   5.284   2.795
 3309SOL    HW210827   0.566   5.282   2.947
 3310SOL     OW10828   0.241   3.781   2.986
 3310SOL    HW110829   0.235   3.702   2.924
 3310SOL    HW210830   0.226   3.865   2.934
 3311SOL     OW10831   2.159   5.278   0.705
 3311SOL    HW110832   2.113   5.367   0.702
 3311SOL    HW210833   2.157   5.237   0.613
 3312SOL     OW10834   2.794   4.309   6.308
 3312SOL    HW110835   2.767   4.252   6.385
 3312SOL    HW210836   2.886   4.282   6.278
 3313SOL     OW10837   1.105   5.276   3.271
 3313SOL    HW110838   1.096   5.210   3.345
 3313SOL    HW210839   1.024   5.271   3.211
 3314SOL     OW10840   1.834   2.692   4.619
 3314SOL    HW110841   1.853   2.780   4.576
 3314SOL    HW210842   1.913   2.632   4.610
 3315SOL     OW10843   0.048   2.889   4.123
 3315SOL    HW110844   0.064   2.973   4.072
 3315SOL    HW210845   0.051   2.909   4.221
 3316SOL     OW10846   3.836   1.758   5.911
 3316SOL    HW110847   3.893   1.675   5.911
 3316SOL    HW210848   3.773   1.754   5.989
 3317SOL     OW10849   4.657   2.803   1.651
 3317SOL    HW110850   4.666   2.858   1.734
 3317SOL    HW210851   4.683   2.708   1.670
 3318SOL     OW10852   2.552   6.725   6.661
 3318SOL    HW110853   2.530   6.810   6.613
 3318SOL    HW210854   2.642   6.733   6.703
 3319SOL     OW10855   6.703   6.583   3.631
 3319SOL    HW110856   6.635   6.655   3.647
 3319SOL    HW210857   6.783   6.622   3.585
 3320SOL     OW10858   5.621   1.247   5.512
 3320SOL    HW110859   5.710   1.249   5.558
 3320SOL    HW210860   5.560   1.184   5.560
 3321SOL     OW10861   3.012   3.115   2.373
 3321SOL    HW110862   2.929   3.074   2.412
 3321SOL    HW210863   3.092   3.061   2.402
 3322SOL     OW10864   4.616   2.248   1.451
 3322SOL    HW110865   4.652   2.172   1.506
 3322SOL    HW210866   4.677   2.263   1.373
 3323SOL     OW10867   2.202   3.982   0.135
 3323SOL    HW110868   2.283   3.923   0.141
 3323SOL    HW210869   2.143   3.949   0.061
 3324SOL     OW10870   1.341   4.068   0.161
 3324SOL    HW110871   1.413   4.112   0.215
 3324SOL    HW210872   1.255   4.118   0.173
 3325SOL     OW10873   2.658   3.205   0.139
 3325SOL    HW110874   2.565   3.171   0.123
 3325SOL    HW210875   2.722   3.158   0.079
 3326SOL     OW10876   5.591   1.821   1.513
 3326SOL    HW110877   5.682   1.841   1.550
 3326SOL    HW210878   5.525   1.887   1.548
 3327SOL     OW10879   2.337   6.183   1.133
 3327SOL    HW110880   2.365   6.190   1.228
 3327SOL    HW210881   2.261   6.246   1.116
 3328SOL     OW10882   4.779   1.706   1.808
 3328SOL    HW110883   4.705   1.773   1.815
 3328SOL    HW210884   4.827   1.719   1.722
 3329SOL     OW10885   4.470   0.199   4.983
 3329SOL    HW110886   4.445   0.142   5.062
 3329SOL    HW210887   4.449   0.295   5.004
 3330SOL     OW10888   5.793   6.795   2.324
 3330SOL    HW110889   5.808   6.701   2.291
 3330SOL    HW210890   5.704   6.827   2.293
 3331SOL     OW10891   1.415   3.497   3.008
 3331SOL    HW110892   1.415   3.474   2.910
 3331SOL    HW210893   1.399   3.595   3.019
 3332SOL     OW10894   5.935   4.173   0.398
 3332SOL    HW110895   5.990   4.212   0.324
 3332SOL    HW210896   5.946   4.073   0.398
 3333SOL     OW10897   3.641   3.973   6.698
 3333SOL    HW110898   3.620   4.050   6.638
 3333SOL    HW210899   3.624   3.998   6.793
 3334SOL     OW10900   1.521   2.857   2.074
 3334SOL    HW110901   1.614   2.839   2.105
 3334SOL    HW210902   1.463   2.778   2.096
 3335SOL     OW10903   4.055   5.283   5.433
 3335SOL    HW110904   4.083   5.358   5.492
 3335SOL    HW210905   4.095   5.197   5.465
 3336SOL     OW10906   2.066   0.073   4.248
 3336SOL    HW110907   2.019   7.008   4.244
 3336SOL    HW210908   2.142   0.073   4.182
 3337SOL     OW10909   3.551   3.154   2.633
 3337SOL    HW110910   3.494   3.235   2.646
 3337SOL    HW210911   3.632   3.178   2.579
 3338SOL     OW10912   0.823   2.370   1.834
 3338SOL    HW110913   0.821   2.465   1.806
 3338SOL    HW210914   0.751   2.354   1.902
 3339SOL     OW10915   1.791   0.112   5.603
 3339SOL    HW110916   1.843   0.166   5.537
 3339SOL    HW210917   1.749   0.172   5.671
 3340SOL     OW10918   4.728   0.497   4.239
 3340SOL    HW110919   4.776   0.409   4.240
 3340SOL    HW210920   4.729   0.534   4.146
 3341SOL     OW10921   2.611   4.575   3.136
 3341SOL    HW110922   2.567   4.485   3.133
 3341SOL    HW210923   2.574   4.632   3.063
 3342SOL     OW10924   6.562   0.610   2.976
 3342SOL    HW110925   6.568   0.625   2.877
 3342SOL    HW210926   6.573   0.697   3.024
 3343SOL     OW10927   5.043   5.610   6.146
 3343SOL    HW110928   5.036   5.532   6.209
 3343SOL    HW210929   5.073   5.691   6.197
 3344SOL     OW10930   6.338   3.110   3.137
 3344SOL    HW110931   6.407   3.042   3.115
 3344SOL    HW210932   6.375   3.202   3.122
 3345SOL     OW10933   0.762   3.640   6.772
 3345SOL    HW110934   0.731   3.735   6.777
 3345SOL    HW210935   0.684   3.581   6.754
 3346SOL     OW10936   2.152   0.877   6.813
 3346SOL    HW110937   2.216   0.877   6.890
 3346SOL    HW210938   2.060   0.898   6.847
 3347SOL     OW10939   1.455   2.369   5.966
 3347SOL    HW110940   1.462   2.438   6.038
 3347SOL    HW210941   1.526   2.385   5.898
 3348SOL     OW10942   3.953   4.033   5.998
 3348SOL    HW110943   3.857   4.009   5.985
 3348SOL    HW210944   3.960   4.104   6.068
 3349SOL     OW10945   2.198   4.433   3.592
 3349SOL    HW110946   2.202   4.434   3.692
 3349SOL    HW210947   2.288   4.407   3.556
 3350SOL     OW10948   1.077   4.145   5.792
 3350SOL    HW110949   1.148   4.157   5.722
 3350SOL    HW210950   1.052   4.048   5.797
 3351SOL     OW10951   5.760   1.000   1.553
 3351SOL    HW110952   5.694   1.051   1.499
 3351SOL    HW210953   5.847   0.995   1.503
 3352SOL     OW10954   5.386   2.844   0.681
 3352SOL    HW110955   5.411   2.940   0.688
 3352SOL    HW210956   5.379   2.818   0.585
 3353SOL     OW10957   2.056   6.982   0.882
 3353SOL    HW110958   2.049   6.966   0.783
 3353SOL    HW210959   1.991   6.923   0.929
 3354SOL     OW10960   4.180   3.346   5.165
 3354SOL    HW110961   4.125   3.293   5.229
 3354SOL    HW210962   4.233   3.284   5.107
 3355SOL     OW10963   2.358   1.630   5.865
 3355SOL    HW110964   2.346   1.583   5.777
 3355SOL    HW210965   2.320   1.574   5.938
 3356SOL     OW10966   0.819   6.801   6.402
 3356SOL    HW110967   0.875   6.751   6.469
 3356SOL    HW210968   0.821   6.899   6.425
 3357SOL     OW10969   3.431   3.993   1.525
 3357SOL    HW110970   3.460   4.080   1.485
 3357SOL    HW210971   3.509   3.931   1.529
 3358SOL     OW10972   5.943   1.246   3.432
 3358SOL    HW110973   5.884   1.315   3.474
 3358SOL    HW210974   6.038   1.268   3.451
 3359SOL     OW10975   0.413   5.051   3.736
 3359SOL    HW110976   0.486   5.115   3.712
 3359SOL    HW210977   0.360   5.088   3.812
 3360SOL     OW10978   0.908   2.144   6.582
 3360SOL    HW110979   0.871   2.124   6.673
 3360SOL    HW210980   0.990   2.089   6.567
 3361SOL     OW10981   0.862   0.484   4.532
 3361SOL    HW110982   0.776   0.438   4.553
 3361SOL    HW210983   0.930   0.462   4.602
 3362SOL     OW10984   4.285   1.513   3.593
 3362SOL    HW110985   4.336   1.488   3.676
 3362SOL    HW210986   4.197   1.553   3.619
 3363SOL     OW10987   6.976   3.342   2.014
 3363SOL    HW110988   6.901   3.374   1.956
 3363SOL    HW210989   6.938   3.295   2.094
 3364SOL     OW10990   1.303   4.505   2.011
 3364SOL    HW110991   1.315   4.469   1.918
 3364SOL    HW210992   1.268   4.599   2.006
 3365SOL     OW10993   1.956   2.759   4.258
 3365SOL    HW110994   1.916   2.688   4.316
 3365SOL    HW210995   2.052   2.773   4.283
 3366SOL     OW10996   6.542   3.806   3.863
 3366SOL    HW110997   6.542   3.906   3.859
 3366SOL    HW210998   6.449   3.772   3.847
 3367SOL     OW10999   3.290   3.695   3.959
 3367SOL    HW111000   3.210   3.754   3.952
 3367SOL    HW211001   3.278   3.616   3.898
 3368SOL     OW11002   1.019   6.268   6.508
 3368SOL    HW111003   1.100   6.242   6.559
 3368SOL    HW211004   0.996   6.364   6.526
 3369SOL     OW11005   4.656   1.897   1.462
 3369SOL    HW111006   4.571   1.877   1.510
 3369SOL    HW211007   4.637   1.912   1.365
 3370SOL     OW11008   5.931   6.733   1.904
 3370SOL    HW111009   5.945   6.803   1.973
 3370SOL    HW211010   5.971   6.763   1.817
 3371SOL     OW11011   2.130   3.791   2.011
 3371SOL    HW111012   2.083   3.821   1.927
 3371SOL    HW211013   2.156   3.695   2.002
 3372SOL     OW11014   6.682   2.534   0.499
 3372SOL    HW111015   6.632   2.461   0.546
 3372SOL    HW211016   6.767   2.497   0.462
 3373SOL     OW11017   0.739   1.966   2.363
 3373SOL    HW111018   0.657   1.983   2.417
 3373SOL    HW211019   0.773   2.052   2.324
 3374SOL     OW11020   0.804   6.926   3.584
 3374SOL    HW111021   0.866   6.998   3.555
 3374SOL    HW211022   0.789   6.931   3.683
 3375SOL     OW11023   0.016   4.602   0.449
 3375SOL    HW111024   0.092   4.540   0.430
 3375SOL    HW211025   6.976   4.560   0.514
 3376SOL     OW11026   2.834   3.588   5.212
 3376SOL    HW111027   2.904   3.621   5.148
 3376SOL    HW211028   2.846   3.490   5.227
 3377SOL     OW11029   6.836   5.397   4.105
 3377SOL    HW111030   6.898   5.395   4.184
 3377SOL    HW211031   6.796   5.307   4.091
 3378SOL     OW11032   0.503   0.054   6.682
 3378SOL    HW111033   0.407   0.075   6.699
 3378SOL    HW211034   0.521   0.060   6.584
 3379SOL     OW11035   1.012   2.978   4.682
 3379SOL    HW111036   0.969   2.914   4.618
 3379SOL    HW211037   1.066   2.926   4.749
 3380SOL     OW11038   4.169   5.017   5.440
 3380SOL    HW111039   4.098   4.951   5.415
 3380SOL    HW211040   4.206   4.993   5.530
 3381SOL     OW11041   0.531   2.605   1.686
 3381SOL    HW111042   0.592   2.562   1.620
 3381SOL    HW211043   0.468   2.537   1.722
 3382SOL     OW11044   0.109   3.180   0.786
 3382SOL    HW111045   0.068   3.178   0.694
 3382SOL    HW211046   0.043   3.216   0.851
 3383SOL     OW11047   3.265   5.066   0.095
 3383SOL    HW111048   3.316   5.056   0.010
 3383SOL    HW211049   3.324   5.106   0.165
 3384SOL     OW11050   2.639   4.642   1.204
 3384SOL    HW111051   2.677   4.553   1.231
 3384SOL    HW211052   2.617   4.695   1.285
 3385SOL     OW11053   6.853   3.041   3.636
 3385SOL    HW111054   6.881   2.978   3.708
 3385SOL    HW211055   6.823   3.127   3.676
 3386SOL     OW11056   6.507   4.888   0.254
 3386SOL    HW111057   6.564   4.815   0.215
 3386SOL    HW211058   6.540   4.910   0.346
 3387SOL     OW11059   4.952   0.802   3.023
 3387SOL    HW111060   4.876   0.853   2.983
 3387SOL    HW211061   4.919   0.744   3.097
 3388SOL     OW11062   5.079   4.732   1.225
 3388SOL    HW111063   5.030   4.652   1.188
 3388SOL    HW211064   5.055   4.744   1.321
 3389SOL     OW11065   6.221   5.573   7.023
 3389SOL    HW111066   6.280   5.620   0.065
 3389SOL    HW211067   6.203   5.632   6.944
 3390SOL     OW11068   4.137   6.427   6.223
 3390SOL    HW111069   4.056   6.370   6.237
 3390SOL    HW211070   4.129   6.477   6.137
 3391SOL     OW11071   5.382   2.218   3.685
 3391SOL    HW111072   5.319   2.224   3.607
 3391SOL    HW211073   5.458   2.158   3.661
 3392SOL     OW11074   3.238   6.890   4.346
 3392SOL    HW111075   3.192   6.934   4.423
 3392SOL    HW211076   3.287   6.809   4.378
 3393SOL     OW11077   5.378   6.911   0.010
 3393SOL    HW111078   5.355   6.835   6.973
 3393SOL    HW211079   5.456   6.961   6.995
 3394SOL     OW11080   3.561   5.013   1.094
 3394SOL    HW111081   3.470   4.975   1.073
 3394SOL    HW211082   3.576   5.095   1.039
 3395SOL     OW11083   4.705   1.408   3.559
 3395SOL    HW111084   4.684   1.337   3.492
 3395SOL    HW211085   4.628   1.419   3.622
 3396SOL     OW11086   5.253   0.729   3.940
 3396SOL    HW111087   5.317   0.655   3.965
 3396SOL    HW211088   5.199   0.754   4.020
 3397SOL     OW11089   2.489   5.837   6.000
 3397SOL    HW111090   2.563   5.858   6.064
 3397SOL    HW211091   2.441   5.755   6.031
 3398SOL     OW11092   0.569   1.052   5.757
 3398SOL    HW111093   0.500   1.094   5.815
 3398SOL    HW211094   0.534   0.965   5.721
 3399SOL     OW11095   6.797   5.116   3.091
 3399SOL    HW111096   6.805   5.031   3.143
 3399SOL    HW211097   6.870   5.119   3.023
 3400SOL     OW11098   6.128   3.529   6.266
 3400SOL    HW111099   6.188   3.551   6.189
 3400SOL    HW211100   6.152   3.587   6.344
 3401SOL     OW11101   6.532   3.662   6.136
 3401SOL    HW111102   6.572   3.714   6.061
 3401SOL    HW211103   6.470   3.720   6.188
 3402SOL     OW11104   6.615   5.757   0.892
 3402SOL    HW111105   6.693   5.698   0.912
 3402SOL    HW211106   6.619   5.838   0.950
 3403SOL     OW11107   4.612   5.519   6.312
 3403SOL    HW111108   4.695   5.572   6.327
 3403SOL    HW211109   4.533   5.580   6.311
 3404SOL     OW11110   5.269   2.962   6.330
 3404SOL    HW111111   5.333   3.024   6.376
 3404SOL    HW211112   5.203   3.017   6.278
 3405SOL     OW11113   5.684   5.336   5.962
 3405SOL    HW111114   5.749   5.405   5.932
 3405SOL    HW211115   5.685   5.329   6.062
 3406SOL     OW11116   2.143   3.655   2.441
 3406SOL    HW111117   2.123   3.574   2.386
 3406SOL    HW211118   2.238   3.683   2.425
 3407SOL     OW11119   2.229   4.416   0.837
 3407SOL    HW111120   2.300   4.445   0.901
 3407SOL    HW211121   2.237   4.318   0.820
 3408SOL     OW11122   4.754   2.742   4.309
 3408SOL    HW111123   4.715   2.655   4.339
 3408SOL    HW211124   4.852   2.730   4.292
 3409SOL     OW11125   3.531   6.368   0.358
 3409SOL    HW111126   3.515   6.442   0.293
 3409SOL    HW211127   3.449   6.310   0.363
 3410SOL     OW11128   5.655   6.543   2.765
 3410SOL    HW111129   5.641   6.610   2.692
 3410SOL    HW211130   5.750   6.547   2.797
 3411SOL     OW11131   0.271   3.000   0.278
 3411SOL    HW111132   0.217   2.945   0.342
 3411SOL    HW211133   0.241   3.096   0.284
 3412SOL     OW11134   5.289   3.724   1.275
 3412SOL    HW111135   5.327   3.633   1.262
 3412SOL    HW211136   5.244   3.753   1.191
 3413SOL     OW11137   6.449   1.831   6.637
 3413SOL    HW111138   6.466   1.794   6.729
 3413SOL    HW211139   6.352   1.858   6.630
 3414SOL     OW11140   3.527   2.235   6.098
 3414SOL    HW111141   3.552   2.141   6.120
 3414SOL    HW211142   3.436   2.236   6.057
 3415SOL     OW11143   1.740   1.997   4.057
 3415SOL    HW111144   1.681   2.025   4.133
 3415SOL    HW211145   1.773   1.904   4.072
 3416SOL     OW11146   6.494   0.014   6.982
 3416SOL    HW111147   6.494   0.101   0.007
 3416SOL    HW211148   6.455   6.966   0.018
 3417SOL     OW11149   0.170   6.657   2.382
 3417SOL    HW111150   0.239   6.647   2.454
 3417SOL    HW211151   0.086   6.694   2.422
 3418SOL     OW11152   3.725   5.731   3.165
 3418SOL    HW111153   3.688   5.715   3.257
 3418SOL    HW211154   3.825   5.727   3.170
 3419SOL     OW11155   4.218   5.680   6.067
 3419SOL    HW111156   4.126   5.703   6.100
 3419SOL    HW211157   4.214   5.663   5.969
 3420SOL     OW11158   4.849   2.854   3.673
 3420SOL    HW111159   4.926   2.793   3.654
 3420SOL    HW211160   4.857   2.890   3.766
 3421SOL     OW11161   5.254   1.551   3.259
 3421SOL    HW111162   5.163   1.565   3.298
 3421SOL    HW211163   5.246   1.540   3.160
 3422SOL     OW11164   2.241   0.412   6.990
 3422SOL    HW111165   2.256   0.318   6.961
 3422SOL    HW211166   2.162   0.450   6.941
 3423SOL     OW11167   0.912   4.289   5.959
 3423SOL    HW111168   0.964   4.233   5.894
 3423SOL    HW211169   0.970   4.365   5.991
 3424SOL     OW11170   4.116   0.094   1.484
 3424SOL    HW111171   4.122   0.189   1.514
 3424SOL    HW211172   4.035   0.051   1.524
 3425SOL     OW11173   4.672   4.935   1.636
 3425SOL    HW111174   4.594   4.873   1.626
 3425SOL    HW211175   4.654   4.998   1.712
 3426SOL     OW11176   5.186   3.389   0.793
 3426SOL    HW111177   5.247   3.463   0.820
 3426SOL    HW211178   5.159   3.400   0.697
 3427SOL     OW11179   0.857   2.193   2.236
 3427SOL    HW111180   0.804   2.273   2.265
 3427SOL    HW211181   0.896   2.211   2.145
 3428SOL     OW11182   4.992   4.525   5.948
 3428SOL    HW111183   5.031   4.595   6.008
 3428SOL    HW211184   4.999   4.556   5.853
 3429SOL     OW11185   0.705   1.201   1.152
 3429SOL    HW111186   0.787   1.235   1.199
 3429SOL    HW211187   0.730   1.124   1.094
 3430SOL     OW11188   1.788   4.915   6.101
 3430SOL    HW111189   1.805   4.978   6.025
 3430SOL    HW211190   1.875   4.876   6.132
 3431SOL     OW11191   2.067   0.094   2.190
 3431SOL    HW111192   2.061   0.181   2.142
 3431SOL    HW211193   2.012   0.026   2.143
 3432SOL     OW11194   2.715   4.717   6.230
 3432SOL    HW111195   2.652   4.678   6.163
 3432SOL    HW211196   2.685   4.693   6.322
 3433SOL     OW11197   2.190   1.081   6.408
 3433SOL    HW111198   2.274   1.133   6.393
 3433SOL    HW211199   2.185   1.054   6.504
 3434SOL     OW11200   2.826   2.075   1.964
 3434SOL    HW111201   2.829   2.091   1.865
 3434SOL    HW211202   2.853   2.159   2.012
 3435SOL     OW11203   2.395   1.125   0.367
 3435SOL    HW111204   2.471   1.060   0.372
 3435SOL    HW211205   2.426   1.215   0.396
 3436SOL     OW11206   4.096   5.170   0.091
 3436SOL    HW111207   4.020   5.171   0.156
 3436SOL    HW211208   4.136   5.261   0.084
 3437SOL     OW11209   1.671   6.654   5.888
 3437SOL    HW111210   1.624   6.665   5.800
 3437SOL    HW211211   1.650   6.564   5.926
 3438SOL     OW11212   0.365   3.658   1.693
 3438SOL    HW111213   0.356   3.559   1.697
 3438SOL    HW211214   0.462   3.683   1.687
 3439SOL     OW11215   2.455   6.039   3.322
 3439SOL    HW111216   2.521   5.965   3.332
 3439SOL    HW211217   2.469   6.106   3.395
 3440SOL     OW11218   4.042   3.450   4.390
 3440SOL    HW111219   3.980   3.383   4.430
 3440SOL    HW211220   4.075   3.512   4.462
 3441SOL     OW11221   0.150   6.393   6.457
 3441SOL    HW111222   0.118   6.302   6.485
 3441SOL    HW211223   0.145   6.400   6.357
 3442SOL     OW11224   3.139   3.379   1.152
 3442SOL    HW111225   3.209   3.308   1.155
 3442SOL    HW211226   3.183   3.469   1.148
 3443SOL     OW11227   3.219   5.484   2.768
 3443SOL    HW111228   3.214   5.582   2.748
 3443SOL    HW211229   3.264   5.470   2.856
 3444SOL     OW11230   5.431   4.405   1.370
 3444SOL    HW111231   5.496   4.469   1.409
 3444SOL    HW211232   5.441   4.316   1.415
 3445SOL     OW11233   0.026   4.984   4.217
 3445SOL    HW111234   0.072   5.000   4.129
 3445SOL    HW211235   0.051   4.894   4.252
 3446SOL     OW11236   5.592   0.248   1.644
 3446SOL    HW111237   5.549   0.271   1.731
 3446SOL    HW211238   5.572   0.153   1.620
 3447SOL     OW11239   5.395   0.756   0.245
 3447SOL    HW111240   5.408   0.667   0.289
 3447SOL    HW211241   5.304   0.760   0.204
 3448SOL     OW11242   2.120   6.483   5.844
 3448SOL    HW111243   2.200   6.512   5.791
 3448SOL    HW211244   2.038   6.493   5.788
 3449SOL     OW11245   5.409   5.260   5.530
 3449SOL    HW111246   5.376   5.219   5.615
 3449SOL    HW211247   5.487   5.208   5.496
 3450SOL     OW11248   1.660   0.817   6.438
 3450SOL    HW111249   1.702   0.792   6.526
 3450SOL    HW211250   1.674   0.914   6.420
 3451SOL     OW11251   1.542   5.543   0.363
 3451SOL    HW111252   1.561   5.468   0.300
 3451SOL    HW211253   1.526   5.627   0.311
 3452SOL     OW11254   5.601   0.840   6.199
 3452SOL    HW111255   5.629   0.750   6.234
 3452SOL    HW211256   5.526   0.875   6.255
 3453SOL     OW11257   5.073   6.303   6.175
 3453SOL    HW111258   5.017   6.386   6.171
 3453SOL    HW211259   5.150   6.311   6.112
 3454SOL     OW11260   1.464   3.002   3.467
 3454SOL    HW111261   1.562   3.019   3.474
 3454SOL    HW211262   1.414   3.074   3.515
 3455SOL     OW11263   2.218   2.079   4.640
 3455SOL    HW111264   2.284   2.066   4.566
 3455SOL    HW211265   2.232   2.169   4.681
 3456SOL     OW11266   4.515   4.559   2.001
 3456SOL    HW111267   4.541   4.464   2.019
 3456SOL    HW211268   4.473   4.598   2.083
 3457SOL     OW11269   3.891   5.209   5.075
 3457SOL    HW111270   3.931   5.300   5.081
 3457SOL    HW211271   3.861   5.180   5.166
 3458SOL     OW11272   4.576   2.196   2.255
 3458SOL    HW111273   4.502   2.264   2.263
 3458SOL    HW211274   4.663   2.238   2.280
 3459SOL     OW11275   4.996   1.623   3.675
 3459SOL    HW111276   5.004   1.616   3.775
 3459SOL    HW211277   5.039   1.544   3.633
 3460SOL     OW11278   3.335   1.987   5.326
 3460SOL    HW111279   3.243   2.007   5.294
 3460SOL    HW211280   3.393   2.068   5.316
 3461SOL     OW11281   5.350   4.990   7.008
 3461SOL    HW111282   5.322   4.965   6.915
 3461SOL    HW211283   5.273   5.034   0.032
 3462SOL     OW11284   1.454   3.724   5.966
 3462SOL    HW111285   1.435   3.813   5.924
 3462SOL    HW211286   1.538   3.687   5.928
 3463SOL     OW11287   0.697   3.661   0.864
 3463SOL    HW111288   0.608   3.625   0.835
 3463SOL    HW211289   0.740   3.708   0.786
 3464SOL     OW11290   0.309   4.715   6.563
 3464SOL    HW111291   0.292   4.618   6.549
 3464SOL    HW211292   0.305   4.736   6.661
 3465SOL     OW11293   1.861   1.865   1.736
 3465SOL    HW111294   1.938   1.896   1.791
 3465SOL    HW211295   1.894   1.834   1.647
 3466SOL     OW11296   6.930   5.337   5.940
 3466SOL    HW111297   6.895   5.275   6.010
 3466SOL    HW211298   6.908   5.431   5.966
 3467SOL     OW11299   2.472   1.922   6.695
 3467SOL    HW111300   2.414   1.869   6.757
 3467SOL    HW211301   2.419   1.996   6.654
 3468SOL     OW11302   2.741   5.346   3.028
 3468SOL    HW111303   2.647   5.365   2.998
 3468SOL    HW211304   2.805   5.391   2.965
 3469SOL     OW11305   6.238   2.460   4.312
 3469SOL    HW111306   6.249   2.423   4.219
 3469SOL    HW211307   6.154   2.514   4.317
 3470SOL     OW11308   0.710   5.289   1.351
 3470SOL    HW111309   0.709   5.270   1.449
 3470SOL    HW211310   0.777   5.230   1.306
 3471SOL     OW11311   4.204   5.394   5.153
 3471SOL    HW111312   4.114   5.419   5.116
 3471SOL    HW211313   4.200   5.400   5.253
 3472SOL     OW11314   2.106   1.212   3.999
 3472SOL    HW111315   2.018   1.191   4.042
 3472SOL    HW211316   2.180   1.196   4.064
 3473SOL     OW11317   5.390   1.874   5.943
 3473SOL    HW111318   5.375   1.776   5.933
 3473SOL    HW211319   5.420   1.894   6.036
 3474SOL     OW11320   3.019   4.869   1.610
 3474SOL    HW111321   3.064   4.955   1.634
 3474SOL    HW211322   3.024   4.806   1.687
 3475SOL     OW11323   1.204   6.667   3.761
 3475SOL    HW111324   1.121   6.633   3.805
 3475SOL    HW211325   1.271   6.593   3.757
 3476SOL     OW11326   3.903   0.436   5.005
 3476SOL    HW111327   3.984   0.493   5.023
 3476SOL    HW211328   3.928   0.340   5.011
 3477SOL     OW11329   2.939   5.589   0.827
 3477SOL    HW111330   3.027   5.545   0.809
 3477SOL    HW211331   2.869   5.546   0.771
 3478SOL     OW11332   2.172   6.093   5.632
 3478SOL    HW111333   2.127   6.091   5.721
 3478SOL    HW211334   2.260   6.046   5.638
 3479SOL     OW11335   0.700   0.013   2.628
 3479SOL    HW111336   0.798   0.022   2.614
 3479SOL    HW211337   0.658   0.104   2.631
 3480SOL     OW11338   6.985   1.452   4.354
 3480SOL    HW111339   6.990   1.353   4.352
 3480SOL    HW211340   0.043   1.491   4.310
 3481SOL     OW11341   4.187   6.984   5.879
 3481SOL    HW111342   4.256   7.012   5.812
 3481SOL    HW211343   4.232   6.940   5.957
 3482SOL     OW11344   5.686   1.407   1.433
 3482SOL    HW111345   5.766   1.352   1.411
 3482SOL    HW211346   5.714   1.488   1.484
 3483SOL     OW11347   2.531   0.590   1.055
 3483SOL    HW111348   2.512   0.498   1.021
 3483SOL    HW211349   2.449   0.646   1.050
 3484SOL     OW11350   3.199   3.061   3.091
 3484SOL    HW111351   3.197   2.993   3.018
 3484SOL    HW211352   3.135   3.136   3.069
 3485SOL     OW11353   2.168   1.417   4.936
 3485SOL    HW111354   2.223   1.499   4.916
 3485SOL    HW211355   2.073   1.435   4.913
 3486SOL     OW11356   3.580   1.657   2.358
 3486SOL    HW111357   3.505   1.709   2.399
 3486SOL    HW211358   3.628   1.606   2.428
 3487SOL     OW11359   5.710   2.107   6.734
 3487SOL    HW111360   5.704   2.193   6.683
 3487SOL    HW211361   5.620   2.083   6.771
 3488SOL     OW11362   6.643   3.021   3.860
 3488SOL    HW111363   6.625   2.978   3.949
 3488SOL    HW211364   6.667   3.117   3.874
 3489SOL     OW11365   3.218   6.854   0.764
 3489SOL    HW111366   3.155   6.809   0.828
 3489SOL    HW211367   3.263   6.785   0.707
 3490SOL     OW11368   4.921   4.110   0.568
 3490SOL    HW111369   4.990   4.039   0.584
 3490SOL    HW211370   4.831   4.076   0.593
 3491SOL     OW11371   6.797   3.092   5.453
 3491SOL    HW111372   6.783   2.993   5.446
 3491SOL    HW211373   6.868   3.120   5.387
 3492SOL     OW11374   0.751   5.629   6.876
 3492SOL    HW111375   0.831   5.573   6.855
 3492SOL    HW211376   0.776   5.726   6.873
 3493SOL     OW11377   6.119   4.855   0.726
 3493SOL    HW111378   6.141   4.953   0.729
 3493SOL    HW211379   6.197   4.802   0.758
 3494SOL     OW11380   4.014   6.929   0.436
 3494SOL    HW111381   4.068   6.989   0.377
 3494SOL    HW211382   4.072   6.856   0.471
 3495SOL     OW11383   4.207   4.682   1.939
 3495SOL    HW111384   4.134   4.621   1.907
 3495SOL    HW211385   4.296   4.646   1.911
 3496SOL     OW11386   1.399   3.007   1.643
 3496SOL    HW111387   1.359   2.972   1.728
 3496SOL    HW211388   1.342   3.081   1.607
 3497SOL     OW11389   4.273   0.415   3.258
 3497SOL    HW111390   4.281   0.438   3.161
 3497SOL    HW211391   4.359   0.437   3.305
 3498SOL     OW11392   2.872   1.750   1.103
 3498SOL    HW111393   2.947   1.774   1.165
 3498SOL    HW211394   2.790   1.802   1.129
 3499SOL     OW11395   6.938   3.419   4.554
 3499SOL    HW111396   6.875   3.438   4.479
 3499SOL    HW211397   6.978   3.505   4.587
 3500SOL     OW11398   6.499   4.405   6.228
 3500SOL    HW111399   6.576   4.436   6.284
 3500SOL    HW211400   6.436   4.351   6.285
 3501SOL     OW11401   0.486   4.618   5.068
 3501SOL    HW111402   0.462   4.716   5.066
 3501SOL    HW211403   0.474   4.580   4.977
 3502SOL     OW11404   0.370   2.054   1.913
 3502SOL    HW111405   0.419   2.073   1.998
 3502SOL    HW211406   0.353   1.956   1.906
 3503SOL     OW11407   4.830   5.940   5.266
 3503SOL    HW111408   4.846   5.852   5.311
 3503SOL    HW211409   4.914   5.992   5.263
 3504SOL     OW11410   2.633   3.339   1.331
 3504SOL    HW111411   2.603   3.309   1.240
 3504SOL    HW211412   2.712   3.401   1.321
 3505SOL     OW11413   5.106   5.888   5.084
 3505SOL    HW111414   5.092   5.987   5.092
 3505SOL    HW211415   5.180   5.870   5.019
 3506SOL     OW11416   4.130   5.922   4.600
 3506SOL    HW111417   4.192   5.901   4.524
 3506SOL    HW211418   4.050   5.863   4.594
 3507SOL     OW11419   1.314   0.889   6.490
 3507SOL    HW111420   1.388   0.955   6.478
 3507SOL    HW211421   1.253   0.920   6.562
 3508SOL     OW11422   5.005   2.666   0.112
 3508SOL    HW111423   4.939   2.739   0.131
 3508SOL    HW211424   4.973   2.613   0.033
 3509SOL     OW11425   5.877   6.282   6.818
 3509SOL    HW111426   5.791   6.286   6.768
 3509SOL    HW211427   5.953   6.272   6.754
 3510SOL     OW11428   1.702   2.124   1.905
 3510SOL    HW111429   1.677   2.210   1.862
 3510SOL    HW211430   1.630   2.057   1.890
 3511SOL     OW11431   1.407   3.463   7.017
 3511SOL    HW111432   1.500   3.428   0.004
 3511SOL    HW211433   1.383   3.468   6.920
 3512SOL     OW11434   1.163   3.772   0.379
 3512SOL    HW111435   1.110   3.688   0.370
 3512SOL    HW211436   1.220   3.766   0.461
 3513SOL     OW11437   6.795   4.223   0.921
 3513SOL    HW111438   6.778   4.210   0.823
 3513SOL    HW211439   6.889   4.252   0.935
 3514SOL     OW11440   0.400   6.711   1.501
 3514SOL    HW111441   0.318   6.735   1.552
 3514SOL    HW211442   0.394   6.748   1.408
 3515SOL     OW11443   3.406   5.943   2.552
 3515SOL    HW111444   3.381   5.963   2.458
 3515SOL    HW211445   3.504   5.923   2.557
 3516SOL     OW11446   3.159   0.549   0.662
 3516SOL    HW111447   3.217   0.621   0.700
 3516SOL    HW211448   3.183   0.461   0.704
 3517SOL     OW11449   0.845   1.602   0.428
 3517SOL    HW111450   0.797   1.618   0.342
 3517SOL    HW211451   0.933   1.650   0.426
 3518SOL     OW11452   5.220   3.635   6.190
 3518SOL    HW111453   5.316   3.645   6.215
 3518SOL    HW211454   5.205   3.546   6.147
 3519SOL     OW11455   0.782   6.285   6.760
 3519SOL    HW111456   0.833   6.371   6.757
 3519SOL    HW211457   0.841   6.213   6.798
 3520SOL     OW11458   4.107   4.393   1.178
 3520SOL    HW111459   4.190   4.343   1.155
 3520SOL    HW211460   4.034   4.367   1.115
 3521SOL     OW11461   5.657   3.039   1.628
 3521SOL    HW111462   5.564   3.002   1.621
 3521SOL    HW211463   5.671   3.107   1.556
 3522SOL     OW11464   2.936   5.266   1.775
 3522SOL    HW111465   2.981   5.184   1.809
 3522SOL    HW211466   2.978   5.293   1.688
 3523SOL     OW11467   3.058   4.817   5.111
 3523SOL    HW111468   3.020   4.727   5.132
 3523SOL    HW211469   3.067   4.827   5.012
 3524SOL     OW11470   2.659   0.733   0.767
 3524SOL    HW111471   2.563   0.760   0.760
 3524SOL    HW211472   2.678   0.702   0.860
 3525SOL     OW11473   0.188   3.170   1.983
 3525SOL    HW111474   0.176   3.092   2.044
 3525SOL    HW211475   0.101   3.217   1.971
 3526SOL     OW11476   1.186   0.532   3.474
 3526SOL    HW111477   1.196   0.625   3.440
 3526SOL    HW211478   1.099   0.524   3.524
 3527SOL     OW11479   5.118   2.597   6.224
 3527SOL    HW111480   5.134   2.672   6.288
 3527SOL    HW211481   5.178   2.521   6.246
 3528SOL     OW11482   1.093   6.162   2.822
 3528SOL    HW111483   1.114   6.082   2.879
 3528SOL    HW211484   1.009   6.205   2.856
 3529SOL     OW11485   4.395   6.769   5.650
 3529SOL    HW111486   4.373   6.857   5.691
 3529SOL    HW211487   4.345   6.759   5.564
 3530SOL     OW11488   2.835   5.988   2.397
 3530SOL    HW111489   2.837   5.968   2.299
 3530SOL    HW211490   2.742   5.974   2.431
 3531SOL     OW11491   5.261   4.022   0.178
 3531SOL    HW111492   5.245   3.925   0.161
 3531SOL    HW211493   5.176   4.066   0.205
 3532SOL     OW11494   2.240   0.777   0.210
 3532SOL    HW111495   2.300   0.851   0.240
 3532SOL    HW211496   2.282   0.730   0.133
 3533SOL     OW11497   0.904   1.985   3.003
 3533SOL    HW111498   0.984   2.030   2.964
 3533SOL    HW211499   0.821   2.036   2.978
 3534SOL     OW11500   6.282   1.597   5.275
 3534SOL    HW111501   6.192   1.589   5.233
 3534SOL    HW211502   6.314   1.692   5.269
 3535SOL     OW11503   6.597   5.455   6.958
 3535SOL    HW111504   6.579   5.366   6.916
 3535SOL    HW211505   6.517   5.514   6.947
 3536SOL     OW11506   1.534   3.082   3.229
 3536SOL    HW111507   1.498   3.173   3.213
 3536SOL    HW211508   1.479   3.037   3.300
 3537SOL     OW11509   2.707   5.419   0.802
 3537SOL    HW111510   2.689   5.351   0.731
 3537SOL    HW211511   2.640   5.493   0.795
 3538SOL     OW11512   2.984   6.941   3.491
 3538SOL    HW111513   3.002   6.986   3.579
 3538SOL    HW211514   3.052   6.869   3.477
 3539SOL     OW11515   5.760   4.085   5.507
 3539SOL    HW111516   5.680   4.097   5.566
 3539SOL    HW211517   5.739   4.119   5.415
 3540SOL     OW11518   2.061   3.390   6.727
 3540SOL    HW111519   2.080   3.377   6.630
 3540SOL    HW211520   2.132   3.345   6.782
 3541SOL     OW11521   2.538   3.077   0.650
 3541SOL    HW111522   2.552   3.160   0.597
 3541SOL    HW211523   2.499   3.006   0.590
 3542SOL     OW11524   5.677   2.912   6.787
 3542SOL    HW111525   5.729   2.846   6.841
 3542SOL    HW211526   5.641   2.867   6.705
 3543SOL     OW11527   1.352   3.377   3.467
 3543SOL    HW111528   1.293   3.352   3.543
 3543SOL    HW211529   1.448   3.364   3.492
 3544SOL     OW11530   3.287   4.207   6.419
 3544SOL    HW111531   3.245   4.280   6.473
 3544SOL    HW211532   3.271   4.119   6.463
 3545SOL     OW11533   3.388   5.146   0.320
 3545SOL    HW111534   3.402   5.210   0.395
 3545SOL    HW211535   3.343   5.064   0.354
 3546SOL     OW11536   6.698   4.229   3.393
 3546SOL    HW111537   6.631   4.287   3.347
 3546SOL    HW211538   6.788   4.243   3.351
 3547SOL     OW11539   6.808   3.355   4.778
 3547SOL    HW111540   6.879   3.346   4.708
 3547SOL    HW211541   6.785   3.451   4.790
 3548SOL     OW11542   4.659   1.744   6.224
 3548SOL    HW111543   4.579   1.787   6.182
 3548SOL    HW211544   4.684   1.793   6.307
 3549SOL     OW11545   1.937   5.706   6.217
 3549SOL    HW111546   1.977   5.673   6.131
 3549SOL    HW211547   2.010   5.733   6.280
 3550SOL     OW11548   4.708   2.089   5.262
 3550SOL    HW111549   4.791   2.144   5.262
 3550SOL    HW211550   4.730   1.995   5.289
 3551SOL     OW11551   3.767   1.916   5.474
 3551SOL    HW111552   3.716   1.996   5.506
 3551SOL    HW211553   3.759   1.908   5.375
 3552SOL     OW11554   6.868   5.715   1.367
 3552SOL    HW111555   6.830   5.627   1.395
 3552SOL    HW211556   6.838   5.787   1.429
 3553SOL     OW11557   3.307   5.983   6.061
 3553SOL    HW111558   3.331   6.066   6.110
 3553SOL    HW211559   3.218   5.950   6.091
 3554SOL     OW11560   3.909   3.800   1.131
 3554SOL    HW111561   3.820   3.843   1.112
 3554SOL    HW211562   3.897   3.729   1.200
 3555SOL     OW11563   1.573   2.105   4.268
 3555SOL    HW111564   1.477   2.106   4.239
 3555SOL    HW211565   1.579   2.064   4.359
 3556SOL     OW11566   3.954   1.271   4.979
 3556SOL    HW111567   3.886   1.221   4.926
 3556SOL    HW211568   3.990   1.212   5.052
 3557SOL     OW11569   0.472   0.500   2.923
 3557SOL    HW111570   0.425   0.541   2.845
 3557SOL    HW211571   0.530   0.425   2.892
 3558SOL     OW11572   2.450   6.208   0.602
 3558SOL    HW111573   2.400   6.169   0.525
 3558SOL    HW211574   2.524   6.265   0.568
 3559SOL     OW11575   3.128   6.474   4.533
 3559SOL    HW111576   3.125   6.374   4.526
 3559SOL    HW211577   3.083   6.503   4.618
 3560SOL     OW11578   1.734   4.641   4.554
 3560SOL    HW111579   1.688   4.580   4.490
 3560SOL    HW211580   1.717   4.610   4.648
 3561SOL     OW11581   6.019   4.397   5.082
 3561SOL    HW111582   6.090   4.392   5.153
 3561SOL    HW211583   5.963   4.478   5.096
 3562SOL     OW11584   2.502   1.446   4.625
 3562SOL    HW111585   2.595   1.426   4.596
 3562SOL    HW211586   2.476   1.384   4.699
 3563SOL     OW11587   6.214   2.115   5.843
 3563SOL    HW111588   6.309   2.086   5.851
 3563SOL    HW211589   6.189   2.120   5.747
 3564SOL     OW11590   0.638   4.810   2.722
 3564SOL    HW111591   0.640   4.755   2.638
 3564SOL    HW211592   0.680   4.758   2.797
 3565SOL     OW11593   3.358   4.924   3.086
 3565SOL    HW111594   3.293   4.942   3.012
 3565SOL    HW211595   3.312   4.873   3.159
 3566SOL     OW11596   0.054   0.913   5.056
 3566SOL    HW111597   0.095   0.908   5.148
 3566SOL    HW211598   0.091   0.992   5.007
 3567SOL     OW11599   0.437   3.476   6.319
 3567SOL    HW111600   0.525   3.455   6.276
 3567SOL    HW211601   0.381   3.393   6.323
 3568SOL     OW11602   6.563   4.179   5.822
 3568SOL    HW111603   6.508   4.246   5.771
 3568SOL    HW211604   6.535   4.180   5.918
 3569SOL     OW11605   2.271   1.975   5.803
 3569SOL    HW111606   2.200   1.961   5.735
 3569SOL    HW211607   2.233   2.020   5.884
 3570SOL     OW11608   5.474   0.509   5.294
 3570SOL    HW111609   5.390   0.555   5.324
 3570SOL    HW211610   5.510   0.453   5.370
 3571SOL     OW11611   0.136   5.907   0.057
 3571SOL    HW111612   0.150   5.903   6.981
 3571SOL    HW211613   0.221   5.939   0.101
 3572SOL     OW11614   5.499   3.863   4.141
 3572SOL    HW111615   5.433   3.893   4.071
 3572SOL    HW211616   5.474   3.771   4.172
 3573SOL     OW11617   0.792   3.637   4.379
 3573SOL    HW111618   0.739   3.705   4.328
 3573SOL    HW211619   0.782   3.656   4.477
 3574SOL     OW11620   0.512   5.041   0.195
 3574SOL    HW111621   0.528   5.096   0.113
 3574SOL    HW211622   0.571   4.960   0.193
 3575SOL     OW11623   6.455   5.028   3.241
 3575SOL    HW111624   6.547   5.061   3.265
 3575SOL    HW211625   6.459   4.978   3.154
 3576SOL     OW11626   1.347   1.395   5.436
 3576SOL    HW111627   1.340   1.312   5.380
 3576SOL    HW211628   1.361   1.369   5.532
 3577SOL     OW11629   1.449   2.517   6.450
 3577SOL    HW111630   1.444   2.535   6.352
 3577SOL    HW211631   1.531   2.561   6.488
 3578SOL     OW11632   4.295   3.480   6.733
 3578SOL    HW111633   4.255   3.391   6.707
 3578SOL    HW211634   4.221   3.546   6.746
 3579SOL     OW11635   6.292   3.992   4.791
 3579SOL    HW111636   6.260   3.905   4.755
 3579SOL    HW211637   6.339   3.976   4.878
 3580SOL     OW11638   6.099   1.726   1.441
 3580SOL    HW111639   6.190   1.750   1.476
 3580SOL    HW211640   6.092   1.753   1.345
 3581SOL     OW11641   6.834   0.219   3.490
 3581SOL    HW111642   6.734   0.225   3.493
 3581SOL    HW211643   6.872   0.287   3.552
 3582SOL     OW11644   0.646   2.221   6.217
 3582SOL    HW111645   0.668   2.294   6.281
 3582SOL    HW211646   0.551   2.229   6.188
 3583SOL     OW11647   0.603   4.197   6.736
 3583SOL    HW111648   0.652   4.243   6.810
 3583SOL    HW211649   0.595   4.259   6.658
 3584SOL     OW11650   6.048   6.189   6.449
 3584SOL    HW111651   6.097   6.210   6.533
 3584SOL    HW211652   6.090   6.239   6.373
 3585SOL     OW11653   2.957   4.940   5.321
 3585SOL    HW111654   3.000   4.885   5.249
 3585SOL    HW211655   2.863   4.909   5.335
 3586SOL     OW11656   6.392   2.997   5.461
 3586SOL    HW111657   6.378   3.095   5.448
 3586SOL    HW211658   6.373   2.973   5.556
 3587SOL     OW11659   2.805   6.123   0.491
 3587SOL    HW111660   2.878   6.117   0.423
 3587SOL    HW211661   2.840   6.094   0.580
 3588SOL     OW11662   1.466   2.507   5.618
 3588SOL    HW111663   1.467   2.583   5.682
 3588SOL    HW211664   1.372   2.481   5.599
 3589SOL     OW11665   3.304   0.800   4.694
 3589SOL    HW111666   3.232   0.865   4.666
 3589SOL    HW211667   3.390   0.849   4.705
 3590SOL     OW11668   0.214   4.252   6.376
 3590SOL    HW111669   0.189   4.318   6.447
 3590SOL    HW211670   0.307   4.220   6.392
 3591SOL     OW11671   5.472   3.093   6.802
 3591SOL    HW111672   5.483   3.180   6.849
 3591SOL    HW211673   5.560   3.046   6.799
 3592SOL     OW11674   5.169   3.717   3.534
 3592SOL    HW111675   5.155   3.628   3.490
 3592SOL    HW211676   5.266   3.740   3.531
 3593SOL     OW11677   2.533   6.081   4.487
 3593SOL    HW111678   2.582   6.143   4.426
 3593SOL    HW211679   2.445   6.121   4.513
 3594SOL     OW11680   3.985   1.007   2.961
 3594SOL    HW111681   3.949   1.100   2.970
 3594SOL    HW211682   4.080   1.005   2.993
 3595SOL     OW11683   2.265   5.820   5.303
 3595SOL    HW111684   2.234   5.866   5.386
 3595SOL    HW211685   2.354   5.857   5.276
 3596SOL     OW11686   6.457   1.613   2.620
 3596SOL    HW111687   6.377   1.671   2.635
 3596SOL    HW211688   6.432   1.536   2.561
 3597SOL     OW11689   2.903   5.850   4.444
 3597SOL    HW111690   2.938   5.853   4.538
 3597SOL    HW211691   2.830   5.782   4.438
 3598SOL     OW11692   0.859   0.602   5.980
 3598SOL    HW111693   0.885   0.653   6.062
 3598SOL    HW211694   0.830   0.666   5.909
 3599SOL     OW11695   0.963   2.019   5.789
 3599SOL    HW111696   0.913   1.983   5.710
 3599SOL    HW211697   0.899   2.046   5.860
 3600SOL     OW11698   0.049   3.252   0.250
 3600SOL    HW111699   0.031   3.226   0.155
 3600SOL    HW211700   6.992   3.231   0.305
 3601SOL     OW11701   6.994   4.057   0.662
 3601SOL    HW111702   0.041   3.994   0.630
 3601SOL    HW211703   6.914   4.052   0.603
 3602SOL     OW11704   1.916   1.425   1.131
 3602SOL    HW111705   2.005   1.467   1.147
 3602SOL    HW211706   1.910   1.339   1.181
 3603SOL     OW11707   3.853   5.783   3.862
 3603SOL    HW111708   3.886   5.694   3.831
 3603SOL    HW211709   3.927   5.850   3.855
 3604SOL     OW11710   6.822   3.766   3.820
 3604SOL    HW111711   6.856   3.852   3.781
 3604SOL    HW211712   6.729   3.779   3.854
 3605SOL     OW11713   6.063   4.630   6.009
 3605SOL    HW111714   6.056   4.664   6.103
 3605SOL    HW211715   6.081   4.706   5.947
 3606SOL     OW11716   6.623   4.877   5.882
 3606SOL    HW111717   6.592   4.786   5.911
 3606SOL    HW211718   6.574   4.947   5.934
 3607SOL     OW11719   5.120   6.616   0.553
 3607SOL    HW111720   5.167   6.598   0.639
 3607SOL    HW211721   5.185   6.652   0.486
 3608SOL     OW11722   6.465   1.639   2.161
 3608SOL    HW111723   6.443   1.719   2.217
 3608SOL    HW211724   6.383   1.582   2.151
 3609SOL     OW11725   6.679   1.006   4.277
 3609SOL    HW111726   6.655   0.979   4.370
 3609SOL    HW211727   6.697   0.924   4.222
 3610SOL     OW11728   1.010   0.752   5.314
 3610SOL    HW111729   0.925   0.717   5.353
 3610SOL    HW211730   1.045   0.827   5.370
 3611SOL     OW11731   3.723   4.668   5.333
 3611SOL    HW111732   3.696   4.703   5.244
 3611SOL    HW211733   3.672   4.716   5.404
 3612SOL     OW11734   0.040   6.891   5.873
 3612SOL    HW111735   0.003   6.879   5.966
 3612SOL    HW211736   6.992   6.930   5.814
 3613SOL     OW11737   5.591   4.941   0.930
 3613SOL    HW111738   5.617   4.989   0.846
 3613SOL    HW211739   5.510   4.984   0.970
 3614SOL     OW11740   3.872   3.358   3.722
 3614SOL    HW111741   3.802   3.379   3.653
 3614SOL    HW211742   3.942   3.299   3.680
 3615SOL     OW11743   5.926   6.363   6.088
 3615SOL    HW111744   5.949   6.436   6.152
 3615SOL    HW211745   5.829   6.341   6.095
 3616SOL     OW11746   6.724   1.947   6.200
 3616SOL    HW111747   6.823   1.941   6.183
 3616SOL    HW211748   6.704   1.917   6.293
 3617SOL     OW11749   5.470   1.679   6.307
 3617SOL    HW111750   5.514   1.755   6.355
 3617SOL    HW211751   5.380   1.708   6.273
 3618SOL     OW11752   1.405   2.139   5.414
 3618SOL    HW111753   1.436   2.234   5.412
 3618SOL    HW211754   1.454   2.087   5.344
 3619SOL     OW11755   6.314   1.755   3.699
 3619SOL    HW111756   6.242   1.813   3.661
 3619SOL    HW211757   6.370   1.719   3.624
 3620SOL     OW11758   6.310   6.282   6.038
 3620SOL    HW111759   6.292   6.334   6.122
 3620SOL    HW211760   6.320   6.345   5.961
 3621SOL     OW11761   2.434   2.393   6.182
 3621SOL    HW111762   2.518   2.445   6.198
 3621SOL    HW211763   2.455   2.296   6.184
 3622SOL     OW11764   2.199   2.268   3.216
 3622SOL    HW111765   2.238   2.338   3.156
 3622SOL    HW211766   2.101   2.262   3.201
 3623SOL     OW11767   6.011   5.631   4.036
 3623SOL    HW111768   5.952   5.712   4.036
 3623SOL    HW211769   6.078   5.639   4.109
 3624SOL     OW11770   2.748   6.461   2.383
 3624SOL    HW111771   2.805   6.430   2.459
 3624SOL    HW211772   2.694   6.540   2.411
 3625SOL     OW11773   5.979   3.266   6.906
 3625SOL    HW111774   5.915   3.213   6.851
 3625SOL    HW211775   6.030   3.328   6.847
 3626SOL     OW11776   1.386   4.009   5.396
 3626SOL    HW111777   1.438   4.056   5.325
 3626SOL    HW211778   1.447   3.951   5.450
 3627SOL     OW11779   3.967   3.096   3.225
 3627SOL    HW111780   3.937   3.018   3.170
 3627SOL    HW211781   3.898   3.117   3.294
 3628SOL     OW11782   2.278   6.802   1.617
 3628SOL    HW111783   2.293   6.858   1.698
 3628SOL    HW211784   2.333   6.837   1.541
 3629SOL     OW11785   6.021   2.297   4.727
 3629SOL    HW111786   6.071   2.213   4.708
 3629SOL    HW211787   5.923   2.282   4.713
 3630SOL     OW11788   5.840   3.109   3.807
 3630SOL    HW111789   5.802   3.160   3.730
 3630SOL    HW211790   5.899   3.170   3.861
 3631SOL     OW11791   1.753   0.263   4.139
 3631SOL    HW111792   1.735   0.358   4.161
 3631SOL    HW211793   1.667   0.213   4.129
 3632SOL     OW11794   5.133   0.517   0.515
 3632SOL    HW111795   5.080   0.570   0.449
 3632SOL    HW211796   5.222   0.494   0.476
 3633SOL     OW11797   2.869   2.095   5.895
 3633SOL    HW111798   2.897   2.079   5.990
 3633SOL    HW211799   2.779   2.055   5.880
 3634SOL     OW11800   0.810   5.618   5.185
 3634SOL    HW111801   0.906   5.597   5.205
 3634SOL    HW211802   0.780   5.564   5.107
 3635SOL     OW11803   2.518   0.085   5.804
 3635SOL    HW111804   2.499   0.027   5.725
 3635SOL    HW211805   2.571   0.165   5.776
 3636SOL     OW11806   1.077   6.199   5.844
 3636SOL    HW111807   1.096   6.182   5.941
 3636SOL    HW211808   1.022   6.124   5.807
 3637SOL     OW11809   6.737   1.660   1.254
 3637SOL    HW111810   6.710   1.682   1.348
 3637SOL    HW211811   6.701   1.730   1.192
 3638SOL     OW11812   6.980   4.848   4.643
 3638SOL    HW111813   6.912   4.859   4.570
 3638SOL    HW211814   0.016   4.770   4.622
 3639SOL     OW11815   4.265   3.998   1.202
 3639SOL    HW111816   4.323   3.917   1.189
 3639SOL    HW211817   4.297   4.071   1.143
 3640SOL     OW11818   3.665   7.001   6.694
 3640SOL    HW111819   3.752   6.974   6.654
 3640SOL    HW211820   3.629   6.926   6.750
 3641SOL     OW11821   4.931   2.494   4.572
 3641SOL    HW111822   4.869   2.569   4.592
 3641SOL    HW211823   4.952   2.493   4.474
 3642SOL     OW11824   4.803   0.959   6.674
 3642SOL    HW111825   4.783   0.870   6.631
 3642SOL    HW211826   4.901   0.968   6.688
 3643SOL     OW11827   2.420   5.653   4.828
 3643SOL    HW111828   2.379   5.610   4.747
 3643SOL    HW211829   2.396   5.601   4.909
 3644SOL     OW11830   0.130   1.007   1.367
 3644SOL    HW111831   0.143   0.918   1.410
 3644SOL    HW211832   0.210   1.030   1.312
 3645SOL     OW11833   5.882   1.253   3.787
 3645SOL    HW111834   5.883   1.352   3.769
 3645SOL    HW211835   5.787   1.220   3.785
 3646SOL     OW11836   6.711   5.066   6.471
 3646SOL    HW111837   6.628   5.058   6.527
 3646SOL    HW211838   6.728   4.979   6.424
 3647SOL     OW11839   2.506   3.736   0.766
 3647SOL    HW111840   2.446   3.794   0.711
 3647SOL    HW211841   2.535   3.787   0.847
 3648SOL     OW11842   3.341   5.475   2.993
 3648SOL    HW111843   3.376   5.409   3.059
 3648SOL    HW211844   3.315   5.560   3.040
 3649SOL     OW11845   4.844   3.023   1.683
 3649SOL    HW111846   4.801   3.026   1.774
 3649SOL    HW211847   4.858   2.928   1.656
 3650SOL     OW11848   0.186   5.561   0.208
 3650SOL    HW111849   0.268   5.580   0.261
 3650SOL    HW211850   0.211   5.539   0.114
 3651SOL     OW11851   0.521   5.640   3.125
 3651SOL    HW111852   0.460   5.715   3.149
 3651SOL    HW211853   0.475   5.553   3.141
 3652SOL     OW11854   5.635   6.378   3.244
 3652SOL    HW111855   5.593   6.326   3.319
 3652SOL    HW211856   5.732   6.356   3.238
 3653SOL     OW11857   6.730   0.625   3.420
 3653SOL    HW111858   6.768   0.657   3.334
 3653SOL    HW211859   6.635   0.597   3.405
 3654SOL     OW11860   1.834   0.097   0.400
 3654SOL    HW111861   1.800   0.013   0.443
 3654SOL    HW211862   1.903   0.074   0.332
 3655SOL     OW11863   1.195   6.783   3.537
 3655SOL    HW111864   1.291   6.807   3.524
 3655SOL    HW211865   1.186   6.728   3.620
 3656SOL     OW11866   1.534   3.391   2.054
 3656SOL    HW111867   1.531   3.489   2.033
 3656SOL    HW211868   1.629   3.364   2.070
 3657SOL     OW11869   4.811   5.607   5.955
 3657SOL    HW111870   4.823   5.704   5.930
 3657SOL    HW211871   4.884   5.579   6.017
 3658SOL     OW11872   1.271   5.936   3.558
 3658SOL    HW111873   1.179   5.906   3.533
 3658SOL    HW211874   1.337   5.898   3.493
 3659SOL     OW11875   3.126   3.248   5.549
 3659SOL    HW111876   3.116   3.160   5.595
 3659SOL    HW211877   3.142   3.233   5.451
 3660SOL     OW11878   4.932   6.765   2.301
 3660SOL    HW111879   4.904   6.734   2.210
 3660SOL    HW211880   4.866   6.733   2.369
 3661SOL     OW11881   4.579   1.956   6.476
 3661SOL    HW111882   4.561   1.905   6.561
 3661SOL    HW211883   4.509   1.932   6.408
 3662SOL     OW11884   4.386   0.919   3.787
 3662SOL    HW111885   4.423   0.914   3.880
 3662SOL    HW211886   4.315   0.989   3.783
 3663SOL     OW11887   1.800   1.678   0.824
 3663SOL    HW111888   1.750   1.703   0.741
 3663SOL    HW211889   1.792   1.580   0.840
 3664SOL     OW11890   4.773   2.393   1.257
 3664SOL    HW111891   4.724   2.458   1.315
 3664SOL    HW211892   4.859   2.435   1.227
 3665SOL     OW11893   0.525   5.749   5.482
 3665SOL    HW111894   0.533   5.777   5.387
 3665SOL    HW211895   0.448   5.797   5.525
 3666SOL     OW11896   1.839   4.277   2.649
 3666SOL    HW111897   1.801   4.362   2.686
 3666SOL    HW211898   1.787   4.249   2.569
 3667SOL     OW11899   6.628   0.417   0.531
 3667SOL    HW111900   6.589   0.506   0.551
 3667SOL    HW211901   6.688   0.389   0.606
 3668SOL     OW11902   1.609   0.423   1.938
 3668SOL    HW111903   1.629   0.329   1.910
 3668SOL    HW211904   1.594   0.426   2.037
 3669SOL     OW11905   6.031   0.859   4.578
 3669SOL    HW111906   6.014   0.899   4.668
 3669SOL    HW211907   6.076   0.771   4.589
 3670SOL     OW11908   2.329   4.169   0.791
 3670SOL    HW111909   2.422   4.148   0.761
 3670SOL    HW211910   2.283   4.084   0.816
 3671SOL     OW11911   6.081   0.317   4.194
 3671SOL    HW111912   6.170   0.364   4.191
 3671SOL    HW211913   6.080   0.252   4.270
 3672SOL     OW11914   5.469   1.518   1.302
 3672SOL    HW111915   5.419   1.439   1.340
 3672SOL    HW211916   5.564   1.515   1.333
 3673SOL     OW11917   3.508   0.263   5.845
 3673SOL    HW111918   3.449   0.203   5.899
 3673SOL    HW211919   3.497   0.242   5.748
 3674SOL     OW11920   0.385   0.334   5.460
 3674SOL    HW111921   0.344   0.417   5.421
 3674SOL    HW211922   0.313   0.268   5.479
 3675SOL     OW11923   2.107   3.104   4.963
 3675SOL    HW111924   2.054   3.029   4.924
 3675SOL    HW211925   2.204   3.085   4.954
 3676SOL     OW11926   4.533   4.946   4.635
 3676SOL    HW111927   4.536   5.037   4.675
 3676SOL    HW211928   4.625   4.908   4.631
 3677SOL     OW11929   1.182   6.545   3.268
 3677SOL    HW111930   1.094   6.543   3.317
 3677SOL    HW211931   1.175   6.487   3.186
 3678SOL     OW11932   0.950   3.665   3.959
 3678SOL    HW111933   0.922   3.672   4.055
 3678SOL    HW211934   1.047   3.689   3.951
 3679SOL     OW11935   1.462   0.907   3.386
 3679SOL    HW111936   1.526   0.983   3.372
 3679SOL    HW211937   1.381   0.921   3.329
 3680SOL     OW11938   5.454   2.446   3.788
 3680SOL    HW111939   5.423   2.358   3.752
 3680SOL    HW211940   5.390   2.478   3.858
 3681SOL     OW11941   0.673   0.750   5.148
 3681SOL    HW111942   0.576   0.765   5.125
 3681SOL    HW211943   0.700   0.659   5.115
 3682SOL     OW11944   5.872   2.538   6.670
 3682SOL    HW111945   5.831   2.451   6.642
 3682SOL    HW211946   5.888   2.595   6.589
 3683SOL     OW11947   0.087   6.812   4.319
 3683SOL    HW111948   0.169   6.756   4.330
 3683SOL    HW211949   0.025   6.768   4.254
 3684SOL     OW11950   1.770   3.633   7.006
 3684SOL    HW111951   1.743   3.730   7.011
 3684SOL    HW211952   1.762   3.592   0.073
 3685SOL     OW11953   6.381   6.268   6.499
 3685SOL    HW111954   6.464   6.297   6.545
 3685SOL    HW211955   6.351   6.180   6.536
 3686SOL     OW11956   6.162   5.642   3.651
 3686SOL    HW111957   6.165   5.659   3.552
 3686SOL    HW211958   6.209   5.717   3.698
 3687SOL     OW11959   3.850   6.178   5.566
 3687SOL    HW111960   3.912   6.137   5.634
 3687SOL    HW211961   3.902   6.238   5.505
 3688SOL     OW11962   1.130   3.611   6.419
 3688SOL    HW111963   1.206   3.667   6.451
 3688SOL    HW211964   1.154   3.569   6.332
 3689SOL     OW11965   1.489   0.393   6.493
 3689SOL    HW111966   1.538   0.417   6.576
 3689SOL    HW211967   1.414   0.458   6.479
 3690SOL     OW11968   4.182   0.085   6.288
 3690SOL    HW111969   4.123   0.129   6.221
 3690SOL    HW211970   4.135   0.083   6.377
 3691SOL     OW11971   2.473   2.612   0.069
 3691SOL    HW111972   2.461   2.583   0.164
 3691SOL    HW211973   2.462   2.711   0.063
 3692SOL     OW11974   0.811   6.091   5.049
 3692SOL    HW111975   0.734   6.153   5.039
 3692SOL    HW211976   0.809   6.049   5.140
 3693SOL     OW11977   2.131   2.680   2.296
 3693SOL    HW111978   2.197   2.684   2.372
 3693SOL    HW211979   2.180   2.683   2.209
 3694SOL     OW11980   0.871   5.846   3.098
 3694SOL    HW111981   0.879   5.829   3.196
 3694SOL    HW211982   0.957   5.821   3.053
 3695SOL     OW11983   6.645   2.828   2.695
 3695SOL    HW111984   6.555   2.861   2.722
 3695SOL    HW211985   6.702   2.904   2.665
 3696SOL     OW11986   3.283   5.676   5.214
 3696SOL    HW111987   3.290   5.760   5.269
 3696SOL    HW211988   3.190   5.641   5.219
 3697SOL     OW11989   0.199   6.020   3.519
 3697SOL    HW111990   0.286   5.983   3.488
 3697SOL    HW211991   0.172   5.975   3.604
 3698SOL     OW11992   2.818   6.348   4.960
 3698SOL    HW111993   2.774   6.391   4.881
 3698SOL    HW211994   2.767   6.267   4.988
 3699SOL     OW11995   6.629   3.531   2.972
 3699SOL    HW111996   6.664   3.464   2.907
 3699SOL    HW211997   6.648   3.623   2.938
 3700SOL     OW11998   0.097   0.398   4.596
 3700SOL    HW111999   0.136   0.431   4.510
 3700SOL    HW212000   0.006   0.360   4.579
 3701SOL     OW12001   0.673   0.465   3.697
 3701SOL    HW112002   0.752   0.416   3.734
 3701SOL    HW212003   0.591   0.441   3.750
 3702SOL     OW12004   4.659   0.144   2.035
 3702SOL    HW112005   4.724   0.084   1.988
 3702SOL    HW212006   4.709   0.212   2.088
 3703SOL     OW12007   4.716   2.785   6.599
 3703SOL    HW112008   4.773   2.733   6.662
 3703SOL    HW212009   4.772   2.816   6.522
 3704SOL     OW12010   2.781   0.310   1.487
 3704SOL    HW112011   2.696   0.350   1.453
 3704SOL    HW212012   2.786   0.213   1.461
 3705SOL     OW12013   5.400   6.249   3.719
 3705SOL    HW112014   5.446   6.167   3.751
 3705SOL    HW212015   5.303   6.246   3.745
 3706SOL     OW12016   1.127   3.289   4.430
 3706SOL    HW112017   1.144   3.373   4.481
 3706SOL    HW212018   1.151   3.210   4.486
 3707SOL     OW12019   6.069   3.479   5.105
 3707SOL    HW112020   6.013   3.474   5.188
 3707SOL    HW212021   6.012   3.462   5.025
 3708SOL     OW12022   6.287   0.959   6.433
 3708SOL    HW112023   6.283   1.006   6.521
 3708SOL    HW212024   6.374   0.979   6.388
 3709SOL     OW12025   4.081   0.602   0.192
 3709SOL    HW112026   4.140   0.582   0.114
 3709SOL    HW212027   3.988   0.573   0.172
 3710SOL     OW12028   6.841   6.429   0.319
 3710SOL    HW112029   6.923   6.449   0.373
 3710SOL    HW212030   6.760   6.459   0.369
 3711SOL     OW12031   6.847   6.594   2.183
 3711SOL    HW112032   6.942   6.610   2.210
 3711SOL    HW212033   6.837   6.500   2.151
 3712SOL     OW12034   6.738   6.322   0.087
 3712SOL    HW112035   6.765   6.318   0.183
 3712SOL    HW212036   6.820   6.333   0.030
 3713SOL     OW12037   1.330   6.258   4.506
 3713SOL    HW112038   1.333   6.347   4.552
 3713SOL    HW212039   1.272   6.264   4.425
 3714SOL     OW12040   4.715   5.398   5.009
 3714SOL    HW112041   4.754   5.490   5.003
 3714SOL    HW212042   4.617   5.405   5.026
 3715SOL     OW12043   6.145   4.177   3.809
 3715SOL    HW112044   6.086   4.110   3.855
 3715SOL    HW212045   6.240   4.147   3.815
 3716SOL     OW12046   6.196   6.999   5.336
 3716SOL    HW112047   6.288   6.962   5.324
 3716SOL    HW212048   6.129   6.927   5.319
 3717SOL     OW12049   5.658   5.347   6.233
 3717SOL    HW112050   5.745   5.357   6.283
 3717SOL    HW212051   5.624   5.438   6.208
 3718SOL     OW12052   2.376   0.349   5.867
 3718SOL    HW112053   2.391   0.250   5.870
 3718SOL    HW212054   2.368   0.384   5.960
 3719SOL     OW12055   5.706   4.646   1.033
 3719SOL    HW112056   5.651   4.631   0.950
 3719SOL    HW212057   5.776   4.714   1.014
 3720SOL     OW12058   5.824   2.496   5.764
 3720SOL    HW112059   5.920   2.511   5.739
 3720SOL    HW212060   5.766   2.560   5.715
 3721SOL     OW12061   5.303   4.756   0.905
 3721SOL    HW112062   5.234   4.692   0.869
 3721SOL    HW212063   5.258   4.838   0.939
 3722SOL     OW12064   6.453   6.986   2.717
 3722SOL    HW112065   6.370   6.977   2.663
 3722SOL    HW212066   6.482   0.058   2.719
 3723SOL     OW12067   6.106   6.330   1.530
 3723SOL    HW112068   6.158   6.280   1.598
 3723SOL    HW212069   6.168   6.381   1.470
 3724SOL     OW12070   2.144   5.334   6.510
 3724SOL    HW112071   2.224   5.336   6.571
 3724SOL    HW212072   2.061   5.320   6.564
 3725SOL     OW12073   5.353   5.924   0.312
 3725SOL    HW112074   5.379   5.861   0.385
 3725SOL    HW212075   5.422   5.996   0.304
 3726SOL     OW12076   6.443   5.000   0.729
 3726SOL    HW112077   6.387   5.083   0.733
 3726SOL    HW212078   6.399   4.928   0.783
 3727SOL     OW12079   6.861   2.797   5.958
 3727SOL    HW112080   6.864   2.731   5.883
 3727SOL    HW212081   6.816   2.756   6.037
 3728SOL     OW12082   1.430   3.796   0.218
 3728SOL    HW112083   1.361   3.729   0.244
 3728SOL    HW212084   1.386   3.880   0.186
 3729SOL     OW12085   1.628   2.279   3.505
 3729SOL    HW112086   1.719   2.268   3.546
 3729SOL    HW212087   1.558   2.249   3.570
 3730SOL     OW12088   2.623   5.134   6.045
 3730SOL    HW112089   2.696   5.132   5.976
 3730SOL    HW212090   2.652   5.082   6.125
 3731SOL     OW12091   4.440   0.178   0.711
 3731SOL    HW112092   4.486   0.109   0.768
 3731SOL    HW212093   4.507   0.246   0.681
 3732SOL     OW12094   1.415   2.427   6.816
 3732SOL    HW112095   1.438   2.341   6.771
 3732SOL    HW212096   1.349   2.410   6.889
 3733SOL     OW12097   1.440   3.400   1.672
 3733SOL    HW112098   1.360   3.393   1.612
 3733SOL    HW212099   1.427   3.343   1.753
 3734SOL     OW12100   4.304   1.458   1.727
 3734SOL    HW112101   4.329   1.549   1.761
 3734SOL    HW212102   4.222   1.426   1.774
 3735SOL     OW12103   1.786   1.120   3.623
 3735SOL    HW112104   1.830   1.143   3.537
 3735SOL    HW212105   1.778   1.020   3.631
 3736SOL     OW12106   6.806   3.126   1.458
 3736SOL    HW112107   6.769   3.166   1.374
 3736SOL    HW212108   6.798   3.192   1.533
 3737SOL     OW12109   5.113   0.158   2.880
 3737SOL    HW112110   5.027   0.207   2.892
 3737SOL    HW212111   5.137   0.157   2.782
 3738SOL     OW12112   6.810   6.137   2.728
 3738SOL    HW112113   6.725   6.187   2.747
 3738SOL    HW212114   6.866   6.190   2.663
 3739SOL     OW12115   1.939   4.860   1.679
 3739SOL    HW112116   1.927   4.919   1.759
 3739SOL    HW212117   2.004   4.787   1.701
 3740SOL     OW12118   4.397   0.279   0.018
 3740SOL    HW112119   4.487   0.249   7.012
 3740SOL    HW212120   4.394   0.379   0.017
 3741SOL     OW12121   4.602   3.107   1.431
 3741SOL    HW112122   4.696   3.113   1.395
 3741SOL    HW212123   4.601   3.137   1.526
 3742SOL     OW12124   2.222   2.116   6.092
 3742SOL    HW112125   2.284   2.156   6.024
 3742SOL    HW212126   2.144   2.075   6.046
 3743SOL     OW12127   5.731   4.343   0.825
 3743SOL    HW112128   5.681   4.304   0.902
 3743SOL    HW212129   5.667   4.385   0.760
 3744SOL     OW12130   0.812   5.942   2.773
 3744SOL    HW112131   0.836   6.005   2.846
 3744SOL    HW212132   0.788   5.853   2.812
 3745SOL     OW12133   3.484   5.153   2.103
 3745SOL    HW112134   3.481   5.054   2.117
 3745SOL    HW212135   3.578   5.182   2.083
 3746SOL     OW12136   4.690   1.807   2.644
 3746SOL    HW112137   4.688   1.907   2.640
 3746SOL    HW212138   4.722   1.771   2.556
 3747SOL     OW12139   3.422   6.637   5.958
 3747SOL    HW112140   3.438   6.607   5.863
 3747SOL    HW212141   3.502   6.687   5.991
 3748SOL     OW12142   5.045   0.751   1.688
 3748SOL    HW112143   5.042   0.851   1.678
 3748SOL    HW212144   5.115   0.714   1.628
 3749SOL     OW12145   1.615   6.652   4.119
 3749SOL    HW112146   1.626   6.709   4.201
 3749SOL    HW212147   1.540   6.689   4.064
 3750SOL     OW12148   2.253   4.336   0.300
 3750SOL    HW112149   2.245   4.318   0.398
 3750SOL    HW212150   2.274   4.432   0.285
 3751SOL     OW12151   6.308   3.418   2.164
 3751SOL    HW112152   6.407   3.404   2.170
 3751SOL    HW212153   6.286   3.512   2.191
 3752SOL     OW12154   4.769   0.473   5.890
 3752SOL    HW112155   4.731   0.522   5.969
 3752SOL    HW212156   4.729   0.509   5.806
 3753SOL     OW12157   6.329   0.472   5.115
 3753SOL    HW112158   6.373   0.548   5.067
 3753SOL    HW212159   6.234   0.465   5.085
 3754SOL     OW12160   2.616   0.692   2.023
 3754SOL    HW112161   2.636   0.726   2.115
 3754SOL    HW212162   2.702   0.680   1.973
 3755SOL     OW12163   3.547   5.368   5.057
 3755SOL    HW112164   3.515   5.433   4.988
 3755SOL    HW212165   3.646   5.372   5.064
 3756SOL     OW12166   3.417   5.452   6.495
 3756SOL    HW112167   3.443   5.467   6.590
 3756SOL    HW212168   3.432   5.536   6.442
 3757SOL     OW12169   6.367   5.569   1.828
 3757SOL    HW112170   6.447   5.568   1.768
 3757SOL    HW212171   6.287   5.601   1.776
 3758SOL     OW12172   1.699   1.285   4.608
 3758SOL    HW112173   1.737   1.192   4.613
 3758SOL    HW212174   1.752   1.339   4.542
 3759SOL     OW12175   4.489   0.609   5.367
 3759SOL    HW112176   4.569   0.655   5.328
 3759SOL    HW212177   4.427   0.678   5.406
 3760SOL     OW12178   0.837   0.965   3.244
 3760SOL    HW112179   0.757   1.022   3.259
 3760SOL    HW212180   0.907   1.017   3.195
 3761SOL     OW12181   6.790   0.968   4.579
 3761SOL    HW112182   6.838   0.946   4.664
 3761SOL    HW212183   6.718   0.900   4.563
 3762SOL     OW12184   1.414   4.314   1.851
 3762SOL    HW112185   1.384   4.252   1.777
 3762SOL    HW212186   1.374   4.283   1.938
 3763SOL     OW12187   6.688   4.190   0.614
 3763SOL    HW112188   6.698   4.108   0.559
 3763SOL    HW212189   6.604   4.238   0.589
 3764SOL     OW12190   2.003   6.860   2.770
 3764SOL    HW112191   2.003   6.848   2.869
 3764SOL    HW212192   1.966   6.950   2.747
 3765SOL     OW12193   6.416   1.503   1.344
 3765SOL    HW112194   6.348   1.481   1.414
 3765SOL    HW212195   6.493   1.551   1.386
 3766SOL     OW12196   2.063   1.792   4.375
 3766SOL    HW112197   2.126   1.799   4.451
 3766SOL    HW212198   2.095   1.849   4.299
 3767SOL     OW12199   3.408   4.246   6.178
 3767SOL    HW112200   3.359   4.252   6.265
 3767SOL    HW212201   3.450   4.335   6.158
 3768SOL     OW12202   1.159   0.936   4.866
 3768SOL    HW112203   1.206   0.936   4.778
 3768SOL    HW212204   1.223   0.912   4.939
 3769SOL     OW12205   5.825   5.700   5.324
 3769SOL    HW112206   5.842   5.741   5.234
 3769SOL    HW212207   5.756   5.628   5.315
 3770SOL     OW12208   1.023   0.887   6.914
 3770SOL    HW112209   0.978   0.806   6.877
 3770SOL    HW212210   1.085   0.925   6.845
 3771SOL     OW12211   5.762   4.200   6.531
 3771SOL    HW112212   5.667   4.182   6.553
 3771SOL    HW212213   5.812   4.226   6.613
 3772SOL     OW12214   0.979   0.126   0.418
 3772SOL    HW112215   0.931   0.077   0.345
 3772SOL    HW212216   1.014   0.212   0.382
 3773SOL     OW12217   5.745   3.364   5.696
 3773SOL    HW112218   5.734   3.294   5.767
 3773SOL    HW212219   5.667   3.427   5.699
 3774SOL     OW12220   5.629   5.452   1.865
 3774SOL    HW112221   5.569   5.529   1.844
 3774SOL    HW212222   5.574   5.371   1.887
 3775SOL     OW12223   4.017   4.797   3.806
 3775SOL    HW112224   3.984   4.807   3.712
 3775SOL    HW212225   3.941   4.814   3.870
 3776SOL     OW12226   3.527   2.655   6.315
 3776SOL    HW112227   3.530   2.572   6.260
 3776SOL    HW212228   3.450   2.650   6.379
 3777SOL     OW12229   2.672   6.058   3.730
 3777SOL    HW112230   2.690   6.143   3.680
 3777SOL    HW212231   2.758   6.013   3.753
 3778SOL     OW12232   2.344   6.252   3.496
 3778SOL    HW112233   2.296   6.323   3.547
 3778SOL    HW212234   2.279   6.183   3.465
 3779SOL     OW12235   0.424   4.721   0.891
 3779SOL    HW112236   0.431   4.648   0.959
 3779SOL    HW212237   0.366   4.691   0.816
 3780SOL     OW12238   0.358   3.283   3.702
 3780SOL    HW112239   0.349   3.379   3.674
 3780SOL    HW212240   0.363   3.279   3.802
 3781SOL     OW12241   0.740   6.761   4.385
 3781SOL    HW112242   0.733   6.767   4.484
 3781SOL    HW212243   0.829   6.797   4.356
 3782SOL     OW12244   3.675   6.519   2.480
 3782SOL    HW112245   3.585   6.501   2.519
 3782SOL    HW212246   3.717   6.596   2.528
 3783SOL     OW12247   6.634   5.476   4.310
 3783SOL    HW112248   6.686   5.497   4.227
 3783SOL    HW212249   6.674   5.397   4.355
 3784SOL     OW12250   5.309   2.543   2.372
 3784SOL    HW112251   5.213   2.570   2.379
 3784SOL    HW212252   5.367   2.610   2.419
 3785SOL     OW12253   0.942   3.177   5.146
 3785SOL    HW112254   1.023   3.141   5.191
 3785SOL    HW212255   0.882   3.220   5.215
 3786SOL     OW12256   2.043   3.463   3.174
 3786SOL    HW112257   1.968   3.432   3.115
 3786SOL    HW212258   2.073   3.387   3.232
 3787SOL     OW12259   5.437   0.260   2.836
 3787SOL    HW112260   5.466   0.307   2.753
 3787SOL    HW212261   5.343   0.286   2.858
 3788SOL     OW12262   6.059   4.973   5.143
 3788SOL    HW112263   5.995   4.968   5.219
 3788SOL    HW212264   6.054   5.064   5.101
 3789SOL     OW12265   6.821   3.766   2.985
 3789SOL    HW112266   6.768   3.762   2.901
 3789SOL    HW212267   6.891   3.694   2.985
 3790SOL     OW12268   1.075   4.964   6.395
 3790SOL    HW112269   1.140   5.004   6.331
 3790SOL    HW212270   1.019   5.037   6.435
 3791SOL     OW12271   5.164   2.081   6.832
 3791SOL    HW112272   5.077   2.125   6.809
 3791SOL    HW212273   5.153   1.982   6.830
 3792SOL     OW12274   0.990   1.633   4.446
 3792SOL    HW112275   1.003   1.601   4.352
 3792SOL    HW212276   0.933   1.715   4.445
 3793SOL     OW12277   5.652   6.760   1.161
 3793SOL    HW112278   5.714   6.749   1.238
 3793SOL    HW212279   5.559   6.772   1.195
 3794SOL     OW12280   1.936   3.084   1.817
 3794SOL    HW112281   2.018   3.124   1.859
 3794SOL    HW212282   1.937   3.101   1.719
 3795SOL     OW12283   3.158   5.095   1.298
 3795SOL    HW112284   3.226   5.167   1.305
 3795SOL    HW212285   3.078   5.129   1.248
 3796SOL     OW12286   4.026   2.042   1.016
 3796SOL    HW112287   3.968   2.036   0.936
 3796SOL    HW212288   4.113   1.997   0.998
 3797SOL     OW12289   0.845   4.067   3.411
 3797SOL    HW112290   0.889   4.120   3.483
 3797SOL    HW212291   0.866   4.108   3.322
 3798SOL     OW12292   3.405   6.437   2.324
 3798SOL    HW112293   3.505   6.441   2.319
 3798SOL    HW212294   3.375   6.464   2.415
 3799SOL     OW12295   0.084   2.731   3.502
 3799SOL    HW112296   0.124   2.820   3.481
 3799SOL    HW212297   0.012   2.710   3.436
 3800SOL     OW12298   5.412   2.219   4.064
 3800SOL    HW112299   5.479   2.231   4.138
 3800SOL    HW212300   5.381   2.308   4.032
 3801SOL     OW12301   5.473   6.779   1.637
 3801SOL    HW112302   5.391   6.777   1.580
 3801SOL    HW212303   5.459   6.842   1.714
 3802SOL     OW12304   0.033   1.522   2.423
 3802SOL    HW112305   7.012   1.465   2.354
 3802SOL    HW212306   0.084   1.596   2.378
 3803SOL     OW12307   4.047   3.770   3.717
 3803SOL    HW112308   4.142   3.799   3.730
 3803SOL    HW212309   4.031   3.685   3.767
 3804SOL     OW12310   3.697   1.549   4.184
 3804SOL    HW112311   3.655   1.483   4.247
 3804SOL    HW212312   3.756   1.611   4.236
 3805SOL     OW12313   1.718   2.416   1.840
 3805SOL    HW112314   1.633   2.468   1.828
 3805SOL    HW212315   1.777   2.431   1.761
 3806SOL     OW12316   3.413   3.382   5.936
 3806SOL    HW112317   3.465   3.298   5.952
 3806SOL    HW212318   3.469   3.447   5.884
 3807SOL     OW12319   2.061   4.570   3.396
 3807SOL    HW112320   2.050   4.511   3.315
 3807SOL    HW212321   2.097   4.516   3.472
 3808SOL     OW12322   4.375   0.554   6.549
 3808SOL    HW112323   4.326   0.640   6.555
 3808SOL    HW212324   4.320   0.481   6.591
 3809SOL     OW12325   5.777   2.372   1.920
 3809SOL    HW112326   5.865   2.400   1.884
 3809SOL    HW212327   5.756   2.425   2.003
 3810SOL     OW12328   6.528   2.527   3.336
 3810SOL    HW112329   6.512   2.586   3.257
 3810SOL    HW212330   6.542   2.433   3.304
 3811SOL     OW12331   7.013   5.984   4.469
 3811SOL    HW112332   7.006   5.991   4.369
 3811SOL    HW212333   6.957   5.908   4.501
 3812SOL     OW12334   3.275   4.805   5.879
 3812SOL    HW112335   3.361   4.805   5.928
 3812SOL    HW212336   3.292   4.820   5.781
 3813SOL     OW12337   5.908   3.744   0.884
 3813SOL    HW112338   5.970   3.669   0.859
 3813SOL    HW212339   5.927   3.773   0.978
 3814SOL     OW12340   0.092   0.264   4.107
 3814SOL    HW112341   0.126   0.222   4.023
 3814SOL    HW212342   0.161   0.328   4.142
 3815SOL     OW12343   4.145   2.668   1.180
 3815SOL    HW112344   4.048   2.659   1.160
 3815SOL    HW212345   4.179   2.584   1.221
 3816SOL     OW12346   0.873   5.492   5.636
 3816SOL    HW112347   0.891   5.476   5.733
 3816SOL    HW212348   0.777   5.514   5.623
 3817SOL     OW12349   5.044   3.542   2.220
 3817SOL    HW112350   5.102   3.461   2.212
 3817SOL    HW212351   5.002   3.562   2.131
 3818SOL     OW12352   6.953   0.780   0.936
 3818SOL    HW112353   6.901   0.860   0.963
 3818SOL    HW212354   0.028   0.802   0.935
 3819SOL     OW12355   6.060   4.461   2.238
 3819SOL    HW112356   5.977   4.476   2.293
 3819SOL    HW212357   6.138   4.449   2.299
 3820SOL     OW12358   6.622   6.197   3.524
 3820SOL    HW112359   6.630   6.212   3.623
 3820SOL    HW212360   6.713   6.192   3.483
 3821SOL     OW12361   1.301   1.289   1.975
 3821SOL    HW112362   1.337   1.236   1.898
 3821SOL    HW212363   1.320   1.240   2.061
 3822SOL     OW12364   2.291   6.752   6.325
 3822SOL    HW112365   2.363   6.771   6.391
 3822SOL    HW212366   2.290   6.654   6.303
 3823SOL     OW12367   4.280   3.859   6.764
 3823SOL    HW112368   4.354   3.794   6.747
 3823SOL    HW212369   4.194   3.810   6.776
 3824SOL     OW12370   0.981   2.561   0.717
 3824SOL    HW112371   0.993   2.478   0.662
 3824SOL    HW212372   0.893   2.558   0.763
 3825SOL     OW12373   1.113   4.220   0.236
 3825SOL    HW112374   1.091   4.145   0.298
 3825SOL    HW212375   1.028   4.257   0.197
 3826SOL     OW12376   6.804   3.456   1.512
 3826SOL    HW112377   6.863   3.519   1.563
 3826SOL    HW212378   6.820   3.467   1.414
 3827SOL     OW12379   0.854   0.810   1.372
 3827SOL    HW112380   0.856   0.733   1.436
 3827SOL    HW212381   0.888   0.779   1.283
 3828SOL     OW12382   3.618   3.813   4.378
 3828SOL    HW112383   3.635   3.893   4.320
 3828SOL    HW212384   3.665   3.825   4.465
 3829SOL     OW12385   0.381   5.122   2.045
 3829SOL    HW112386   0.356   5.025   2.045
 3829SOL    HW212387   0.300   5.177   2.066
 3830SOL     OW12388   0.421   1.482   5.901
 3830SOL    HW112389   0.505   1.435   5.874
 3830SOL    HW212390   0.410   1.476   6.001
 3831SOL     OW12391   4.373   2.282   2.673
 3831SOL    HW112392   4.358   2.357   2.738
 3831SOL    HW212393   4.392   2.197   2.724
 3832SOL     OW12394   6.849   0.830   2.398
 3832SOL    HW112395   6.861   0.792   2.490
 3832SOL    HW212396   6.877   0.926   2.398
 3833SOL     OW12397   0.955   6.124   6.260
 3833SOL    HW112398   0.978   6.161   6.350
 3833SOL    HW212399   0.865   6.160   6.232
 3834SOL     OW12400   3.894   4.365   0.969
 3834SOL    HW112401   3.932   4.417   0.892
 3834SOL    HW212402   3.913   4.268   0.957
 3835SOL     OW12403   3.942   6.035   5.311
 3835SOL    HW112404   3.866   6.076   5.362
 3835SOL    HW212405   3.960   6.089   5.229
 3836SOL     OW12406   0.108   4.887   5.794
 3836SOL    HW112407   0.158   4.883   5.881
 3836SOL    HW212408   0.163   4.936   5.727
 3837SOL     OW12409   4.438   4.921   5.366
 3837SOL    HW112410   4.366   4.978   5.406
 3837SOL    HW212411   4.404   4.828   5.354
 3838SOL     OW12412   1.074   2.667   3.464
 3838SOL    HW112413   1.123   2.728   3.526
 3838SOL    HW212414   1.103   2.573   3.479
 3839SOL     OW12415   4.920   1.775   2.826
 3839SOL    HW112416   5.016   1.780   2.853
 3839SOL    HW212417   4.886   1.867   2.804
 3840SOL     OW12418   3.023   1.687   6.634
 3840SOL    HW112419   2.967   1.636   6.569
 3840SOL    HW212420   3.042   1.630   6.714
 3841SOL     OW12421   0.950   3.409   4.237
 3841SOL    HW112422   0.899   3.487   4.274
 3841SOL    HW212423   1.016   3.376   4.305
 3842SOL     OW12424   2.134   2.894   3.447
 3842SOL    HW112425   2.185   2.904   3.533
 3842SOL    HW212426   2.178   2.948   3.375
 3843SOL     OW12427   5.276   3.546   2.370
 3843SOL    HW112428   5.338   3.524   2.295
 3843SOL    HW212429   5.192   3.586   2.334
 3844SOL     OW12430   1.425   3.358   6.190
 3844SOL    HW112431   1.486   3.390   6.118
 3844SOL    HW212432   1.330   3.366   6.160
 3845SOL     OW12433   2.385   5.143   5.902
 3845SOL    HW112434   2.471   5.128   5.951
 3845SOL    HW212435   2.405   5.176   5.810
 3846SOL     OW12436   0.869   4.209   3.635
 3846SOL    HW112437   0.888   4.197   3.732
 3846SOL    HW212438   0.770   4.204   3.619
 3847SOL     OW12439   5.216   3.001   4.430
 3847SOL    HW112440   5.148   3.059   4.384
 3847SOL    HW212441   5.216   3.021   4.528
 3848SOL     OW12442   4.934   4.009   2.857
 3848SOL    HW112443   5.022   3.986   2.900
 3848SOL    HW212444   4.921   4.108   2.859
 3849SOL     OW12445   1.468   1.202   6.104
 3849SOL    HW112446   1.495   1.106   6.097
 3849SOL    HW212447   1.392   1.220   6.042
 3850SOL     OW12448   2.918   2.909   1.676
 3850SOL    HW112449   2.987   2.846   1.711
 3850SOL    HW212450   2.942   3.003   1.700
 3851SOL     OW12451   0.212   4.592   3.696
 3851SOL    HW112452   0.147   4.555   3.629
 3851SOL    HW212453   0.175   4.676   3.736
 3852SOL     OW12454   3.606   5.911   3.808
 3852SOL    HW112455   3.684   5.849   3.819
 3852SOL    HW212456   3.622   5.995   3.860
 3853SOL     OW12457   0.876   3.608   3.357
 3853SOL    HW112458   0.902   3.687   3.302
 3853SOL    HW212459   0.777   3.594   3.350
 3854SOL     OW12460   1.394   2.412   2.540
 3854SOL    HW112461   1.365   2.363   2.457
 3854SOL    HW212462   1.358   2.505   2.538
 3855SOL     OW12463   4.466   6.126   6.382
 3855SOL    HW112464   4.547   6.183   6.373
 3855SOL    HW212465   4.413   6.129   6.297
 3856SOL     OW12466   0.359   0.592   5.947
 3856SOL    HW112467   0.372   0.542   6.033
 3856SOL    HW212468   0.344   0.527   5.872
 3857SOL     OW12469   0.721   6.108   6.524
 3857SOL    HW112470   0.794   6.160   6.568
 3857SOL    HW212471   0.757   6.061   6.443
 3858SOL     OW12472   3.129   1.040   5.820
 3858SOL    HW112473   3.081   1.008   5.738
 3858SOL    HW212474   3.079   1.116   5.861
 3859SOL     OW12475   6.654   1.103   1.873
 3859SOL    HW112476   6.636   1.200   1.891
 3859SOL    HW212477   6.605   1.047   1.940
 3860SOL     OW12478   1.600   1.400   4.058
 3860SOL    HW112479   1.624   1.481   4.111
 3860SOL    HW212480   1.500   1.386   4.062
 3861SOL     OW12481   4.368   5.220   4.216
 3861SOL    HW112482   4.392   5.216   4.313
 3861SOL    HW212483   4.292   5.159   4.197
 3862SOL     OW12484   0.188   0.966   4.475
 3862SOL    HW112485   0.232   0.882   4.443
 3862SOL    HW212486   0.216   1.043   4.417
 3863SOL     OW12487   6.057   2.204   0.049
 3863SOL    HW112488   6.024   2.167   0.136
 3863SOL    HW212489   5.979   2.228   7.014
 3864SOL     OW12490   1.832   0.438   5.852
 3864SOL    HW112491   1.914   0.381   5.859
 3864SOL    HW212492   1.775   0.425   5.933
 3865SOL     OW12493   3.961   0.844   1.203
 3865SOL    HW112494   3.911   0.873   1.284
 3865SOL    HW212495   4.059   0.844   1.223
 3866SOL     OW12496   3.763   0.267   0.397
 3866SOL    HW112497   3.860   0.269   0.421
 3866SOL    HW212498   3.716   0.342   0.443
 3867SOL     OW12499   0.616   5.672   3.450
 3867SOL    HW112500   0.640   5.663   3.547
 3867SOL    HW212501   0.636   5.587   3.402
 3868SOL     OW12502   3.158   0.615   0.343
 3868SOL    HW112503   3.068   0.572   0.331
 3868SOL    HW212504   3.187   0.605   0.439
 3869SOL     OW12505   6.210   3.314   4.798
 3869SOL    HW112506   6.206   3.394   4.738
 3869SOL    HW212507   6.300   3.271   4.790
 3870SOL     OW12508   6.859   6.967   0.434
 3870SOL    HW112509   6.778   6.978   0.377
 3870SOL    HW212510   6.936   6.937   0.378
 3871SOL     OW12511   4.125   0.777   3.216
 3871SOL    HW112512   4.061   0.702   3.199
 3871SOL    HW212513   4.208   0.741   3.257
 3872SOL     OW12514   3.063   3.141   3.836
 3872SOL    HW112515   3.001   3.144   3.915
 3872SOL    HW212516   3.141   3.083   3.857
 3873SOL     OW12517   6.280   4.138   0.945
 3873SOL    HW112518   6.227   4.195   0.882
 3873SOL    HW212519   6.295   4.049   0.904
 3874SOL     OW12520   4.416   5.928   0.671
 3874SOL    HW112521   4.397   5.945   0.768
 3874SOL    HW212522   4.442   6.013   0.627
 3875SOL     OW12523   2.096   3.326   2.471
 3875SOL    HW112524   2.108   3.368   2.381
 3875SOL    HW212525   2.157   3.371   2.537
 3876SOL     OW12526   3.240   5.457   0.945
 3876SOL    HW112527   3.207   5.424   1.033
 3876SOL    HW212528   3.226   5.386   0.876
 3877SOL     OW12529   6.150   2.473   1.351
 3877SOL    HW112530   6.239   2.496   1.390
 3877SOL    HW212531   6.145   2.506   1.257
 3878SOL     OW12532   3.748   6.518   4.642
 3878SOL    HW112533   3.670   6.580   4.646
 3878SOL    HW212534   3.807   6.543   4.566
 3879SOL     OW12535   5.938   5.010   1.015
 3879SOL    HW112536   5.903   4.972   0.930
 3879SOL    HW212537   5.878   5.084   1.046
 3880SOL     OW12538   5.609   4.661   4.109
 3880SOL    HW112539   5.549   4.734   4.141
 3880SOL    HW212540   5.678   4.642   4.178
 3881SOL     OW12541   1.271   2.964   2.094
 3881SOL    HW112542   1.265   3.043   2.155
 3881SOL    HW212543   1.361   2.962   2.051
 3882SOL     OW12544   1.167   1.357   6.366
 3882SOL    HW112545   1.261   1.324   6.370
 3882SOL    HW212546   1.143   1.381   6.272
 3883SOL     OW12547   4.702   1.098   2.313
 3883SOL    HW112548   4.709   1.165   2.387
 3883SOL    HW212549   4.793   1.075   2.280
 3884SOL     OW12550   1.331   5.844   2.518
 3884SOL    HW112551   1.351   5.941   2.532
 3884SOL    HW212552   1.287   5.832   2.429
 3885SOL     OW12553   5.874   5.856   2.600
 3885SOL    HW112554   5.812   5.828   2.674
 3885SOL    HW212555   5.966   5.823   2.619
 3886SOL     OW12556   5.546   5.264   5.114
 3886SOL    HW112557   5.599   5.186   5.081
 3886SOL    HW212558   5.525   5.251   5.211
 3887SOL     OW12559   0.997   0.245   0.138
 3887SOL    HW112560   1.065   0.307   0.176
 3887SOL    HW212561   1.025   0.150   0.154
 3888SOL     OW12562   6.767   0.562   4.527
 3888SOL    HW112563   6.824   0.484   4.552
 3888SOL    HW212564   6.676   0.551   4.566
 3889SOL     OW12565   0.161   3.887   0.550
 3889SOL    HW112566   0.214   3.971   0.557
 3889SOL    HW212567   0.165   3.853   0.456
 3890SOL     OW12568   6.141   5.201   3.681
 3890SOL    HW112569   6.177   5.263   3.611
 3890SOL    HW212570   6.070   5.248   3.734
 3891SOL     OW12571   5.497   4.309   4.405
 3891SOL    HW112572   5.514   4.407   4.397
 3891SOL    HW212573   5.486   4.269   4.314
 3892SOL     OW12574   0.218   1.906   1.428
 3892SOL    HW112575   0.164   1.927   1.510
 3892SOL    HW212576   0.282   1.981   1.411
 3893SOL     OW12577   4.458   4.333   0.465
 3893SOL    HW112578   4.370   4.371   0.496
 3893SOL    HW212579   4.441   4.266   0.393
 3894SOL     OW12580   4.542   0.593   0.551
 3894SOL    HW112581   4.577   0.683   0.523
 3894SOL    HW212582   4.445   0.600   0.574
 3895SOL     OW12583   1.824   0.799   5.228
 3895SOL    HW112584   1.751   0.821   5.293
 3895SOL    HW212585   1.862   0.884   5.190
 3896SOL     OW12586   0.274   1.048   5.647
 3896SOL    HW112587   0.232   1.090   5.566
 3896SOL    HW212588   0.328   1.117   5.696
 3897SOL     OW12589   3.532   5.498   2.694
 3897SOL    HW112590   3.470   5.573   2.671
 3897SOL    HW212591   3.571   5.514   2.784
 3898SOL     OW12592   2.640   3.434   5.629
 3898SOL    HW112593   2.739   3.427   5.621
 3898SOL    HW212594   2.607   3.508   5.571
 3899SOL     OW12595   5.253   6.993   4.943
 3899SOL    HW112596   5.160   6.994   4.904
 3899SOL    HW212597   5.247   6.992   5.043
 3900SOL     OW12598   5.326   3.256   4.117
 3900SOL    HW112599   5.275   3.184   4.164
 3900SOL    HW212600   5.387   3.215   4.049
 3901SOL     OW12601   2.428   6.988   5.573
 3901SOL    HW112602   2.456   0.032   5.505
 3901SOL    HW212603   2.334   7.004   5.600
 3902SOL     OW12604   5.441   3.390   1.778
 3902SOL    HW112605   5.356   3.344   1.806
 3902SOL    HW212606   5.518   3.348   1.825
 3903SOL     OW12607   3.610   6.067   6.161
 3903SOL    HW112608   3.568   6.135   6.221
 3903SOL    HW212609   3.583   6.085   6.066
 3904SOL     OW12610   2.440   1.458   5.324
 3904SOL    HW112611   2.522   1.407   5.298
 3904SOL    HW212612   2.363   1.427   5.268
 3905SOL     OW12613   0.187   0.240   6.577
 3905SOL    HW112614   0.166   0.202   6.667
 3905SOL    HW212615   0.223   0.333   6.587
 3906SOL     OW12616   4.731   5.066   6.010
 3906SOL    HW112617   4.802   5.036   5.946
 3906SOL    HW212618   4.767   5.138   6.069
 3907SOL     OW12619   6.157   0.345   4.560
 3907SOL    HW112620   6.064   0.381   4.556
 3907SOL    HW212621   6.198   0.367   4.648
 3908SOL     OW12622   1.579   2.476   0.451
 3908SOL    HW112623   1.654   2.468   0.516
 3908SOL    HW212624   1.502   2.420   0.482
 3909SOL     OW12625   0.313   5.347   5.565
 3909SOL    HW112626   0.217   5.321   5.574
 3909SOL    HW212627   0.319   5.443   5.538
 3910SOL     OW12628   3.528   3.257   1.719
 3910SOL    HW112629   3.429   3.270   1.723
 3910SOL    HW212630   3.548   3.166   1.682
 3911SOL     OW12631   4.778   1.175   6.861
 3911SOL    HW112632   4.713   1.175   6.938
 3911SOL    HW212633   4.737   1.128   6.783
 3912SOL     OW12634   4.469   0.331   5.776
 3912SOL    HW112635   4.392   0.277   5.740
 3912SOL    HW212636   4.444   0.428   5.777
 3913SOL     OW12637   1.795   6.794   6.084
 3913SOL    HW112638   1.725   6.826   6.147
 3913SOL    HW212639   1.752   6.764   5.999
 3914SOL     OW12640   3.889   1.074   1.052
 3914SOL    HW112641   3.893   1.156   1.108
 3914SOL    HW212642   3.933   0.998   1.100
 3915SOL     OW12643   3.811   4.944   2.162
 3915SOL    HW112644   3.822   4.915   2.067
 3915SOL    HW212645   3.718   4.923   2.192
 3916SOL     OW12646   1.873   6.122   3.686
 3916SOL    HW112647   1.861   6.180   3.605
 3916SOL    HW212648   1.838   6.169   3.767
 3917SOL     OW12649   0.066   5.424   0.477
 3917SOL    HW112650   0.134   5.477   0.427
 3917SOL    HW212651   0.019   5.362   0.414
 3918SOL     OW12652   4.874   6.528   2.068
 3918SOL    HW112653   4.909   6.600   2.009
 3918SOL    HW212654   4.886   6.439   2.022
 3919SOL     OW12655   2.510   5.805   6.372
 3919SOL    HW112656   2.445   5.765   6.436
 3919SOL    HW212657   2.474   5.800   6.279
 3920SOL     OW12658   2.888   2.617   0.463
 3920SOL    HW112659   2.965   2.673   0.492
 3920SOL    HW212660   2.856   2.647   0.374
 3921SOL     OW12661   0.005   3.641   1.458
 3921SOL    HW112662   0.028   3.576   1.386
 3921SOL    HW212663   0.023   3.734   1.426
 3922SOL     OW12664   5.832   3.915   1.894
 3922SOL    HW112665   5.746   3.897   1.846
 3922SOL    HW212666   5.832   4.008   1.930
 3923SOL     OW12667   0.241   2.169   6.658
 3923SOL    HW112668   0.282   2.226   6.587
 3923SOL    HW212669   0.252   2.213   6.747
 3924SOL     OW12670   0.753   5.410   3.396
 3924SOL    HW112671   0.719   5.317   3.408
 3924SOL    HW212672   0.799   5.439   3.479
 3925SOL     OW12673   3.220   4.922   0.436
 3925SOL    HW112674   3.134   4.924   0.385
 3925SOL    HW212675   3.222   4.841   0.495
 3926SOL     OW12676   0.076   5.950   3.171
 3926SOL    HW112677   0.036   5.914   3.255
 3926SOL    HW212678   0.058   6.048   3.164
 3927SOL     OW12679   6.560   3.460   3.503
 3927SOL    HW112680   6.493   3.468   3.577
 3927SOL    HW212681   6.559   3.545   3.449
 3928SOL     OW12682   2.951   6.347   5.651
 3928SOL    HW112683   2.878   6.409   5.677
 3928SOL    HW212684   2.915   6.276   5.591
 3929SOL     OW12685   0.004   1.391   5.602
 3929SOL    HW112686   6.970   1.334   5.661
 3929SOL    HW212687   0.048   1.462   5.657
 3930SOL     OW12688   2.086   1.693   3.700
 3930SOL    HW112689   2.000   1.704   3.650
 3930SOL    HW212690   2.162   1.690   3.636
 3931SOL     OW12691   1.600   1.854   2.453
 3931SOL    HW112692   1.520   1.868   2.396
 3931SOL    HW212693   1.604   1.926   2.523
 3932SOL     OW12694   1.437   4.311   2.721
 3932SOL    HW112695   1.407   4.248   2.648
 3932SOL    HW212696   1.497   4.262   2.784
 3933SOL     OW12697   1.795   6.429   0.277
 3933SOL    HW112698   1.697   6.419   0.296
 3933SOL    HW212699   1.823   6.523   0.296
 3934SOL     OW12700   0.196   0.882   0.911
 3934SOL    HW112701   0.267   0.836   0.857
 3934SOL    HW212702   0.201   0.981   0.895
 3935SOL     OW12703   2.233   0.124   6.937
 3935SOL    HW112704   2.175   0.124   6.856
 3935SOL    HW212705   2.237   0.032   6.976
 3936SOL     OW12706   6.614   5.101   5.508
 3936SOL    HW112707   6.653   5.089   5.417
 3936SOL    HW212708   6.687   5.100   5.577
 3937SOL     OW12709   6.886   0.755   2.659
 3937SOL    HW112710   6.865   0.843   2.703
 3937SOL    HW212711   6.962   0.711   2.707
 3938SOL     OW12712   0.171   1.709   3.999
 3938SOL    HW112713   0.146   1.619   3.966
 3938SOL    HW212714   0.151   1.778   3.929
 3939SOL     OW12715   2.518   1.842   2.282
 3939SOL    HW112716   2.435   1.811   2.328
 3939SOL    HW212717   2.500   1.850   2.184
 3940SOL     OW12718   4.213   5.187   2.028
 3940SOL    HW112719   4.199   5.135   2.112
 3940SOL    HW212720   4.254   5.275   2.051
 3941SOL     OW12721   4.908   2.190   6.791
 3941SOL    HW112722   4.902   2.170   6.693
 3941SOL    HW212723   4.824   2.161   6.836
 3942SOL     OW12724   0.393   0.465   6.508
 3942SOL    HW112725   0.436   0.376   6.490
 3942SOL    HW212726   0.305   0.470   6.460
 3943SOL     OW12727   0.864   4.096   2.781
 3943SOL    HW112728   0.962   4.101   2.762
 3943SOL    HW212729   0.824   4.187   2.776
 3944SOL     OW12730   5.179   3.354   4.799
 3944SOL    HW112731   5.103   3.345   4.862
 3944SOL    HW212732   5.167   3.437   4.744
 3945SOL     OW12733   0.999   2.252   2.018
 3945SOL    HW112734   0.952   2.283   1.935
 3945SOL    HW212735   1.061   2.178   1.995
 3946SOL     OW12736   5.485   5.849   6.140
 3946SOL    HW112737   5.563   5.912   6.136
 3946SOL    HW212738   5.515   5.761   6.178
 3947SOL     OW12739   5.899   5.363   0.940
 3947SOL    HW112740   5.963   5.434   0.968
 3947SOL    HW212741   5.875   5.307   1.020
 3948SOL     OW12742   0.726   5.918   1.696
 3948SOL    HW112743   0.679   5.840   1.739
 3948SOL    HW212744   0.804   5.945   1.752
 3949SOL     OW12745   5.617   0.527   2.922
 3949SOL    HW112746   5.563   0.476   2.855
 3949SOL    HW212747   5.681   0.464   2.967
 3950SOL     OW12748   2.347   3.818   1.739
 3950SOL    HW112749   2.272   3.881   1.757
 3950SOL    HW212750   2.312   3.732   1.703
 3951SOL     OW12751   6.161   6.840   0.823
 3951SOL    HW112752   6.083   6.778   0.825
 3951SOL    HW212753   6.210   6.830   0.736
 3952SOL     OW12754   6.371   3.642   2.556
 3952SOL    HW112755   6.332   3.647   2.648
 3952SOL    HW212756   6.468   3.616   2.562
 3953SOL     OW12757   4.018   3.990   1.365
 3953SOL    HW112758   3.967   3.910   1.334
 3953SOL    HW212759   4.095   4.005   1.303
 3954SOL     OW12760   5.281   5.293   5.082
 3954SOL    HW112761   5.252   5.261   5.172
 3954SOL    HW212762   5.380   5.308   5.082
 3955SOL     OW12763   3.059   5.155   6.280
 3955SOL    HW112764   3.098   5.200   6.360
 3955SOL    HW212765   2.998   5.081   6.309
 3956SOL     OW12766   0.185   1.043   2.961
 3956SOL    HW112767   0.113   1.088   3.013
 3956SOL    HW212768   0.145   0.986   2.890
 3957SOL     OW12769   4.584   6.377   3.768
 3957SOL    HW112770   4.676   6.362   3.804
 3957SOL    HW212771   4.535   6.290   3.762
 3958SOL     OW12772   5.514   0.558   6.000
 3958SOL    HW112773   5.613   0.547   6.012
 3958SOL    HW212774   5.468   0.541   6.087
 3959SOL     OW12775   3.966   6.488   1.022
 3959SOL    HW112776   3.899   6.524   0.957
 3959SOL    HW212777   4.041   6.446   0.972
 3960SOL     OW12778   4.522   1.460   6.860
 3960SOL    HW112779   4.482   1.514   6.934
 3960SOL    HW212780   4.458   1.458   6.783
 3961SOL     OW12781   5.390   2.291   2.508
 3961SOL    HW112782   5.366   2.380   2.468
 3961SOL    HW212783   5.458   2.246   2.451
 3962SOL     OW12784   2.711   4.731   6.704
 3962SOL    HW112785   2.786   4.791   6.676
 3962SOL    HW212786   2.642   4.784   6.753
 3963SOL     OW12787   4.839   4.537   4.065
 3963SOL    HW112788   4.873   4.624   4.028
 3963SOL    HW212789   4.885   4.516   4.151
 3964SOL     OW12790   3.766   5.010   3.677
 3964SOL    HW112791   3.839   5.062   3.631
 3964SOL    HW212792   3.687   5.003   3.617
 3965SOL     OW12793   4.799   3.222   6.126
 3965SOL    HW112794   4.787   3.154   6.054
 3965SOL    HW212795   4.725   3.213   6.193
 3966SOL     OW12796   5.234   5.884   0.770
 3966SOL    HW112797   5.211   5.961   0.828
 3966SOL    HW212798   5.151   5.850   0.725
 3967SOL     OW12799   1.343   3.930   2.039
 3967SOL    HW112800   1.327   3.869   1.963
 3967SOL    HW212801   1.435   3.969   2.032
 3968SOL     OW12802   4.842   0.441   1.056
 3968SOL    HW112803   4.769   0.407   0.997
 3968SOL    HW212804   4.805   0.458   1.147
 3969SOL     OW12805   1.534   3.904   2.483
 3969SOL    HW112806   1.500   3.863   2.398
 3969SOL    HW212807   1.531   3.837   2.556
 3970SOL     OW12808   5.752   5.853   3.791
 3970SOL    HW112809   5.796   5.791   3.726
 3970SOL    HW212810   5.820   5.887   3.856
 3971SOL     OW12811   2.216   4.796   1.734
 3971SOL    HW112812   2.225   4.892   1.707
 3971SOL    HW212813   2.194   4.790   1.831
 3972SOL     OW12814   0.822   5.111   0.519
 3972SOL    HW112815   0.824   5.020   0.562
 3972SOL    HW212816   0.897   5.166   0.557
 3973SOL     OW12817   1.056   4.874   5.678
 3973SOL    HW112818   1.008   4.825   5.605
 3973SOL    HW212819   1.082   4.809   5.750
 3974SOL     OW12820   1.364   0.997   4.360
 3974SOL    HW112821   1.340   1.090   4.332
 3974SOL    HW212822   1.461   0.993   4.385
 3975SOL     OW12823   6.066   0.776   5.241
 3975SOL    HW112824   6.164   0.792   5.230
 3975SOL    HW212825   6.041   0.692   5.192
 3976SOL     OW12826   1.571   6.447   1.630
 3976SOL    HW112827   1.492   6.449   1.691
 3976SOL    HW212828   1.539   6.447   1.535
 3977SOL     OW12829   2.926   4.318   5.667
 3977SOL    HW112830   2.989   4.371   5.724
 3977SOL    HW212831   2.901   4.372   5.586
 3978SOL     OW12832   5.415   6.205   5.083
 3978SOL    HW112833   5.453   6.117   5.112
 3978SOL    HW212834   5.369   6.249   5.160
 3979SOL     OW12835   3.129   5.848   0.276
 3979SOL    HW112836   3.196   5.796   0.223
 3979SOL    HW212837   3.056   5.787   0.306
 3980SOL     OW12838   0.396   5.603   0.391
 3980SOL    HW112839   0.397   5.701   0.411
 3980SOL    HW212840   0.426   5.552   0.471
 3981SOL     OW12841   2.002   1.296   0.610
 3981SOL    HW112842   1.968   1.384   0.575
 3981SOL    HW212843   2.041   1.244   0.534
 3982SOL     OW12844   1.851   0.121   4.418
 3982SOL    HW112845   1.773   0.182   4.407
 3982SOL    HW212846   1.886   0.095   4.328
 3983SOL     OW12847   5.254   5.263   4.486
 3983SOL    HW112848   5.311   5.210   4.549
 3983SOL    HW212849   5.220   5.344   4.533
 3984SOL     OW12850   6.828   1.015   2.780
 3984SOL    HW112851   6.917   1.043   2.745
 3984SOL    HW212852   6.756   1.050   2.720
 3985SOL     OW12853   3.693   4.550   6.448
 3985SOL    HW112854   3.748   4.494   6.509
 3985SOL    HW212855   3.598   4.518   6.449
 3986SOL     OW12856   6.428   1.798   3.211
 3986SOL    HW112857   6.499   1.818   3.278
 3986SOL    HW212858   6.359   1.870   3.212
 3987SOL     OW12859   2.939   5.131   3.497
 3987SOL    HW112860   2.926   5.165   3.403
 3987SOL    HW212861   2.850   5.105   3.535
 3988SOL     OW12862   4.249   4.017   0.060
 3988SOL    HW112863   4.181   3.947   0.042
 3988SOL    HW212864   4.331   3.999   0.006
 3989SOL     OW12865   6.732   2.563   6.838
 3989SOL    HW112866   6.795   2.505   6.784
 3989SOL    HW212867   6.675   2.505   6.895
 3990SOL     OW12868   5.226   2.243   3.454
 3990SOL    HW112869   5.136   2.218   3.491
 3990SOL    HW212870   5.214   2.299   3.373
 3991SOL     OW12871   5.548   0.833   2.321
 3991SOL    HW112872   5.521   0.907   2.383
 3991SOL    HW212873   5.533   0.862   2.226
 3992SOL     OW12874   3.733   2.295   6.949
 3992SOL    HW112875   3.646   2.245   6.949
 3992SOL    HW212876   3.729   2.367   7.019
 3993SOL     OW12877   1.099   1.368   3.089
 3993SOL    HW112878   1.129   1.411   3.003
 3993SOL    HW212879   1.093   1.438   3.160
 3994SOL     OW12880   0.720   0.792   6.289
 3994SOL    HW112881   0.718   0.879   6.240
 3994SOL    HW212882   0.811   0.752   6.283
 3995SOL     OW12883   2.040   3.700   5.422
 3995SOL    HW112884   1.958   3.646   5.444
 3995SOL    HW212885   2.106   3.691   5.497
 3996SOL     OW12886   1.040   1.212   4.032
 3996SOL    HW112887   1.132   1.176   4.018
 3996SOL    HW212888   0.986   1.145   4.084
 3997SOL     OW12889   5.027   1.041   3.711
 3997SOL    HW112890   4.929   1.047   3.733
 3997SOL    HW212891   5.055   1.123   3.661
 3998SOL     OW12892   4.262   1.155   3.808
 3998SOL    HW112893   4.263   1.152   3.708
 3998SOL    HW212894   4.170   1.180   3.840
 3999SOL     OW12895   6.003   3.329   3.882
 3999SOL    HW112896   6.085   3.309   3.936
 3999SOL    HW212897   6.027   3.333   3.785
 4000SOL     OW12898   2.964   5.782   2.880
 4000SOL    HW112899   2.894   5.807   2.946
 4000SOL    HW212900   3.044   5.840   2.893
 4001SOL     OW12901   2.555   2.210   4.046
 4001SOL    HW112902   2.634   2.158   4.012
 4001SOL    HW212903   2.536   2.183   4.140
 4002SOL     OW12904   2.948   3.197   1.038
 4002SOL    HW112905   3.017   3.261   1.073
 4002SOL    HW212906   2.901   3.237   0.960
 4003SOL     OW12907   3.121   6.176   3.965
 4003SOL    HW112908   3.131   6.219   4.054
 4003SOL    HW212909   3.131   6.077   3.975
 4004SOL     OW12910   5.430   2.051   4.615
 4004SOL    HW112911   5.405   2.126   4.676
 4004SOL    HW212912   5.405   2.074   4.521
 4005SOL     OW12913   4.293   5.620   0.440
 4005SOL    HW112914   4.360   5.626   0.513
 4005SOL    HW212915   4.338   5.630   0.352
 4006SOL     OW12916   3.619   5.648   3.391
 4006SOL    HW112917   3.640   5.575   3.456
 4006SOL    HW212918   3.572   5.722   3.439
 4007SOL     OW12919   0.476   2.758   1.029
 4007SOL    HW112920   0.456   2.855   1.043
 4007SOL    HW212921   0.405   2.717   0.971
 4008SOL     OW12922   2.984   1.874   3.700
 4008SOL    HW112923   3.053   1.908   3.636
 4008SOL    HW212924   3.029   1.823   3.773
 4009SOL     OW12925   5.346   3.476   1.263
 4009SOL    HW112926   5.280   3.409   1.229
 4009SOL    HW212927   5.391   3.440   1.345
 4010SOL     OW12928   2.426   2.727   1.868
 4010SOL    HW112929   2.511   2.701   1.822
 4010SOL    HW212930   2.398   2.818   1.838
 4011SOL     OW12931   0.421   0.705   2.381
 4011SOL    HW112932   0.330   0.677   2.352
 4011SOL    HW212933   0.477   0.624   2.402
 4012SOL     OW12934   4.230   5.671   1.505
 4012SOL    HW112935   4.290   5.632   1.574
 4012SOL    HW212936   4.278   5.675   1.417
 4013SOL     OW12937   2.537   7.011   6.054
 4013SOL    HW112938   2.530   0.047   5.973
 4013SOL    HW212939   2.449   6.967   6.071
 4014SOL     OW12940   4.553   5.916   2.913
 4014SOL    HW112941   4.477   5.980   2.924
 4014SOL    HW212942   4.548   5.874   2.822
 4015SOL     OW12943   4.949   5.311   5.893
 4015SOL    HW112944   4.938   5.398   5.940
 4015SOL    HW212945   5.025   5.316   5.829
 4016SOL     OW12946   2.671   5.448   6.400
 4016SOL    HW112947   2.693   5.527   6.458
 4016SOL    HW212948   2.600   5.393   6.444
 4017SOL     OW12949   0.416   5.924   0.821
 4017SOL    HW112950   0.425   5.929   0.920
 4017SOL    HW212951   0.336   5.869   0.797
 4018SOL     OW12952   5.215   6.083   3.402
 4018SOL    HW112953   5.120   6.109   3.421
 4018SOL    HW212954   5.219   5.986   3.377
 4019SOL     OW12955   5.997   3.694   2.807
 4019SOL    HW112956   5.916   3.692   2.865
 4019SOL    HW212957   5.969   3.696   2.711
 4020SOL     OW12958   5.093   1.981   5.734
 4020SOL    HW112959   5.016   2.045   5.735
 4020SOL    HW212960   5.150   1.998   5.654
 4021SOL     OW12961   3.579   4.129   6.459
 4021SOL    HW112962   3.488   4.157   6.427
 4021SOL    HW212963   3.636   4.108   6.380
 4022SOL     OW12964   4.205   0.412   6.781
 4022SOL    HW112965   4.185   0.339   6.846
 4022SOL    HW212966   4.194   0.377   6.687
 4023SOL     OW12967   6.266   1.793   4.705
 4023SOL    HW112968   6.365   1.808   4.711
 4023SOL    HW212969   6.232   1.761   4.794
 4024SOL     OW12970   3.568   6.073   3.103
 4024SOL    HW112971   3.563   6.072   3.003
 4024SOL    HW212972   3.628   6.148   3.133
 4025SOL     OW12973   1.067   6.118   3.923
 4025SOL    HW112974   1.001   6.059   3.875
 4025SOL    HW212975   1.159   6.102   3.887
 4026SOL     OW12976   6.012   5.934   4.238
 4026SOL    HW112977   6.041   5.951   4.144
 4026SOL    HW212978   6.063   5.857   4.275
 4027SOL     OW12979   3.595   4.146   1.926
 4027SOL    HW112980   3.679   4.110   1.884
 4027SOL    HW212981   3.563   4.225   1.874
 4028SOL     OW12982   1.193   1.815   3.984
 4028SOL    HW112983   1.149   1.898   3.948
 4028SOL    HW212984   1.222   1.757   3.908
 4029SOL     OW12985   1.877   4.351   6.546
 4029SOL    HW112986   1.935   4.402   6.482
 4029SOL    HW212987   1.817   4.415   6.595
 4030SOL     OW12988   1.508   1.948   6.056
 4030SOL    HW112989   1.436   2.008   6.091
 4030SOL    HW212990   1.597   1.985   6.080
 4031SOL     OW12991   4.875   5.863   3.304
 4031SOL    HW112992   4.957   5.891   3.353
 4031SOL    HW212993   4.794   5.884   3.360
 4032SOL     OW12994   6.155   0.016   2.968
 4032SOL    HW112995   6.148   6.946   2.934
 4032SOL    HW212996   6.243   0.028   3.014
 4033SOL     OW12997   3.592   2.880   3.572
 4033SOL    HW112998   3.687   2.909   3.559
 4033SOL    HW212999   3.546   2.878   3.483
 4034SOL     OW13000   5.440   1.194   5.284
 4034SOL    HW113001   5.395   1.127   5.343
 4034SOL    HW213002   5.501   1.251   5.338
 4035SOL     OW13003   6.661   4.024   1.080
 4035SOL    HW113004   6.679   4.011   1.178
 4035SOL    HW213005   6.725   4.091   1.043
 4036SOL     OW13006   5.547   6.806   2.184
 4036SOL    HW113007   5.588   6.781   2.097
 4036SOL    HW213008   5.456   6.845   2.168
 4037SOL     OW13009   2.108   2.753   0.450
 4037SOL    HW113010   2.162   2.670   0.435
 4037SOL    HW213011   2.168   2.826   0.482
 4038SOL     OW13012   4.915   4.602   2.096
 4038SOL    HW113013   4.866   4.645   2.019
 4038SOL    HW213014   4.948   4.512   2.068
 4039SOL     OW13015   4.757   5.309   1.284
 4039SOL    HW113016   4.777   5.211   1.292
 4039SOL    HW213017   4.835   5.362   1.317
 4040SOL     OW13018   2.794   6.738   6.829
 4040SOL    HW113019   2.777   6.834   6.849
 4040SOL    HW213020   2.889   6.715   6.851
 4041SOL     OW13021   1.643   6.161   2.350
 4041SOL    HW113022   1.552   6.139   2.315
 4041SOL    HW213023   1.711   6.103   2.305
 4042SOL     OW13024   6.337   4.541   2.380
 4042SOL    HW113025   6.281   4.561   2.460
 4042SOL    HW213026   6.398   4.618   2.362
 4043SOL     OW13027   5.778   2.171   3.795
 4043SOL    HW113028   5.839   2.191   3.871
 4043SOL    HW213029   5.830   2.138   3.716
 4044SOL     OW13030   6.184   0.625   4.638
 4044SOL    HW113031   6.193   0.561   4.715
 4044SOL    HW213032   6.258   0.691   4.640
 4045SOL     OW13033   2.532   4.197   5.950
 4045SOL    HW113034   2.483   4.190   5.863
 4045SOL    HW213035   2.614   4.253   5.937
 4046SOL     OW13036   0.829   1.778   3.140
 4046SOL    HW113037   0.909   1.723   3.165
 4046SOL    HW213038   0.858   1.855   3.083
 4047SOL     OW13039   2.740   3.591   0.805
 4047SOL    HW113040   2.659   3.647   0.786
 4047SOL    HW213041   2.779   3.618   0.893
 4048SOL     OW13042   5.729   1.025   1.849
 4048SOL    HW113043   5.765   0.989   1.763
 4048SOL    HW213044   5.755   1.121   1.859
 4049SOL     OW13045   6.520   6.272   6.806
 4049SOL    HW113046   6.519   6.246   6.903
 4049SOL    HW213047   6.614   6.273   6.773
 4050SOL     OW13048   1.737   6.681   6.772
 4050SOL    HW113049   1.759   6.778   6.769
 4050SOL    HW213050   1.794   6.632   6.706
 4051SOL     OW13051   2.999   3.979   0.305
 4051SOL    HW113052   2.941   3.968   0.386
 4051SOL    HW213053   3.025   4.075   0.295
 4052SOL     OW13054   1.358   6.945   1.201
 4052SOL    HW113055   1.328   0.014   1.228
 4052SOL    HW213056   1.295   6.907   1.134
 4053SOL     OW13057   3.182   4.884   3.847
 4053SOL    HW113058   3.177   4.864   3.944
 4053SOL    HW213059   3.275   4.911   3.823
 4054SOL     OW13060   2.769   3.330   0.846
 4054SOL    HW113061   2.738   3.424   0.831
 4054SOL    HW213062   2.750   3.276   0.764
 4055SOL     OW13063   2.881   3.272   5.855
 4055SOL    HW113064   2.860   3.340   5.925
 4055SOL    HW213065   2.943   3.312   5.787
 4056SOL     OW13066   4.599   3.152   6.697
 4056SOL    HW113067   4.600   3.187   6.791
 4056SOL    HW213068   4.581   3.227   6.634
 4057SOL     OW13069   5.394   3.543   0.871
 4057SOL    HW113070   5.459   3.494   0.929
 4057SOL    HW213071   5.432   3.631   0.846
 4058SOL     OW13072   2.413   1.272   4.827
 4058SOL    HW113073   2.371   1.181   4.833
 4058SOL    HW213074   2.379   1.329   4.901
 4059SOL     OW13075   2.199   2.184   3.497
 4059SOL    HW113076   2.200   2.197   3.398
 4059SOL    HW213077   2.213   2.087   3.518
 4060SOL     OW13078   3.491   4.986   4.760
 4060SOL    HW113079   3.481   4.984   4.859
 4060SOL    HW213080   3.587   4.972   4.735
 4061SOL     OW13081   3.509   4.358   1.776
 4061SOL    HW113082   3.427   4.331   1.726
 4061SOL    HW213083   3.494   4.447   1.819
 4062SOL     OW13084   4.712   1.296   3.269
 4062SOL    HW113085   4.643   1.249   3.215
 4062SOL    HW213086   4.776   1.229   3.307
 4063SOL     OW13087   4.345   6.136   6.130
 4063SOL    HW113088   4.407   6.151   6.052
 4063SOL    HW213089   4.250   6.138   6.098
 4064SOL     OW13090   2.314   6.877   2.722
 4064SOL    HW113091   2.329   6.937   2.643
 4064SOL    HW213092   2.224   6.834   2.714
 4065SOL     OW13093   0.533   0.046   0.573
 4065SOL    HW113094   0.572   7.007   0.641
 4065SOL    HW213095   0.590   0.127   0.564
 4066SOL     OW13096   5.478   4.964   1.846
 4066SOL    HW113097   5.572   4.986   1.821
 4066SOL    HW213098   5.472   4.948   1.944
 4067SOL     OW13099   5.231   1.976   3.337
 4067SOL    HW113100   5.138   1.940   3.327
 4067SOL    HW213101   5.228   2.076   3.330
 4068SOL     OW13102   4.716   0.317   5.042
 4068SOL    HW113103   4.712   0.336   5.140
 4068SOL    HW213104   4.641   0.255   5.017
 4069SOL     OW13105   4.646   4.132   0.628
 4069SOL    HW113106   4.617   4.036   0.634
 4069SOL    HW213107   4.589   4.180   0.561
 4070SOL     OW13108   1.707   3.340   2.630
 4070SOL    HW113109   1.728   3.292   2.545
 4070SOL    HW213110   1.730   3.281   2.708
 4071SOL     OW13111   1.298   0.776   5.252
 4071SOL    HW113112   1.341   0.740   5.170
 4071SOL    HW213113   1.202   0.750   5.254
 4072SOL     OW13114   1.750   6.573   4.617
 4072SOL    HW113115   1.675   6.507   4.629
 4072SOL    HW213116   1.714   6.666   4.623
 4073SOL     OW13117   1.785   5.489   5.708
 4073SOL    HW113118   1.788   5.470   5.610
 4073SOL    HW213119   1.763   5.585   5.723
 4074SOL     OW13120   0.205   2.819   1.958
 4074SOL    HW113121   0.199   2.846   2.054
 4074SOL    HW213122   0.300   2.794   1.937
 4075SOL     OW13123   4.499   1.979   2.398
 4075SOL    HW113124   4.520   2.065   2.350
 4075SOL    HW213125   4.464   1.913   2.332
 4076SOL     OW13126   2.402   4.152   5.358
 4076SOL    HW113127   2.346   4.107   5.428
 4076SOL    HW213128   2.418   4.088   5.283
 4077SOL     OW13129   2.814   6.637   0.672
 4077SOL    HW113130   2.813   6.661   0.769
 4077SOL    HW213131   2.886   6.689   0.626
 4078SOL     OW13132   6.302   5.176   1.900
 4078SOL    HW113133   6.268   5.085   1.924
 4078SOL    HW213134   6.345   5.217   1.981
 4079SOL     OW13135   1.451   0.522   3.566
 4079SOL    HW113136   1.505   0.512   3.483
 4079SOL    HW213137   1.354   0.518   3.543
 4080SOL     OW13138   2.996   4.152   0.559
 4080SOL    HW113139   2.924   4.172   0.625
 4080SOL    HW213140   3.047   4.071   0.589
 4081SOL     OW13141   2.282   0.814   5.185
 4081SOL    HW113142   2.234   0.755   5.121
 4081SOL    HW213143   2.369   0.772   5.211
 4082SOL     OW13144   1.405   1.475   6.197
 4082SOL    HW113145   1.452   1.484   6.284
 4082SOL    HW213146   1.402   1.379   6.170
 4083SOL     OW13147   5.911   4.522   3.252
 4083SOL    HW113148   5.888   4.442   3.196
 4083SOL    HW213149   5.938   4.492   3.344
 4084SOL     OW13150   4.825   3.085   3.226
 4084SOL    HW113151   4.821   2.986   3.215
 4084SOL    HW213152   4.812   3.108   3.322
 4085SOL     OW13153   2.598   5.570   1.082
 4085SOL    HW113154   2.651   5.624   1.148
 4085SOL    HW213155   2.618   5.473   1.094
 4086SOL     OW13156   0.014   5.272   0.227
 4086SOL    HW113157   6.972   5.338   0.188
 4086SOL    HW213158   0.104   5.314   0.233
 4087SOL     OW13159   3.193   0.430   2.779
 4087SOL    HW113160   3.096   0.441   2.802
 4087SOL    HW213161   3.240   0.518   2.792
 4088SOL     OW13162   6.328   1.104   5.515
 4088SOL    HW113163   6.241   1.102   5.466
 4088SOL    HW213164   6.313   1.132   5.610
 4089SOL     OW13165   7.008   5.437   4.338
 4089SOL    HW113166   0.082   5.416   4.322
 4089SOL    HW213167   6.981   5.405   4.428
 4090SOL     OW13168   2.103   6.735   4.992
 4090SOL    HW113169   2.074   6.830   4.998
 4090SOL    HW213170   2.043   6.686   4.929
 4091SOL     OW13171   1.128   4.928   0.680
 4091SOL    HW113172   1.158   4.863   0.609
 4091SOL    HW213173   1.140   5.022   0.646
 4092SOL     OW13174   4.929   3.317   4.933
 4092SOL    HW113175   4.921   3.305   4.834
 4092SOL    HW213176   4.874   3.395   4.963
 4093SOL     OW13177   6.127   5.636   1.708
 4093SOL    HW113178   6.113   5.711   1.772
 4093SOL    HW213179   6.060   5.564   1.726
 4094SOL     OW13180   0.294   4.617   6.872
 4094SOL    HW113181   0.292   4.625   6.972
 4094SOL    HW213182   0.383   4.650   6.838
 4095SOL     OW13183   0.464   3.512   6.829
 4095SOL    HW113184   0.385   3.514   6.767
 4095SOL    HW213185   0.443   3.561   6.913
 4096SOL     OW13186   2.374   1.281   6.694
 4096SOL    HW113187   2.301   1.327   6.643
 4096SOL    HW213188   2.433   1.349   6.738
 4097SOL     OW13189   6.150   4.452   5.504
 4097SOL    HW113190   6.054   4.444   5.529
 4097SOL    HW213191   6.169   4.545   5.473
 4098SOL     OW13192   2.089   3.435   1.495
 4098SOL    HW113193   2.042   3.347   1.503
 4098SOL    HW213194   2.063   3.479   1.409
 4099SOL     OW13195   4.292   4.977   0.212
 4099SOL    HW113196   4.230   5.046   0.176
 4099SOL    HW213197   4.247   4.926   0.285
 4100SOL     OW13198   0.924   0.996   3.775
 4100SOL    HW113199   0.841   0.986   3.830
 4100SOL    HW213200   0.909   1.066   3.706
 4101SOL     OW13201   6.315   0.661   6.488
 4101SOL    HW113202   6.310   0.751   6.444
 4101SOL    HW213203   6.292   0.671   6.585
 4102SOL     OW13204   2.096   0.649   0.403
 4102SOL    HW113205   2.156   0.604   0.469
 4102SOL    HW213206   2.152   0.701   0.338
 4103SOL     OW13207   6.960   6.986   2.208
 4103SOL    HW113208   6.916   6.937   2.133
 4103SOL    HW213209   6.901   0.036   2.240
 4104SOL     OW13210   7.021   5.485   2.998
 4104SOL    HW113211   0.024   5.580   2.980
 4104SOL    HW213212   0.053   5.424   2.941
 4105SOL     OW13213   4.631   1.187   1.687
 4105SOL    HW113214   4.608   1.175   1.590
 4105SOL    HW213215   4.723   1.150   1.704
 4106SOL     OW13216   6.877   2.390   4.151
 4106SOL    HW113217   6.790   2.378   4.197
 4106SOL    HW213218   6.862   2.403   4.053
 4107SOL     OW13219   0.376   6.261   6.513
 4107SOL    HW113220   0.315   6.335   6.485
 4107SOL    HW213221   0.332   6.207   6.585
 4108SOL     OW13222   1.004   5.502   3.804
 4108SOL    HW113223   0.986   5.450   3.888
 4108SOL    HW213224   1.072   5.453   3.749
 4109SOL     OW13225   5.975   5.516   3.799
 4109SOL    HW113226   5.964   5.568   3.884
 4109SOL    HW213227   6.032   5.569   3.736
 4110SOL     OW13228   4.566   2.852   6.870
 4110SOL    HW113229   4.588   2.838   6.773
 4110SOL    HW213230   4.615   2.785   6.925
 4111SOL     OW13231   6.217   5.500   6.332
 4111SOL    HW113232   6.171   5.413   6.312
 4111SOL    HW213233   6.249   5.500   6.427
 4112SOL     OW13234   4.990   6.697   4.665
 4112SOL    HW113235   4.950   6.640   4.736
 4112SOL    HW213236   4.917   6.737   4.610
 4113SOL     OW13237   4.186   5.341   4.798
 4113SOL    HW113238   4.162   5.244   4.809
 4113SOL    HW213239   4.180   5.366   4.701
 4114SOL     OW13240   6.071   1.609   3.482
 4114SOL    HW113241   6.015   1.621   3.400
 4114SOL    HW213242   6.101   1.698   3.516
 4115SOL     OW13243   2.894   4.761   3.466
 4115SOL    HW113244   2.886   4.668   3.502
 4115SOL    HW213245   2.954   4.815   3.524
 4116SOL     OW13246   5.209   2.368   3.197
 4116SOL    HW113247   5.209   2.348   3.099
 4116SOL    HW213248   5.260   2.453   3.214
 4117SOL     OW13249   1.405   1.913   2.279
 4117SOL    HW113250   1.387   1.839   2.215
 4117SOL    HW213251   1.331   1.980   2.275
 4118SOL     OW13252   6.251   6.626   6.670
 4118SOL    HW113253   6.310   6.687   6.723
 4118SOL    HW213254   6.231   6.544   6.723
 4119SOL     OW13255   2.816   0.919   3.738
 4119SOL    HW113256   2.804   0.868   3.652
 4119SOL    HW213257   2.913   0.924   3.760
 4120SOL     OW13258   3.874   1.664   6.399
 4120SOL    HW113259   3.958   1.663   6.452
 4120SOL    HW213260   3.862   1.576   6.353
 4121SOL     OW13261   6.734   6.264   2.385
 4121SOL    HW113262   6.809   6.287   2.447
 4121SOL    HW213263   6.771   6.249   2.293
 4122SOL     OW13264   0.274   5.906   4.829
 4122SOL    HW113265   0.181   5.882   4.856
 4122SOL    HW213266   0.337   5.835   4.859
 4123SOL     OW13267   3.943   5.724   4.440
 4123SOL    HW113268   4.021   5.696   4.384
 4123SOL    HW213269   3.884   5.786   4.388
 4124SOL     OW13270   6.625   6.376   0.794
 4124SOL    HW113271   6.613   6.444   0.866
 4124SOL    HW213272   6.662   6.421   0.712
 4125SOL     OW13273   5.109   2.797   2.938
 4125SOL    HW113274   5.155   2.735   2.874
 4125SOL    HW213275   5.013   2.804   2.914
 4126SOL     OW13276   1.567   3.048   2.291
 4126SOL    HW113277   1.535   3.012   2.379
 4126SOL    HW213278   1.527   2.996   2.216
 4127SOL     OW13279   3.989   2.025   4.454
 4127SOL    HW113280   3.994   1.939   4.506
 4127SOL    HW213281   3.923   2.086   4.498
 4128SOL     OW13282   0.421   3.009   1.847
 4128SOL    HW113283   0.489   2.953   1.894
 4128SOL    HW213284   0.331   2.991   1.887
 4129SOL     OW13285   3.320   2.564   0.489
 4129SOL    HW113286   3.270   2.527   0.567
 4129SOL    HW213287   3.256   2.586   0.415
 4130SOL     OW13288   6.363   2.861   0.667
 4130SOL    HW113289   6.301   2.919   0.614
 4130SOL    HW213290   6.420   2.808   0.605
 4131SOL     OW13291   6.133   0.828   2.797
 4131SOL    HW113292   6.190   0.893   2.848
 4131SOL    HW213293   6.159   0.735   2.822
 4132SOL     OW13294   6.093   4.453   3.875
 4132SOL    HW113295   6.044   4.465   3.961
 4132SOL    HW213296   6.127   4.360   3.868
 4133SOL     OW13297   5.129   6.270   1.036
 4133SOL    HW113298   5.214   6.301   1.078
 4133SOL    HW213299   5.142   6.260   0.937
 4134SOL     OW13300   2.174   3.630   0.917
 4134SOL    HW113301   2.251   3.577   0.954
 4134SOL    HW213302   2.089   3.580   0.933
 4135SOL     OW13303   0.518   1.975   2.510
 4135SOL    HW113304   0.432   1.962   2.461
 4135SOL    HW213305   0.556   1.887   2.534
 4136SOL     OW13306   0.752   3.545   1.573
 4136SOL    HW113307   0.776   3.620   1.511
 4136SOL    HW213308   0.678   3.575   1.633
 4137SOL     OW13309   1.742   2.894   6.984
 4137SOL    HW113310   1.657   2.946   6.979
 4137SOL    HW213311   1.790   2.902   6.897
 4138SOL     OW13312   3.980   5.113   1.161
 4138SOL    HW113313   4.070   5.139   1.125
 4138SOL    HW213314   3.979   5.124   1.260
 4139SOL     OW13315   1.423   2.135   3.908
 4139SOL    HW113316   1.419   2.051   3.962
 4139SOL    HW213317   1.360   2.203   3.946
 4140SOL     OW13318   2.994   2.219   3.566
 4140SOL    HW113319   3.022   2.217   3.662
 4140SOL    HW213320   2.895   2.206   3.560
 4141SOL     OW13321   4.903   6.846   6.646
 4141SOL    HW113322   4.978   6.866   6.582
 4141SOL    HW213323   4.887   6.926   6.704
 4142SOL     OW13324   6.640   3.662   1.684
 4142SOL    HW113325   6.608   3.582   1.633
 4142SOL    HW213326   6.590   3.670   1.770
 4143SOL     OW13327   5.751   3.233   0.693
 4143SOL    HW113328   5.803   3.150   0.713
 4143SOL    HW213329   5.812   3.301   0.652
 4144SOL     OW13330   5.274   1.645   0.819
 4144SOL    HW113331   5.345   1.621   0.885
 4144SOL    HW213332   5.308   1.629   0.727
 4145SOL     OW13333   1.146   6.203   0.555
 4145SOL    HW113334   1.162   6.291   0.510
 4145SOL    HW213335   1.070   6.156   0.510
 4146SOL     OW13336   6.141   6.896   3.877
 4146SOL    HW113337   6.190   6.815   3.910
 4146SOL    HW213338   6.202   6.975   3.880
 4147SOL     OW13339   5.687   4.621   6.131
 4147SOL    HW113340   5.636   4.707   6.125
 4147SOL    HW213341   5.684   4.587   6.225
 4148SOL     OW13342   2.926   0.214   5.313
 4148SOL    HW113343   2.869   0.151   5.260
 4148SOL    HW213344   2.869   0.261   5.381
 4149SOL     OW13345   0.782   2.924   1.018
 4149SOL    HW113346   0.867   2.878   0.991
 4149SOL    HW213347   0.748   2.883   1.103
 4150SOL     OW13348   6.552   2.725   5.513
 4150SOL    HW113349   6.569   2.783   5.593
 4150SOL    HW213350   6.494   2.648   5.540
 4151SOL     OW13351   1.992   6.993   4.972
 4151SOL    HW113352   1.991   0.048   4.909
 4151SOL    HW213353   1.898   6.972   4.999
 4152SOL     OW13354   3.716   5.189   1.944
 4152SOL    HW113355   3.776   5.263   1.972
 4152SOL    HW213356   3.770   5.114   1.905
 4153SOL     OW13357   6.592   5.166   1.266
 4153SOL    HW113358   6.540   5.125   1.191
 4153SOL    HW213359   6.538   5.238   1.309
 4154SOL     OW13360   0.337   5.832   3.123
 4154SOL    HW113361   0.379   5.887   3.051
 4154SOL    HW213362   0.241   5.860   3.134
 4155SOL     OW13363   6.543   2.092   1.395
 4155SOL    HW113364   6.550   2.137   1.305
 4155SOL    HW213365   6.527   2.161   1.465
 4156SOL     OW13366   6.386   5.154   5.043
 4156SOL    HW113367   6.372   5.094   5.122
 4156SOL    HW213368   6.297   5.178   5.004
 4157SOL     OW13369   6.135   6.119   2.202
 4157SOL    HW113370   6.195   6.113   2.281
 4157SOL    HW213371   6.097   6.212   2.196
 4158SOL     OW13372   1.820   2.817   1.507
 4158SOL    HW113373   1.901   2.858   1.465
 4158SOL    HW213374   1.776   2.885   1.566
 4159SOL     OW13375   2.790   2.126   3.005
 4159SOL    HW113376   2.829   2.042   3.043
 4159SOL    HW213377   2.861   2.177   2.956
 4160SOL     OW13378   5.654   0.300   6.683
 4160SOL    HW113379   5.570   0.350   6.699
 4160SOL    HW213380   5.706   0.292   6.768
 4161SOL     OW13381   1.900   2.187   1.537
 4161SOL    HW113382   1.963   2.123   1.492
 4161SOL    HW213383   1.951   2.243   1.603
 4162SOL     OW13384   6.324   5.986   0.848
 4162SOL    HW113385   6.228   5.974   0.874
 4162SOL    HW213386   6.383   5.943   0.917
 4163SOL     OW13387   5.691   1.032   2.691
 4163SOL    HW113388   5.707   0.949   2.745
 4163SOL    HW213389   5.634   1.009   2.612
 4164SOL     OW13390   0.370   6.872   5.676
 4164SOL    HW113391   0.357   6.896   5.772
 4164SOL    HW213392   0.381   6.773   5.669
 4165SOL     OW13393   4.384   0.009   5.713
 4165SOL    HW113394   4.480   7.013   5.694
 4165SOL    HW213395   4.347   0.066   5.639
 4166SOL     OW13396   6.363   0.890   1.488
 4166SOL    HW113397   6.388   0.914   1.394
 4166SOL    HW213398   6.444   0.864   1.539
 4167SOL     OW13399   2.492   4.685   5.749
 4167SOL    HW113400   2.433   4.733   5.684
 4167SOL    HW213401   2.579   4.663   5.705
 4168SOL     OW13402   0.406   4.139   0.569
 4168SOL    HW113403   0.358   4.132   0.481
 4168SOL    HW213404   0.449   4.051   0.589
 4169SOL     OW13405   6.036   4.022   5.259
 4169SOL    HW113406   5.944   4.013   5.298
 4169SOL    HW213407   6.069   4.115   5.273
 4170SOL     OW13408   4.832   2.930   5.246
 4170SOL    HW113409   4.757   2.959   5.306
 4170SOL    HW213410   4.829   2.983   5.161
 4171SOL     OW13411   1.403   4.779   0.814
 4171SOL    HW113412   1.434   4.789   0.720
 4171SOL    HW213413   1.447   4.849   0.871
 4172SOL     OW13414   3.005   2.816   0.764
 4172SOL    HW113415   3.064   2.882   0.811
 4172SOL    HW213416   3.045   2.793   0.676
 4173SOL     OW13417   4.662   2.917   5.655
 4173SOL    HW113418   4.746   2.930   5.707
 4173SOL    HW213419   4.602   2.996   5.670
 4174SOL     OW13420   4.738   1.620   3.012
 4174SOL    HW113421   4.741   1.522   2.994
 4174SOL    HW213422   4.809   1.666   2.958
 4175SOL     OW13423   1.496   4.568   5.156
 4175SOL    HW113424   1.534   4.622   5.081
 4175SOL    HW213425   1.530   4.603   5.243
 4176SOL     OW13426   4.519   6.633   0.927
 4176SOL    HW113427   4.618   6.621   0.938
 4176SOL    HW213428   4.472   6.554   0.966
 4177SOL     OW13429   5.485   4.796   4.533
 4177SOL    HW113430   5.478   4.731   4.457
 4177SOL    HW213431   5.426   4.766   4.608
 4178SOL     OW13432   4.737   0.403   2.723
 4178SOL    HW113433   4.677   0.369   2.650
 4178SOL    HW213434   4.693   0.481   2.768
 4179SOL     OW13435   5.755   4.124   3.758
 4179SOL    HW113436   5.749   4.210   3.707
 4179SOL    HW213437   5.848   4.113   3.793
 4180SOL     OW13438   5.083   2.986   0.673
 4180SOL    HW113439   5.052   3.020   0.762
 4180SOL    HW213440   5.137   2.902   0.687
 4181SOL     OW13441   5.285   1.209   6.611
 4181SOL    HW113442   5.199   1.258   6.626
 4181SOL    HW213443   5.280   1.119   6.654
 4182SOL     OW13444   0.354   5.413   3.496
 4182SOL    HW113445   0.287   5.471   3.541
 4182SOL    HW213446   0.429   5.392   3.559
 4183SOL     OW13447   2.614   1.198   0.619
 4183SOL    HW113448   2.611   1.277   0.680
 4183SOL    HW213449   2.583   1.117   0.669
 4184SOL     OW13450   3.823   0.153   2.285
 4184SOL    HW113451   3.769   0.211   2.224
 4184SOL    HW213452   3.819   0.189   2.378
 4185SOL     OW13453   0.514   4.070   2.754
 4185SOL    HW113454   0.535   4.091   2.849
 4185SOL    HW213455   0.550   4.142   2.695
 4186SOL     OW13456   2.814   5.751   6.342
 4186SOL    HW113457   2.722   5.719   6.363
 4186SOL    HW213458   2.881   5.698   6.393
 4187SOL     OW13459   2.927   3.498   6.909
 4187SOL    HW113460   2.983   3.507   6.826
 4187SOL    HW213461   2.834   3.472   6.883
 4188SOL     OW13462   5.211   0.632   5.357
 4188SOL    HW113463   5.166   0.551   5.321
 4188SOL    HW213464   5.189   0.711   5.300
 4189SOL     OW13465   3.507   4.975   3.998
 4189SOL    HW113466   3.479   4.915   3.923
 4189SOL    HW213467   3.433   5.041   4.016
 4190SOL     OW13468   0.801   6.783   0.775
 4190SOL    HW113469   0.898   6.770   0.751
 4190SOL    HW213470   0.757   6.837   0.703
 4191SOL     OW13471   5.320   3.744   5.364
 4191SOL    HW113472   5.274   3.808   5.302
 4191SOL    HW213473   5.275   3.655   5.359
 4192SOL     OW13474   1.555   1.690   2.014
 4192SOL    HW113475   1.471   1.645   1.984
 4192SOL    HW213476   1.622   1.690   1.940
 4193SOL     OW13477   5.556   0.821   0.590
 4193SOL    HW113478   5.521   0.915   0.587
 4193SOL    HW213479   5.655   0.823   0.602
 4194SOL     OW13480   5.094   0.400   4.428
 4194SOL    HW113481   5.118   0.393   4.331
 4194SOL    HW213482   5.160   0.459   4.475
 4195SOL     OW13483   3.995   5.165   1.472
 4195SOL    HW113484   4.035   5.254   1.449
 4195SOL    HW213485   3.947   5.172   1.559
 4196SOL     OW13486   0.030   2.489   2.926
 4196SOL    HW113487   0.109   2.499   2.866
 4196SOL    HW213488   0.060   2.481   3.020
 4197SOL     OW13489   4.275   4.913   5.661
 4197SOL    HW113490   4.233   4.860   5.736
 4197SOL    HW213491   4.367   4.878   5.643
 4198SOL     OW13492   6.924   1.100   1.711
 4198SOL    HW113493   6.846   1.102   1.773
 4198SOL    HW213494   7.006   1.072   1.761
 4199SOL     OW13495   1.058   2.194   5.627
 4199SOL    HW113496   1.043   2.119   5.692
 4199SOL    HW213497   0.972   2.242   5.611
 4200SOL     OW13498   2.838   0.496   5.857
 4200SOL    HW113499   2.814   0.593   5.867
 4200SOL    HW213500   2.930   0.489   5.819
 4201SOL     OW13501   6.560   0.233   3.529
 4201SOL    HW113502   6.517   0.150   3.565
 4201SOL    HW213503   6.547   0.307   3.594
 4202SOL     OW13504   2.764   5.128   6.590
 4202SOL    HW113505   2.798   5.077   6.511
 4202SOL    HW213506   2.831   5.123   6.664
 4203SOL     OW13507   5.266   4.234   0.641
 4203SOL    HW113508   5.202   4.276   0.706
 4203SOL    HW213509   5.335   4.182   0.691
 4204SOL     OW13510   3.896   3.586   5.181
 4204SOL    HW113511   3.970   3.646   5.210
 4204SOL    HW213512   3.908   3.563   5.084
 4205SOL     OW13513   4.167   6.197   5.227
 4205SOL    HW113514   4.205   6.248   5.304
 4205SOL    HW213515   4.233   6.129   5.196
 4206SOL     OW13516   6.582   1.861   5.023
 4206SOL    HW113517   6.555   1.768   5.046
 4206SOL    HW213518   6.590   1.870   4.924
 4207SOL     OW13519   2.062   2.857   1.690
 4207SOL    HW113520   2.058   2.949   1.729
 4207SOL    HW213521   1.970   2.818   1.687
 4208SOL     OW13522   0.060   3.571   5.858
 4208SOL    HW113523   0.082   3.661   5.897
 4208SOL    HW213524   0.124   3.503   5.893
 4209SOL     OW13525   0.181   6.515   3.009
 4209SOL    HW113526   0.160   6.491   3.104
 4209SOL    HW213527   0.121   6.589   2.979
 4210SOL     OW13528   3.974   3.221   2.688
 4210SOL    HW113529   3.902   3.189   2.749
 4210SOL    HW213530   4.023   3.297   2.731
 4211SOL     OW13531   3.272   1.057   5.309
 4211SOL    HW113532   3.314   1.121   5.374
 4211SOL    HW213533   3.286   1.091   5.216
 4212SOL     OW13534   6.483   2.077   3.392
 4212SOL    HW113535   6.507   2.156   3.336
 4212SOL    HW213536   6.556   2.009   3.388
 4213SOL     OW13537   3.047   0.148   2.887
 4213SOL    HW113538   3.112   0.223   2.897
 4213SOL    HW213539   3.014   0.144   2.793
 4214SOL     OW13540   0.342   5.859   5.182
 4214SOL    HW113541   0.440   5.840   5.181
 4214SOL    HW213542   0.322   5.933   5.246
 4215SOL     OW13543   4.855   6.983   5.109
 4215SOL    HW113544   4.894   0.036   5.161
 4215SOL    HW213545   4.779   6.943   5.160
 4216SOL     OW13546   1.227   0.929   2.599
 4216SOL    HW113547   1.308   0.880   2.565
 4216SOL    HW213548   1.163   0.863   2.639
 4217SOL     OW13549   1.147   0.569   2.700
 4217SOL    HW113550   1.201   0.618   2.768
 4217SOL    HW213551   1.194   0.574   2.611
 4218SOL     OW13552   3.452   0.144   1.405
 4218SOL    HW113553   3.454   0.216   1.475
 4218SOL    HW213554   3.545   0.120   1.380
 4219SOL     OW13555   4.218   5.678   4.352
 4219SOL    HW113556   4.282   5.620   4.302
 4219SOL    HW213557   4.205   5.641   4.444
 4220SOL     OW13558   6.132   3.394   1.892
 4220SOL    HW113559   6.179   3.389   1.804
 4220SOL    HW213560   6.199   3.413   1.964
 4221SOL     OW13561   6.055   4.395   5.867
 4221SOL    HW113562   6.091   4.485   5.894
 4221SOL    HW213563   6.128   4.327   5.876
 4222SOL     OW13564   6.594   0.819   3.131
 4222SOL    HW113565   6.561   0.859   3.216
 4222SOL    HW213566   6.642   0.889   3.078
 4223SOL     OW13567   4.085   3.924   0.990
 4223SOL    HW113568   4.166   3.936   1.047
 4223SOL    HW213569   4.017   3.870   1.040
 4224SOL     OW13570   5.595   5.260   4.675
 4224SOL    HW113571   5.536   5.186   4.644
 4224SOL    HW213572   5.607   5.327   4.602
 4225SOL     OW13573   2.101   2.666   4.934
 4225SOL    HW113574   2.115   2.705   5.025
 4225SOL    HW213575   2.019   2.608   4.936
 4226SOL     OW13576   0.832   6.177   3.029
 4226SOL    HW113577   0.890   6.149   3.105
 4226SOL    HW213578   0.768   6.104   3.007
 4227SOL     OW13579   4.026   5.601   1.806
 4227SOL    HW113580   4.124   5.622   1.805
 4227SOL    HW213581   3.974   5.683   1.782
 4228SOL     OW13582   0.093   6.397   5.655
 4228SOL    HW113583   0.047   6.456   5.589
 4228SOL    HW213584   0.026   6.363   5.721
 4229SOL     OW13585   5.104   5.914   5.849
 4229SOL    HW113586   5.175   5.899   5.916
 4229SOL    HW213587   5.016   5.883   5.885
 4230SOL     OW13588   1.897   6.606   3.194
 4230SOL    HW113589   1.887   6.509   3.219
 4230SOL    HW213590   1.859   6.621   3.103
 4231SOL     OW13591   5.139   6.938   5.824
 4231SOL    HW113592   5.069   6.869   5.806
 4231SOL    HW213593   5.130   7.013   5.759
 4232SOL     OW13594   1.354   4.204   3.442
 4232SOL    HW113595   1.280   4.198   3.375
 4232SOL    HW213596   1.401   4.116   3.448
 4233SOL     OW13597   6.934   0.811   5.479
 4233SOL    HW113598   6.991   0.867   5.419
 4233SOL    HW213599   6.884   0.744   5.425
 4234SOL     OW13600   2.378   5.337   5.221
 4234SOL    HW113601   2.439   5.278   5.168
 4234SOL    HW213602   2.299   5.284   5.252
 4235SOL     OW13603   6.736   4.624   5.943
 4235SOL    HW113604   6.796   4.561   5.993
 4235SOL    HW213605   6.749   4.612   5.845
 4236SOL     OW13606   6.310   4.573   1.940
 4236SOL    HW113607   6.264   4.619   2.016
 4236SOL    HW213608   6.244   4.518   1.889
 4237SOL     OW13609   6.185   5.178   4.074
 4237SOL    HW113610   6.100   5.209   4.033
 4237SOL    HW213611   6.215   5.093   4.029
 4238SOL     OW13612   1.297   6.568   2.826
 4238SOL    HW113613   1.373   6.579   2.891
 4238SOL    HW213614   1.334   6.549   2.735
 4239SOL     OW13615   4.972   1.405   3.206
 4239SOL    HW113616   4.877   1.375   3.198
 4239SOL    HW213617   4.974   1.496   3.249
 4240SOL     OW13618   2.115   5.462   0.345
 4240SOL    HW113619   2.174   5.543   0.342
 4240SOL    HW213620   2.027   5.487   0.384
 4241SOL     OW13621   5.861   1.299   0.850
 4241SOL    HW113622   5.956   1.330   0.861
 4241SOL    HW213623   5.800   1.362   0.899
 4242SOL     OW13624   2.817   2.063   4.036
 4242SOL    HW113625   2.739   2.000   4.034
 4242SOL    HW213626   2.878   2.037   4.111
 4243SOL     OW13627   5.621   2.448   3.544
 4243SOL    HW113628   5.657   2.541   3.552
 4243SOL    HW213629   5.571   2.425   3.628
 4244SOL     OW13630   4.151   4.292   1.438
 4244SOL    HW113631   4.123   4.323   1.347
 4244SOL    HW213632   4.244   4.256   1.434
 4245SOL     OW13633   6.272   1.946   6.327
 4245SOL    HW113634   6.226   2.027   6.363
 4245SOL    HW213635   6.255   1.868   6.388
 4246SOL     OW13636   6.560   4.070   2.955
 4246SOL    HW113637   6.650   4.094   2.918
 4246SOL    HW213638   6.517   4.152   2.993
 4247SOL     OW13639   2.287   6.300   3.884
 4247SOL    HW113640   2.324   6.207   3.888
 4247SOL    HW213641   2.343   6.361   3.940
 4248SOL     OW13642   2.920   1.738   4.311
 4248SOL    HW113643   2.971   1.806   4.258
 4248SOL    HW213644   2.825   1.737   4.279
 4249SOL     OW13645   6.603   2.851   5.157
 4249SOL    HW113646   6.588   2.909   5.077
 4249SOL    HW213647   6.685   2.795   5.143
 4250SOL     OW13648   0.036   4.270   2.763
 4250SOL    HW113649   0.047   4.349   2.824
 4250SOL    HW213650   0.058   4.296   2.669
 4251SOL     OW13651   6.032   4.626   1.221
 4251SOL    HW113652   6.012   4.643   1.318
 4251SOL    HW213653   5.967   4.559   1.185
 4252SOL     OW13654   5.981   6.758   5.171
 4252SOL    HW113655   5.885   6.786   5.173
 4252SOL    HW213656   6.027   6.800   5.092
 4253SOL     OW13657   3.273   6.627   1.219
 4253SOL    HW113658   3.363   6.668   1.238
 4253SOL    HW213659   3.279   6.571   1.137
 4254SOL     OW13660   1.210   2.602   2.506
 4254SOL    HW113661   1.178   2.669   2.439
 4254SOL    HW213662   1.133   2.547   2.538
 4255SOL     OW13663   5.480   3.578   3.740
 4255SOL    HW113664   5.464   3.636   3.660
 4255SOL    HW213665   5.549   3.621   3.799
 4256SOL     OW13666   1.482   6.761   0.968
 4256SOL    HW113667   1.469   6.662   0.977
 4256SOL    HW213668   1.534   6.795   1.047
 4257SOL     OW13669   3.424   0.478   4.320
 4257SOL    HW113670   3.475   0.400   4.285
 4257SOL    HW213671   3.465   0.563   4.286
 4258SOL     OW13672   5.646   6.293   1.345
 4258SOL    HW113673   5.554   6.332   1.354
 4258SOL    HW213674   5.702   6.353   1.287
 4259SOL     OW13675   2.763   1.170   0.206
 4259SOL    HW113676   2.750   1.094   0.269
 4259SOL    HW213677   2.859   1.173   0.177
 4260SOL     OW13678   4.773   6.932   6.253
 4260SOL    HW113679   4.694   6.994   6.254
 4260SOL    HW213680   4.811   6.928   6.161
 4261SOL     OW13681   2.395   0.217   2.096
 4261SOL    HW113682   2.460   0.237   2.022
 4261SOL    HW213683   2.403   0.288   2.167
 4262SOL     OW13684   0.144   4.463   5.860
 4262SOL    HW113685   0.172   4.373   5.826
 4262SOL    HW213686   0.224   4.523   5.865
 4263SOL     OW13687   3.241   6.514   3.518
 4263SOL    HW113688   3.142   6.523   3.508
 4263SOL    HW213689   3.276   6.453   3.447
 4264SOL     OW13690   7.000   2.224   2.843
 4264SOL    HW113691   6.994   2.215   2.743
 4264SOL    HW213692   0.005   2.318   2.865
 4265SOL     OW13693   5.682   1.487   0.967
 4265SOL    HW113694   5.666   1.585   0.949
 4265SOL    HW213695   5.596   1.437   0.956
 4266SOL     OW13696   1.901   4.996   0.244
 4266SOL    HW113697   1.960   5.073   0.221
 4266SOL    HW213698   1.879   4.999   0.342
 4267SOL     OW13699   1.849   3.334   4.805
 4267SOL    HW113700   1.948   3.347   4.793
 4267SOL    HW213701   1.802   3.422   4.797
 4268SOL     OW13702   1.212   6.423   6.254
 4268SOL    HW113703   1.131   6.474   6.282
 4268SOL    HW213704   1.186   6.331   6.227
 4269SOL     OW13705   2.068   1.050   1.709
 4269SOL    HW113706   2.154   1.086   1.745
 4269SOL    HW213707   1.991   1.087   1.761
 4270SOL     OW13708   3.657   3.053   4.538
 4270SOL    HW113709   3.732   3.011   4.590
 4270SOL    HW213710   3.570   3.019   4.573
 4271SOL     OW13711   0.392   0.814   6.684
 4271SOL    HW113712   0.444   0.874   6.623
 4271SOL    HW213713   0.297   0.844   6.688
 4272SOL     OW13714   0.589   3.823   4.817
 4272SOL    HW113715   0.566   3.726   4.808
 4272SOL    HW213716   0.639   3.838   4.902
 4273SOL     OW13717   4.655   6.145   5.232
 4273SOL    HW113718   4.735   6.085   5.220
 4273SOL    HW213719   4.607   6.155   5.145
 4274SOL     OW13720   1.995   6.999   2.434
 4274SOL    HW113721   2.038   7.020   2.346
 4274SOL    HW213722   1.990   6.899   2.445
 4275SOL     OW13723   6.504   1.565   5.098
 4275SOL    HW113724   6.584   1.565   5.158
 4275SOL    HW213725   6.424   1.536   5.149
 4276SOL     OW13726   1.451   4.134   4.157
 4276SOL    HW113727   1.387   4.171   4.224
 4276SOL    HW213728   1.513   4.207   4.126
 4277SOL     OW13729   6.199   5.063   4.320
 4277SOL    HW113730   6.182   5.134   4.252
 4277SOL    HW213731   6.295   5.066   4.349
 4278SOL     OW13732   0.491   0.563   4.270
 4278SOL    HW113733   0.589   0.577   4.286
 4278SOL    HW213734   0.473   0.567   4.171
 4279SOL     OW13735   3.069   6.996   5.097
 4279SOL    HW113736   3.134   7.002   5.173
 4279SOL    HW213737   3.072   0.056   5.043
 4280SOL     OW13738   5.504   0.789   5.402
 4280SOL    HW113739   5.541   0.760   5.491
 4280SOL    HW213740   5.478   0.709   5.349
 4281SOL     OW13741   1.664   5.150   4.132
 4281SOL    HW113742   1.737   5.177   4.070
 4281SOL    HW213743   1.600   5.226   4.142
 4282SOL     OW13744   3.538   3.312   6.680
 4282SOL    HW113745   3.542   3.219   6.716
 4282SOL    HW213746   3.443   3.335   6.660
 4283SOL     OW13747   2.423   1.240   3.805
 4283SOL    HW113748   2.486   1.311   3.774
 4283SOL    HW213749   2.453   1.204   3.893
 4284SOL     OW13750   4.575   5.791   1.552
 4284SOL    HW113751   4.655   5.802   1.493
 4284SOL    HW213752   4.538   5.699   1.541
 4285SOL     OW13753   1.082   0.515   5.713
 4285SOL    HW113754   1.013   0.443   5.701
 4285SOL    HW213755   1.039   0.595   5.754
 4286SOL     OW13756   4.950   5.634   6.803
 4286SOL    HW113757   4.971   5.540   6.830
 4286SOL    HW213758   4.944   5.639   6.704
 4287SOL     OW13759   5.799   1.212   6.686
 4287SOL    HW113760   5.787   1.230   6.784
 4287SOL    HW213761   5.716   1.240   6.637
 4288SOL     OW13762   1.145   5.959   3.029
 4288SOL    HW113763   1.104   6.007   3.106
 4288SOL    HW213764   1.237   5.927   3.055
 4289SOL     OW13765   6.427   3.257   0.867
 4289SOL    HW113766   6.513   3.235   0.914
 4289SOL    HW213767   6.366   3.178   0.872
 4290SOL     OW13768   2.816   6.902   2.533
 4290SOL    HW113769   2.858   6.857   2.612
 4290SOL    HW213770   2.865   6.875   2.450
 4291SOL     OW13771   4.371   3.722   1.440
 4291SOL    HW113772   4.390   3.747   1.535
 4291SOL    HW213773   4.305   3.646   1.438
 4292SOL     OW13774   6.198   4.187   6.701
 4292SOL    HW113775   6.210   4.127   6.621
 4292SOL    HW213776   6.104   4.220   6.703
 4293SOL     OW13777   0.642   2.884   0.486
 4293SOL    HW113778   0.602   2.804   0.440
 4293SOL    HW213779   0.581   2.962   0.475
 4294SOL     OW13780   3.407   2.341   0.067
 4294SOL    HW113781   3.436   2.437   0.060
 4294SOL    HW213782   3.348   2.330   0.147
 4295SOL     OW13783   3.758   6.277   4.781
 4295SOL    HW113784   3.743   6.208   4.709
 4295SOL    HW213785   3.769   6.367   4.739
 4296SOL     OW13786   3.868   0.666   0.549
 4296SOL    HW113787   3.912   0.608   0.618
 4296SOL    HW213788   3.796   0.614   0.502
 4297SOL     OW13789   5.415   0.817   6.613
 4297SOL    HW113790   5.372   0.797   6.701
 4297SOL    HW213791   5.504   0.771   6.608
 4298SOL     OW13792   3.043   5.994   6.520
 4298SOL    HW113793   2.978   5.973   6.593
 4298SOL    HW213794   2.999   6.053   6.453
 4299SOL     OW13795   0.489   2.864   0.265
 4299SOL    HW113796   0.394   2.896   0.267
 4299SOL    HW213797   0.495   2.778   0.215
 4300SOL     OW13798   3.685   0.577   0.225
 4300SOL    HW113799   3.696   0.535   0.135
 4300SOL    HW213800   3.670   0.506   0.293
 4301SOL     OW13801   3.227   1.553   0.967
 4301SOL    HW113802   3.231   1.484   0.895
 4301SOL    HW213803   3.278   1.634   0.939
 4302SOL     OW13804   1.129   6.945   5.468
 4302SOL    HW113805   1.209   6.890   5.492
 4302SOL    HW213806   1.086   6.981   5.551
 4303SOL     OW13807   5.865   4.961   3.903
 4303SOL    HW113808   5.816   5.047   3.886
 4303SOL    HW213809   5.936   4.949   3.833
 4304SOL     OW13810   3.054   3.814   3.839
 4304SOL    HW113811   3.016   3.723   3.850
 4304SOL    HW213812   3.093   3.823   3.747
 4305SOL     OW13813   6.273   0.960   4.101
 4305SOL    HW113814   6.193   0.908   4.071
 4305SOL    HW213815   6.245   1.026   4.172
 4306SOL     OW13816   6.298   3.748   6.868
 4306SOL    HW113817   6.305   3.836   6.916
 4306SOL    HW213818   6.390   3.715   6.846
 4307SOL     OW13819   4.925   3.400   6.363
 4307SOL    HW113820   4.986   3.460   6.413
 4307SOL    HW213821   4.830   3.418   6.389
 4308SOL     OW13822   5.570   5.639   6.294
 4308SOL    HW113823   5.504   5.578   6.338
 4308SOL    HW213824   5.642   5.662   6.359
 4309SOL     OW13825   1.283   1.357   0.040
 4309SOL    HW113826   1.327   1.387   6.979
 4309SOL    HW213827   1.353   1.329   0.106
 4310SOL     OW13828   1.753   2.451   3.097
 4310SOL    HW113829   1.665   2.424   3.059
 4310SOL    HW213830   1.742   2.476   3.193
 4311SOL     OW13831   1.689   5.724   3.237
 4311SOL    HW113832   1.769   5.782   3.254
 4311SOL    HW213833   1.667   5.724   3.140
 4312SOL     OW13834   1.201   4.763   0.474
 4312SOL    HW113835   1.278   4.756   0.411
 4312SOL    HW213836   1.133   4.694   0.451
 4313SOL     OW13837   4.831   1.392   1.466
 4313SOL    HW113838   4.841   1.491   1.478
 4313SOL    HW213839   4.800   1.350   1.551
 4314SOL     OW13840   5.719   1.383   4.288
 4314SOL    HW113841   5.792   1.368   4.221
 4314SOL    HW213842   5.711   1.481   4.307
 4315SOL     OW13843   2.721   0.126   1.746
 4315SOL    HW113844   2.700   0.216   1.708
 4315SOL    HW213845   2.795   0.134   1.812
 4316SOL     OW13846   4.930   0.087   1.223
 4316SOL    HW113847   4.934   0.114   1.319
 4316SOL    HW213848   4.999   0.137   1.171
 4317SOL     OW13849   4.470   1.526   4.842
 4317SOL    HW113850   4.568   1.532   4.862
 4317SOL    HW213851   4.419   1.528   4.928
 4318SOL     OW13852   1.271   3.164   3.644
 4318SOL    HW113853   1.305   3.188   3.735
 4318SOL    HW213854   1.203   3.091   3.652
 4319SOL     OW13855   2.443   3.031   0.090
 4319SOL    HW113856   2.394   2.985   0.016
 4319SOL    HW213857   2.457   2.967   0.166
 4320SOL     OW13858   0.709   6.074   2.418
 4320SOL    HW113859   0.685   6.096   2.323
 4320SOL    HW213860   0.727   6.158   2.468
 4321SOL     OW13861   6.932   0.106   4.248
 4321SOL    HW113862   7.001   0.159   4.199
 4321SOL    HW213863   6.961   0.091   4.342
 4322SOL     OW13864   6.200   2.016   6.669
 4322SOL    HW113865   6.225   2.090   6.732
 4322SOL    HW213866   6.116   1.971   6.702
 4323SOL     OW13867   4.969   3.976   1.504
 4323SOL    HW113868   4.993   3.879   1.501
 4323SOL    HW213869   4.925   4.002   1.418
 4324SOL     OW13870   5.809   3.805   6.359
 4324SOL    HW113871   5.871   3.772   6.289
 4324SOL    HW213872   5.762   3.887   6.326
 4325SOL     OW13873   1.937   0.901   1.033
 4325SOL    HW113874   2.026   0.945   1.049
 4325SOL    HW213875   1.867   0.971   1.020
 4326SOL     OW13876   5.506   3.170   4.649
 4326SOL    HW113877   5.583   3.233   4.660
 4326SOL    HW213878   5.532   3.095   4.589
 4327SOL     OW13879   6.038   5.506   2.271
 4327SOL    HW113880   6.013   5.510   2.174
 4327SOL    HW213881   5.970   5.452   2.320
 4328SOL     OW13882   4.110   3.703   6.113
 4328SOL    HW113883   4.016   3.669   6.110
 4328SOL    HW213884   4.110   3.801   6.128
 4329SOL     OW13885   4.291   1.739   6.538
 4329SOL    HW113886   4.365   1.760   6.602
 4329SOL    HW213887   4.223   1.813   6.539
 4330SOL     OW13888   2.823   0.476   4.720
 4330SOL    HW113889   2.831   0.451   4.817
 4330SOL    HW213890   2.793   0.571   4.713
 4331SOL     OW13891   4.832   2.981   1.027
 4331SOL    HW113892   4.873   2.960   1.116
 4331SOL    HW213893   4.818   3.080   1.019
 4332SOL     OW13894   5.628   4.763   2.279
 4332SOL    HW113895   5.564   4.687   2.288
 4332SOL    HW213896   5.590   4.832   2.217
 4333SOL     OW13897   4.129   0.743   5.354
 4333SOL    HW113898   4.172   0.801   5.284
 4333SOL    HW213899   4.190   0.736   5.433
 4334SOL     OW13900   1.691   2.023   2.683
 4334SOL    HW113901   1.673   2.093   2.613
 4334SOL    HW213902   1.770   1.969   2.656
 4335SOL     OW13903   3.397   4.157   3.429
 4335SOL    HW113904   3.386   4.195   3.337
 4335SOL    HW213905   3.494   4.152   3.452
 4336SOL     OW13906   1.039   6.475   5.888
 4336SOL    HW113907   1.127   6.519   5.904
 4336SOL    HW213908   1.049   6.375   5.892
 4337SOL     OW13909   0.648   4.232   0.580
 4337SOL    HW113910   0.551   4.209   0.573
 4337SOL    HW213911   0.678   4.220   0.674
 4338SOL     OW13912   4.955   5.645   4.054
 4338SOL    HW113913   4.955   5.612   4.149
 4338SOL    HW213914   4.994   5.737   4.051
 4339SOL     OW13915   6.549   3.763   5.190
 4339SOL    HW113916   6.528   3.792   5.284
 4339SOL    HW213917   6.587   3.671   5.192
 4340SOL     OW13918   5.830   4.336   1.803
 4340SOL    HW113919   5.926   4.363   1.817
 4340SOL    HW213920   5.813   4.325   1.705
 4341SOL     OW13921   0.755   5.726   2.292
 4341SOL    HW113922   0.774   5.803   2.230
 4341SOL    HW213923   0.680   5.752   2.353
 4342SOL     OW13924   6.269   3.729   3.863
 4342SOL    HW113925   6.240   3.747   3.957
 4342SOL    HW213926   6.205   3.771   3.800
 4343SOL     OW13927   2.355   6.084   6.065
 4343SOL    HW113928   2.408   6.168   6.053
 4343SOL    HW213929   2.393   6.012   6.008
 4344SOL     OW13930   1.622   5.370   3.079
 4344SOL    HW113931   1.558   5.369   3.002
 4344SOL    HW213932   1.702   5.425   3.054
 4345SOL     OW13933   1.979   2.985   5.311
 4345SOL    HW113934   2.037   2.924   5.366
 4345SOL    HW213935   2.033   3.062   5.279
 4346SOL     OW13936   1.797   3.352   2.141
 4346SOL    HW113937   1.867   3.389   2.079
 4346SOL    HW213938   1.782   3.416   2.216
 4347SOL     OW13939   5.770   6.895   2.820
 4347SOL    HW113940   5.694   6.954   2.846
 4347SOL    HW213941   5.803   6.846   2.901
 4348SOL     OW13942   0.151   4.082   3.090
 4348SOL    HW113943   0.074   4.018   3.104
 4348SOL    HW213944   0.172   4.087   2.993
 4349SOL     OW13945   6.714   2.429   2.616
 4349SOL    HW113946   6.680   2.367   2.686
 4349SOL    HW213947   6.641   2.492   2.589
 4350SOL     OW13948   5.028   2.214   3.955
 4350SOL    HW113949   5.072   2.143   3.900
 4350SOL    HW213950   5.083   2.297   3.952
 4351SOL     OW13951   2.136   6.726   1.314
 4351SOL    HW113952   2.214   6.782   1.343
 4351SOL    HW213953   2.059   6.743   1.375
 4352SOL     OW13954   0.420   2.590   2.396
 4352SOL    HW113955   0.370   2.567   2.480
 4352SOL    HW213956   0.501   2.644   2.419
 4353SOL     OW13957   3.406   3.847   0.002
 4353SOL    HW113958   3.423   3.942   6.999
 4353SOL    HW213959   3.326   3.844   0.063
 4354SOL     OW13960   2.321   6.575   5.643
 4354SOL    HW113961   2.306   6.481   5.612
 4354SOL    HW213962   2.266   6.638   5.589
 4355SOL     OW13963   3.344   0.759   2.433
 4355SOL    HW113964   3.300   0.842   2.400
 4355SOL    HW213965   3.317   0.682   2.376
 4356SOL     OW13966   5.043   4.438   1.527
 4356SOL    HW113967   4.946   4.457   1.511
 4356SOL    HW213968   5.075   4.371   1.460
 4357SOL     OW13969   6.021   0.396   0.137
 4357SOL    HW113970   5.969   0.336   0.076
 4357SOL    HW213971   6.100   0.433   0.087
 4358SOL     OW13972   6.892   5.933   0.067
 4358SOL    HW113973   6.876   5.901   6.997
 4358SOL    HW213974   6.987   5.914   0.093
 4359SOL     OW13975   1.778   2.015   6.120
 4359SOL    HW113976   1.826   1.963   6.050
 4359SOL    HW213977   1.793   2.113   6.105
 4360SOL     OW13978   1.317   2.181   3.128
 4360SOL    HW113979   1.394   2.143   3.077
 4360SOL    HW213980   1.351   2.235   3.205
 4361SOL     OW13981   3.027   2.891   1.324
 4361SOL    HW113982   3.007   2.848   1.412
 4361SOL    HW213983   2.942   2.922   1.282
 4362SOL     OW13984   6.533   4.435   3.264
 4362SOL    HW113985   6.470   4.432   3.342
 4362SOL    HW213986   6.591   4.516   3.272
 4363SOL     OW13987   5.553   2.532   6.963
 4363SOL    HW113988   5.465   2.579   6.958
 4363SOL    HW213989   5.555   2.458   6.896
 4364SOL     OW13990   3.563   3.679   5.491
 4364SOL    HW113991   3.539   3.742   5.417
 4364SOL    HW213992   3.527   3.715   5.577
 4365SOL     OW13993   2.186   2.400   1.936
 4365SOL    HW113994   2.189   2.494   1.901
 4365SOL    HW213995   2.106   2.390   1.995
 4366SOL     OW13996   5.772   6.242   0.549
 4366SOL    HW113997   5.756   6.167   0.484
 4366SOL    HW213998   5.737   6.217   0.639
 4367SOL     OW13999   2.043   4.508   4.553
 4367SOL    HW114000   2.022   4.606   4.548
 4367SOL    HW214001   2.142   4.496   4.550
 4368SOL     OW14002   3.968   4.822   1.136
 4368SOL    HW114003   3.871   4.797   1.133
 4368SOL    HW214004   3.978   4.921   1.147
 4369SOL     OW14005   3.520   5.224   3.735
 4369SOL    HW114006   3.569   5.226   3.823
 4369SOL    HW214007   3.574   5.272   3.666
 4370SOL     OW14008   4.772   4.843   2.745
 4370SOL    HW114009   4.714   4.799   2.813
 4370SOL    HW214010   4.722   4.850   2.658
 4371SOL     OW14011   0.546   1.158   1.591
 4371SOL    HW114012   0.480   1.093   1.627
 4371SOL    HW214013   0.567   1.136   1.496
 4372SOL     OW14014   4.446   1.225   3.185
 4372SOL    HW114015   4.393   1.284   3.246
 4372SOL    HW214016   4.442   1.261   3.092
 4373SOL     OW14017   0.502   2.303   6.788
 4373SOL    HW114018   0.478   2.340   6.877
 4373SOL    HW214019   0.501   2.203   6.792
 4374SOL     OW14020   0.975   1.901   1.972
 4374SOL    HW114021   1.015   1.810   1.967
 4374SOL    HW214022   1.045   1.968   1.996
 4375SOL     OW14023   3.954   0.969   3.262
 4375SOL    HW114024   3.921   0.959   3.168
 4375SOL    HW214025   4.017   0.894   3.283
 4376SOL     OW14026   6.133   6.766   2.895
 4376SOL    HW114027   6.186   6.713   2.828
 4376SOL    HW214028   6.151   6.731   2.987
 4377SOL     OW14029   5.388   3.898   6.796
 4377SOL    HW114030   5.485   3.890   6.772
 4377SOL    HW214031   5.376   3.975   6.859
 4378SOL     OW14032   1.960   1.517   2.762
 4378SOL    HW114033   1.881   1.529   2.701
 4378SOL    HW214034   2.044   1.538   2.711
 4379SOL     OW14035   1.944   0.775   2.300
 4379SOL    HW114036   1.987   0.750   2.213
 4379SOL    HW214037   2.016   0.791   2.368
 4380SOL     OW14038   1.608   0.135   2.495
 4380SOL    HW114039   1.696   0.149   2.449
 4380SOL    HW214040   1.559   0.059   2.452
 4381SOL     OW14041   0.258   6.351   5.289
 4381SOL    HW114042   0.250   6.446   5.318
 4381SOL    HW214043   0.167   6.313   5.273
 4382SOL     OW14044   0.850   3.332   5.365
 4382SOL    HW114045   0.893   3.371   5.447
 4382SOL    HW214046   0.797   3.404   5.319
 4383SOL     OW14047   0.631   3.115   6.638
 4383SOL    HW114048   0.660   3.043   6.700
 4383SOL    HW214049   0.637   3.204   6.685
 4384SOL     OW14050   6.434   0.452   4.522
 4384SOL    HW114051   6.409   0.523   4.588
 4384SOL    HW214052   6.371   0.454   4.444
 4385SOL     OW14053   4.576   2.754   5.039
 4385SOL    HW114054   4.572   2.787   5.133
 4385SOL    HW214055   4.596   2.830   4.978
 4386SOL     OW14056   1.770   3.540   5.389
 4386SOL    HW114057   1.757   3.542   5.290
 4386SOL    HW214058   1.702   3.598   5.432
 4387SOL     OW14059   6.675   2.457   1.596
 4387SOL    HW114060   6.755   2.474   1.654
 4387SOL    HW214061   6.606   2.406   1.647
 4388SOL     OW14062   4.026   2.031   5.814
 4388SOL    HW114063   4.055   2.087   5.892
 4388SOL    HW214064   3.964   1.960   5.847
 4389SOL     OW14065   6.984   3.583   1.132
 4389SOL    HW114066   6.889   3.577   1.165
 4389SOL    HW214067   0.014   3.508   1.172
 4390SOL     OW14068   4.479   6.852   1.451
 4390SOL    HW114069   4.473   6.952   1.460
 4390SOL    HW214070   4.391   6.816   1.420
 4391SOL     OW14071   2.562   5.116   6.779
 4391SOL    HW114072   2.579   5.035   6.835
 4391SOL    HW214073   2.620   5.114   6.698
 4392SOL     OW14074   0.958   2.098   5.156
 4392SOL    HW114075   1.020   2.107   5.234
 4392SOL    HW214076   0.985   2.163   5.085
 4393SOL     OW14077   6.128   1.014   1.565
 4393SOL    HW114078   6.193   0.971   1.504
 4393SOL    HW214079   6.097   0.948   1.633
 4394SOL     OW14080   6.953   5.878   2.429
 4394SOL    HW114081   6.935   5.787   2.390
 4394SOL    HW214082   6.867   5.928   2.438
 4395SOL     OW14083   1.948   0.815   1.872
 4395SOL    HW114084   1.913   0.908   1.858
 4395SOL    HW214085   1.894   0.768   1.942
 4396SOL     OW14086   1.812   1.610   3.846
 4396SOL    HW114087   1.875   1.534   3.864
 4396SOL    HW214088   1.813   1.631   3.748
 4397SOL     OW14089   1.587   2.534   4.498
 4397SOL    HW114090   1.617   2.440   4.514
 4397SOL    HW214091   1.646   2.577   4.430
 4398SOL     OW14092   1.550   3.384   5.967
 4398SOL    HW114093   1.515   3.402   5.875
 4398SOL    HW214094   1.625   3.318   5.961
 4399SOL     OW14095   3.731   6.138   2.241
 4399SOL    HW114096   3.659   6.102   2.182
 4399SOL    HW214097   3.772   6.063   2.294
 4400SOL     OW14098   2.277   6.887   4.292
 4400SOL    HW114099   2.224   6.877   4.377
 4400SOL    HW214100   2.233   6.835   4.219
 4401SOL     OW14101   3.069   6.536   5.407
 4401SOL    HW114102   3.098   6.548   5.502
 4401SOL    HW214103   2.969   6.538   5.402
 4402SOL     OW14104   1.538   0.189   2.756
 4402SOL    HW114105   1.619   0.175   2.814
 4402SOL    HW214106   1.562   0.169   2.661
 4403SOL     OW14107   1.166   6.464   0.041
 4403SOL    HW114108   1.210   6.552   0.025
 4403SOL    HW214109   1.206   6.421   0.122
 4404SOL     OW14110   0.949   6.276   5.397
 4404SOL    HW114111   0.929   6.191   5.446
 4404SOL    HW214112   0.959   6.257   5.299
 4405SOL     OW14113   1.813   4.748   2.125
 4405SOL    HW114114   1.802   4.840   2.164
 4405SOL    HW214115   1.723   4.711   2.102
 4406SOL     OW14116   0.112   2.913   0.490
 4406SOL    HW114117   0.159   2.901   0.578
 4406SOL    HW214118   0.039   2.844   0.482
 4407SOL     OW14119   6.931   5.289   1.928
 4407SOL    HW114120   6.948   5.192   1.910
 4407SOL    HW214121   7.017   5.335   1.948
 4408SOL     OW14122   2.037   0.060   0.240
 4408SOL    HW114123   2.037   6.992   0.200
 4408SOL    HW214124   2.120   0.073   0.295
 4409SOL     OW14125   4.294   1.272   1.209
 4409SOL    HW114126   4.321   1.346   1.270
 4409SOL    HW214127   4.276   1.189   1.262
 4410SOL     OW14128   0.506   5.522   6.946
 4410SOL    HW114129   0.582   5.535   6.882
 4410SOL    HW214130   0.537   5.544   0.016
 4411SOL     OW14131   3.662   4.231   5.057
 4411SOL    HW114132   3.688   4.134   5.065
 4411SOL    HW214133   3.710   4.284   5.127
 4412SOL     OW14134   4.705   6.353   4.095
 4412SOL    HW114135   4.728   6.332   4.000
 4412SOL    HW214136   4.769   6.308   4.156
 4413SOL     OW14137   5.584   5.409   3.860
 4413SOL    HW114138   5.607   5.503   3.884
 4413SOL    HW214139   5.534   5.408   3.773
 4414SOL     OW14140   3.305   5.749   1.150
 4414SOL    HW114141   3.398   5.773   1.121
 4414SOL    HW214142   3.239   5.793   1.089
 4415SOL     OW14143   4.609   3.239   0.442
 4415SOL    HW114144   4.629   3.178   0.519
 4415SOL    HW214145   4.550   3.314   0.472
 4416SOL     OW14146   4.522   1.932   4.056
 4416SOL    HW114147   4.547   1.946   3.960
 4416SOL    HW214148   4.535   2.017   4.107
 4417SOL     OW14149   5.565   3.925   3.749
 4417SOL    HW114150   5.593   3.868   3.826
 4417SOL    HW214151   5.629   4.002   3.740
 4418SOL     OW14152   6.210   2.159   3.047
 4418SOL    HW114153   6.115   2.172   3.019
 4418SOL    HW214154   6.245   2.074   3.008
 4419SOL     OW14155   6.274   0.119   5.699
 4419SOL    HW114156   6.344   0.137   5.630
 4419SOL    HW214157   6.230   0.031   5.680
 4420SOL     OW14158   3.842   1.583   2.209
 4420SOL    HW114159   3.886   1.671   2.194
 4420SOL    HW214160   3.755   1.596   2.256
 4421SOL     OW14161   1.934   1.784   5.231
 4421SOL    HW114162   1.987   1.709   5.270
 4421SOL    HW214163   1.929   1.772   5.132
 4422SOL     OW14164   1.077   4.509   6.604
 4422SOL    HW114165   0.983   4.542   6.597
 4422SOL    HW214166   1.077   4.410   6.614
 4423SOL     OW14167   0.261   4.080   5.722
 4423SOL    HW114168   0.169   4.076   5.760
 4423SOL    HW214169   0.260   4.135   5.638
 4424SOL     OW14170   5.283   0.061   4.594
 4424SOL    HW114171   5.373   0.104   4.591
 4424SOL    HW214172   5.292   6.987   4.616
 4425SOL     OW14173   2.417   4.487   0.626
 4425SOL    HW114174   2.344   4.468   0.692
 4425SOL    HW214175   2.406   4.579   0.590
 4426SOL     OW14176   0.744   1.454   4.104
 4426SOL    HW114177   0.764   1.548   4.077
 4426SOL    HW214178   0.652   1.450   4.144
 4427SOL     OW14179   5.521   6.849   3.171
 4427SOL    HW114180   5.511   6.786   3.094
 4427SOL    HW214181   5.559   6.936   3.140
 4428SOL     OW14182   4.362   0.800   4.276
 4428SOL    HW114183   4.374   0.701   4.265
 4428SOL    HW214184   4.323   0.838   4.192
 4429SOL     OW14185   3.239   6.960   2.602
 4429SOL    HW114186   3.296   7.002   2.672
 4429SOL    HW214187   3.178   0.006   2.562
 4430SOL     OW14188   5.043   4.554   5.080
 4430SOL    HW114189   5.135   4.558   5.119
 4430SOL    HW214190   5.007   4.461   5.091
 4431SOL     OW14191   2.885   0.826   3.428
 4431SOL    HW114192   2.985   0.828   3.437
 4431SOL    HW214193   2.854   0.906   3.376
 4432SOL     OW14194   2.845   3.429   6.156
 4432SOL    HW114195   2.881   3.462   6.243
 4432SOL    HW214196   2.788   3.500   6.115
 4433SOL     OW14197   6.601   2.809   4.413
 4433SOL    HW114198   6.552   2.783   4.330
 4433SOL    HW214199   6.616   2.908   4.414
 4434SOL     OW14200   5.562   1.652   2.990
 4434SOL    HW114201   5.526   1.690   3.075
 4434SOL    HW214202   5.580   1.726   2.925
 4435SOL     OW14203   4.190   3.496   1.241
 4435SOL    HW114204   4.164   3.419   1.183
 4435SOL    HW214205   4.109   3.534   1.285
 4436SOL     OW14206   4.281   1.098   1.453
 4436SOL    HW114207   4.260   1.136   1.544
 4436SOL    HW214208   4.380   1.092   1.442
 4437SOL     OW14209   1.106   3.208   3.008
 4437SOL    HW114210   1.090   3.276   3.080
 4437SOL    HW214211   1.019   3.175   2.974
 4438SOL     OW14212   4.703   6.725   6.468
 4438SOL    HW114213   4.629   6.754   6.407
 4438SOL    HW214214   4.738   6.804   6.518
 4439SOL     OW14215   6.930   4.549   1.694
 4439SOL    HW114216   7.020   4.507   1.711
 4439SOL    HW214217   6.890   4.508   1.612
 4440SOL     OW14218   2.609   4.960   0.772
 4440SOL    HW114219   2.565   4.934   0.858
 4440SOL    HW214220   2.683   5.025   0.790
 4441SOL     OW14221   0.152   1.357   1.063
 4441SOL    HW114222   0.079   1.359   1.133
 4441SOL    HW214223   0.168   1.449   1.028
 4442SOL     OW14224   1.203   5.546   4.710
 4442SOL    HW114225   1.161   5.634   4.688
 4442SOL    HW214226   1.133   5.481   4.740
 4443SOL     OW14227   1.428   3.415   5.673
 4443SOL    HW114228   1.491   3.492   5.681
 4443SOL    HW214229   1.369   3.428   5.593
 4444SOL     OW14230   4.227   3.613   0.024
 4444SOL    HW114231   4.313   3.633   0.071
 4444SOL    HW214232   4.244   3.544   6.976
 4445SOL     OW14233   1.142   6.007   6.907
 4445SOL    HW114234   1.054   5.995   6.862
 4445SOL    HW214235   1.168   6.103   6.904
 4446SOL     OW14236   5.675   2.111   0.542
 4446SOL    HW114237   5.622   2.035   0.579
 4446SOL    HW214238   5.695   2.095   0.446
 4447SOL     OW14239   6.089   3.882   4.992
 4447SOL    HW114240   6.175   3.831   4.985
 4447SOL    HW214241   6.087   3.932   5.079
 4448SOL     OW14242   2.435   6.371   0.852
 4448SOL    HW114243   2.406   6.298   0.789
 4448SOL    HW214244   2.438   6.335   0.945
 4449SOL     OW14245   5.147   0.930   6.454
 4449SOL    HW114246   5.241   0.905   6.476
 4449SOL    HW214247   5.092   0.848   6.442
 4450SOL     OW14248   2.949   1.905   6.780
 4450SOL    HW114249   2.962   1.817   6.735
 4450SOL    HW214250   2.873   1.954   6.736
 4451SOL     OW14251   4.432   5.423   4.898
 4451SOL    HW114252   4.448   5.452   4.992
 4451SOL    HW214253   4.336   5.396   4.887
 4452SOL     OW14254   5.745   5.681   4.099
 4452SOL    HW114255   5.663   5.672   4.042
 4452SOL    HW214256   5.746   5.772   4.140
 4453SOL     OW14257   1.256   2.853   1.808
 4453SOL    HW114258   1.238   2.886   1.901
 4453SOL    HW214259   1.242   2.753   1.805
 4454SOL     OW14260   1.703   1.579   0.150
 4454SOL    HW114261   1.764   1.538   0.083
 4454SOL    HW214262   1.685   1.513   0.224
 4455SOL     OW14263   5.455   6.014   5.515
 4455SOL    HW114264   5.445   5.921   5.481
 4455SOL    HW214265   5.520   6.064   5.457
 4456SOL     OW14266   2.462   5.992   2.825
 4456SOL    HW114267   2.365   5.974   2.845
 4456SOL    HW214268   2.469   6.054   2.748
 4457SOL     OW14269   3.675   1.810   3.509
 4457SOL    HW114270   3.626   1.850   3.432
 4457SOL    HW214271   3.662   1.711   3.509
 4458SOL     OW14272   2.285   3.034   1.504
 4458SOL    HW114273   2.294   3.071   1.412
 4458SOL    HW214274   2.276   2.935   1.499
 4459SOL     OW14275   3.741   2.108   4.560
 4459SOL    HW114276   3.681   2.088   4.638
 4459SOL    HW214277   3.687   2.146   4.485
 4460SOL     OW14278   0.629   2.601   6.846
 4460SOL    HW114279   0.728   2.589   6.853
 4460SOL    HW214280   0.596   2.565   6.759
 4461SOL     OW14281   1.729   0.984   1.317
 4461SOL    HW114282   1.733   0.904   1.257
 4461SOL    HW214283   1.699   0.955   1.408
 4462SOL     OW14284   5.873   4.685   1.739
 4462SOL    HW114285   5.971   4.696   1.728
 4462SOL    HW214286   5.852   4.671   1.836
 4463SOL     OW14287   5.039   1.250   1.332
 4463SOL    HW114288   4.992   1.168   1.300
 4463SOL    HW214289   4.975   1.308   1.383
 4464SOL     OW14290   0.554   6.169   0.770
 4464SOL    HW114291   0.479   6.106   0.786
 4464SOL    HW214292   0.639   6.118   0.757
 4465SOL     OW14293   2.566   5.022   0.521
 4465SOL    HW114294   2.483   4.979   0.484
 4465SOL    HW214295   2.585   4.984   0.612
 4466SOL     OW14296   1.163   1.913   2.869
 4466SOL    HW114297   1.182   1.857   2.789
 4466SOL    HW214298   1.218   1.996   2.865
 4467SOL     OW14299   2.399   5.168   3.121
 4467SOL    HW114300   2.451   5.103   3.065
 4467SOL    HW214301   2.319   5.122   3.158
 4468SOL     OW14302   2.087   4.087   1.008
 4468SOL    HW114303   2.125   4.156   1.070
 4468SOL    HW214304   2.144   4.080   0.926
 4469SOL     OW14305   3.165   1.000   1.141
 4469SOL    HW114306   3.189   0.937   1.067
 4469SOL    HW214307   3.147   0.948   1.225
 4470SOL     OW14308   0.919   1.814   2.774
 4470SOL    HW114309   1.002   1.838   2.824
 4470SOL    HW214310   0.924   1.719   2.744
 4471SOL     OW14311   1.289   2.990   6.767
 4471SOL    HW114312   1.325   2.969   6.676
 4471SOL    HW214313   1.331   2.928   6.834
 4472SOL     OW14314   0.397   2.017   1.101
 4472SOL    HW114315   0.433   2.016   1.008
 4472SOL    HW214316   0.457   1.965   1.162
 4473SOL     OW14317   5.531   2.826   4.118
 4473SOL    HW114318   5.468   2.749   4.121
 4473SOL    HW214319   5.496   2.901   4.173
 4474SOL     OW14320   3.185   6.687   1.801
 4474SOL    HW114321   3.250   6.745   1.752
 4474SOL    HW214322   3.229   6.650   1.882
 4475SOL     OW14323   1.376   3.795   1.730
 4475SOL    HW114324   1.417   3.751   1.650
 4475SOL    HW214325   1.342   3.886   1.704
 4476SOL     OW14326   6.319   0.577   3.973
 4476SOL    HW114327   6.271   0.500   3.930
 4476SOL    HW214328   6.255   0.652   3.988
 4477SOL     OW14329   1.415   0.754   5.725
 4477SOL    HW114330   1.379   0.689   5.658
 4477SOL    HW214331   1.510   0.730   5.746
 4478SOL     OW14332   2.615   0.019   2.387
 4478SOL    HW114333   2.616   0.050   2.292
 4478SOL    HW214334   2.701   6.996   2.408
 4479SOL     OW14335   0.689   2.133   1.385
 4479SOL    HW114336   0.753   2.209   1.397
 4479SOL    HW214337   0.737   2.054   1.348
 4480SOL     OW14338   6.951   4.420   5.144
 4480SOL    HW114339   6.951   4.350   5.216
 4480SOL    HW214340   6.997   4.384   5.063
 4481SOL     OW14341   2.110   4.963   5.007
 4481SOL    HW114342   2.067   5.053   5.020
 4481SOL    HW214343   2.054   4.909   4.944
 4482SOL     OW14344   2.358   2.600   5.452
 4482SOL    HW114345   2.402   2.649   5.376
 4482SOL    HW214346   2.427   2.545   5.499
 4483SOL     OW14347   0.130   2.600   1.749
 4483SOL    HW114348   0.119   2.684   1.804
 4483SOL    HW214349   0.064   2.601   1.674
 4484SOL     OW14350   2.625   2.547   6.888
 4484SOL    HW114351   2.568   2.551   6.970
 4484SOL    HW214352   2.568   2.562   6.807
 4485SOL     OW14353   5.527   2.638   5.144
 4485SOL    HW114354   5.457   2.651   5.073
 4485SOL    HW214355   5.594   2.571   5.112
 4486SOL     OW14356   6.110   5.216   4.993
 4486SOL    HW114357   6.093   5.303   5.040
 4486SOL    HW214358   6.076   5.221   4.899
 4487SOL     OW14359   3.047   3.084   0.410
 4487SOL    HW114360   3.077   3.124   0.323
 4487SOL    HW214361   2.978   3.144   0.452
 4488SOL     OW14362   1.307   3.324   4.898
 4488SOL    HW114363   1.212   3.299   4.876
 4488SOL    HW214364   1.365   3.243   4.887
 4489SOL     OW14365   4.865   5.674   4.736
 4489SOL    HW114366   4.831   5.673   4.830
 4489SOL    HW214367   4.959   5.709   4.734
 4490SOL     OW14368   5.513   1.758   1.976
 4490SOL    HW114369   5.590   1.812   1.942
 4490SOL    HW214370   5.441   1.753   1.907
 4491SOL     OW14371   0.245   3.561   3.379
 4491SOL    HW114372   0.166   3.499   3.374
 4491SOL    HW214373   0.301   3.537   3.457
 4492SOL     OW14374   5.863   3.354   1.507
 4492SOL    HW114375   5.898   3.341   1.600
 4492SOL    HW214376   5.928   3.409   1.454
 4493SOL     OW14377   4.816   6.607   5.093
 4493SOL    HW114378   4.851   6.584   5.003
 4493SOL    HW214379   4.846   6.539   5.160
 4494SOL     OW14380   0.702   1.024   6.118
 4494SOL    HW114381   0.680   1.121   6.114
 4494SOL    HW214382   0.751   0.997   6.035
 4495SOL     OW14383   4.812   6.764   3.637
 4495SOL    HW114384   4.764   6.685   3.600
 4495SOL    HW214385   4.766   6.848   3.607
 4496SOL     OW14386   5.153   6.140   0.755
 4496SOL    HW114387   5.106   6.223   0.726
 4496SOL    HW214388   5.234   6.126   0.697
 4497SOL     OW14389   4.386   2.313   6.634
 4497SOL    HW114390   4.486   2.314   6.644
 4497SOL    HW214391   4.350   2.403   6.659
 4498SOL     OW14392   6.900   4.768   6.621
 4498SOL    HW114393   6.908   4.680   6.575
 4498SOL    HW214394   6.818   4.815   6.588
 4499SOL     OW14395   6.310   3.084   3.403
 4499SOL    HW114396   6.286   3.141   3.324
 4499SOL    HW214397   6.395   3.036   3.384
 4500SOL     OW14398   4.014   4.116   6.861
 4500SOL    HW114399   4.094   4.157   6.818
 4500SOL    HW214400   3.987   4.034   6.809
 4501SOL     OW14401   6.424   3.345   3.085
 4501SOL    HW114402   6.350   3.399   3.125
 4501SOL    HW214403   6.499   3.406   3.059
 4502SOL     OW14404   1.048   3.856   0.123
 4502SOL    HW114405   1.100   3.844   0.208
 4502SOL    HW214406   1.078   3.787   0.057
 4503SOL     OW14407   3.819   6.786   1.677
 4503SOL    HW114408   3.879   6.727   1.731
 4503SOL    HW214409   3.724   6.761   1.693
 4504SOL     OW14410   6.230   1.799   4.236
 4504SOL    HW114411   6.149   1.755   4.274
 4504SOL    HW214412   6.283   1.732   4.185
 4505SOL     OW14413   6.509   4.915   1.685
 4505SOL    HW114414   6.595   4.964   1.696
 4505SOL    HW214415   6.471   4.894   1.775
 4506SOL     OW14416   5.061   2.502   3.887
 4506SOL    HW114417   5.117   2.556   3.825
 4506SOL    HW214418   4.976   2.475   3.842
 4507SOL     OW14419   0.236   3.411   3.951
 4507SOL    HW114420   0.209   3.431   4.045
 4507SOL    HW214421   0.278   3.493   3.911
 4508SOL     OW14422   0.990   4.740   0.212
 4508SOL    HW114423   1.002   4.838   0.227
 4508SOL    HW214424   1.055   4.709   0.143
 4509SOL     OW14425   4.977   1.915   3.324
 4509SOL    HW114426   4.906   1.930   3.392
 4509SOL    HW214427   4.937   1.917   3.232
 4510SOL     OW14428   4.659   1.027   4.538
 4510SOL    HW114429   4.674   0.952   4.603
 4510SOL    HW214430   4.745   1.075   4.523
 4511SOL     OW14431   6.207   3.532   0.530
 4511SOL    HW114432   6.266   3.500   0.605
 4511SOL    HW214433   6.201   3.460   0.460
 4512SOL     OW14434   3.398   1.425   6.197
 4512SOL    HW114435   3.413   1.460   6.105
 4512SOL    HW214436   3.377   1.327   6.193
 4513SOL     OW14437   1.367   5.354   6.403
 4513SOL    HW114438   1.431   5.284   6.371
 4513SOL    HW214439   1.282   5.347   6.351
 4514SOL     OW14440   3.560   2.529   6.044
 4514SOL    HW114441   3.658   2.543   6.055
 4514SOL    HW214442   3.541   2.431   6.039
 4515SOL     OW14443   5.908   2.212   5.623
 4515SOL    HW114444   5.851   2.253   5.695
 4515SOL    HW214445   5.891   2.260   5.536
 4516SOL     OW14446   2.466   0.208   6.452
 4516SOL    HW114447   2.413   0.187   6.370
 4516SOL    HW214448   2.548   0.260   6.426
 4517SOL     OW14449   4.549   6.828   6.754
 4517SOL    HW114450   4.572   6.846   6.849
 4517SOL    HW214451   4.560   6.731   6.735
 4518SOL     OW14452   0.410   7.019   1.313
 4518SOL    HW114453   0.493   0.031   1.270
 4518SOL    HW214454   0.368   6.949   1.256
 4519SOL     OW14455   4.959   6.857   0.205
 4519SOL    HW114456   5.018   6.873   0.284
 4519SOL    HW214457   4.894   6.785   0.226
 4520SOL     OW14458   3.944   5.863   6.115
 4520SOL    HW114459   3.979   5.942   6.166
 4520SOL    HW214460   3.866   5.824   6.165
 4521SOL     OW14461   5.071   2.274   5.070
 4521SOL    HW114462   5.157   2.251   5.024
 4521SOL    HW214463   4.994   2.245   5.013
 4522SOL     OW14464   5.711   4.649   2.841
 4522SOL    HW114465   5.795   4.637   2.789
 4522SOL    HW214466   5.686   4.562   2.884
 4523SOL     OW14467   0.881   3.991   6.985
 4523SOL    HW114468   0.928   4.009   6.899
 4523SOL    HW214469   0.940   3.936   0.021
 4524SOL     OW14470   6.010   3.235   2.701
 4524SOL    HW114471   5.927   3.268   2.657
 4524SOL    HW214472   6.085   3.235   2.636
 4525SOL     OW14473   3.532   2.007   5.871
 4525SOL    HW114474   3.449   1.956   5.892
 4525SOL    HW214475   3.588   2.017   5.954
 4526SOL     OW14476   6.807   0.256   6.886
 4526SOL    HW114477   6.725   0.309   6.864
 4526SOL    HW214478   6.867   0.312   6.944
 4527SOL     OW14479   6.217   6.965   2.580
 4527SOL    HW114480   6.200   6.985   2.484
 4527SOL    HW214481   6.146   7.007   2.636
 4528SOL     OW14482   4.051   0.704   6.357
 4528SOL    HW114483   3.962   0.689   6.313
 4528SOL    HW214484   4.036   0.736   6.451
 4529SOL     OW14485   2.133   1.427   5.682
 4529SOL    HW114486   2.034   1.413   5.671
 4529SOL    HW214487   2.170   1.358   5.744
 4530SOL     OW14488   2.200   5.785   3.336
 4530SOL    HW114489   2.220   5.854   3.266
 4530SOL    HW214490   2.210   5.825   3.427
 4531SOL     OW14491   1.151   3.373   6.156
 4531SOL    HW114492   1.165   3.459   6.106
 4531SOL    HW214493   1.064   3.332   6.127
 4532SOL     OW14494   5.739   0.772   2.800
 4532SOL    HW114495   5.734   0.681   2.842
 4532SOL    HW214496   5.831   0.788   2.766
 4533SOL     OW14497   2.051   1.014   3.271
 4533SOL    HW114498   1.981   1.079   3.241
 4533SOL    HW214499   2.030   0.924   3.233
 4534SOL     OW14500   4.736   2.564   5.204
 4534SOL    HW114501   4.657   2.502   5.207
 4534SOL    HW214502   4.763   2.578   5.108
 4535SOL     OW14503   3.807   1.419   1.977
 4535SOL    HW114504   3.839   1.482   2.047
 4535SOL    HW214505   3.747   1.467   1.913
 4536SOL     OW14506   3.078   2.220   4.652
 4536SOL    HW114507   3.095   2.301   4.709
 4536SOL    HW214508   3.059   2.141   4.710
 4537SOL     OW14509   4.069   3.502   1.890
 4537SOL    HW114510   4.046   3.518   1.986
 4537SOL    HW214511   4.104   3.409   1.879
 4538SOL     OW14512   2.676   0.953   2.478
 4538SOL    HW114513   2.583   0.971   2.508
 4538SOL    HW214514   2.739   0.965   2.555
 4539SOL     OW14515   2.324   5.714   4.479
 4539SOL    HW114516   2.397   5.757   4.426
 4539SOL    HW214517   2.356   5.628   4.516
 4540SOL     OW14518   2.500   1.114   0.884
 4540SOL    HW114519   2.509   1.047   0.958
 4540SOL    HW214520   2.554   1.195   0.906
 4541SOL     OW14521   5.632   1.567   0.126
 4541SOL    HW114522   5.721   1.540   0.088
 4541SOL    HW214523   5.595   1.492   0.181
 4542SOL     OW14524   0.032   2.288   1.286
 4542SOL    HW114525   7.010   2.284   1.197
 4542SOL    HW214526   0.130   2.298   1.273
 4543SOL     OW14527   4.946   2.023   1.271
 4543SOL    HW114528   5.027   1.970   1.295
 4543SOL    HW214529   4.927   2.089   1.344
 4544SOL     OW14530   3.710   4.979   0.442
 4544SOL    HW114531   3.676   5.041   0.513
 4544SOL    HW214532   3.633   4.928   0.403
 4545SOL     OW14533   6.783   3.772   5.571
 4545SOL    HW114534   6.718   3.697   5.584
 4545SOL    HW214535   6.781   3.832   5.651
 4546SOL     OW14536   2.836   6.849   4.656
 4546SOL    HW114537   2.883   6.847   4.744
 4546SOL    HW214538   2.739   6.828   4.670
 4547SOL     OW14539   6.446   1.578   0.549
 4547SOL    HW114540   6.405   1.668   0.560
 4547SOL    HW214541   6.377   1.515   0.513
 4548SOL     OW14542   2.419   2.518   3.442
 4548SOL    HW114543   2.494   2.464   3.480
 4548SOL    HW214544   2.395   2.591   3.505
 4549SOL     OW14545   5.113   3.891   2.245
 4549SOL    HW114546   5.024   3.877   2.288
 4549SOL    HW214547   5.105   3.960   2.173
 4550SOL     OW14548   1.158   4.474   3.154
 4550SOL    HW114549   1.084   4.480   3.087
 4550SOL    HW214550   1.171   4.564   3.197
 4551SOL     OW14551   0.822   3.728   4.954
 4551SOL    HW114552   0.919   3.730   4.928
 4551SOL    HW214553   0.813   3.762   5.048
 4552SOL     OW14554   5.578   2.423   1.064
 4552SOL    HW114555   5.507   2.372   1.015
 4552SOL    HW214556   5.557   2.520   1.060
 4553SOL     OW14557   5.350   4.100   6.427
 4553SOL    HW114558   5.402   4.127   6.507
 4553SOL    HW214559   5.400   4.126   6.344
 4554SOL     OW14560   6.922   0.103   1.720
 4554SOL    HW114561   6.883   0.142   1.636
 4554SOL    HW214562   6.849   0.089   1.787
 4555SOL     OW14563   1.171   0.956   6.233
 4555SOL    HW114564   1.240   0.977   6.164
 4555SOL    HW214565   1.209   0.893   6.301
 4556SOL     OW14566   6.499   3.330   4.865
 4556SOL    HW114567   6.565   3.393   4.824
 4556SOL    HW214568   6.547   3.252   4.906
 4557SOL     OW14569   5.281   5.403   4.092
 4557SOL    HW114570   5.369   5.439   4.120
 4557SOL    HW214571   5.267   5.312   4.132
 4558SOL     OW14572   6.482   3.651   4.603
 4558SOL    HW114573   6.489   3.584   4.529
 4558SOL    HW214574   6.558   3.715   4.597
 4559SOL     OW14575   7.004   3.276   2.796
 4559SOL    HW114576   6.972   3.246   2.885
 4559SOL    HW214577   0.077   3.250   2.784
 4560SOL     OW14578   6.149   4.252   2.034
 4560SOL    HW114579   6.050   4.254   2.040
 4560SOL    HW214580   6.188   4.287   2.119
 4561SOL     OW14581   3.928   1.869   3.398
 4561SOL    HW114582   3.869   1.872   3.479
 4561SOL    HW214583   3.991   1.947   3.400
 4562SOL     OW14584   1.445   0.306   0.366
 4562SOL    HW114585   1.476   0.234   0.429
 4562SOL    HW214586   1.508   0.383   0.369
 4563SOL     OW14587   6.964   3.490   0.653
 4563SOL    HW114588   6.991   3.394   0.661
 4563SOL    HW214589   0.020   3.545   0.629
 4564SOL     OW14590   6.474   5.940   2.006
 4564SOL    HW114591   6.538   5.907   2.076
 4564SOL    HW214592   6.380   5.921   2.035
 4565SOL     OW14593   1.249   1.393   4.535
 4565SOL    HW114594   1.181   1.417   4.604
 4565SOL    HW214595   1.226   1.438   4.449
 4566SOL     OW14596   0.106   3.431   1.306
 4566SOL    HW114597   0.195   3.447   1.263
 4566SOL    HW214598   0.105   3.341   1.349
 4567SOL     OW14599   7.009   1.272   6.780
 4567SOL    HW114600   0.033   1.209   6.841
 4567SOL    HW214601   0.005   1.247   6.685
 4568SOL     OW14602   1.491   3.638   5.304
 4568SOL    HW114603   1.478   3.637   5.205
 4568SOL    HW214604   1.415   3.590   5.348
 4569SOL     OW14605   2.978   0.374   3.203
 4569SOL    HW114606   2.934   0.383   3.292
 4569SOL    HW214607   3.041   0.450   3.189
 4570SOL     OW14608   6.072   6.402   2.165
 4570SOL    HW114609   6.079   6.463   2.086
 4570SOL    HW214610   6.120   6.442   2.243
 4571SOL     OW14611   4.388   3.003   6.702
 4571SOL    HW114612   4.405   2.935   6.630
 4571SOL    HW214613   4.464   3.068   6.703
 4572SOL     OW14614   2.349   1.012   6.675
 4572SOL    HW114615   2.275   0.997   6.740
 4572SOL    HW214616   2.372   1.110   6.672
 4573SOL     OW14617   0.322   6.830   0.147
 4573SOL    HW114618   0.359   6.820   0.055
 4573SOL    HW214619   0.390   6.874   0.206
 4574SOL     OW14620   5.506   4.227   0.081
 4574SOL    HW114621   5.460   4.149   0.125
 4574SOL    HW214622   5.581   4.259   0.139
 4575SOL     OW14623   5.719   0.425   5.155
 4575SOL    HW114624   5.678   0.413   5.065
 4575SOL    HW214625   5.651   0.461   5.219
 4576SOL     OW14626   2.659   4.927   5.266
 4576SOL    HW114627   2.671   4.903   5.169
 4576SOL    HW214628   2.679   4.848   5.323
 4577SOL     OW14629   1.696   2.801   3.407
 4577SOL    HW114630   1.695   2.704   3.383
 4577SOL    HW214631   1.607   2.842   3.384
 4578SOL     OW14632   0.956   1.341   4.247
 4578SOL    HW114633   1.014   1.296   4.178
 4578SOL    HW214634   0.881   1.388   4.201
 4579SOL     OW14635   4.740   0.781   2.030
 4579SOL    HW114636   4.815   0.746   2.087
 4579SOL    HW214637   4.671   0.710   2.019
 4580SOL     OW14638   5.743   3.981   0.974
 4580SOL    HW114639   5.652   4.019   0.988
 4580SOL    HW214640   5.768   3.989   0.877
 4581SOL     OW14641   2.919   6.386   2.608
 4581SOL    HW114642   2.980   6.465   2.618
 4581SOL    HW214643   2.960   6.319   2.547
 4582SOL     OW14644   4.976   0.797   3.379
 4582SOL    HW114645   5.058   0.851   3.364
 4582SOL    HW214646   4.998   0.717   3.434
 4583SOL     OW14647   2.708   1.351   6.672
 4583SOL    HW114648   2.808   1.342   6.681
 4583SOL    HW214649   2.688   1.412   6.595
 4584SOL     OW14650   1.496   6.026   5.031
 4584SOL    HW114651   1.411   5.996   4.989
 4584SOL    HW214652   1.571   5.967   5.001
 4585SOL     OW14653   2.057   4.445   3.128
 4585SOL    HW114654   1.959   4.467   3.123
 4585SOL    HW214655   2.104   4.485   3.049
 4586SOL     OW14656   4.587   3.834   0.289
 4586SOL    HW114657   4.588   3.886   0.374
 4586SOL    HW214658   4.527   3.755   0.299
 4587SOL     OW14659   3.511   3.640   4.109
 4587SOL    HW114660   3.417   3.638   4.075
 4587SOL    HW214661   3.555   3.725   4.080
 4588SOL     OW14662   3.203   2.994   5.924
 4588SOL    HW114663   3.270   2.923   5.945
 4588SOL    HW214664   3.180   2.991   5.827
 4589SOL     OW14665   5.396   6.935   1.872
 4589SOL    HW114666   5.358   7.011   1.819
 4589SOL    HW214667   5.441   6.970   1.954
 4590SOL     OW14668   3.818   5.405   1.323
 4590SOL    HW114669   3.885   5.440   1.389
 4590SOL    HW214670   3.812   5.306   1.331
 4591SOL     OW14671   1.915   0.489   5.245
 4591SOL    HW114672   1.906   0.589   5.247
 4591SOL    HW214673   1.891   0.452   5.335
 4592SOL     OW14674   3.794   1.157   3.104
 4592SOL    HW114675   3.806   1.186   3.199
 4592SOL    HW214676   3.759   1.064   3.101
 4593SOL     OW14677   6.141   6.209   1.930
 4593SOL    HW114678   6.133   6.161   2.017
 4593SOL    HW214679   6.109   6.303   1.941
 4594SOL     OW14680   3.934   0.579   3.090
 4594SOL    HW114681   3.881   0.598   3.007
 4594SOL    HW214682   3.979   0.490   3.081
 4595SOL     OW14683   4.487   3.154   5.699
 4595SOL    HW114684   4.497   3.252   5.719
 4595SOL    HW214685   4.424   3.114   5.766
 4596SOL     OW14686   6.349   0.512   2.310
 4596SOL    HW114687   6.443   0.509   2.277
 4596SOL    HW214688   6.347   0.554   2.401
 4597SOL     OW14689   2.956   5.450   6.365
 4597SOL    HW114690   2.983   5.437   6.270
 4597SOL    HW214691   2.856   5.442   6.373
 4598SOL     OW14692   1.363   5.697   1.222
 4598SOL    HW114693   1.368   5.731   1.128
 4598SOL    HW214694   1.284   5.638   1.232
 4599SOL     OW14695   1.452   4.839   1.158
 4599SOL    HW114696   1.472   4.868   1.252
 4599SOL    HW214697   1.371   4.887   1.125
 4600SOL     OW14698   0.121   6.889   5.248
 4600SOL    HW114699   0.110   6.884   5.347
 4600SOL    HW214700   0.214   6.920   5.226
 4601SOL     OW14701   0.766   1.730   5.383
 4601SOL    HW114702   0.800   1.650   5.333
 4601SOL    HW214703   0.694   1.701   5.446
 4602SOL     OW14704   2.828   6.653   0.308
 4602SOL    HW114705   2.828   6.753   0.305
 4602SOL    HW214706   2.804   6.623   0.400
 4603SOL     OW14707   3.048   5.406   0.384
 4603SOL    HW114708   2.996   5.490   0.369
 4603SOL    HW214709   3.136   5.412   0.338
 4604SOL     OW14710   4.921   0.274   6.258
 4604SOL    HW114711   4.913   0.374   6.261
 4604SOL    HW214712   4.888   0.235   6.343
 4605SOL     OW14713   2.747   6.796   1.305
 4605SOL    HW114714   2.653   6.794   1.272
 4605SOL    HW214715   2.790   6.707   1.288
 4606SOL     OW14716   0.366   6.929   2.730
 4606SOL    HW114717   0.400   6.915   2.637
 4606SOL    HW214718   0.410   6.864   2.791
 4607SOL     OW14719   1.690   3.452   3.137
 4607SOL    HW114720   1.726   3.543   3.116
 4607SOL    HW214721   1.590   3.457   3.146
 4608SOL     OW14722   6.938   4.227   3.258
 4608SOL    HW114723   6.961   4.141   3.212
 4608SOL    HW214724   7.009   4.295   3.239
 4609SOL     OW14725   5.015   4.740   0.102
 4609SOL    HW114726   4.997   4.660   0.159
 4609SOL    HW214727   5.095   4.788   0.137
 4610SOL     OW14728   4.331   1.746   6.906
 4610SOL    HW114729   4.249   1.781   6.861
 4610SOL    HW214730   4.343   1.790   6.995
 4611SOL     OW14731   0.449   0.516   6.194
 4611SOL    HW114732   0.380   0.447   6.218
 4611SOL    HW214733   0.433   0.598   6.249
 4612SOL     OW14734   2.689   6.805   1.585
 4612SOL    HW114735   2.699   6.806   1.485
 4612SOL    HW214736   2.693   6.710   1.617
 4613SOL     OW14737   1.515   5.720   2.935
 4613SOL    HW114738   1.500   5.694   2.840
 4613SOL    HW214739   1.523   5.820   2.941
 4614SOL     OW14740   6.174   2.871   3.550
 4614SOL    HW114741   6.205   2.861   3.644
 4614SOL    HW214742   6.239   2.928   3.499
 4615SOL     OW14743   1.370   1.297   1.053
 4615SOL    HW114744   1.432   1.338   0.987
 4615SOL    HW214745   1.422   1.241   1.117
 4616SOL     OW14746   5.890   1.879   4.160
 4616SOL    HW114747   5.959   1.921   4.100
 4616SOL    HW214748   5.934   1.812   4.219
 4617SOL     OW14749   1.663   2.170   2.447
 4617SOL    HW114750   1.727   2.152   2.372
 4617SOL    HW214751   1.573   2.191   2.409
 4618SOL     OW14752   2.200   3.324   5.522
 4618SOL    HW114753   2.268   3.287   5.459
 4618SOL    HW214754   2.110   3.285   5.501
 4619SOL     OW14755   3.099   6.634   3.990
 4619SOL    HW114756   3.073   6.569   4.061
 4619SOL    HW214757   3.061   6.605   3.902
 4620SOL     OW14758   0.735   4.349   1.518
 4620SOL    HW114759   0.727   4.444   1.487
 4620SOL    HW214760   0.649   4.301   1.503
 4621SOL     OW14761   5.213   0.926   2.225
 4621SOL    HW114762   5.290   0.966   2.176
 4621SOL    HW214763   5.127   0.956   2.182
 4622SOL     OW14764   3.605   5.277   0.972
 4622SOL    HW114765   3.652   5.321   0.896
 4622SOL    HW214766   3.604   5.338   1.051
 4623SOL     OW14767   4.020   5.429   1.140
 4623SOL    HW114768   3.997   5.356   1.076
 4623SOL    HW214769   3.943   5.443   1.202
 4624SOL     OW14770   3.683   0.893   3.084
 4624SOL    HW114771   3.622   0.814   3.092
 4624SOL    HW214772   3.714   0.901   2.989
 4625SOL     OW14773   2.120   5.661   2.095
 4625SOL    HW114774   2.216   5.683   2.079
 4625SOL    HW214775   2.111   5.611   2.181
 4626SOL     OW14776   4.144   4.456   1.634
 4626SOL    HW114777   4.240   4.462   1.661
 4626SOL    HW214778   4.137   4.397   1.553
 4627SOL     OW14779   1.054   5.535   5.253
 4627SOL    HW114780   1.090   5.611   5.307
 4627SOL    HW214781   1.128   5.495   5.198
 4628SOL     OW14782   4.411   4.575   4.663
 4628SOL    HW114783   4.357   4.650   4.625
 4628SOL    HW214784   4.383   4.558   4.758
 4629SOL     OW14785   2.122   4.611   5.745
 4629SOL    HW114786   2.089   4.683   5.685
 4629SOL    HW214787   2.071   4.612   5.831
 4630SOL     OW14788   2.219   5.214   2.308
 4630SOL    HW114789   2.312   5.236   2.337
 4630SOL    HW214790   2.222   5.176   2.215
 4631SOL     OW14791   0.791   6.569   4.068
 4631SOL    HW114792   0.770   6.472   4.051
 4631SOL    HW214793   0.846   6.576   4.151
 4632SOL     OW14794   2.541   4.943   3.013
 4632SOL    HW114795   2.633   4.949   3.052
 4632SOL    HW214796   2.540   4.874   2.940
 4633SOL     OW14797   5.614   1.056   4.626
 4633SOL    HW114798   5.693   1.078   4.569
 4633SOL    HW214799   5.595   0.958   4.619
 4634SOL     OW14800   2.488   3.755   5.424
 4634SOL    HW114801   2.582   3.747   5.459
 4634SOL    HW214802   2.490   3.799   5.335
 4635SOL     OW14803   4.422   4.500   1.771
 4635SOL    HW114804   4.399   4.404   1.785
 4635SOL    HW214805   4.494   4.527   1.836
 4636SOL     OW14806   2.380   4.592   0.200
 4636SOL    HW114807   2.431   4.651   0.262
 4636SOL    HW214808   2.387   4.627   0.107
 4637SOL     OW14809   1.083   6.643   1.024
 4637SOL    HW114810   1.159   6.580   1.039
 4637SOL    HW214811   1.033   6.616   0.941
 4638SOL     OW14812   3.947   5.917   6.663
 4638SOL    HW114813   3.974   5.870   6.747
 4638SOL    HW214814   3.965   5.859   6.584
 4639SOL     OW14815   2.646   2.791   6.209
 4639SOL    HW114816   2.694   2.876   6.233
 4639SOL    HW214817   2.644   2.731   6.289
 4640SOL     OW14818   6.396   3.204   4.403
 4640SOL    HW114819   6.305   3.174   4.432
 4640SOL    HW214820   6.390   3.249   4.314
 4641SOL     OW14821   2.045   0.454   4.168
 4641SOL    HW114822   2.131   0.489   4.129
 4641SOL    HW214823   1.986   0.420   4.095
 4642SOL     OW14824   1.691   6.477   2.614
 4642SOL    HW114825   1.767   6.491   2.550
 4642SOL    HW214826   1.726   6.435   2.698
 4643SOL     OW14827   6.878   2.355   0.402
 4643SOL    HW114828   6.926   2.362   0.490
 4643SOL    HW214829   6.866   2.259   0.378
 4644SOL     OW14830   0.405   0.774   5.677
 4644SOL    HW114831   0.305   0.777   5.680
 4644SOL    HW214832   0.442   0.802   5.766
 4645SOL     OW14833   2.004   1.134   4.359
 4645SOL    HW114834   1.929   1.197   4.341
 4645SOL    HW214835   1.998   1.055   4.298
 4646SOL     OW14836   2.534   4.911   3.773
 4646SOL    HW114837   2.611   4.848   3.788
 4646SOL    HW214838   2.448   4.864   3.795
 4647SOL     OW14839   1.553   0.402   3.153
 4647SOL    HW114840   1.460   0.366   3.142
 4647SOL    HW214841   1.602   0.397   3.066
 4648SOL     OW14842   2.607   1.061   4.339
 4648SOL    HW114843   2.631   0.995   4.410
 4648SOL    HW214844   2.535   1.121   4.373
 4649SOL     OW14845   6.102   0.927   0.622
 4649SOL    HW114846   6.134   0.938   0.716
 4649SOL    HW214847   6.176   0.894   0.564
 4650SOL     OW14848   4.880   5.101   1.972
 4650SOL    HW114849   4.904   5.173   2.036
 4650SOL    HW214850   4.842   5.142   1.889
 4651SOL     OW14851   5.961   3.490   6.647
 4651SOL    HW114852   5.898   3.568   6.639
 4651SOL    HW214853   6.033   3.513   6.714
 4652SOL     OW14854   6.165   6.570   4.825
 4652SOL    HW114855   6.253   6.529   4.847
 4652SOL    HW214856   6.100   6.552   4.900
 4653SOL     OW14857   4.996   5.776   0.660
 4653SOL    HW114858   4.909   5.733   0.680
 4653SOL    HW214859   4.981   5.857   0.602
 4654SOL     OW14860   0.574   5.977   5.870
 4654SOL    HW114861   0.638   6.024   5.931
 4654SOL    HW214862   0.487   6.027   5.869
 4655SOL     OW14863   5.202   4.129   1.586
 4655SOL    HW114864   5.209   4.195   1.511
 4655SOL    HW214865   5.109   4.091   1.588
 4656SOL     OW14866   1.118   0.329   1.805
 4656SOL    HW114867   1.029   0.284   1.791
 4656SOL    HW214868   1.191   0.261   1.797
 4657SOL     OW14869   4.711   5.213   1.789
 4657SOL    HW114870   4.690   5.274   1.713
 4657SOL    HW214871   4.628   5.192   1.839
 4658SOL     OW14872   3.196   1.836   4.966
 4658SOL    HW114873   3.257   1.915   4.974
 4658SOL    HW214874   3.117   1.849   5.026
 4659SOL     OW14875   2.523   4.088   0.076
 4659SOL    HW114876   2.445   4.100   0.137
 4659SOL    HW214877   2.516   4.152   7.023
 4660SOL     OW14878   1.381   6.518   4.248
 4660SOL    HW114879   1.473   6.526   4.212
 4660SOL    HW214880   1.373   6.567   4.335
 4661SOL     OW14881   2.346   4.775   5.540
 4661SOL    HW114882   2.387   4.725   5.464
 4661SOL    HW214883   2.246   4.779   5.527
 4662SOL     OW14884   3.158   0.187   5.659
 4662SOL    HW114885   3.110   0.273   5.676
 4662SOL    HW214886   3.257   0.202   5.664
 4663SOL     OW14887   0.545   0.393   0.707
 4663SOL    HW114888   0.617   0.393   0.638
 4663SOL    HW214889   0.475   0.326   0.682
 4664SOL     OW14890   0.760   0.544   0.488
 4664SOL    HW114891   0.788   0.448   0.492
 4664SOL    HW214892   0.662   0.550   0.475
 4665SOL     OW14893   2.748   6.811   5.939
 4665SOL    HW114894   2.653   6.807   5.967
 4665SOL    HW214895   2.754   6.804   5.840
 4666SOL     OW14896   2.292   2.102   6.530
 4666SOL    HW114897   2.213   2.040   6.525
 4666SOL    HW214898   2.262   2.191   6.565
 4667SOL     OW14899   6.294   3.726   1.604
 4667SOL    HW114900   6.239   3.799   1.644
 4667SOL    HW214901   6.306   3.743   1.506
 4668SOL     OW14902   4.841   1.448   4.678
 4668SOL    HW114903   4.756   1.502   4.683
 4668SOL    HW214904   4.918   1.508   4.657
 4669SOL     OW14905   5.229   0.073   6.258
 4669SOL    HW114906   5.312   0.091   6.310
 4669SOL    HW214907   5.194   0.158   6.220
 4670SOL     OW14908   1.156   2.752   6.503
 4670SOL    HW114909   1.228   2.805   6.548
 4670SOL    HW214910   1.071   2.763   6.554
 4671SOL     OW14911   0.929   3.352   6.612
 4671SOL    HW114912   0.968   3.441   6.637
 4671SOL    HW214913   0.979   3.280   6.661
 4672SOL     OW14914   3.967   4.478   6.355
 4672SOL    HW114915   3.985   4.558   6.413
 4672SOL    HW214916   3.870   4.452   6.363
 4673SOL     OW14917   5.096   6.947   0.443
 4673SOL    HW114918   5.042   0.008   0.437
 4673SOL    HW214919   5.064   6.892   0.521
 4674SOL     OW14920   5.631   1.622   0.486
 4674SOL    HW114921   5.611   1.667   0.399
 4674SOL    HW214922   5.717   1.572   0.478
 4675SOL     OW14923   3.888   0.096   6.778
 4675SOL    HW114924   3.792   0.081   6.755
 4675SOL    HW214925   3.895   0.139   6.867
 4676SOL     OW14926   0.322   6.859   4.805
 4676SOL    HW114927   0.417   6.886   4.821
 4676SOL    HW214928   0.302   6.866   4.707
 4677SOL     OW14929   2.816   0.372   6.810
 4677SOL    HW114930   2.798   0.378   6.909
 4677SOL    HW214931   2.729   0.371   6.761
 4678SOL     OW14932   2.094   4.778   2.352
 4678SOL    HW114933   2.040   4.693   2.351
 4678SOL    HW214934   2.190   4.756   2.370
 4679SOL     OW14935   3.613   1.406   6.873
 4679SOL    HW114936   3.691   1.464   6.851
 4679SOL    HW214937   3.534   1.435   6.819
 4680SOL     OW14938   2.348   7.013   2.239
 4680SOL    HW114939   2.268   7.022   2.299
 4680SOL    HW214940   2.373   0.080   2.203
 4681SOL     OW14941   6.141   6.020   5.292
 4681SOL    HW114942   6.057   6.018   5.238
 4681SOL    HW214943   6.130   5.963   5.373
 4682SOL     OW14944   4.627   4.623   0.035
 4682SOL    HW114945   4.545   4.664   0.075
 4682SOL    HW214946   4.628   4.525   0.054
 4683SOL     OW14947   5.323   4.662   2.499
 4683SOL    HW114948   5.362   4.637   2.410
 4683SOL    HW214949   5.397   4.672   2.566
 4684SOL     OW14950   0.018   2.176   4.300
 4684SOL    HW114951   6.980   2.117   4.353
 4684SOL    HW214952   6.987   2.235   4.240
 4685SOL     OW14953   0.362   5.641   4.577
 4685SOL    HW114954   0.281   5.594   4.611
 4685SOL    HW214955   0.378   5.614   4.482
 4686SOL     OW14956   4.924   5.798   0.182
 4686SOL    HW114957   4.890   5.761   0.269
 4686SOL    HW214958   4.882   5.748   0.106
 4687SOL     OW14959   6.294   5.019   5.266
 4687SOL    HW114960   6.214   4.984   5.217
 4687SOL    HW214961   6.351   4.942   5.295
 4688SOL     OW14962   0.032   2.849   6.161
 4688SOL    HW114963   6.990   2.811   6.095
 4688SOL    HW214964   0.120   2.866   6.116
 4689SOL     OW14965   5.400   0.435   6.761
 4689SOL    HW114966   5.347   0.511   6.723
 4689SOL    HW214967   5.401   0.442   6.860
 4690SOL     OW14968   1.100   1.732   6.878
 4690SOL    HW114969   1.028   1.800   6.864
 4690SOL    HW214970   1.177   1.751   6.818
 4691SOL     OW14971   3.114   3.944   2.128
 4691SOL    HW114972   3.084   3.858   2.085
 4691SOL    HW214973   3.080   4.021   2.075
 4692SOL     OW14974   6.681   5.224   2.405
 4692SOL    HW114975   6.614   5.298   2.407
 4692SOL    HW214976   6.749   5.243   2.334
 4693SOL     OW14977   0.790   0.700   4.385
 4693SOL    HW114978   0.840   0.630   4.436
 4693SOL    HW214979   0.856   0.763   4.343
 4694SOL     OW14980   2.703   0.647   0.362
 4694SOL    HW114981   2.673   0.559   0.399
 4694SOL    HW214982   2.677   0.654   0.266
 4695SOL     OW14983   3.150   3.599   1.663
 4695SOL    HW114984   3.201   3.548   1.594
 4695SOL    HW214985   3.059   3.621   1.628
 4696SOL     OW14986   0.847   4.633   5.840
 4696SOL    HW114987   0.872   4.668   5.930
 4696SOL    HW214988   0.923   4.582   5.801
 4697SOL     OW14989   1.565   3.515   0.787
 4697SOL    HW114990   1.617   3.590   0.746
 4697SOL    HW214991   1.480   3.552   0.825
 4698SOL     OW14992   4.959   5.393   3.130
 4698SOL    HW114993   4.887   5.337   3.088
 4698SOL    HW214994   4.932   5.490   3.127
 4699SOL     OW14995   1.200   0.024   1.984
 4699SOL    HW114996   1.176   7.013   1.893
 4699SOL    HW214997   1.278   6.996   2.019
 4700SOL     OW14998   5.785   1.956   2.199
 4700SOL    HW114999   5.685   1.962   2.199
 4700SOL    HW215000   5.813   1.866   2.164
 4701SOL     OW15001   1.465   2.361   0.172
 4701SOL    HW115002   1.502   2.453   0.185
 4701SOL    HW215003   1.400   2.340   0.245
 4702SOL     OW15004   5.281   4.934   6.737
 4702SOL    HW115005   5.328   4.975   6.658
 4702SOL    HW215006   5.207   4.876   6.704
 4703SOL     OW15007   0.753   2.616   2.584
 4703SOL    HW115008   0.732   2.552   2.658
 4703SOL    HW215009   0.689   2.692   2.587
 4704SOL     OW15010   0.003   6.583   0.109
 4704SOL    HW115011   6.970   6.516   0.158
 4704SOL    HW215012   0.046   6.645   0.174
 4705SOL     OW15013   3.906   3.852   2.681
 4705SOL    HW115014   3.930   3.940   2.641
 4705SOL    HW215015   3.987   3.793   2.686
 4706SOL     OW15016   4.375   6.070   6.649
 4706SOL    HW115017   4.422   6.084   6.562
 4706SOL    HW215018   4.295   6.129   6.654
 4707SOL     OW15019   2.051   5.973   0.783
 4707SOL    HW115020   2.134   5.963   0.729
 4707SOL    HW215021   2.075   5.997   0.877
 4708SOL     OW15022   1.825   2.836   0.200
 4708SOL    HW115023   1.797   2.915   0.254
 4708SOL    HW215024   1.774   2.834   0.114
 4709SOL     OW15025   3.916   4.909   5.278
 4709SOL    HW115026   3.846   4.967   5.319
 4709SOL    HW215027   3.938   4.834   5.341
 4710SOL     OW15028   3.976   1.494   5.863
 4710SOL    HW115029   4.042   1.437   5.814
 4710SOL    HW215030   3.896   1.440   5.886
 4711SOL     OW15031   5.075   0.609   2.418
 4711SOL    HW115032   5.036   0.558   2.496
 4711SOL    HW215033   5.133   0.683   2.453
 4712SOL     OW15034   2.696   4.609   0.922
 4712SOL    HW115035   2.685   4.630   1.019
 4712SOL    HW215036   2.647   4.676   0.868
 4713SOL     OW15037   2.841   4.012   1.295
 4713SOL    HW115038   2.844   4.105   1.257
 4713SOL    HW215039   2.747   3.979   1.297
 4714SOL     OW15040   2.187   1.904   0.054
 4714SOL    HW115041   2.164   1.970   7.005
 4714SOL    HW215042   2.286   1.897   0.063
 4715SOL     OW15043   6.635   3.754   1.414
 4715SOL    HW115044   6.680   3.844   1.412
 4715SOL    HW215045   6.642   3.716   1.506
 4716SOL     OW15046   3.723   5.490   6.453
 4716SOL    HW115047   3.680   5.412   6.407
 4716SOL    HW215048   3.780   5.539   6.387
 4717SOL     OW15049   1.180   6.306   3.093
 4717SOL    HW115050   1.227   6.306   3.005
 4717SOL    HW215051   1.083   6.328   3.078
 4718SOL     OW15052   5.260   1.598   6.614
 4718SOL    HW115053   5.338   1.563   6.667
 4718SOL    HW215054   5.249   1.545   6.531
 4719SOL     OW15055   4.895   3.415   2.935
 4719SOL    HW115056   4.896   3.393   3.033
 4719SOL    HW215057   4.839   3.497   2.920
 4720SOL     OW15058   2.436   5.977   5.672
 4720SOL    HW115059   2.505   5.966   5.599
 4720SOL    HW215060   2.471   5.938   5.757
 4721SOL     OW15061   6.521   2.108   1.711
 4721SOL    HW115062   6.582   2.030   1.719
 4721SOL    HW215063   6.534   2.169   1.789
 4722SOL     OW15064   1.502   5.875   0.160
 4722SOL    HW115065   1.405   5.881   0.139
 4722SOL    HW215066   1.549   5.822   0.089
 4723SOL     OW15067   1.681   5.111   5.406
 4723SOL    HW115068   1.649   5.149   5.320
 4723SOL    HW215069   1.610   5.122   5.476
 4724SOL     OW15070   4.785   5.781   2.526
 4724SOL    HW115071   4.746   5.718   2.594
 4724SOL    HW215072   4.884   5.788   2.540
 4725SOL     OW15073   5.360   6.498   2.551
 4725SOL    HW115074   5.443   6.517   2.499
 4725SOL    HW215075   5.379   6.430   2.622
 4726SOL     OW15076   1.823   3.733   6.267
 4726SOL    HW115077   1.877   3.655   6.236
 4726SOL    HW215078   1.882   3.795   6.319
 4727SOL     OW15079   6.932   6.216   6.941
 4727SOL    HW115080   6.905   6.123   6.969
 4727SOL    HW215081   6.925   6.224   6.842
 4728SOL     OW15082   4.704   1.552   1.179
 4728SOL    HW115083   4.785   1.548   1.238
 4728SOL    HW215084   4.732   1.566   1.084
 4729SOL     OW15085   2.734   1.287   2.462
 4729SOL    HW115086   2.811   1.331   2.415
 4729SOL    HW215087   2.763   1.257   2.552
 4730SOL     OW15088   2.133   5.908   5.070
 4730SOL    HW115089   2.172   5.880   5.157
 4730SOL    HW215090   2.192   5.877   4.995
 4731SOL     OW15091   4.583   0.156   6.272
 4731SOL    HW115092   4.557   0.213   6.194
 4731SOL    HW215093   4.661   0.198   6.320
 4732SOL     OW15094   6.925   3.226   6.479
 4732SOL    HW115095   6.958   3.142   6.437
 4732SOL    HW215096   6.825   3.230   6.472
 4733SOL     OW15097   0.733   4.348   2.730
 4733SOL    HW115098   0.775   4.439   2.726
 4733SOL    HW215099   0.659   4.342   2.663
 4734SOL     OW15100   5.006   3.390   6.743
 4734SOL    HW115101   4.992   3.307   6.689
 4734SOL    HW215102   4.924   3.410   6.796
 4735SOL     OW15103   0.544   5.299   4.023
 4735SOL    HW115104   0.607   5.360   4.071
 4735SOL    HW215105   0.594   5.220   3.987
 4736SOL     OW15106   0.526   1.382   6.673
 4736SOL    HW115107   0.556   1.373   6.768
 4736SOL    HW215108   0.428   1.401   6.671
 4737SOL     OW15109   1.527   5.538   2.033
 4737SOL    HW115110   1.624   5.551   2.013
 4737SOL    HW215111   1.493   5.458   1.984
 4738SOL     OW15112   0.113   5.722   2.903
 4738SOL    HW115113   0.123   5.809   2.950
 4738SOL    HW215114   0.122   5.735   2.804
 4739SOL     OW15115   4.157   6.497   2.549
 4739SOL    HW115116   4.247   6.472   2.584
 4739SOL    HW215117   4.138   6.447   2.464
 4740SOL     OW15118   0.229   1.287   1.892
 4740SOL    HW115119   0.179   1.202   1.871
 4740SOL    HW215120   0.253   1.333   1.806
 4741SOL     OW15121   3.325   2.297   1.696
 4741SOL    HW115122   3.325   2.251   1.607
 4741SOL    HW215123   3.414   2.339   1.712
 4742SOL     OW15124   1.937   6.424   6.382
 4742SOL    HW115125   1.982   6.336   6.364
 4742SOL    HW215126   1.896   6.422   6.474
 4743SOL     OW15127   2.124   3.380   2.851
 4743SOL    HW115128   2.192   3.312   2.880
 4743SOL    HW215129   2.032   3.344   2.866
 4744SOL     OW15130   2.107   4.889   1.285
 4744SOL    HW115131   2.029   4.926   1.234
 4744SOL    HW215132   2.162   4.963   1.322
 4745SOL     OW15133   3.180   3.856   0.157
 4745SOL    HW115134   3.138   3.842   0.067
 4745SOL    HW215135   3.114   3.899   0.218
 4746SOL     OW15136   4.494   6.619   3.903
 4746SOL    HW115137   4.567   6.658   3.958
 4746SOL    HW215138   4.523   6.530   3.867
 4747SOL     OW15139   1.271   3.586   0.835
 4747SOL    HW115140   1.293   3.497   0.874
 4747SOL    HW215141   1.180   3.582   0.793
 4748SOL     OW15142   1.327   6.757   1.582
 4748SOL    HW115143   1.420   6.792   1.573
 4748SOL    HW215144   1.308   6.693   1.508
 4749SOL     OW15145   2.006   6.708   6.470
 4749SOL    HW115146   2.010   6.614   6.434
 4749SOL    HW215147   2.081   6.761   6.430
 4750SOL     OW15148   6.449   3.810   5.464
 4750SOL    HW115149   6.352   3.794   5.449
 4750SOL    HW215150   6.473   3.781   5.557
 4751SOL     OW15151   4.648   2.627   3.164
 4751SOL    HW115152   4.631   2.578   3.250
 4751SOL    HW215153   4.643   2.725   3.181
 4752SOL     OW15154   4.775   0.500   0.217
 4752SOL    HW115155   4.776   0.600   0.223
 4752SOL    HW215156   4.779   0.461   0.309
 4753SOL     OW15157   0.737   6.937   4.157
 4753SOL    HW115158   0.723   6.867   4.227
 4753SOL    HW215159   0.792   7.011   4.195
 4754SOL     OW15160   5.020   3.641   5.140
 4754SOL    HW115161   4.940   3.593   5.104
 4754SOL    HW215162   5.073   3.579   5.199
 4755SOL     OW15163   2.372   0.768   0.833
 4755SOL    HW115164   2.290   0.809   0.795
 4755SOL    HW215165   2.382   0.675   0.798
 4756SOL     OW15166   6.671   3.893   6.019
 4756SOL    HW115167   6.752   3.854   6.062
 4756SOL    HW215168   6.635   3.967   6.076
 4757SOL     OW15169   1.655   2.534   1.069
 4757SOL    HW115170   1.669   2.555   1.166
 4757SOL    HW215171   1.635   2.618   1.019
 4758SOL     OW15172   1.352   6.967   3.177
 4758SOL    HW115173   1.373   6.978   3.080
 4758SOL    HW215174   1.399   0.016   3.229
 4759SOL     OW15175   0.334   5.822   6.700
 4759SOL    HW115176   0.379   5.784   6.619
 4759SOL    HW215177   0.391   5.806   6.781
 4760SOL     OW15178   1.317   0.985   0.785
 4760SOL    HW115179   1.352   1.055   0.723
 4760SOL    HW215180   1.217   0.993   0.791
 4761SOL     OW15181   1.538   0.488   0.742
 4761SOL    HW115182   1.589   0.534   0.814
 4761SOL    HW215183   1.563   0.528   0.653
 4762SOL     OW15184   1.564   5.845   2.274
 4762SOL    HW115185   1.534   5.797   2.358
 4762SOL    HW215186   1.507   5.926   2.260
 4763SOL     OW15187   4.536   0.292   2.521
 4763SOL    HW115188   4.473   0.362   2.555
 4763SOL    HW215189   4.503   0.257   2.433
 4764SOL     OW15190   4.576   3.381   5.356
 4764SOL    HW115191   4.566   3.454   5.288
 4764SOL    HW215192   4.499   3.385   5.420
 4765SOL     OW15193   3.729   0.929   6.125
 4765SOL    HW115194   3.636   0.897   6.109
 4765SOL    HW215195   3.765   0.969   6.041
 4766SOL     OW15196   6.246   6.001   4.472
 4766SOL    HW115197   6.290   6.037   4.554
 4766SOL    HW215198   6.240   6.073   4.403
 4767SOL     OW15199   2.685   5.175   5.528
 4767SOL    HW115200   2.772   5.145   5.490
 4767SOL    HW215201   2.611   5.145   5.468
 4768SOL     OW15202   3.854   3.621   6.136
 4768SOL    HW115203   3.893   3.545   6.188
 4768SOL    HW215204   3.754   3.622   6.148
 4769SOL     OW15205   3.537   6.078   0.118
 4769SOL    HW115206   3.574   6.169   0.098
 4769SOL    HW215207   3.473   6.052   0.045
 4770SOL     OW15208   6.542   1.867   4.758
 4770SOL    HW115209   6.599   1.943   4.724
 4770SOL    HW215210   6.579   1.780   4.724
 4771SOL     OW15211   2.315   6.332   5.567
 4771SOL    HW115212   2.333   6.321   5.469
 4771SOL    HW215213   2.245   6.267   5.596
 4772SOL     OW15214   2.760   5.164   0.855
 4772SOL    HW115215   2.724   5.257   0.857
 4772SOL    HW215216   2.855   5.164   0.888
 4773SOL     OW15217   1.094   6.006   4.459
 4773SOL    HW115218   1.103   6.087   4.517
 4773SOL    HW215219   1.023   6.022   4.391
 4774SOL     OW15220   1.292   3.969   1.190
 4774SOL    HW115221   1.253   3.939   1.103
 4774SOL    HW215222   1.270   4.065   1.205
 4775SOL     OW15223   4.807   6.774   4.206
 4775SOL    HW115224   4.872   6.766   4.130
 4775SOL    HW215225   4.724   6.722   4.184
 4776SOL     OW15226   1.063   1.196   4.807
 4776SOL    HW115227   1.090   1.100   4.811
 4776SOL    HW215228   1.075   1.230   4.713
 4777SOL     OW15229   1.630   5.827   1.183
 4777SOL    HW115230   1.565   5.784   1.246
 4777SOL    HW215231   1.622   5.926   1.189
 4778SOL     OW15232   0.372   2.878   4.400
 4778SOL    HW115233   0.426   2.958   4.425
 4778SOL    HW215234   0.373   2.812   4.475
 4779SOL     OW15235   5.608   6.407   4.113
 4779SOL    HW115236   5.594   6.503   4.137
 4779SOL    HW215237   5.626   6.354   4.195
 4780SOL     OW15238   6.048   2.480   6.263
 4780SOL    HW115239   6.095   2.494   6.176
 4780SOL    HW215240   6.111   2.496   6.338
 4781SOL     OW15241   2.928   5.441   2.317
 4781SOL    HW115242   2.949   5.357   2.367
 4781SOL    HW215243   2.836   5.472   2.343
 4782SOL     OW15244   6.461   6.073   6.115
 4782SOL    HW115245   6.409   5.987   6.120
 4782SOL    HW215246   6.405   6.143   6.072
 4783SOL     OW15247   6.114   3.513   0.212
 4783SOL    HW115248   6.131   3.544   0.118
 4783SOL    HW215249   6.166   3.430   0.231
 4784SOL     OW15250   5.782   1.994   5.761
 4784SOL    HW115251   5.852   2.061   5.740
 4784SOL    HW215252   5.824   1.915   5.806
 4785SOL     OW15253   7.019   6.552   2.685
 4785SOL    HW115254   0.095   6.542   2.688
 4785SOL    HW215255   6.984   6.566   2.777
 4786SOL     OW15256   2.997   0.017   0.086
 4786SOL    HW115257   3.053   6.965   0.053
 4786SOL    HW215258   2.968   7.022   0.180
 4787SOL     OW15259   4.143   1.915   3.858
 4787SOL    HW115260   4.059   1.861   3.851
 4787SOL    HW215261   4.124   2.000   3.906
 4788SOL     OW15262   6.136   6.188   0.195
 4788SOL    HW115263   6.195   6.125   0.245
 4788SOL    HW215264   6.084   6.244   0.259
 4789SOL     OW15265   5.295   1.490   1.752
 4789SOL    HW115266   5.207   1.476   1.797
 4789SOL    HW215267   5.321   1.586   1.759
 4790SOL     OW15268   5.190   1.728   5.782
 4790SOL    HW115269   5.288   1.725   5.764
 4790SOL    HW215270   5.159   1.823   5.781
 4791SOL     OW15271   0.487   2.901   1.600
 4791SOL    HW115272   0.462   2.965   1.672
 4791SOL    HW215273   0.502   2.810   1.640
 4792SOL     OW15274   2.193   4.232   4.480
 4792SOL    HW115275   2.182   4.158   4.547
 4792SOL    HW215276   2.261   4.297   4.513
 4793SOL     OW15277   1.547   3.295   5.155
 4793SOL    HW115278   1.585   3.255   5.071
 4793SOL    HW215279   1.514   3.387   5.136
 4794SOL     OW15280   4.529   6.989   3.952
 4794SOL    HW115281   4.605   6.940   3.910
 4794SOL    HW215282   4.562   0.019   4.030
 4795SOL     OW15283   6.858   1.553   4.850
 4795SOL    HW115284   6.905   1.490   4.788
 4795SOL    HW215285   6.776   1.588   4.805
 4796SOL     OW15286   3.611   0.003   6.021
 4796SOL    HW115287   3.658   0.061   6.086
 4796SOL    HW215288   3.513   0.026   6.019
 4797SOL     OW15289   0.832   5.561   4.430
 4797SOL    HW115290   0.834   5.490   4.501
 4797SOL    HW215291   0.753   5.621   4.445
 4798SOL     OW15292   6.157   5.226   6.263
 4798SOL    HW115293   6.103   5.178   6.194
 4798SOL    HW215294   6.179   5.164   6.337
 4799SOL     OW15295   4.115   1.524   0.158
 4799SOL    HW115296   4.050   1.489   0.091
 4799SOL    HW215297   4.093   1.487   0.248
 4800SOL     OW15298   1.552   4.312   6.653
 4800SOL    HW115299   1.488   4.384   6.680
 4800SOL    HW215300   1.642   4.332   6.691
 4801SOL     OW15301   3.652   2.817   0.235
 4801SOL    HW115302   3.731   2.870   0.265
 4801SOL    HW215303   3.624   2.754   0.309
 4802SOL     OW15304   6.638   6.727   1.770
 4802SOL    HW115305   6.596   6.648   1.815
 4802SOL    HW215306   6.674   6.700   1.681
 4803SOL     OW15307   6.252   4.747   1.101
 4803SOL    HW115308   6.293   4.756   1.192
 4803SOL    HW215309   6.165   4.698   1.108
 4804SOL     OW15310   5.532   0.880   1.162
 4804SOL    HW115311   5.487   0.820   1.228
 4804SOL    HW215312   5.511   0.849   1.069
 4805SOL     OW15313   6.645   1.153   2.294
 4805SOL    HW115314   6.581   1.222   2.326
 4805SOL    HW215315   6.594   1.072   2.264
 4806SOL     OW15316   1.046   3.910   2.987
 4806SOL    HW115317   0.990   3.867   2.917
 4806SOL    HW215318   1.140   3.920   2.953
 4807SOL     OW15319   1.914   3.826   6.649
 4807SOL    HW115320   1.895   3.734   6.682
 4807SOL    HW215321   1.958   3.822   6.559
 4808SOL     OW15322   4.348   5.256   0.493
 4808SOL    HW115323   4.389   5.325   0.552
 4808SOL    HW215324   4.419   5.193   0.462
 4809SOL     OW15325   3.747   4.357   1.632
 4809SOL    HW115326   3.793   4.445   1.648
 4809SOL    HW215327   3.650   4.366   1.655
 4810SOL     OW15328   1.360   4.142   3.714
 4810SOL    HW115329   1.356   4.188   3.625
 4810SOL    HW215330   1.446   4.163   3.759
 4811SOL     OW15331   4.075   3.736   4.290
 4811SOL    HW115332   4.054   3.662   4.353
 4811SOL    HW215333   3.990   3.773   4.252
 4812SOL     OW15334   0.665   0.282   2.020
 4812SOL    HW115335   0.652   0.242   2.110
 4812SOL    HW215336   0.683   0.209   1.954
 4813SOL     OW15337   5.835   2.115   6.112
 4813SOL    HW115338   5.802   2.159   6.028
 4813SOL    HW215339   5.931   2.089   6.101
 4814SOL     OW15340   0.157   3.161   2.401
 4814SOL    HW115341   0.105   3.246   2.397
 4814SOL    HW215342   0.243   3.172   2.351
 4815SOL     OW15343   5.539   4.748   2.676
 4815SOL    HW115344   5.593   4.800   2.610
 4815SOL    HW215345   5.600   4.696   2.736
 4816SOL     OW15346   2.476   6.297   1.367
 4816SOL    HW115347   2.555   6.357   1.354
 4816SOL    HW215348   2.449   6.299   1.464
 4817SOL     OW15349   3.538   1.325   1.762
 4817SOL    HW115350   3.596   1.255   1.721
 4817SOL    HW215351   3.472   1.357   1.695
 4818SOL     OW15352   1.326   1.230   4.240
 4818SOL    HW115353   1.311   1.327   4.263
 4818SOL    HW215354   1.334   1.220   4.141
 4819SOL     OW15355   3.188   1.913   1.776
 4819SOL    HW115356   3.145   2.000   1.803
 4819SOL    HW215357   3.272   1.901   1.829
 4820SOL     OW15358   6.339   2.669   0.941
 4820SOL    HW115359   6.285   2.717   0.872
 4820SOL    HW215360   6.279   2.640   1.016
 4821SOL     OW15361   6.115   6.147   1.148
 4821SOL    HW115362   6.119   6.190   1.058
 4821SOL    HW215363   6.173   6.066   1.149
 4822SOL     OW15364   1.679   3.086   3.728
 4822SOL    HW115365   1.656   3.183   3.724
 4822SOL    HW215366   1.720   3.064   3.816
 4823SOL     OW15367   6.817   0.844   3.610
 4823SOL    HW115368   6.892   0.826   3.674
 4823SOL    HW215369   6.828   0.785   3.530
 4824SOL     OW15370   5.751   1.603   3.927
 4824SOL    HW115371   5.704   1.519   3.900
 4824SOL    HW215372   5.684   1.666   3.967
 4825SOL     OW15373   2.035   2.606   4.017
 4825SOL    HW115374   2.019   2.676   4.087
 4825SOL    HW215375   1.979   2.626   3.937
 4826SOL     OW15376   0.763   7.023   0.983
 4826SOL    HW115377   0.853   0.039   0.964
 4826SOL    HW215378   0.709   0.065   1.037
 4827SOL     OW15379   6.053   0.822   1.759
 4827SOL    HW115380   6.004   0.749   1.711
 4827SOL    HW215381   6.013   0.837   1.849
 4828SOL     OW15382   5.611   3.642   1.489
 4828SOL    HW115383   5.545   3.566   1.488
 4828SOL    HW215384   5.652   3.649   1.579
 4829SOL     OW15385   3.686   6.771   6.263
 4829SOL    HW115386   3.623   6.849   6.256
 4829SOL    HW215387   3.634   6.686   6.266
 4830SOL     OW15388   5.152   5.428   3.844
 4830SOL    HW115389   5.176   5.449   3.939
 4830SOL    HW215390   5.207   5.351   3.812
 4831SOL     OW15391   6.566   5.366   5.762
 4831SOL    HW115392   6.631   5.393   5.691
 4831SOL    HW215393   6.475   5.360   5.723
 4832SOL     OW15394   2.830   2.856   6.527
 4832SOL    HW115395   2.908   2.817   6.576
 4832SOL    HW215396   2.757   2.788   6.523
 4833SOL     OW15397   4.841   1.899   3.095
 4833SOL    HW115398   4.754   1.904   3.142
 4833SOL    HW215399   4.836   1.832   3.021
 4834SOL     OW15400   3.218   0.443   0.094
 4834SOL    HW115401   3.171   0.473   0.177
 4834SOL    HW215402   3.160   0.379   0.044
 4835SOL     OW15403   1.674   0.419   6.999
 4835SOL    HW115404   1.718   0.388   0.060
 4835SOL    HW215405   1.582   0.381   6.993
 4836SOL     OW15406   4.657   2.671   3.626
 4836SOL    HW115407   4.700   2.762   3.632
 4836SOL    HW215408   4.634   2.640   3.719
 4837SOL     OW15409   3.595   2.752   1.886
 4837SOL    HW115410   3.682   2.798   1.868
 4837SOL    HW215411   3.555   2.787   1.970
 4838SOL     OW15412   2.534   5.027   2.115
 4838SOL    HW115413   2.604   5.051   2.047
 4838SOL    HW215414   2.536   4.928   2.131
 4839SOL     OW15415   1.567   3.690   5.696
 4839SOL    HW115416   1.501   3.757   5.664
 4839SOL    HW215417   1.657   3.733   5.704
 4840SOL     OW15418   0.049   0.412   5.972
 4840SOL    HW115419   0.089   0.433   5.883
 4840SOL    HW215420   6.978   0.381   5.961
 4841SOL     OW15421   3.302   5.763   1.811
 4841SOL    HW115422   3.281   5.669   1.787
 4841SOL    HW215423   3.400   5.771   1.831
 4842SOL     OW15424   3.316   4.775   1.583
 4842SOL    HW115425   3.250   4.790   1.511
 4842SOL    HW215426   3.289   4.696   1.638
 4843SOL     OW15427   6.386   4.061   0.287
 4843SOL    HW115428   6.461   3.995   0.298
 4843SOL    HW215429   6.387   4.125   0.363
 4844SOL     OW15430   0.004   4.029   6.073
 4844SOL    HW115431   6.997   4.109   6.124
 4844SOL    HW215432   0.074   3.980   6.125
 4845SOL     OW15433   6.631   5.822   4.384
 4845SOL    HW115434   6.651   5.873   4.300
 4845SOL    HW215435   6.714   5.778   4.417
 4846SOL     OW15436   6.595   3.408   2.107
 4846SOL    HW115437   6.616   3.351   2.027
 4846SOL    HW215438   6.651   3.491   2.104
 4847SOL     OW15439   3.223   1.665   5.751
 4847SOL    HW115440   3.201   1.711   5.665
 4847SOL    HW215441   3.189   1.719   5.828
 4848SOL     OW15442   1.761   1.281   4.279
 4848SOL    HW115443   1.778   1.354   4.344
 4848SOL    HW215444   1.714   1.318   4.199
 4849SOL     OW15445   0.875   6.736   6.800
 4849SOL    HW115446   0.967   6.760   6.770
 4849SOL    HW215447   0.819   6.818   6.805
 4850SOL     OW15448   4.346   1.033   2.320
 4850SOL    HW115449   4.398   1.041   2.235
 4850SOL    HW215450   4.401   1.067   2.397
 4851SOL     OW15451   3.461   5.486   5.328
 4851SOL    HW115452   3.491   5.446   5.241
 4851SOL    HW215453   3.391   5.555   5.311
 4852SOL     OW15454   0.875   0.040   6.455
 4852SOL    HW115455   0.843   0.129   6.421
 4852SOL    HW215456   0.972   0.048   6.480
 4853SOL     OW15457   2.726   1.036   2.205
 4853SOL    HW115458   2.640   1.082   2.182
 4853SOL    HW215459   2.715   0.987   2.291
 4854SOL     OW15460   5.353   6.000   2.693
 4854SOL    HW115461   5.380   6.035   2.603
 4854SOL    HW215462   5.254   5.994   2.698
 4855SOL     OW15463   5.838   2.593   2.420
 4855SOL    HW115464   5.931   2.600   2.455
 4855SOL    HW215465   5.799   2.685   2.411
 4856SOL     OW15466   1.396   4.142   2.474
 4856SOL    HW115467   1.307   4.119   2.434
 4856SOL    HW215468   1.456   4.062   2.472
 4857SOL     OW15469   1.846   2.430   5.604
 4857SOL    HW115470   1.927   2.376   5.627
 4857SOL    HW215471   1.764   2.380   5.633
 4858SOL     OW15472   1.822   1.015   4.624
 4858SOL    HW115473   1.899   1.035   4.686
 4858SOL    HW215474   1.833   0.923   4.586
 4859SOL     OW15475   1.041   0.752   4.131
 4859SOL    HW115476   1.027   0.658   4.098
 4859SOL    HW215477   1.131   0.759   4.173
 4860SOL     OW15478   3.273   4.804   1.889
 4860SOL    HW115479   3.305   4.717   1.926
 4860SOL    HW215480   3.174   4.812   1.902
 4861SOL     OW15481   5.125   5.320   0.044
 4861SOL    HW115482   5.169   5.250   0.102
 4861SOL    HW215483   5.062   5.374   0.100
 4862SOL     OW15484   2.868   4.788   4.714
 4862SOL    HW115485   2.769   4.801   4.708
 4862SOL    HW215486   2.888   4.712   4.776
 4863SOL     OW15487   5.809   4.602   0.728
 4863SOL    HW115488   5.792   4.553   0.643
 4863SOL    HW215489   5.858   4.542   0.792
 4864SOL     OW15490   3.806   1.320   4.056
 4864SOL    HW115491   3.787   1.418   4.056
 4864SOL    HW215492   3.818   1.289   4.150
 4865SOL     OW15493   1.670   0.692   5.958
 4865SOL    HW115494   1.724   0.685   6.042
 4865SOL    HW215495   1.718   0.645   5.884
 4866SOL     OW15496   6.702   3.585   1.190
 4866SOL    HW115497   6.677   3.652   1.260
 4866SOL    HW215498   6.620   3.547   1.149
 4867SOL     OW15499   4.218   5.581   2.826
 4867SOL    HW115500   4.170   5.656   2.872
 4867SOL    HW215501   4.283   5.540   2.890
 4868SOL     OW15502   6.417   4.793   2.974
 4868SOL    HW115503   6.353   4.804   2.898
 4868SOL    HW215504   6.365   4.781   3.059
 4869SOL     OW15505   1.903   1.768   1.486
 4869SOL    HW115506   1.935   1.851   1.441
 4869SOL    HW215507   1.818   1.737   1.444
 4870SOL     OW15508   0.907   6.347   1.677
 4870SOL    HW115509   0.935   6.252   1.687
 4870SOL    HW215510   0.844   6.372   1.751
 4871SOL     OW15511   0.252   0.704   3.682
 4871SOL    HW115512   0.168   0.653   3.662
 4871SOL    HW215513   0.321   0.681   3.613
 4872SOL     OW15514   6.389   6.960   3.345
 4872SOL    HW115515   6.381   6.983   3.442
 4872SOL    HW215516   6.485   6.961   3.318
 4873SOL     OW15517   6.408   5.748   4.212
 4873SOL    HW115518   6.391   5.650   4.221
 4873SOL    HW215519   6.478   5.776   4.277
 4874SOL     OW15520   5.354   3.942   2.361
 4874SOL    HW115521   5.263   3.916   2.328
 4874SOL    HW215522   5.351   4.035   2.397
 4875SOL     OW15523   6.408   1.217   0.285
 4875SOL    HW115524   6.375   1.245   0.194
 4875SOL    HW215525   6.377   1.124   0.305
 4876SOL     OW15526   6.960   1.608   3.564
 4876SOL    HW115527   6.939   1.511   3.553
 4876SOL    HW215528   0.009   1.635   3.500
 4877SOL     OW15529   0.510   1.770   5.495
 4877SOL    HW115530   0.467   1.682   5.513
 4877SOL    HW215531   0.477   1.806   5.408
 4878SOL     OW15532   6.382   1.120   2.052
 4878SOL    HW115533   6.454   1.190   2.043
 4878SOL    HW215534   6.336   1.108   1.965
 4879SOL     OW15535   4.367   1.720   1.787
 4879SOL    HW115536   4.279   1.744   1.829
 4879SOL    HW215537   4.397   1.794   1.727
 4880SOL     OW15538   6.021   3.185   0.247
 4880SOL    HW115539   5.995   3.123   0.320
 4880SOL    HW215540   5.939   3.230   0.211
 4881SOL     OW15541   1.780   1.363   0.287
 4881SOL    HW115542   1.845   1.436   0.308
 4881SOL    HW215543   1.697   1.376   0.342
 4882SOL     OW15544   4.391   1.017   5.520
 4882SOL    HW115545   4.395   1.111   5.485
 4882SOL    HW215546   4.440   1.013   5.607
 4883SOL     OW15547   4.795   4.322   1.239
 4883SOL    HW115548   4.847   4.238   1.223
 4883SOL    HW215549   4.774   4.329   1.336
 4884SOL     OW15550   3.065   5.331   1.541
 4884SOL    HW115551   3.162   5.316   1.524
 4884SOL    HW215552   3.012   5.253   1.508
 4885SOL     OW15553   2.104   5.374   1.516
 4885SOL    HW115554   2.128   5.340   1.425
 4885SOL    HW215555   2.092   5.296   1.578
 4886SOL     OW15556   2.892   6.309   1.032
 4886SOL    HW115557   2.827   6.385   1.030
 4886SOL    HW215558   2.922   6.294   1.126
 4887SOL     OW15559   7.020   6.449   1.433
 4887SOL    HW115560   6.958   6.432   1.509
 4887SOL    HW215561   6.974   6.426   1.347
 4888SOL     OW15562   2.736   0.100   3.623
 4888SOL    HW115563   2.647   0.062   3.648
 4888SOL    HW215564   2.808   0.034   3.645
 4889SOL     OW15565   6.753   2.037   5.123
 4889SOL    HW115566   6.687   1.967   5.097
 4889SOL    HW215567   6.829   1.996   5.172
 4890SOL     OW15568   6.991   1.811   5.531
 4890SOL    HW115569   6.902   1.790   5.491
 4890SOL    HW215570   7.001   1.762   5.618
 4891SOL     OW15571   2.046   5.141   6.956
 4891SOL    HW115572   2.145   5.127   6.957
 4891SOL    HW215573   2.018   5.175   6.866
 4892SOL     OW15574   4.398   5.388   2.138
 4892SOL    HW115575   4.309   5.407   2.179
 4892SOL    HW215576   4.428   5.467   2.084
 4893SOL     OW15577   6.138   3.220   2.248
 4893SOL    HW115578   6.048   3.250   2.278
 4893SOL    HW215579   6.187   3.296   2.206
 4894SOL     OW15580   3.885   0.659   2.777
 4894SOL    HW115581   3.805   0.716   2.761
 4894SOL    HW215582   3.869   0.568   2.737
 4895SOL     OW15583   0.712   4.602   4.027
 4895SOL    HW115584   0.804   4.638   4.015
 4895SOL    HW215585   0.681   4.559   3.942
 4896SOL     OW15586   2.550   4.558   2.619
 4896SOL    HW115587   2.527   4.523   2.710
 4896SOL    HW215588   2.493   4.512   2.551
 4897SOL     OW15589   1.929   5.584   5.021
 4897SOL    HW115590   1.871   5.504   5.038
 4897SOL    HW215591   1.897   5.660   5.078
 4898SOL     OW15592   3.820   1.089   4.836
 4898SOL    HW115593   3.865   1.019   4.781
 4898SOL    HW215594   3.741   1.048   4.883
 4899SOL     OW15595   5.652   5.113   2.833
 4899SOL    HW115596   5.649   5.119   2.733
 4899SOL    HW215597   5.703   5.191   2.869
 4900SOL     OW15598   3.562   5.856   4.890
 4900SOL    HW115599   3.626   5.868   4.814
 4900SOL    HW215600   3.488   5.923   4.881
 4901SOL     OW15601   2.419   1.862   5.611
 4901SOL    HW115602   2.361   1.883   5.689
 4901SOL    HW215603   2.410   1.765   5.588
 4902SOL     OW15604   1.049   1.503   4.682
 4902SOL    HW115605   1.030   1.550   4.596
 4902SOL    HW215606   0.968   1.504   4.740
 4903SOL     OW15607   4.538   5.842   0.377
 4903SOL    HW115608   4.496   5.873   0.462
 4903SOL    HW215609   4.473   5.789   0.324
 4904SOL     OW15610   2.157   0.087   5.632
 4904SOL    HW115611   2.092   0.038   5.574
 4904SOL    HW215612   2.153   0.185   5.612
 4905SOL     OW15613   3.595   0.855   3.686
 4905SOL    HW115614   3.542   0.893   3.762
 4905SOL    HW215615   3.578   0.757   3.680
 4906SOL     OW15616   4.820   2.077   6.548
 4906SOL    HW115617   4.891   2.090   6.478
 4906SOL    HW215618   4.742   2.029   6.509
 4907SOL     OW15619   4.936   0.170   1.467
 4907SOL    HW115620   4.872   0.100   1.500
 4907SOL    HW215621   4.992   0.202   1.543
 4908SOL     OW15622   5.706   6.527   6.630
 4908SOL    HW115623   5.656   6.461   6.686
 4908SOL    HW215624   5.646   6.604   6.608
 4909SOL     OW15625   0.032   5.716   3.340
 4909SOL    HW115626   6.995   5.670   3.275
 4909SOL    HW215627   0.115   5.662   3.352
 4910SOL     OW15628   5.649   0.651   4.372
 4910SOL    HW115629   5.701   0.713   4.314
 4910SOL    HW215630   5.557   0.639   4.333
 4911SOL     OW15631   1.730   3.675   3.365
 4911SOL    HW115632   1.820   3.700   3.327
 4911SOL    HW215633   1.682   3.617   3.299
 4912SOL     OW15634   5.633   1.955   6.184
 4912SOL    HW115635   5.720   2.003   6.197
 4912SOL    HW215636   5.615   1.898   6.265
 4913SOL     OW15637   4.055   3.491   5.561
 4913SOL    HW115638   3.997   3.526   5.488
 4913SOL    HW215639   4.117   3.563   5.591
 4914SOL     OW15640   4.675   6.810   5.206
 4914SOL    HW115641   4.581   6.820   5.174
 4914SOL    HW215642   4.725   6.750   5.143
 4915SOL     OW15643   2.231   6.225   5.101
 4915SOL    HW115644   2.192   6.139   5.134
 4915SOL    HW215645   2.186   6.301   5.148
 4916SOL     OW15646   0.719   1.051   3.945
 4916SOL    HW115647   0.740   1.148   3.936
 4916SOL    HW215648   0.748   1.019   4.035
 4917SOL     OW15649   3.171   5.642   1.521
 4917SOL    HW115650   3.107   5.606   1.589
 4917SOL    HW215651   3.161   5.591   1.435
 4918SOL     OW15652   5.683   6.578   1.521
 4918SOL    HW115653   5.739   6.632   1.457
 4918SOL    HW215654   5.629   6.640   1.578
 4919SOL     OW15655   2.869   3.285   1.666
 4919SOL    HW115656   2.928   3.230   1.724
 4919SOL    HW215657   2.787   3.233   1.643
 4920SOL     OW15658   5.584   0.327   4.935
 4920SOL    HW115659   5.547   0.240   4.903
 4920SOL    HW215660   5.619   0.379   4.858
 4921SOL     OW15661   1.146   5.378   0.097
 4921SOL    HW115662   1.129   5.464   0.049
 4921SOL    HW215663   1.169   5.307   0.030
 4922SOL     OW15664   2.817   2.157   4.362
 4922SOL    HW115665   2.902   2.152   4.415
 4922SOL    HW215666   2.802   2.251   4.332
 4923SOL     OW15667   2.826   1.624   2.567
 4923SOL    HW115668   2.827   1.633   2.468
 4923SOL    HW215669   2.731   1.616   2.599
 4924SOL     OW15670   3.316   1.585   4.316
 4924SOL    HW115671   3.268   1.589   4.228
 4924SOL    HW215672   3.399   1.640   4.311
 4925SOL     OW15673   5.311   0.676   2.153
 4925SOL    HW115674   5.368   0.610   2.203
 4925SOL    HW215675   5.299   0.758   2.208
 4926SOL     OW15676   5.709   1.896   1.879
 4926SOL    HW115677   5.792   1.878   1.933
 4926SOL    HW215678   5.730   1.965   1.809
 4927SOL     OW15679   3.073   3.635   5.029
 4927SOL    HW115680   3.128   3.709   4.989
 4927SOL    HW215681   3.134   3.569   5.072
 4928SOL     OW15682   1.612   0.860   0.349
 4928SOL    HW115683   1.709   0.845   0.365
 4928SOL    HW215684   1.558   0.808   0.416
 4929SOL     OW15685   6.340   0.079   4.183
 4929SOL    HW115686   6.386   0.023   4.114
 4929SOL    HW215687   6.330   0.172   4.149
 4930SOL     OW15688   5.593   0.441   2.636
 4930SOL    HW115689   5.685   0.405   2.647
 4930SOL    HW215690   5.593   0.517   2.571
 4931SOL     OW15691   6.209   5.988   1.465
 4931SOL    HW115692   6.112   5.975   1.448
 4931SOL    HW215693   6.252   6.029   1.384
 4932SOL     OW15694   3.766   2.905   3.006
 4932SOL    HW115695   3.668   2.883   3.012
 4932SOL    HW215696   3.779   2.978   2.939
 4933SOL     OW15697   2.536   6.803   2.222
 4933SOL    HW115698   2.516   6.773   2.315
 4933SOL    HW215699   2.495   6.893   2.206
 4934SOL     OW15700   3.552   6.029   2.832
 4934SOL    HW115701   3.608   6.110   2.811
 4934SOL    HW215702   3.520   5.987   2.747
 4935SOL     OW15703   1.633   1.990   6.368
 4935SOL    HW115704   1.684   1.955   6.289
 4935SOL    HW215705   1.581   2.071   6.341
 4936SOL     OW15706   3.307   4.847   1.306
 4936SOL    HW115707   3.236   4.918   1.307
 4936SOL    HW215708   3.371   4.864   1.381
 4937SOL     OW15709   5.795   2.898   5.847
 4937SOL    HW115710   5.821   2.850   5.931
 4937SOL    HW215711   5.868   2.889   5.780
 4938SOL     OW15712   1.984   5.715   5.520
 4938SOL    HW115713   2.020   5.720   5.613
 4938SOL    HW215714   1.943   5.803   5.496
 4939SOL     OW15715   5.508   1.855   5.065
 4939SOL    HW115716   5.513   1.863   4.966
 4939SOL    HW215717   5.435   1.914   5.100
 4940SOL     OW15718   0.930   0.970   4.426
 4940SOL    HW115719   1.001   1.034   4.457
 4940SOL    HW215720   0.866   0.953   4.500
 4941SOL     OW15721   4.245   2.366   6.254
 4941SOL    HW115722   4.328   2.315   6.278
 4941SOL    HW215723   4.165   2.309   6.269
 4942SOL     OW15724   5.268   3.132   5.461
 4942SOL    HW115725   5.285   3.190   5.381
 4942SOL    HW215726   5.178   3.090   5.452
 4943SOL     OW15727   4.065   3.425   0.612
 4943SOL    HW115728   4.064   3.511   0.663
 4943SOL    HW215729   4.124   3.434   0.531
 4944SOL     OW15730   2.089   4.455   2.633
 4944SOL    HW115731   2.117   4.360   2.619
 4944SOL    HW215732   1.990   4.461   2.637
 4945SOL     OW15733   1.204   1.171   3.723
 4945SOL    HW115734   1.216   1.077   3.755
 4945SOL    HW215735   1.272   1.192   3.653
 4946SOL     OW15736   0.349   3.043   1.377
 4946SOL    HW115737   0.372   2.988   1.457
 4946SOL    HW215738   0.265   3.095   1.396
 4947SOL     OW15739   1.590   0.240   0.804
 4947SOL    HW115740   1.595   0.339   0.796
 4947SOL    HW215741   1.505   0.215   0.851
 4948SOL     OW15742   2.667   0.304   2.453
 4948SOL    HW115743   2.674   0.215   2.410
 4948SOL    HW215744   2.627   0.295   2.544
 4949SOL     OW15745   4.704   0.258   5.607
 4949SOL    HW115746   4.641   0.296   5.675
 4949SOL    HW215747   4.667   0.171   5.574
 4950SOL     OW15748   3.140   5.515   3.603
 4950SOL    HW115749   3.198   5.460   3.663
 4950SOL    HW215750   3.071   5.457   3.560
 4951SOL     OW15751   5.585   1.116   4.902
 4951SOL    HW115752   5.624   1.205   4.879
 4951SOL    HW215753   5.567   1.065   4.817
 4952SOL     OW15754   0.373   0.800   5.080
 4952SOL    HW115755   0.370   0.892   5.119
 4952SOL    HW215756   0.374   0.807   4.980
 4953SOL     OW15757   2.744   6.419   2.116
 4953SOL    HW115758   2.730   6.440   2.213
 4953SOL    HW215759   2.795   6.494   2.073
 4954SOL     OW15760   4.868   4.345   6.290
 4954SOL    HW115761   4.902   4.424   6.238
 4954SOL    HW215762   4.891   4.261   6.241
 4955SOL     OW15763   1.618   6.091   6.354
 4955SOL    HW115764   1.714   6.093   6.326
 4955SOL    HW215765   1.570   6.169   6.314
 4956SOL     OW15766   2.818   6.633   5.140
 4956SOL    HW115767   2.760   6.713   5.121
 4956SOL    HW215768   2.791   6.558   5.080
 4957SOL     OW15769   6.892   0.913   3.235
 4957SOL    HW115770   6.988   0.938   3.221
 4957SOL    HW215771   6.836   0.996   3.237
 4958SOL     OW15772   6.961   6.177   6.050
 4958SOL    HW115773   6.934   6.220   5.964
 4958SOL    HW215774   6.982   6.081   6.034
 4959SOL     OW15775   6.384   1.178   6.608
 4959SOL    HW115776   6.475   1.137   6.603
 4959SOL    HW215777   6.368   1.211   6.701
 4960SOL     OW15778   2.963   6.535   3.486
 4960SOL    HW115779   2.895   6.596   3.445
 4960SOL    HW215780   2.960   6.446   3.441
 4961SOL     OW15781   5.268   1.845   5.330
 4961SOL    HW115782   5.342   1.779   5.320
 4961SOL    HW215783   5.200   1.810   5.395
 4962SOL     OW15784   5.957   2.502   1.518
 4962SOL    HW115785   6.030   2.498   1.451
 4962SOL    HW215786   5.972   2.433   1.589
 4963SOL     OW15787   6.029   6.003   0.811
 4963SOL    HW115788   6.002   5.910   0.836
 4963SOL    HW215789   6.008   6.019   0.715
 4964SOL     OW15790   3.838   6.199   3.190
 4964SOL    HW115791   3.857   6.293   3.219
 4964SOL    HW215792   3.823   6.141   3.270
 4965SOL     OW15793   0.317   6.890   3.983
 4965SOL    HW115794   0.275   6.941   4.058
 4965SOL    HW215795   0.394   6.837   4.018
 4966SOL     OW15796   2.378   6.825   5.059
 4966SOL    HW115797   2.300   6.776   5.022
 4966SOL    HW215798   2.357   6.856   5.152
 4967SOL     OW15799   4.288   3.375   6.414
 4967SOL    HW115800   4.231   3.339   6.488
 4967SOL    HW215801   4.247   3.353   6.326
 4968SOL     OW15802   5.233   3.141   3.269
 4968SOL    HW115803   5.212   3.206   3.196
 4968SOL    HW215804   5.295   3.071   3.234
 4969SOL     OW15805   1.830   1.012   2.578
 4969SOL    HW115806   1.913   1.065   2.560
 4969SOL    HW215807   1.854   0.930   2.629
 4970SOL     OW15808   1.459   2.153   4.704
 4970SOL    HW115809   1.495   2.110   4.786
 4970SOL    HW215810   1.484   2.098   4.624
 4971SOL     OW15811   6.445   5.962   3.602
 4971SOL    HW115812   6.523   5.925   3.552
 4971SOL    HW215813   6.462   6.058   3.624
 4972SOL     OW15814   1.940   3.958   0.512
 4972SOL    HW115815   2.031   3.973   0.474
 4972SOL    HW215816   1.948   3.914   0.601
 4973SOL     OW15817   0.061   0.058   1.315
 4973SOL    HW115818   0.112   0.015   1.241
 4973SOL    HW215819   0.122   0.114   1.370
 4974SOL     OW15820   6.840   4.493   0.584
 4974SOL    HW115821   6.768   4.499   0.514
 4974SOL    HW215822   6.862   4.397   0.602
 4975SOL     OW15823   5.976   5.834   0.262
 4975SOL    HW115824   5.910   5.874   0.199
 4975SOL    HW215825   6.064   5.821   0.215
 4976SOL     OW15826   3.193   0.573   4.224
 4976SOL    HW115827   3.281   0.539   4.256
 4976SOL    HW215828   3.122   0.550   4.291
 4977SOL     OW15829   5.073   4.061   0.957
 4977SOL    HW115830   5.122   4.146   0.975
 4977SOL    HW215831   5.072   4.043   0.859
 4978SOL     OW15832   6.555   3.650   5.810
 4978SOL    HW115833   6.649   3.622   5.828
 4978SOL    HW215834   6.536   3.642   5.712
 4979SOL     OW15835   0.016   1.728   4.931
 4979SOL    HW115836   0.111   1.705   4.908
 4979SOL    HW215837   6.979   1.652   4.907
 4980SOL     OW15838   4.618   6.895   3.117
 4980SOL    HW115839   4.644   6.807   3.077
 4980SOL    HW215840   4.700   6.945   3.145
 4981SOL     OW15841   5.148   5.404   5.698
 4981SOL    HW115842   5.239   5.367   5.720
 4981SOL    HW215843   5.154   5.504   5.690
 4982SOL     OW15844   2.548   1.405   6.881
 4982SOL    HW115845   2.539   1.315   6.923
 4982SOL    HW215846   2.613   1.400   6.805
 4983SOL     OW15847   4.869   3.424   4.367
 4983SOL    HW115848   4.773   3.436   4.340
 4983SOL    HW215849   4.916   3.368   4.299
 4984SOL     OW15850   5.649   3.683   4.462
 4984SOL    HW115851   5.565   3.728   4.493
 4984SOL    HW215852   5.692   3.738   4.390
 4985SOL     OW15853   6.794   6.009   3.818
 4985SOL    HW115854   6.733   6.079   3.782
 4985SOL    HW215855   6.741   5.944   3.872
 4986SOL     OW15856   6.868   4.544   2.784
 4986SOL    HW115857   6.802   4.547   2.859
 4986SOL    HW215858   6.960   4.542   2.821
 4987SOL     OW15859   0.520   1.855   1.376
 4987SOL    HW115860   0.519   1.800   1.459
 4987SOL    HW215861   0.460   1.934   1.388
 4988SOL     OW15862   6.843   1.844   3.658
 4988SOL    HW115863   6.789   1.820   3.738
 4988SOL    HW215864   6.885   1.762   3.620
 4989SOL     OW15865   6.017   0.778   1.236
 4989SOL    HW115866   6.051   0.862   1.195
 4989SOL    HW215867   5.927   0.794   1.277
 4990SOL     OW15868   1.244   1.728   6.228
 4990SOL    HW115869   1.221   1.768   6.140
 4990SOL    HW215870   1.290   1.641   6.215
 4991SOL     OW15871   0.502   3.937   3.978
 4991SOL    HW115872   0.512   4.031   3.945
 4991SOL    HW215873   0.408   3.906   3.963
 4992SOL     OW15874   4.641   0.748   4.103
 4992SOL    HW115875   4.716   0.783   4.047
 4992SOL    HW215876   4.610   0.820   4.165
 4993SOL     OW15877   2.700   4.658   3.683
 4993SOL    HW115878   2.675   4.634   3.590
 4993SOL    HW215879   2.793   4.695   3.685
 4994SOL     OW15880   1.397   0.388   2.452
 4994SOL    HW115881   1.419   0.292   2.471
 4994SOL    HW215882   1.429   0.412   2.361
 4995SOL     OW15883   6.746   3.119   5.708
 4995SOL    HW115884   6.793   3.090   5.625
 4995SOL    HW215885   6.760   3.217   5.722
 4996SOL     OW15886   1.351   0.646   2.505
 4996SOL    HW115887   1.362   0.552   2.471
 4996SOL    HW215888   1.437   0.695   2.495
 4997SOL     OW15889   5.938   2.511   3.014
 4997SOL    HW115890   5.933   2.560   3.101
 4997SOL    HW215891   5.932   2.576   2.938
 4998SOL     OW15892   2.074   3.851   4.885
 4998SOL    HW115893   2.151   3.866   4.947
 4998SOL    HW215894   2.001   3.916   4.906
 4999SOL     OW15895   5.050   5.734   1.032
 4999SOL    HW115896   5.112   5.792   1.085
 4999SOL    HW215897   5.015   5.784   0.954
 5000SOL     OW15898   1.617   0.739   4.006
 5000SOL    HW115899   1.673   0.737   3.923
 5000SOL    HW215900   1.596   0.834   4.030
 5001SOL     OW15901   1.816   3.981   6.090
 5001SOL    HW115902   1.810   3.903   6.151
 5001SOL    HW215903   1.887   4.044   6.123
 5002SOL     OW15904   1.226   3.039   3.163
 5002SOL    HW115905   1.192   3.107   3.099
 5002SOL    HW215906   1.296   2.983   3.119
 5003SOL     OW15907   0.913   6.461   3.614
 5003SOL    HW115908   0.952   6.510   3.692
 5003SOL    HW215909   0.975   6.387   3.587
 5004SOL     OW15910   2.185   5.532   5.345
 5004SOL    HW115911   2.185   5.629   5.372
 5004SOL    HW215912   2.176   5.475   5.427
 5005SOL     OW15913   3.766   2.223   0.703
 5005SOL    HW115914   3.688   2.192   0.758
 5005SOL    HW215915   3.745   2.312   0.664
 5006SOL     OW15916   5.612   6.933   6.080
 5006SOL    HW115917   5.515   6.934   6.058
 5006SOL    HW215918   5.635   7.015   6.133
 5007SOL     OW15919   2.625   0.670   6.105
 5007SOL    HW115920   2.643   0.654   6.202
 5007SOL    HW215921   2.701   0.634   6.051
 5008SOL     OW15922   6.553   0.141   3.925
 5008SOL    HW115923   6.582   0.202   4.000
 5008SOL    HW215924   6.629   0.129   3.861
 5009SOL     OW15925   2.149   6.334   1.734
 5009SOL    HW115926   2.177   6.402   1.666
 5009SOL    HW215927   2.161   6.242   1.695
 5010SOL     OW15928   3.607   3.284   4.110
 5010SOL    HW115929   3.627   3.365   4.055
 5010SOL    HW215930   3.688   3.226   4.117
 5011SOL     OW15931   2.100   3.463   2.238
 5011SOL    HW115932   2.009   3.504   2.235
 5011SOL    HW215933   2.152   3.492   2.158
 5012SOL     OW15934   5.611   2.651   6.670
 5012SOL    HW115935   5.708   2.632   6.681
 5012SOL    HW215936   5.558   2.588   6.726
 5013SOL     OW15937   5.532   1.037   0.003
 5013SOL    HW115938   5.440   1.075   0.007
 5013SOL    HW215939   5.561   1.009   0.095
 5014SOL     OW15940   5.938   5.379   0.656
 5014SOL    HW115941   5.914   5.469   0.621
 5014SOL    HW215942   5.904   5.369   0.749
 5015SOL     OW15943   3.876   1.792   3.879
 5015SOL    HW115944   3.893   1.822   3.972
 5015SOL    HW215945   3.850   1.871   3.823
 5016SOL     OW15946   2.087   1.402   2.068
 5016SOL    HW115947   2.073   1.309   2.102
 5016SOL    HW215948   2.145   1.452   2.131
 5017SOL     OW15949   2.296   2.650   0.703
 5017SOL    HW115950   2.309   2.581   0.774
 5017SOL    HW215951   2.231   2.719   0.736
 5018SOL     OW15952   0.695   4.637   1.490
 5018SOL    HW115953   0.660   4.726   1.522
 5018SOL    HW215954   0.790   4.647   1.462
 5019SOL     OW15955   2.654   4.352   0.529
 5019SOL    HW115956   2.566   4.396   0.548
 5019SOL    HW215957   2.690   4.386   0.442
 5020SOL     OW15958   5.544   6.619   5.159
 5020SOL    HW115959   5.534   6.568   5.074
 5020SOL    HW215960   5.453   6.646   5.193
 5021SOL     OW15961   1.145   3.447   5.824
 5021SOL    HW115962   1.209   3.372   5.804
 5021SOL    HW215963   1.190   3.513   5.883
 5022SOL     OW15964   1.836   0.360   1.093
 5022SOL    HW115965   1.863   0.354   1.189
 5022SOL    HW215966   1.916   0.347   1.035
 5023SOL     OW15967   6.634   3.689   0.806
 5023SOL    HW115968   6.540   3.693   0.838
 5023SOL    HW215969   6.687   3.762   0.849
 5024SOL     OW15970   0.161   4.039   2.814
 5024SOL    HW115971   0.097   4.113   2.794
 5024SOL    HW215972   0.252   4.062   2.781
 5025SOL     OW15973   4.646   2.161   1.988
 5025SOL    HW115974   4.689   2.251   1.976
 5025SOL    HW215975   4.600   2.158   2.077
 5026SOL     OW15976   5.876   6.014   6.530
 5026SOL    HW115977   5.947   6.065   6.482
 5026SOL    HW215978   5.786   6.043   6.496
 5027SOL     OW15979   0.974   6.937   2.804
 5027SOL    HW115980   1.034   6.903   2.876
 5027SOL    HW215981   0.894   6.878   2.796
 5028SOL     OW15982   0.413   6.427   1.794
 5028SOL    HW115983   0.362   6.346   1.821
 5028SOL    HW215984   0.427   6.427   1.695
 5029SOL     OW15985   6.896   3.261   3.100
 5029SOL    HW115986   6.986   3.218   3.092
 5029SOL    HW215987   6.825   3.191   3.088
 5030SOL     OW15988   6.697   0.607   6.791
 5030SOL    HW115989   6.667   0.513   6.807
 5030SOL    HW215990   6.618   0.668   6.798
 5031SOL     OW15991   6.050   1.231   4.547
 5031SOL    HW115992   6.064   1.138   4.581
 5031SOL    HW215993   5.952   1.252   4.545
 5032SOL     OW15994   1.476   4.230   0.958
 5032SOL    HW115995   1.494   4.319   0.916
 5032SOL    HW215996   1.438   4.168   0.889
 5033SOL     OW15997   1.889   5.113   6.416
 5033SOL    HW115998   1.958   5.041   6.405
 5033SOL    HW215999   1.856   5.141   6.326
 5034SOL     OW16000   0.302   3.581   2.044
 5034SOL    HW116001   0.220   3.572   1.988
 5034SOL    HW216002   0.370   3.515   2.014
 5035SOL     OW16003   5.888   4.672   1.446
 5035SOL    HW116004   5.887   4.669   1.546
 5035SOL    HW216005   5.873   4.766   1.415
 5036SOL     OW16006   0.738   5.570   6.562
 5036SOL    HW116007   0.794   5.498   6.602
 5036SOL    HW216008   0.767   5.587   6.468
 5037SOL     OW16009   4.584   2.513   2.915
 5037SOL    HW116010   4.615   2.554   3.000
 5037SOL    HW216011   4.498   2.463   2.932
 5038SOL     OW16012   1.658   5.648   5.321
 5038SOL    HW116013   1.704   5.618   5.405
 5038SOL    HW216014   1.657   5.574   5.255
 5039SOL     OW16015   1.839   3.648   5.131
 5039SOL    HW116016   1.926   3.616   5.093
 5039SOL    HW216017   1.856   3.711   5.206
 5040SOL     OW16018   2.561   3.236   6.451
 5040SOL    HW116019   2.544   3.237   6.550
 5040SOL    HW216020   2.542   3.327   6.414
 5041SOL     OW16021   0.945   3.352   1.226
 5041SOL    HW116022   0.913   3.258   1.241
 5041SOL    HW216023   0.923   3.380   1.133
 5042SOL     OW16024   0.304   3.151   0.027
 5042SOL    HW116025   0.315   3.052   0.040
 5042SOL    HW216026   0.209   3.171   0.005
 5043SOL     OW16027   3.252   0.795   5.396
 5043SOL    HW116028   3.298   0.866   5.343
 5043SOL    HW216029   3.300   0.708   5.383
 5044SOL     OW16030   6.419   6.150   3.348
 5044SOL    HW116031   6.412   6.059   3.305
 5044SOL    HW216032   6.492   6.148   3.416
 5045SOL     OW16033   5.206   3.595   0.385
 5045SOL    HW116034   5.271   3.666   0.414
 5045SOL    HW216035   5.254   3.521   0.339
 5046SOL     OW16036   3.858   2.983   4.991
 5046SOL    HW116037   3.928   3.055   4.985
 5046SOL    HW216038   3.857   2.946   5.084
 5047SOL     OW16039   6.247   1.786   2.598
 5047SOL    HW116040   6.176   1.807   2.531
 5047SOL    HW216041   6.221   1.825   2.687
 5048SOL     OW16042   6.417   2.402   1.785
 5048SOL    HW116043   6.411   2.360   1.875
 5048SOL    HW216044   6.331   2.450   1.765
 5049SOL     OW16045   6.240   1.286   3.235
 5049SOL    HW116046   6.321   1.342   3.253
 5049SOL    HW216047   6.218   1.290   3.137
 5050SOL     OW16048   0.319   1.762   1.887
 5050SOL    HW116049   0.248   1.713   1.938
 5050SOL    HW216050   0.403   1.708   1.886
 5051SOL     OW16051   3.836   3.021   0.269
 5051SOL    HW116052   3.777   3.074   0.330
 5051SOL    HW216053   3.931   3.030   0.298
 5052SOL     OW16054   2.913   4.883   6.671
 5052SOL    HW116055   2.981   4.873   6.599
 5052SOL    HW216056   2.937   4.961   6.729
 5053SOL     OW16057   2.004   3.649   2.842
 5053SOL    HW116058   2.043   3.557   2.849
 5053SOL    HW216059   2.014   3.683   2.748
 5054SOL     OW16060   3.741   5.600   5.264
 5054SOL    HW116061   3.801   5.648   5.328
 5054SOL    HW216062   3.657   5.573   5.312
 5055SOL     OW16063   0.030   1.275   4.974
 5055SOL    HW116064   7.015   1.307   5.060
 5055SOL    HW216065   6.988   1.293   4.900
 5056SOL     OW16066   6.828   4.197   6.484
 5056SOL    HW116067   6.857   4.194   6.389
 5056SOL    HW216068   6.737   4.236   6.490
 5057SOL     OW16069   1.395   5.441   3.476
 5057SOL    HW116070   1.437   5.403   3.558
 5057SOL    HW216071   1.450   5.417   3.396
 5058SOL     OW16072   4.082   3.658   6.728
 5058SOL    HW116073   4.095   3.662   6.629
 5058SOL    HW216074   4.007   3.595   6.749
 5059SOL     OW16075   4.878   3.330   4.635
 5059SOL    HW116076   4.875   3.236   4.603
 5059SOL    HW216077   4.870   3.392   4.556
 5060SOL     OW16078   6.995   3.010   4.772
 5060SOL    HW116079   6.994   2.910   4.764
 5060SOL    HW216080   0.061   3.045   4.742
 5061SOL     OW16081   2.961   3.466   4.121
 5061SOL    HW116082   2.998   3.373   4.118
 5061SOL    HW216083   2.940   3.496   4.028
 5062SOL     OW16084   5.555   1.695   2.374
 5062SOL    HW116085   5.471   1.746   2.354
 5062SOL    HW216086   5.568   1.690   2.473
 5063SOL     OW16087   1.360   6.469   1.791
 5063SOL    HW116088   1.306   6.548   1.762
 5063SOL    HW216089   1.364   6.466   1.890
 5064SOL     OW16090   4.746   5.634   0.715
 5064SOL    HW116091   4.806   5.554   0.708
 5064SOL    HW216092   4.724   5.650   0.811
 5065SOL     OW16093   1.688   0.476   2.943
 5065SOL    HW116094   1.618   0.496   2.874
 5065SOL    HW216095   1.761   0.544   2.937
 5066SOL     OW16096   2.599   3.933   1.708
 5066SOL    HW116097   2.577   4.026   1.736
 5066SOL    HW216098   2.525   3.871   1.735
 5067SOL     OW16099   4.290   2.049   2.064
 5067SOL    HW116100   4.372   1.995   2.079
 5067SOL    HW216101   4.215   2.011   2.119
 5068SOL     OW16102   3.004   5.615   0.005
 5068SOL    HW116103   2.910   5.607   0.039
 5068SOL    HW216104   3.032   5.711   0.005
 5069SOL     OW16105   2.213   2.848   5.430
 5069SOL    HW116106   2.268   2.771   5.465
 5069SOL    HW216107   2.258   2.934   5.453
 5070SOL     OW16108   5.907   4.053   4.207
 5070SOL    HW116109   5.969   4.037   4.284
 5070SOL    HW216110   5.882   4.150   4.205
 5071SOL     OW16111   3.628   2.086   3.110
 5071SOL    HW116112   3.692   2.024   3.064
 5071SOL    HW216113   3.671   2.122   3.193
 5072SOL     OW16114   2.062   1.263   1.509
 5072SOL    HW116115   2.053   1.212   1.595
 5072SOL    HW216116   2.055   1.361   1.528
 5073SOL     OW16117   1.661   5.839   1.830
 5073SOL    HW116118   1.565   5.815   1.849
 5073SOL    HW216119   1.664   5.919   1.771
 5074SOL     OW16120   3.794   1.795   1.885
 5074SOL    HW116121   3.743   1.855   1.824
 5074SOL    HW216122   3.760   1.702   1.877
 5075SOL     OW16123   1.268   2.286   7.013
 5075SOL    HW116124   1.348   2.293   0.049
 5075SOL    HW216125   1.287   2.223   6.938
 5076SOL     OW16126   5.416   0.280   0.173
 5076SOL    HW116127   5.393   0.187   0.200
 5076SOL    HW216128   5.497   0.280   0.114
 5077SOL     OW16129   1.121   3.828   6.218
 5077SOL    HW116130   1.023   3.847   6.206
 5077SOL    HW216131   1.136   3.784   6.306
 5078SOL     OW16132   0.284   0.806   4.138
 5078SOL    HW116133   0.346   0.752   4.081
 5078SOL    HW216134   0.325   0.819   4.228
 5079SOL     OW16135   2.553   2.422   5.630
 5079SOL    HW116136   2.534   2.332   5.592
 5079SOL    HW216137   2.548   2.417   5.730
 5080SOL     OW16138   5.624   5.571   5.207
 5080SOL    HW116139   5.553   5.610   5.265
 5080SOL    HW216140   5.638   5.629   5.127
 5081SOL     OW16141   2.353   4.972   5.156
 5081SOL    HW116142   2.262   4.984   5.116
 5081SOL    HW216143   2.423   4.985   5.085
 5082SOL     OW16144   4.693   6.881   7.008
 5082SOL    HW116145   4.666   6.787   0.008
 5082SOL    HW216146   4.793   6.885   6.998
 5083SOL     OW16147   3.690   0.330   0.888
 5083SOL    HW116148   3.727   0.270   0.817
 5083SOL    HW216149   3.691   0.425   0.856
 5084SOL     OW16150   0.590   4.889   4.686
 5084SOL    HW116151   0.622   4.852   4.600
 5084SOL    HW216152   0.512   4.836   4.719
 5085SOL     OW16153   1.052   3.006   5.798
 5085SOL    HW116154   0.966   3.057   5.800
 5085SOL    HW216155   1.128   3.070   5.794
 5086SOL     OW16156   0.085   4.334   2.274
 5086SOL    HW116157   0.036   4.313   2.190
 5086SOL    HW216158   0.030   4.395   2.331
 5087SOL     OW16159   6.928   5.618   2.349
 5087SOL    HW116160   6.845   5.590   2.301
 5087SOL    HW216161   6.940   5.561   2.431
 5088SOL     OW16162   4.535   6.648   3.275
 5088SOL    HW116163   4.580   6.722   3.225
 5088SOL    HW216164   4.482   6.686   3.351
 5089SOL     OW16165   5.520   4.168   4.151
 5089SOL    HW116166   5.596   4.214   4.105
 5089SOL    HW216167   5.549   4.076   4.179
 5090SOL     OW16168   2.471   0.964   2.866
 5090SOL    HW116169   2.512   0.878   2.894
 5090SOL    HW216170   2.378   0.971   2.902
 5091SOL     OW16171   6.441   0.604   0.887
 5091SOL    HW116172   6.437   0.504   0.887
 5091SOL    HW216173   6.442   0.637   0.981
 5092SOL     OW16174   3.523   2.936   3.840
 5092SOL    HW116175   3.543   3.033   3.851
 5092SOL    HW216176   3.538   2.908   3.745
 5093SOL     OW16177   2.781   1.672   1.709
 5093SOL    HW116178   2.781   1.597   1.642
 5093SOL    HW216179   2.876   1.695   1.733
 5094SOL     OW16180   2.107   5.899   6.370
 5094SOL    HW116181   2.137   5.980   6.419
 5094SOL    HW216182   2.058   5.838   6.433
 5095SOL     OW16183   0.570   1.529   2.955
 5095SOL    HW116184   0.618   1.575   2.881
 5095SOL    HW216185   0.633   1.469   3.004
 5096SOL     OW16186   5.330   4.820   6.156
 5096SOL    HW116187   5.324   4.792   6.252
 5096SOL    HW216188   5.238   4.840   6.122
 5097SOL     OW16189   6.798   0.586   0.194
 5097SOL    HW116190   6.864   0.557   0.125
 5097SOL    HW216191   6.845   0.601   0.281
 5098SOL     OW16192   3.420   2.308   1.114
 5098SOL    HW116193   3.371   2.386   1.074
 5098SOL    HW216194   3.360   2.228   1.117
 5099SOL     OW16195   0.201   6.265   1.530
 5099SOL    HW116196   0.127   6.331   1.514
 5099SOL    HW216197   0.289   6.313   1.524
 5100SOL     OW16198   3.122   5.444   3.218
 5100SOL    HW116199   3.035   5.397   3.237
 5100SOL    HW216200   3.107   5.543   3.221
 5101SOL     OW16201   4.364   0.197   4.713
 5101SOL    HW116202   4.405   0.151   4.791
 5101SOL    HW216203   4.434   0.216   4.644
 5102SOL     OW16204   4.936   6.062   4.541
 5102SOL    HW116205   4.906   5.970   4.517
 5102SOL    HW216206   5.036   6.063   4.551
 5103SOL     OW16207   0.625   1.221   4.592
 5103SOL    HW116208   0.659   1.305   4.549
 5103SOL    HW216209   0.543   1.242   4.645
 5104SOL     OW16210   3.182   5.978   1.656
 5104SOL    HW116211   3.156   6.046   1.724
 5104SOL    HW216212   3.230   5.902   1.701
 5105SOL     OW16213   3.144   2.771   6.177
 5105SOL    HW116214   3.189   2.822   6.250
 5105SOL    HW216215   3.175   2.805   6.088
 5106SOL     OW16216   3.998   1.643   1.008
 5106SOL    HW116217   3.921   1.629   1.070
 5106SOL    HW216218   4.079   1.668   1.061
 5107SOL     OW16219   5.186   2.070   0.946
 5107SOL    HW116220   5.226   2.014   1.018
 5107SOL    HW216221   5.123   2.014   0.892
 5108SOL     OW16222   4.032   3.842   5.185
 5108SOL    HW116223   4.030   3.942   5.189
 5108SOL    HW216224   4.127   3.810   5.184
 5109SOL     OW16225   1.453   2.746   0.185
 5109SOL    HW116226   1.522   2.674   0.185
 5109SOL    HW216227   1.362   2.706   0.193
 5110SOL     OW16228   0.128   0.524   6.428
 5110SOL    HW116229   0.058   0.511   6.358
 5110SOL    HW216230   0.147   0.621   6.440
 5111SOL     OW16231   1.013   0.034   4.268
 5111SOL    HW116232   1.104   0.073   4.255
 5111SOL    HW216233   1.018   6.957   4.263
 5112SOL     OW16234   0.443   0.776   3.161
 5112SOL    HW116235   0.454   0.859   3.106
 5112SOL    HW216236   0.510   0.708   3.130
 5113SOL     OW16237   1.231   6.070   1.401
 5113SOL    HW116238   1.232   5.970   1.392
 5113SOL    HW216239   1.316   6.100   1.444
 5114SOL     OW16240   4.130   6.634   6.909
 5114SOL    HW116241   4.101   6.630   7.005
 5114SOL    HW216242   4.049   6.626   6.850
 5115SOL     OW16243   1.474   4.360   2.178
 5115SOL    HW116244   1.569   4.367   2.146
 5115SOL    HW216245   1.414   4.411   2.116
 5116SOL     OW16246   2.118   6.491   0.242
 5116SOL    HW116247   2.191   6.472   0.176
 5116SOL    HW216248   2.030   6.490   0.194
 5117SOL     OW16249   0.924   4.157   3.889
 5117SOL    HW116250   0.846   4.164   3.950
 5117SOL    HW216251   0.973   4.071   3.907
 5118SOL     OW16252   5.709   0.684   0.333
 5118SOL    HW116253   5.680   0.655   0.242
 5118SOL    HW216254   5.637   0.740   0.375
 5119SOL     OW16255   4.517   1.414   1.321
 5119SOL    HW116256   4.563   1.350   1.382
 5119SOL    HW216257   4.586   1.468   1.272
 5120SOL     OW16258   4.897   6.650   5.440
 5120SOL    HW116259   4.839   6.599   5.377
 5120SOL    HW216260   4.839   6.704   5.502
 5121SOL     OW16261   3.389   3.599   6.952
 5121SOL    HW116262   3.355   3.550   0.010
 5121SOL    HW216263   3.405   3.695   6.976
 5122SOL     OW16264   3.544   5.793   2.966
 5122SOL    HW116265   3.604   5.813   3.043
 5122SOL    HW216266   3.532   5.876   2.911
 5123SOL     OW16267   5.621   1.793   4.055
 5123SOL    HW116268   5.704   1.846   4.074
 5123SOL    HW216269   5.558   1.849   4.001
 5124SOL     OW16270   2.242   6.665   4.111
 5124SOL    HW116271   2.186   6.594   4.155
 5124SOL    HW216272   2.337   6.635   4.109
 5125SOL     OW16273   0.159   2.029   3.089
 5125SOL    HW116274   0.111   2.065   3.169
 5125SOL    HW216275   0.201   2.105   3.038
 5126SOL     OW16276   0.897   6.502   6.942
 5126SOL    HW116277   0.993   6.480   6.958
 5126SOL    HW216278   0.890   6.585   6.887
 5127SOL     OW16279   0.239   5.501   6.974
 5127SOL    HW116280   0.166   5.541   6.918
 5127SOL    HW216281   0.328   5.535   6.943
 5128SOL     OW16282   6.666   6.694   0.668
 5128SOL    HW116283   6.580   6.743   0.678
 5128SOL    HW216284   6.742   6.756   0.686
 5129SOL     OW16285   4.962   6.450   2.619
 5129SOL    HW116286   4.917   6.362   2.627
 5129SOL    HW216287   5.035   6.457   2.687
 5130SOL     OW16288   6.921   5.432   2.671
 5130SOL    HW116289   6.916   5.342   2.715
 5130SOL    HW216290   7.005   5.439   2.618
 5131SOL     OW16291   2.175   3.350   4.044
 5131SOL    HW116292   2.210   3.323   3.954
 5131SOL    HW216293   2.219   3.294   4.115
 5132SOL     OW16294   4.012   2.898   5.728
 5132SOL    HW116295   3.956   2.829   5.682
 5132SOL    HW216296   4.075   2.853   5.791
 5133SOL     OW16297   2.588   4.871   6.898
 5133SOL    HW116298   2.676   4.841   6.935
 5133SOL    HW216299   2.525   4.891   6.973
 5134SOL     OW16300   6.778   2.564   2.083
 5134SOL    HW116301   6.695   2.599   2.125
 5134SOL    HW216302   6.840   2.530   2.155
 5135SOL     OW16303   6.224   1.953   5.131
 5135SOL    HW116304   6.140   2.007   5.133
 5135SOL    HW216305   6.296   2.000   5.182
 5136SOL     OW16306   4.732   0.163   5.933
 5136SOL    HW116307   4.782   0.250   5.938
 5136SOL    HW216308   4.635   0.181   5.917
 5137SOL     OW16309   5.663   3.107   6.465
 5137SOL    HW116310   5.742   3.162   6.490
 5137SOL    HW216311   5.691   3.034   6.402
 5138SOL     OW16312   3.071   2.972   5.660
 5138SOL    HW116313   2.989   2.983   5.716
 5138SOL    HW216314   3.053   2.908   5.585
 5139SOL     OW16315   1.471   6.899   3.650
 5139SOL    HW116316   1.518   6.825   3.601
 5139SOL    HW216317   1.531   6.978   3.656
 5140SOL     OW16318   3.327   1.478   0.138
 5140SOL    HW116319   3.276   1.563   0.126
 5140SOL    HW216320   3.338   1.432   0.050
 5141SOL     OW16321   0.164   3.635   0.661
 5141SOL    HW116322   0.251   3.589   0.641
 5141SOL    HW216323   0.161   3.722   0.611
 5142SOL     OW16324   6.105   1.203   3.916
 5142SOL    HW116325   6.021   1.213   3.862
 5142SOL    HW216326   6.127   1.106   3.925
 5143SOL     OW16327   0.599   4.453   3.792
 5143SOL    HW116328   0.580   4.429   3.697
 5143SOL    HW216329   0.514   4.483   3.836
 5144SOL     OW16330   0.962   5.781   6.584
 5144SOL    HW116331   0.951   5.755   6.488
 5144SOL    HW216332   0.940   5.702   6.642
 5145SOL     OW16333   1.686   4.730   5.921
 5145SOL    HW116334   1.706   4.790   5.998
 5145SOL    HW216335   1.716   4.637   5.942
 5146SOL     OW16336   4.195   3.705   5.643
 5146SOL    HW116337   4.294   3.701   5.652
 5146SOL    HW216338   4.154   3.725   5.732
 5147SOL     OW16339   6.991   4.501   2.502
 5147SOL    HW116340   0.044   4.564   2.518
 5147SOL    HW216341   6.912   4.530   2.557
 5148SOL     OW16342   1.194   6.467   1.179
 5148SOL    HW116343   1.243   6.388   1.141
 5148SOL    HW216344   1.139   6.437   1.257
 5149SOL     OW16345   6.043   5.827   4.578
 5149SOL    HW116346   5.997   5.915   4.563
 5149SOL    HW216347   6.129   5.826   4.527
 5150SOL     OW16348   2.141   5.109   2.827
 5150SOL    HW116349   2.124   5.186   2.889
 5150SOL    HW216350   2.235   5.114   2.793
 5151SOL     OW16351   5.360   1.653   0.556
 5151SOL    HW116352   5.300   1.601   0.495
 5151SOL    HW216353   5.455   1.634   0.532
 5152SOL     OW16354   1.934   4.747   6.564
 5152SOL    HW116355   1.883   4.725   6.480
 5152SOL    HW216356   1.886   4.708   6.643
 5153SOL     OW16357   2.366   0.830   6.437
 5153SOL    HW116358   2.368   0.910   6.497
 5153SOL    HW216359   2.443   0.835   6.373
 5154SOL     OW16360   2.166   3.261   6.471
 5154SOL    HW116361   2.187   3.164   6.481
 5154SOL    HW216362   2.183   3.289   6.376
 5155SOL     OW16363   3.751   6.506   2.174
 5155SOL    HW116364   3.748   6.472   2.268
 5155SOL    HW216365   3.846   6.509   2.143
 5156SOL     OW16366   0.081   3.463   5.498
 5156SOL    HW116367   0.098   3.561   5.491
 5156SOL    HW216368   0.063   3.425   5.407
 5157SOL     OW16369   4.628   2.605   3.893
 5157SOL    HW116370   4.548   2.564   3.937
 5157SOL    HW216371   4.707   2.546   3.906
 5158SOL     OW16372   3.358   1.817   1.285
 5158SOL    HW116373   3.289   1.800   1.356
 5158SOL    HW216374   3.428   1.877   1.320
 5159SOL     OW16375   0.330   3.435   4.473
 5159SOL    HW116376   0.355   3.438   4.376
 5159SOL    HW216377   0.344   3.524   4.515
 5160SOL     OW16378   0.576   4.185   3.611
 5160SOL    HW116379   0.478   4.200   3.625
 5160SOL    HW216380   0.593   4.089   3.589
 5161SOL     OW16381   1.585   3.440   4.344
 5161SOL    HW116382   1.549   3.366   4.401
 5161SOL    HW216383   1.582   3.413   4.248
 5162SOL     OW16384   1.355   4.960   4.149
 5162SOL    HW116385   1.269   4.989   4.108
 5162SOL    HW216386   1.340   4.877   4.203
 5163SOL     OW16387   3.332   4.868   1.041
 5163SOL    HW116388   3.253   4.925   1.018
 5163SOL    HW216389   3.337   4.856   1.140
 5164SOL     OW16390   5.792   2.484   0.006
 5164SOL    HW116391   5.696   2.508   7.019
 5164SOL    HW216392   5.812   2.401   6.976
 5165SOL     OW16393   5.993   3.716   5.305
 5165SOL    HW116394   5.945   3.701   5.219
 5165SOL    HW216395   5.947   3.666   5.378
 5166SOL     OW16396   1.165   5.630   1.813
 5166SOL    HW116397   1.157   5.537   1.848
 5166SOL    HW216398   1.234   5.633   1.740
 5167SOL     OW16399   6.091   0.256   5.835
 5167SOL    HW116400   6.126   0.337   5.883
 5167SOL    HW216401   6.167   0.207   5.794
 5168SOL     OW16402   5.142   3.132   3.514
 5168SOL    HW116403   5.186   3.128   3.424
 5168SOL    HW216404   5.051   3.091   3.509
 5169SOL     OW16405   3.400   2.380   5.758
 5169SOL    HW116406   3.360   2.325   5.831
 5169SOL    HW216407   3.374   2.341   5.669
 5170SOL     OW16408   6.807   3.602   5.888
 5170SOL    HW116409   6.800   3.633   5.983
 5170SOL    HW216410   6.901   3.614   5.857
 5171SOL     OW16411   2.067   4.905   4.056
 5171SOL    HW116412   2.099   4.926   3.963
 5171SOL    HW216413   2.048   4.990   4.105
 5172SOL     OW16414   0.195   2.915   2.216
 5172SOL    HW116415   0.174   2.829   2.262
 5172SOL    HW216416   0.235   2.979   2.281
 5173SOL     OW16417   5.893   4.891   6.317
 5173SOL    HW116418   5.804   4.851   6.341
 5173SOL    HW216419   5.902   4.980   6.360
 5174SOL     OW16420   1.912   4.493   3.671
 5174SOL    HW116421   2.007   4.472   3.649
 5174SOL    HW216422   1.853   4.419   3.640
 5175SOL     OW16423   2.524   4.166   6.757
 5175SOL    HW116424   2.439   4.139   6.800
 5175SOL    HW216425   2.583   4.086   6.745
 5176SOL     OW16426   4.432   3.503   1.121
 5176SOL    HW116427   4.342   3.491   1.165
 5176SOL    HW216428   4.452   3.422   1.065
 5177SOL     OW16429   4.862   6.960   5.998
 5177SOL    HW116430   4.819   0.020   5.962
 5177SOL    HW216431   4.892   6.903   5.922
 5178SOL     OW16432   2.048   2.936   1.299
 5178SOL    HW116433   2.119   3.001   1.271
 5178SOL    HW216434   1.978   2.930   1.229
 5179SOL     OW16435   4.258   5.802   5.210
 5179SOL    HW116436   4.176   5.796   5.153
 5179SOL    HW216437   4.233   5.793   5.306
 5180SOL     OW16438   3.136   3.100   6.153
 5180SOL    HW116439   3.045   3.134   6.129
 5180SOL    HW216440   3.176   3.053   6.075
 5181SOL     OW16441   5.111   1.672   2.506
 5181SOL    HW116442   5.172   1.679   2.585
 5181SOL    HW216443   5.038   1.739   2.515
 5182SOL     OW16444   5.032   5.447   1.280
 5182SOL    HW116445   5.049   5.357   1.319
 5182SOL    HW216446   5.077   5.454   1.191
 5183SOL     OW16447   4.242   0.647   2.503
 5183SOL    HW116448   4.146   0.662   2.482
 5183SOL    HW216449   4.298   0.670   2.423
 5184SOL     OW16450   0.893   1.821   3.811
 5184SOL    HW116451   0.973   1.875   3.838
 5184SOL    HW216452   0.828   1.879   3.763
 5185SOL     OW16453   4.888   6.941   3.153
 5185SOL    HW116454   4.953   6.874   3.190
 5185SOL    HW216455   4.898   6.946   3.054
 5186SOL     OW16456   5.836   3.425   1.010
 5186SOL    HW116457   5.744   3.423   0.969
 5186SOL    HW216458   5.834   3.482   1.092
 5187SOL     OW16459   6.185   0.938   3.509
 5187SOL    HW116460   6.249   0.978   3.443
 5187SOL    HW216461   6.236   0.891   3.580
 5188SOL     OW16462   0.571   4.895   0.614
 5188SOL    HW116463   0.531   4.923   0.702
 5188SOL    HW216464   0.660   4.854   0.630
 5189SOL     OW16465   4.783   5.040   1.257
 5189SOL    HW116466   4.774   4.941   1.262
 5189SOL    HW216467   4.784   5.068   1.161
 5190SOL     OW16468   0.693   2.144   4.558
 5190SOL    HW116469   0.754   2.129   4.481
 5190SOL    HW216470   0.602   2.109   4.537
 5191SOL     OW16471   3.713   0.608   2.227
 5191SOL    HW116472   3.791   0.592   2.166
 5191SOL    HW216473   3.682   0.521   2.265
 5192SOL     OW16474   3.915   5.543   2.323
 5192SOL    HW116475   3.826   5.587   2.337
 5192SOL    HW216476   3.962   5.587   2.246
 5193SOL     OW16477   4.849   4.835   4.000
 5193SOL    HW116478   4.832   4.918   4.052
 5193SOL    HW216479   4.765   4.808   3.953
 5194SOL     OW16480   4.413   6.995   6.201
 5194SOL    HW116481   4.319   7.020   6.224
 5194SOL    HW216482   4.473   0.049   6.219
 5195SOL     OW16483   6.364   6.202   4.647
 5195SOL    HW116484   6.455   6.231   4.617
 5195SOL    HW216485   6.372   6.151   4.733
 5196SOL     OW16486   1.329   3.372   1.019
 5196SOL    HW116487   1.414   3.350   1.066
 5196SOL    HW216488   1.267   3.419   1.081
 5197SOL     OW16489   1.960   5.723   4.159
 5197SOL    HW116490   1.982   5.637   4.111
 5197SOL    HW216491   2.010   5.727   4.245
 5198SOL     OW16492   3.470   0.281   4.105
 5198SOL    HW116493   3.372   0.284   4.083
 5198SOL    HW216494   3.523   0.294   4.021
 5199SOL     OW16495   1.882   6.185   0.648
 5199SOL    HW116496   1.945   6.112   0.674
 5199SOL    HW216497   1.907   6.270   0.695
 5200SOL     OW16498   1.116   1.720   5.251
 5200SOL    HW116499   1.095   1.650   5.318
 5200SOL    HW216500   1.101   1.810   5.291
 5201SOL     OW16501   5.092   5.880   4.068
 5201SOL    HW116502   5.001   5.909   4.097
 5201SOL    HW216503   5.161   5.926   4.125
 5202SOL     OW16504   5.844   3.510   6.208
 5202SOL    HW116505   5.844   3.439   6.138
 5202SOL    HW216506   5.938   3.531   6.235
 5203SOL     OW16507   1.700   0.982   0.119
 5203SOL    HW116508   1.663   0.953   0.207
 5203SOL    HW216509   1.645   1.058   0.084
 5204SOL     OW16510   3.226   6.443   6.881
 5204SOL    HW116511   3.311   6.457   6.829
 5204SOL    HW216512   3.182   6.359   6.850
 5205SOL     OW16513   6.938   5.608   0.140
 5205SOL    HW116514   6.919   5.546   0.064
 5205SOL    HW216515   0.007   5.591   0.175
 5206SOL     OW16516   0.578   5.287   5.657
 5206SOL    HW116517   0.512   5.264   5.586
 5206SOL    HW216518   0.592   5.386   5.660
 5207SOL     OW16519   0.560   0.698   3.600
 5207SOL    HW116520   0.603   0.610   3.619
 5207SOL    HW216521   0.622   0.756   3.547
 5208SOL     OW16522   4.759   2.230   0.303
 5208SOL    HW116523   4.845   2.273   0.278
 5208SOL    HW216524   4.719   2.278   0.381
 5209SOL     OW16525   5.097   0.706   1.972
 5209SOL    HW116526   5.195   0.711   1.988
 5209SOL    HW216527   5.079   0.702   1.874
 5210SOL     OW16528   5.458   3.980   1.120
 5210SOL    HW116529   5.508   3.962   1.204
 5210SOL    HW216530   5.389   3.909   1.106
 5211SOL     OW16531   5.144   1.509   4.769
 5211SOL    HW116532   5.100   1.467   4.849
 5211SOL    HW216533   5.243   1.496   4.775
 5212SOL     OW16534   1.116   2.959   0.685
 5212SOL    HW116535   1.098   2.995   0.776
 5212SOL    HW216536   1.029   2.935   0.641
 5213SOL     OW16537   4.446   3.796   1.681
 5213SOL    HW116538   4.545   3.797   1.667
 5213SOL    HW216539   4.412   3.890   1.682
 5214SOL     OW16540   4.681   3.621   5.632
 5214SOL    HW116541   4.755   3.627   5.699
 5214SOL    HW216542   4.720   3.618   5.540
 5215SOL     OW16543   6.864   4.078   4.181
 5215SOL    HW116544   6.923   4.031   4.247
 5215SOL    HW216545   6.795   4.014   4.148
 5216SOL     OW16546   4.727   5.879   1.129
 5216SOL    HW116547   4.649   5.940   1.142
 5216SOL    HW216548   4.792   5.921   1.066
 5217SOL     OW16549   3.894   6.123   4.574
 5217SOL    HW116550   3.939   6.186   4.511
 5217SOL    HW216551   3.961   6.059   4.610
 5218SOL     OW16552   0.142   1.156   0.876
 5218SOL    HW116553   0.199   1.170   0.795
 5218SOL    HW216554   0.159   1.229   0.942
 5219SOL     OW16555   3.444   1.822   4.025
 5219SOL    HW116556   3.501   1.864   3.955
 5219SOL    HW216557   3.499   1.807   4.108
 5220SOL     OW16558   1.637   4.871   2.912
 5220SOL    HW116559   1.632   4.857   2.813
 5220SOL    HW216560   1.554   4.918   2.943
 5221SOL     OW16561   7.009   0.373   2.203
 5221SOL    HW116562   0.036   0.337   2.282
 5221SOL    HW216563   7.000   0.472   2.212
 5222SOL     OW16564   3.618   5.378   2.389
 5222SOL    HW116565   3.682   5.337   2.324
 5222SOL    HW216566   3.577   5.460   2.350
 5223SOL     OW16567   0.588   2.381   0.750
 5223SOL    HW116568   0.651   2.455   0.776
 5223SOL    HW216569   0.561   2.392   0.655
 5224SOL     OW16570   0.192   1.814   4.353
 5224SOL    HW116571   0.259   1.810   4.279
 5224SOL    HW216572   0.100   1.817   4.314
 5225SOL     OW16573   0.069   0.619   4.144
 5225SOL    HW116574   0.053   0.583   4.053
 5225SOL    HW216575   0.145   0.684   4.142
 5226SOL     OW16576   0.556   6.173   3.207
 5226SOL    HW116577   0.456   6.172   3.215
 5226SOL    HW216578   0.585   6.112   3.134
 5227SOL     OW16579   0.131   3.754   6.048
 5227SOL    HW116580   0.047   3.774   6.098
 5227SOL    HW216581   0.201   3.721   6.111
 5228SOL     OW16582   0.783   2.366   6.993
 5228SOL    HW116583   0.878   2.377   6.963
 5228SOL    HW216584   0.781   2.309   0.051
 5229SOL     OW16585   3.224   6.188   6.763
 5229SOL    HW116586   3.313   6.179   6.718
 5229SOL    HW216587   3.164   6.113   6.735
 5230SOL     OW16588   6.449   0.377   3.006
 5230SOL    HW116589   6.493   0.464   2.988
 5230SOL    HW216590   6.473   0.345   3.098
 5231SOL     OW16591   5.002   2.147   3.617
 5231SOL    HW116592   4.966   2.054   3.608
 5231SOL    HW216593   5.063   2.152   3.696
 5232SOL     OW16594   1.337   4.266   5.990
 5232SOL    HW116595   1.289   4.204   5.928
 5232SOL    HW216596   1.410   4.216   6.038
 5233SOL     OW16597   3.269   0.877   1.823
 5233SOL    HW116598   3.185   0.841   1.783
 5233SOL    HW216599   3.249   0.962   1.872
 5234SOL     OW16600   3.143   3.108   6.449
 5234SOL    HW116601   3.140   3.109   6.349
 5234SOL    HW216602   3.216   3.047   6.479
 5235SOL     OW16603   1.963   2.357   0.445
 5235SOL    HW116604   2.053   2.323   0.474
 5235SOL    HW216605   1.953   2.452   0.473
 5236SOL     OW16606   3.338   5.263   1.633
 5236SOL    HW116607   3.299   5.185   1.682
 5236SOL    HW216608   3.437   5.255   1.630
 5237SOL     OW16609   2.525   1.140   5.057
 5237SOL    HW116610   2.620   1.126   5.086
 5237SOL    HW216611   2.524   1.202   4.978
 5238SOL     OW16612   0.909   5.316   1.559
 5238SOL    HW116613   0.872   5.408   1.571
 5238SOL    HW216614   0.966   5.313   1.477
 5239SOL     OW16615   3.330   3.593   0.775
 5239SOL    HW116616   3.323   3.495   0.795
 5239SOL    HW216617   3.396   3.607   0.701
 5240SOL     OW16618   2.767   2.419   5.297
 5240SOL    HW116619   2.691   2.396   5.236
 5240SOL    HW216620   2.805   2.335   5.336
 5241SOL     OW16621   0.567   5.668   2.627
 5241SOL    HW116622   0.531   5.760   2.613
 5241SOL    HW216623   0.645   5.671   2.690
 5242SOL     OW16624   5.014   0.190   2.199
 5242SOL    HW116625   5.056   0.138   2.125
 5242SOL    HW216626   5.084   0.237   2.252
 5243SOL     OW16627   2.480   6.372   1.665
 5243SOL    HW116628   2.408   6.437   1.642
 5243SOL    HW216629   2.569   6.417   1.660
 5244SOL     OW16630   5.200   3.739   0.153
 5244SOL    HW116631   5.155   3.695   0.075
 5244SOL    HW216632   5.181   3.687   0.236
 5245SOL     OW16633   3.982   4.595   0.764
 5245SOL    HW116634   4.024   4.648   0.838
 5245SOL    HW216635   3.929   4.656   0.705
 5246SOL     OW16636   6.081   2.603   2.524
 5246SOL    HW116637   6.124   2.692   2.511
 5246SOL    HW216638   6.115   2.561   2.608
 5247SOL     OW16639   3.186   0.795   6.061
 5247SOL    HW116640   3.191   0.790   5.961
 5247SOL    HW216641   3.152   0.708   6.097
 5248SOL     OW16642   0.081   1.780   3.015
 5248SOL    HW116643   0.106   1.875   3.037
 5248SOL    HW216644   0.162   1.722   3.023
 5249SOL     OW16645   1.625   5.685   6.687
 5249SOL    HW116646   1.575   5.759   6.642
 5249SOL    HW216647   1.588   5.597   6.658
 5250SOL     OW16648   1.100   5.848   0.596
 5250SOL    HW116649   1.191   5.887   0.606
 5250SOL    HW216650   1.107   5.750   0.578
 5251SOL     OW16651   1.216   4.399   0.650
 5251SOL    HW116652   1.173   4.308   0.643
 5251SOL    HW216653   1.286   4.408   0.578
 5252SOL     OW16654   2.724   6.446   1.592
 5252SOL    HW116655   2.815   6.442   1.634
 5252SOL    HW216656   2.732   6.476   1.498
 5253SOL     OW16657   6.704   3.841   4.552
 5253SOL    HW116658   6.781   3.821   4.613
 5253SOL    HW216659   6.732   3.827   4.457
 5254SOL     OW16660   6.414   0.031   3.610
 5254SOL    HW116661   6.335   0.091   3.597
 5254SOL    HW216662   6.399   6.997   3.691
 5255SOL     OW16663   5.555   2.755   4.740
 5255SOL    HW116664   5.478   2.701   4.772
 5255SOL    HW216665   5.639   2.703   4.750
 5256SOL     OW16666   4.915   1.712   4.344
 5256SOL    HW116667   4.854   1.783   4.378
 5256SOL    HW216668   5.008   1.749   4.334
 5257SOL     OW16669   4.731   6.965   1.065
 5257SOL    HW116670   4.817   7.014   1.084
 5257SOL    HW216671   4.698   6.991   0.974
 5258SOL     OW16672   5.522   2.293   2.831
 5258SOL    HW116673   5.510   2.356   2.908
 5258SOL    HW216674   5.436   2.285   2.781
 5259SOL     OW16675   4.917   5.528   2.710
 5259SOL    HW116676   4.983   5.590   2.752
 5259SOL    HW216677   4.824   5.561   2.725
 5260SOL     OW16678   4.133   5.334   0.756
 5260SOL    HW116679   4.231   5.331   0.734
 5260SOL    HW216680   4.090   5.249   0.727
 5261SOL     OW16681   0.133   3.965   6.433
 5261SOL    HW116682   0.181   3.939   6.349
 5261SOL    HW216683   0.163   4.055   6.463
 5262SOL     OW16684   3.294   1.179   3.768
 5262SOL    HW116685   3.210   1.229   3.747
 5262SOL    HW216686   3.373   1.236   3.744
 5263SOL     OW16687   1.504   1.088   2.846
 5263SOL    HW116688   1.492   0.991   2.825
 5263SOL    HW216689   1.452   1.110   2.929
 5264SOL     OW16690   6.371   2.816   1.812
 5264SOL    HW116691   6.415   2.878   1.878
 5264SOL    HW216692   6.354   2.865   1.726
 5265SOL     OW16693   6.655   3.086   4.334
 5265SOL    HW116694   6.715   3.099   4.414
 5265SOL    HW216695   6.564   3.123   4.354
 5266SOL     OW16696   2.751   5.605   0.140
 5266SOL    HW116697   2.735   5.704   0.142
 5266SOL    HW216698   2.663   5.558   0.142
 5267SOL     OW16699   5.052   2.360   4.780
 5267SOL    HW116700   5.024   2.393   4.689
 5267SOL    HW216701   4.976   2.310   4.822
 5268SOL     OW16702   5.140   0.493   0.135
 5268SOL    HW116703   5.114   0.462   0.044
 5268SOL    HW216704   5.117   0.590   0.145
 5269SOL     OW16705   0.526   6.726   2.201
 5269SOL    HW116706   0.523   6.650   2.136
 5269SOL    HW216707   0.460   6.796   2.173
 5270SOL     OW16708   5.818   1.276   1.849
 5270SOL    HW116709   5.846   1.326   1.930
 5270SOL    HW216710   5.804   1.340   1.773
 5271SOL     OW16711   5.618   5.130   5.367
 5271SOL    HW116712   5.637   5.073   5.286
 5271SOL    HW216713   5.659   5.088   5.448
 5272SOL     OW16714   3.355   5.291   1.318
 5272SOL    HW116715   3.421   5.323   1.386
 5272SOL    HW216716   3.279   5.356   1.313
 5273SOL     OW16717   0.269   3.617   2.307
 5273SOL    HW116718   0.282   3.607   2.208
 5273SOL    HW216719   0.346   3.670   2.344
 5274SOL     OW16720   5.196   6.945   2.992
 5274SOL    HW116721   5.159   0.012   2.969
 5274SOL    HW216722   5.177   6.881   2.918
 5275SOL     OW16723   3.675   1.375   0.599
 5275SOL    HW116724   3.740   1.397   0.672
 5275SOL    HW216725   3.636   1.284   0.616
 5276SOL     OW16726   2.092   0.406   1.509
 5276SOL    HW116727   2.042   0.397   1.595
 5276SOL    HW216728   2.168   0.469   1.521
 5277SOL     OW16729   2.642   1.071   3.108
 5277SOL    HW116730   2.663   1.007   3.034
 5277SOL    HW216731   2.563   1.126   3.084
 5278SOL     OW16732   4.882   5.540   4.312
 5278SOL    HW116733   4.910   5.504   4.401
 5278SOL    HW216734   4.801   5.491   4.281
 5279SOL     OW16735   2.736   5.737   0.612
 5279SOL    HW116736   2.656   5.714   0.667
 5279SOL    HW216737   2.798   5.794   0.665
 5280SOL     OW16738   2.994   5.866   4.981
 5280SOL    HW116739   2.903   5.869   4.941
 5280SOL    HW216740   3.043   5.785   4.947
 5281SOL     OW16741   6.067   2.222   2.398
 5281SOL    HW116742   5.981   2.201   2.444
 5281SOL    HW216743   6.053   2.301   2.337
 5282SOL     OW16744   3.101   1.632   3.774
 5282SOL    HW116745   3.127   1.602   3.866
 5282SOL    HW216746   3.018   1.583   3.746
 5283SOL     OW16747   4.972   6.715   1.883
 5283SOL    HW116748   5.017   6.678   1.801
 5283SOL    HW216749   5.031   6.785   1.924
 5284SOL     OW16750   5.490   4.372   3.322
 5284SOL    HW116751   5.495   4.468   3.350
 5284SOL    HW216752   5.403   4.355   3.278
 5285SOL     OW16753   2.891   4.883   4.235
 5285SOL    HW116754   2.907   4.882   4.333
 5285SOL    HW216755   2.894   4.977   4.201
 5286SOL     OW16756   2.427   4.211   1.251
 5286SOL    HW116757   2.335   4.219   1.212
 5286SOL    HW216758   2.422   4.164   1.339
 5287SOL     OW16759   2.625   1.358   0.947
 5287SOL    HW116760   2.647   1.394   1.038
 5287SOL    HW216761   2.709   1.350   0.894
 5288SOL     OW16762   3.738   0.084   1.343
 5288SOL    HW116763   3.761   0.027   1.265
 5288SOL    HW216764   3.800   0.064   1.419
 5289SOL     OW16765   1.417   5.027   0.112
 5289SOL    HW116766   1.482   4.958   0.081
 5289SOL    HW216767   1.454   5.118   0.094
 5290SOL     OW16768   2.837   4.993   6.367
 5290SOL    HW116769   2.882   4.907   6.391
 5290SOL    HW216770   2.831   5.000   6.267
 5291SOL     OW16771   2.501   5.466   5.441
 5291SOL    HW116772   2.519   5.419   5.527
 5291SOL    HW216773   2.438   5.412   5.385
 5292SOL     OW16774   6.216   3.016   0.511
 5292SOL    HW116775   6.235   3.030   0.414
 5292SOL    HW216776   6.117   3.020   0.526
 5293SOL     OW16777   0.684   1.109   5.076
 5293SOL    HW116778   0.692   1.166   4.994
 5293SOL    HW216779   0.773   1.103   5.121
 5294SOL     OW16780   5.375   3.540   6.721
 5294SOL    HW116781   5.442   3.585   6.662
 5294SOL    HW216782   5.289   3.530   6.672
 5295SOL     OW16783   5.401   1.461   2.736
 5295SOL    HW116784   5.426   1.407   2.817
 5295SOL    HW216785   5.351   1.403   2.672
 5296SOL     OW16786   1.489   5.215   6.861
 5296SOL    HW116787   1.550   5.234   6.784
 5296SOL    HW216788   1.399   5.188   6.827
 5297SOL     OW16789   1.907   2.548   0.963
 5297SOL    HW116790   1.991   2.504   0.993
 5297SOL    HW216791   1.830   2.488   0.979
 5298SOL     OW16792   6.432   5.577   2.119
 5298SOL    HW116793   6.348   5.611   2.161
 5298SOL    HW216794   6.429   5.595   2.021
 5299SOL     OW16795   2.320   0.593   1.533
 5299SOL    HW116796   2.351   0.665   1.594
 5299SOL    HW216797   2.267   0.632   1.457
 5300SOL     OW16798   0.248   5.568   3.300
 5300SOL    HW116799   0.249   5.553   3.201
 5300SOL    HW216800   0.320   5.514   3.343
 5301SOL     OW16801   3.892   1.456   7.011
 5301SOL    HW116802   3.803   1.500   6.997
 5301SOL    HW216803   3.879   1.366   0.030
 5302SOL     OW16804   6.548   4.148   2.093
 5302SOL    HW116805   6.540   4.209   2.015
 5302SOL    HW216806   6.474   4.164   2.157
 5303SOL     OW16807   6.408   5.470   3.740
 5303SOL    HW116808   6.388   5.429   3.828
 5303SOL    HW216809   6.329   5.523   3.709
 5304SOL     OW16810   5.021   2.167   6.365
 5304SOL    HW116811   5.070   2.197   6.283
 5304SOL    HW216812   5.036   2.233   6.439
 5305SOL     OW16813   1.644   1.037   4.337
 5305SOL    HW116814   1.716   0.978   4.373
 5305SOL    HW216815   1.678   1.130   4.326
 5306SOL     OW16816   2.986   5.816   5.365
 5306SOL    HW116817   3.009   5.902   5.318
 5306SOL    HW216818   2.924   5.763   5.307
 5307SOL     OW16819   4.733   6.374   5.755
 5307SOL    HW116820   4.698   6.458   5.713
 5307SOL    HW216821   4.742   6.303   5.685
 5308SOL     OW16822   0.440   0.324   3.838
 5308SOL    HW116823   0.459   0.277   3.752
 5308SOL    HW216824   0.380   0.266   3.894
 5309SOL     OW16825   3.953   3.657   3.464
 5309SOL    HW116826   3.970   3.707   3.549
 5309SOL    HW216827   3.894   3.711   3.404
 5310SOL     OW16828   4.983   2.554   1.579
 5310SOL    HW116829   5.023   2.474   1.623
 5310SOL    HW216830   4.884   2.554   1.593
 5311SOL     OW16831   1.343   5.493   6.857
 5311SOL    HW116832   1.377   5.518   6.767
 5311SOL    HW216833   1.359   5.395   6.873
 5312SOL     OW16834   0.797   5.294   2.166
 5312SOL    HW116835   0.717   5.304   2.107
 5312SOL    HW216836   0.780   5.343   2.252
 5313SOL     OW16837   1.028   5.564   6.764
 5313SOL    HW116838   1.079   5.501   6.705
 5313SOL    HW216839   1.085   5.592   6.841
 5314SOL     OW16840   4.078   5.196   0.441
 5314SOL    HW116841   4.028   5.255   0.504
 5314SOL    HW216842   4.176   5.212   0.451
 5315SOL     OW16843   4.782   4.184   1.925
 5315SOL    HW116844   4.696   4.218   1.963
 5315SOL    HW216845   4.791   4.086   1.943
 5316SOL     OW16846   7.013   5.330   4.997
 5316SOL    HW116847   6.995   5.239   4.961
 5316SOL    HW216848   6.955   5.397   4.950
 5317SOL     OW16849   5.668   0.924   3.557
 5317SOL    HW116850   5.634   0.915   3.464
 5317SOL    HW216851   5.767   0.912   3.558
 5318SOL     OW16852   6.702   2.414   4.938
 5318SOL    HW116853   6.721   2.507   4.968
 5318SOL    HW216854   6.630   2.415   4.869
 5319SOL     OW16855   5.824   0.196   6.482
 5319SOL    HW116856   5.764   0.217   6.560
 5319SOL    HW216857   5.879   0.277   6.460
 5320SOL     OW16858   5.921   4.283   6.734
 5320SOL    HW116859   5.929   4.383   6.728
 5320SOL    HW216860   5.847   4.259   6.796
 5321SOL     OW16861   1.650   4.962   4.341
 5321SOL    HW116862   1.570   4.906   4.319
 5321SOL    HW216863   1.671   5.021   4.263
 5322SOL     OW16864   3.822   6.523   6.960
 5322SOL    HW116865   3.878   6.551   0.014
 5322SOL    HW216866   3.828   6.591   6.887
 5323SOL     OW16867   4.298   2.041   0.578
 5323SOL    HW116868   4.209   2.080   0.554
 5323SOL    HW216869   4.287   1.945   0.605
 5324SOL     OW16870   3.880   2.074   1.956
 5324SOL    HW116871   3.851   1.996   1.900
 5324SOL    HW216872   3.801   2.132   1.977
 5325SOL     OW16873   4.797   6.691   2.550
 5325SOL    HW116874   4.865   6.754   2.588
 5325SOL    HW216875   4.841   6.605   2.526
 5326SOL     OW16876   0.115   5.500   1.744
 5326SOL    HW116877   0.153   5.437   1.812
 5326SOL    HW216878   0.125   5.461   1.652
 5327SOL     OW16879   0.585   6.506   4.962
 5327SOL    HW116880   0.614   6.596   4.996
 5327SOL    HW216881   0.487   6.495   4.975
 5328SOL     OW16882   3.587   3.567   6.195
 5328SOL    HW116883   3.512   3.573   6.129
 5328SOL    HW216884   3.589   3.475   6.234
 5329SOL     OW16885   0.277   4.463   0.108
 5329SOL    HW116886   0.371   4.429   0.108
 5329SOL    HW216887   0.214   4.387   0.093
 5330SOL     OW16888   4.187   3.388   0.349
 5330SOL    HW116889   4.126   3.454   0.305
 5330SOL    HW216890   4.258   3.360   0.284
 5331SOL     OW16891   4.643   2.317   0.525
 5331SOL    HW116892   4.548   2.344   0.538
 5331SOL    HW216893   4.689   2.312   0.613
 5332SOL     OW16894   6.263   5.173   0.339
 5332SOL    HW116895   6.305   5.225   0.265
 5332SOL    HW216896   6.317   5.183   0.422
 5333SOL     OW16897   2.474   0.978   3.699
 5333SOL    HW116898   2.472   1.016   3.791
 5333SOL    HW216899   2.508   1.046   3.634
 5334SOL     OW16900   4.585   4.830   3.916
 5334SOL    HW116901   4.567   4.920   3.955
 5334SOL    HW216902   4.520   4.763   3.952
 5335SOL     OW16903   6.735   4.681   2.364
 5335SOL    HW116904   6.792   4.755   2.399
 5335SOL    HW216905   6.701   4.626   2.440
 5336SOL     OW16906   2.085   1.748   4.002
 5336SOL    HW116907   1.993   1.744   4.041
 5336SOL    HW216908   2.079   1.775   3.906
 5337SOL     OW16909   6.240   4.446   1.312
 5337SOL    HW116910   6.324   4.394   1.299
 5337SOL    HW216911   6.205   4.475   1.223
 5338SOL     OW16912   6.093   2.764   0.008
 5338SOL    HW116913   6.143   2.843   6.995
 5338SOL    HW216914   6.114   2.683   6.977
 5339SOL     OW16915   5.839   2.205   2.154
 5339SOL    HW116916   5.836   2.105   2.162
 5339SOL    HW216917   5.932   2.234   2.132
 5340SOL     OW16918   5.381   3.196   2.252
 5340SOL    HW116919   5.466   3.197   2.199
 5340SOL    HW216920   5.400   3.159   2.344
 5341SOL     OW16921   4.636   4.866   3.186
 5341SOL    HW116922   4.583   4.943   3.222
 5341SOL    HW216923   4.622   4.858   3.087
 5342SOL     OW16924   6.037   6.802   5.895
 5342SOL    HW116925   6.007   6.721   5.845
 5342SOL    HW216926   6.135   6.797   5.911
 5343SOL     OW16927   3.817   3.590   5.442
 5343SOL    HW116928   3.814   3.589   5.342
 5343SOL    HW216929   3.727   3.614   5.478
 5344SOL     OW16930   0.662   1.549   0.219
 5344SOL    HW116931   0.574   1.502   0.221
 5344SOL    HW216932   0.734   1.485   0.191
 5345SOL     OW16933   4.865   1.447   6.844
 5345SOL    HW116934   4.779   1.482   6.807
 5345SOL    HW216935   4.853   1.352   6.872
 5346SOL     OW16936   2.642   5.075   3.575
 5346SOL    HW116937   2.604   5.012   3.643
 5346SOL    HW216938   2.667   5.024   3.493
 5347SOL     OW16939   6.830   2.601   3.456
 5347SOL    HW116940   6.807   2.698   3.445
 5347SOL    HW216941   6.776   2.546   3.392
 5348SOL     OW16942   6.075   1.524   4.822
 5348SOL    HW116943   6.116   1.436   4.846
 5348SOL    HW216944   6.096   1.591   4.893
 5349SOL     OW16945   0.659   2.896   1.971
 5349SOL    HW116946   0.676   2.975   2.030
 5349SOL    HW216947   0.741   2.878   1.916
 5350SOL     OW16948   1.660   0.170   5.871
 5350SOL    HW116949   1.753   0.148   5.900
 5350SOL    HW216950   1.616   0.226   5.942
 5351SOL     OW16951   0.319   5.787   1.444
 5351SOL    HW116952   0.386   5.857   1.419
 5351SOL    HW216953   0.348   5.740   1.528
 5352SOL     OW16954   1.841   4.110   2.875
 5352SOL    HW116955   1.813   4.181   2.811
 5352SOL    HW216956   1.883   4.152   2.955
 5353SOL     OW16957   3.938   5.275   3.783
 5353SOL    HW116958   3.969   5.214   3.857
 5353SOL    HW216959   3.953   5.230   3.695
 5354SOL     OW16960   3.406   5.161   0.751
 5354SOL    HW116961   3.452   5.072   0.756
 5354SOL    HW216962   3.459   5.228   0.803
 5355SOL     OW16963   5.068   5.578   5.395
 5355SOL    HW116964   5.088   5.560   5.491
 5355SOL    HW216965   5.117   5.660   5.365
 5356SOL     OW16966   6.857   3.826   1.695
 5356SOL    HW116967   6.844   3.880   1.612
 5356SOL    HW216968   6.782   3.760   1.703
 5357SOL     OW16969   4.732   4.716   1.916
 5357SOL    HW116970   4.667   4.644   1.941
 5357SOL    HW216971   4.744   4.719   1.817
 5358SOL     OW16972   4.384   1.535   0.051
 5358SOL    HW116973   4.378   1.613   7.012
 5358SOL    HW216974   4.296   1.521   0.095
 5359SOL     OW16975   2.275   1.741   0.306
 5359SOL    HW116976   2.197   1.802   0.294
 5359SOL    HW216977   2.256   1.677   0.380
 5360SOL     OW16978   5.346   5.216   3.848
 5360SOL    HW116979   5.374   5.151   3.778
 5360SOL    HW216980   5.426   5.266   3.882
 5361SOL     OW16981   3.433   6.329   2.796
 5361SOL    HW116982   3.531   6.330   2.777
 5361SOL    HW216983   3.418   6.303   2.892
 5362SOL     OW16984   5.277   6.685   1.913
 5362SOL    HW116985   5.245   6.671   2.007
 5362SOL    HW216986   5.302   6.780   1.900
 5363SOL     OW16987   5.234   6.465   4.826
 5363SOL    HW116988   5.296   6.539   4.853
 5363SOL    HW216989   5.262   6.429   4.737
 5364SOL     OW16990   5.206   0.842   2.532
 5364SOL    HW116991   5.254   0.889   2.457
 5364SOL    HW216992   5.270   0.782   2.580
 5365SOL     OW16993   3.601   3.194   3.835
 5365SOL    HW116994   3.696   3.226   3.827
 5365SOL    HW216995   3.543   3.248   3.773
 5366SOL     OW16996   6.874   0.204   1.451
 5366SOL    HW116997   6.848   0.292   1.410
 5366SOL    HW216998   6.924   0.149   1.383
 5367SOL     OW16999   6.056   0.250   0.747
 5367SOL    HW117000   6.094   0.205   0.666
 5367SOL    HW217001   5.956   0.252   0.739
 5368SOL     OW17002   6.910   5.983   1.946
 5368SOL    HW117003   6.916   6.059   1.881
 5368SOL    HW217004   6.929   5.897   1.898
 5369SOL     OW17005   2.775   5.012   1.700
 5369SOL    HW117006   2.796   4.916   1.680
 5369SOL    HW217007   2.797   5.031   1.796
 5370SOL     OW17008   3.995   3.931   1.647
 5370SOL    HW117009   4.050   3.848   1.660
 5370SOL    HW217010   3.991   3.953   1.550
 5371SOL     OW17011   6.636   5.016   4.825
 5371SOL    HW117012   6.544   5.011   4.786
 5371SOL    HW217013   6.633   5.062   4.913
 5372SOL     OW17014   1.866   6.930   3.030
 5372SOL    HW117015   1.805   6.898   3.102
 5372SOL    HW217016   1.818   6.998   2.974
 5373SOL     OW17017   4.369   6.545   5.806
 5373SOL    HW117018   4.349   6.633   5.763
 5373SOL    HW217019   4.387   6.558   5.903
 5374SOL     OW17020   2.467   5.192   1.435
 5374SOL    HW117021   2.500   5.106   1.394
 5374SOL    HW217022   2.499   5.198   1.529
 5375SOL     OW17023   0.734   6.712   5.517
 5375SOL    HW117024   0.738   6.619   5.552
 5375SOL    HW217025   0.763   6.776   5.588
 5376SOL     OW17026   1.304   2.376   1.350
 5376SOL    HW117027   1.284   2.279   1.360
 5376SOL    HW217028   1.384   2.399   1.405
 5377SOL     OW17029   2.222   0.760   2.860
 5377SOL    HW117030   2.230   0.747   2.958
 5377SOL    HW217031   2.261   0.681   2.812
 5378SOL     OW17032   5.455   0.767   0.936
 5378SOL    HW117033   5.376   0.716   0.969
 5378SOL    HW217034   5.487   0.727   0.850
 5379SOL     OW17035   1.633   2.724   5.207
 5379SOL    HW117036   1.629   2.689   5.113
 5379SOL    HW217037   1.606   2.820   5.208
 5380SOL     OW17038   3.661   0.372   1.231
 5380SOL    HW117039   3.633   0.331   1.144
 5380SOL    HW217040   3.662   0.302   1.303
 5381SOL     OW17041   5.522   6.653   2.976
 5381SOL    HW117042   5.556   6.612   2.891
 5381SOL    HW217043   5.477   6.583   3.031
 5382SOL     OW17044   4.291   1.712   2.761
 5382SOL    HW117045   4.280   1.749   2.669
 5382SOL    HW217046   4.379   1.667   2.769
 5383SOL     OW17047   1.249   2.923   3.983
 5383SOL    HW117048   1.214   3.016   3.973
 5383SOL    HW217049   1.260   2.881   3.893
 5384SOL     OW17050   4.555   5.818   5.170
 5384SOL    HW117051   4.463   5.791   5.200
 5384SOL    HW217052   4.572   5.913   5.196
 5385SOL     OW17053   6.590   2.542   5.867
 5385SOL    HW117054   6.593   2.445   5.844
 5385SOL    HW217055   6.563   2.554   5.962
 5386SOL     OW17056   6.190   3.254   4.061
 5386SOL    HW117057   6.256   3.317   4.102
 5386SOL    HW217058   6.238   3.174   4.024
 5387SOL     OW17059   2.649   0.391   2.871
 5387SOL    HW117060   2.631   0.295   2.850
 5387SOL    HW217061   2.745   0.403   2.897
 5388SOL     OW17062   0.681   6.395   2.854
 5388SOL    HW117063   0.597   6.344   2.874
 5388SOL    HW217064   0.759   6.348   2.895
 5389SOL     OW17065   4.586   1.790   4.875
 5389SOL    HW117066   4.491   1.767   4.857
 5389SOL    HW217067   4.637   1.789   4.789
 5390SOL     OW17068   6.415   3.350   4.191
 5390SOL    HW117069   6.483   3.371   4.120
 5390SOL    HW217070   6.383   3.436   4.232
 5391SOL     OW17071   2.192   2.500   0.179
 5391SOL    HW117072   2.222   2.502   0.275
 5391SOL    HW217073   2.142   2.584   0.158
 5392SOL     OW17074   4.575   2.504   3.438
 5392SOL    HW117075   4.523   2.434   3.486
 5392SOL    HW217076   4.611   2.570   3.505
 5393SOL     OW17077   4.139   0.515   5.170
 5393SOL    HW117078   4.134   0.425   5.215
 5393SOL    HW217079   4.140   0.587   5.240
 5394SOL     OW17080   1.624   6.887   1.186
 5394SOL    HW117081   1.529   6.917   1.194
 5394SOL    HW217082   1.685   6.964   1.208
 5395SOL     OW17083   5.281   1.319   1.440
 5395SOL    HW117084   5.209   1.252   1.428
 5395SOL    HW217085   5.350   1.284   1.503
 5396SOL     OW17086   5.749   5.505   2.697
 5396SOL    HW117087   5.847   5.519   2.710
 5396SOL    HW217088   5.703   5.508   2.786
 5397SOL     OW17089   6.093   1.855   3.102
 5397SOL    HW117090   6.014   1.831   3.158
 5397SOL    HW217091   6.155   1.912   3.155
 5398SOL     OW17092   4.811   2.378   3.969
 5398SOL    HW117093   4.735   2.337   4.020
 5398SOL    HW217094   4.886   2.312   3.962
 5399SOL     OW17095   1.641   0.034   5.231
 5399SOL    HW117096   1.712   0.104   5.222
 5399SOL    HW217097   1.583   0.057   5.310
 5400SOL     OW17098   3.603   2.850   0.829
 5400SOL    HW117099   3.590   2.908   0.910
 5400SOL    HW217100   3.681   2.884   0.776
 5401SOL     OW17101   5.086   4.766   2.957
 5401SOL    HW117102   5.098   4.789   2.861
 5401SOL    HW217103   5.171   4.729   2.994
 5402SOL     OW17104   2.275   0.098   0.371
 5402SOL    HW117105   2.301   0.075   0.464
 5402SOL    HW217106   2.329   0.177   0.340
 5403SOL     OW17107   5.345   3.189   0.162
 5403SOL    HW117108   5.249   3.173   0.136
 5403SOL    HW217109   5.353   3.279   0.204
 5404SOL     OW17110   0.675   0.927   0.993
 5404SOL    HW117111   0.626   0.857   1.046
 5404SOL    HW217112   0.771   0.900   0.985
 5405SOL     OW17113   5.186   5.605   0.591
 5405SOL    HW117114   5.191   5.538   0.665
 5405SOL    HW217115   5.106   5.663   0.603
 5406SOL     OW17116   2.450   0.534   4.918
 5406SOL    HW117117   2.473   0.521   4.822
 5406SOL    HW217118   2.528   0.509   4.975
 5407SOL     OW17119   2.561   0.470   1.470
 5407SOL    HW117120   2.634   0.532   1.441
 5407SOL    HW217121   2.477   0.522   1.487
 5408SOL     OW17122   2.552   2.145   4.307
 5408SOL    HW117123   2.651   2.144   4.321
 5408SOL    HW217124   2.507   2.106   4.387
 5409SOL     OW17125   6.918   2.663   1.579
 5409SOL    HW117126   6.880   2.750   1.545
 5409SOL    HW217127   6.871   2.637   1.663
 5410SOL     OW17128   0.393   2.467   1.267
 5410SOL    HW117129   0.491   2.445   1.264
 5410SOL    HW217130   0.344   2.408   1.203
 5411SOL     OW17131   4.747   4.696   6.641
 5411SOL    HW117132   4.732   4.746   6.727
 5411SOL    HW217133   4.688   4.616   6.638
 5412SOL     OW17134   1.209   1.514   6.575
 5412SOL    HW117135   1.126   1.546   6.620
 5412SOL    HW217136   1.185   1.458   6.496
 5413SOL     OW17137   6.508   0.334   5.642
 5413SOL    HW117138   6.489   0.364   5.548
 5413SOL    HW217139   6.425   0.338   5.696
 5414SOL     OW17140   0.038   4.639   5.675
 5414SOL    HW117141   0.065   4.575   5.747
 5414SOL    HW217142   0.072   4.730   5.696
 5415SOL     OW17143   2.940   6.920   0.583
 5415SOL    HW117144   3.035   6.913   0.613
 5415SOL    HW217145   2.887   6.972   0.650
 5416SOL     OW17146   2.597   5.202   5.076
 5416SOL    HW117147   2.611   5.141   5.154
 5416SOL    HW217148   2.610   5.151   4.991
 5417SOL     OW17149   4.965   6.220   3.518
 5417SOL    HW117150   4.945   6.305   3.470
 5417SOL    HW217151   4.884   6.162   3.518
 5418SOL     OW17152   5.955   4.750   4.075
 5418SOL    HW117153   5.884   4.745   4.145
 5418SOL    HW217154   5.926   4.814   4.003
 5419SOL     OW17155   4.174   6.732   6.487
 5419SOL    HW117156   4.091   6.730   6.431
 5419SOL    HW217157   4.195   6.640   6.519
 5420SOL     OW17158   1.185   1.506   1.328
 5420SOL    HW117159   1.189   1.510   1.229
 5420SOL    HW217160   1.131   1.584   1.362
 5421SOL     OW17161   3.316   5.346   2.181
 5421SOL    HW117162   3.346   5.415   2.247
 5421SOL    HW217163   3.396   5.304   2.138
 5422SOL     OW17164   2.079   5.967   4.046
 5422SOL    HW117165   2.053   5.916   3.964
 5422SOL    HW217166   2.047   5.919   4.127
 5423SOL     OW17167   6.522   6.338   2.022
 5423SOL    HW117168   6.531   6.255   1.966
 5423SOL    HW217169   6.494   6.312   2.115
 5424SOL     OW17170   4.773   4.186   4.944
 5424SOL    HW117171   4.779   4.210   5.041
 5424SOL    HW217172   4.721   4.257   4.895
 5425SOL     OW17173   0.424   3.447   5.425
 5425SOL    HW117174   0.383   3.453   5.516
 5425SOL    HW217175   0.431   3.351   5.397
 5426SOL     OW17176   5.233   5.095   2.114
 5426SOL    HW117177   5.188   5.136   2.193
 5426SOL    HW217178   5.243   4.996   2.129
 5427SOL     OW17179   4.887   2.643   6.778
 5427SOL    HW117180   4.947   2.717   6.808
 5427SOL    HW217181   4.925   2.555   6.808
 5428SOL     OW17182   6.300   5.359   2.983
 5428SOL    HW117183   6.249   5.275   2.965
 5428SOL    HW217184   6.377   5.366   2.920
 5429SOL     OW17185   3.071   0.798   3.834
 5429SOL    HW117186   3.150   0.788   3.895
 5429SOL    HW217187   2.989   0.764   3.880
 5430SOL     OW17188   2.633   3.805   6.118
 5430SOL    HW117189   2.704   3.773   6.056
 5430SOL    HW217190   2.554   3.835   6.064
 5431SOL     OW17191   3.145   4.859   6.134
 5431SOL    HW117192   3.120   4.951   6.104
 5431SOL    HW217193   3.185   4.809   6.057
 5432SOL     OW17194   5.519   5.878   1.186
 5432SOL    HW117195   5.585   5.805   1.173
 5432SOL    HW217196   5.543   5.933   1.266
 5433SOL     OW17197   1.523   0.372   1.242
 5433SOL    HW117198   1.590   0.377   1.168
 5433SOL    HW217199   1.522   0.458   1.292
 5434SOL     OW17200   4.994   1.383   5.036
 5434SOL    HW117201   5.041   1.436   5.107
 5434SOL    HW217202   4.896   1.403   5.038
 5435SOL     OW17203   6.576   3.959   0.842
 5435SOL    HW117204   6.666   3.932   0.808
 5435SOL    HW217205   6.583   3.985   0.939
 5436SOL     OW17206   1.451   5.642   2.662
 5436SOL    HW117207   1.383   5.588   2.711
 5436SOL    HW217208   1.406   5.714   2.611
 5437SOL     OW17209   3.175   5.111   6.684
 5437SOL    HW117210   3.089   5.104   6.735
 5437SOL    HW217211   3.166   5.182   6.613
 5438SOL     OW17212   4.876   3.879   2.347
 5438SOL    HW117213   4.862   3.903   2.443
 5438SOL    HW217214   4.831   3.792   2.327
 5439SOL     OW17215   0.984   4.008   0.674
 5439SOL    HW117216   1.046   4.075   0.716
 5439SOL    HW217217   0.890   4.029   0.701
 5440SOL     OW17218   5.873   6.240   3.225
 5440SOL    HW117219   5.914   6.228   3.315
 5440SOL    HW217220   5.814   6.161   3.204
 5441SOL     OW17221   4.703   2.800   4.051
 5441SOL    HW117222   4.685   2.787   4.149
 5441SOL    HW217223   4.689   2.714   4.003
 5442SOL     OW17224   5.212   0.119   4.299
 5442SOL    HW117225   5.212   0.141   4.397
 5442SOL    HW217226   5.302   0.085   4.272
 5443SOL     OW17227   5.046   6.795   5.241
 5443SOL    HW117228   5.008   6.868   5.185
 5443SOL    HW217229   4.972   6.741   5.281
 5444SOL     OW17230   0.327   1.441   3.823
 5444SOL    HW117231   0.373   1.361   3.862
 5444SOL    HW217232   0.386   1.521   3.832
 5445SOL     OW17233   4.925   5.276   5.542
 5445SOL    HW117234   4.941   5.211   5.468
 5445SOL    HW217235   5.012   5.310   5.577
 5446SOL     OW17236   0.155   4.813   5.189
 5446SOL    HW117237   0.149   4.715   5.172
 5446SOL    HW217238   0.112   4.834   5.277
 5447SOL     OW17239   1.562   2.248   0.682
 5447SOL    HW117240   1.641   2.223   0.626
 5447SOL    HW217241   1.576   2.216   0.775
 5448SOL     OW17242   4.490   6.156   3.549
 5448SOL    HW117243   4.490   6.094   3.628
 5448SOL    HW217244   4.396   6.186   3.531
 5449SOL     OW17245   3.039   1.371   2.607
 5449SOL    HW117246   3.113   1.395   2.670
 5449SOL    HW217247   2.954   1.413   2.637
 5450SOL     OW17248   4.283   6.396   1.767
 5450SOL    HW117249   4.285   6.382   1.866
 5450SOL    HW217250   4.192   6.377   1.732
 5451SOL     OW17251   1.204   0.267   3.380
 5451SOL    HW117252   1.208   0.209   3.462
 5451SOL    HW217253   1.204   0.363   3.408
 5452SOL     OW17254   2.001   4.660   1.906
 5452SOL    HW117255   1.977   4.574   1.862
 5452SOL    HW217256   1.930   4.686   1.971
 5453SOL     OW17257   5.940   3.984   2.950
 5453SOL    HW117258   6.014   4.039   2.910
 5453SOL    HW217259   5.965   3.887   2.945
 5454SOL     OW17260   6.032   5.474   2.677
 5454SOL    HW117261   6.056   5.402   2.611
 5454SOL    HW217262   6.031   5.563   2.630
 5455SOL     OW17263   0.152   1.731   2.229
 5455SOL    HW117264   0.166   1.653   2.168
 5455SOL    HW217265   0.103   1.803   2.180
 5456SOL     OW17266   4.838   0.666   6.808
 5456SOL    HW117267   4.914   0.609   6.839
 5456SOL    HW217268   4.752   0.617   6.821
 5457SOL     OW17269   6.426   2.335   0.639
 5457SOL    HW117270   6.389   2.249   0.605
 5457SOL    HW217271   6.477   2.319   0.724
 5458SOL     OW17272   6.479   4.276   1.291
 5458SOL    HW117273   6.443   4.187   1.262
 5458SOL    HW217274   6.568   4.292   1.249
 5459SOL     OW17275   1.650   4.552   5.389
 5459SOL    HW117276   1.627   4.597   5.475
 5459SOL    HW217277   1.749   4.561   5.372
 5460SOL     OW17278   1.813   1.403   0.842
 5460SOL    HW117279   1.877   1.396   0.919
 5460SOL    HW217280   1.847   1.348   0.766
 5461SOL     OW17281   0.229   1.652   6.231
 5461SOL    HW117282   0.303   1.669   6.167
 5461SOL    HW217283   0.152   1.610   6.183
 5462SOL     OW17284   5.186   6.336   6.726
 5462SOL    HW117285   5.193   6.351   6.825
 5462SOL    HW217286   5.173   6.424   6.680
 5463SOL     OW17287   0.086   2.597   6.488
 5463SOL    HW117288   0.040   2.640   6.565
 5463SOL    HW217289   0.018   2.565   6.422
 5464SOL     OW17290   5.967   6.374   5.646
 5464SOL    HW117291   5.937   6.431   5.570
 5464SOL    HW217292   6.013   6.293   5.611
 5465SOL     OW17293   6.458   6.762   2.867
 5465SOL    HW117294   6.442   6.779   2.964
 5465SOL    HW217295   6.479   6.848   2.821
 5466SOL     OW17296   5.774   2.301   5.155
 5466SOL    HW117297   5.754   2.277   5.250
 5466SOL    HW217298   5.788   2.218   5.101
 5467SOL     OW17299   5.818   3.881   3.547
 5467SOL    HW117300   5.783   3.943   3.477
 5467SOL    HW217301   5.769   3.898   3.633
 5468SOL     OW17302   6.782   1.884   2.698
 5468SOL    HW117303   6.769   1.799   2.648
 5468SOL    HW217304   6.826   1.952   2.639
 5469SOL     OW17305   1.858   0.669   6.172
 5469SOL    HW117306   1.917   0.596   6.138
 5469SOL    HW217307   1.882   0.688   6.268
 5470SOL     OW17308   3.863   5.542   4.670
 5470SOL    HW117309   3.940   5.594   4.705
 5470SOL    HW217310   3.844   5.568   4.575
 5471SOL     OW17311   5.011   0.002   2.581
 5471SOL    HW117312   5.066   0.085   2.596
 5471SOL    HW217313   4.914   0.026   2.581
 5472SOL     OW17314   2.802   2.137   6.411
 5472SOL    HW117315   2.822   2.039   6.415
 5472SOL    HW217316   2.708   2.149   6.379
 5473SOL     OW17317   2.039   4.592   0.546
 5473SOL    HW117318   2.071   4.622   0.636
 5473SOL    HW217319   2.093   4.636   0.475
 5474SOL     OW17320   1.448   5.709   3.740
 5474SOL    HW117321   1.432   5.656   3.823
 5474SOL    HW217322   1.395   5.793   3.743
 5475SOL     OW17323   1.558   1.810   0.163
 5475SOL    HW117324   1.559   1.859   0.250
 5475SOL    HW217325   1.635   1.746   0.159
 5476SOL     OW17326   2.096   5.397   5.090
 5476SOL    HW117327   2.123   5.422   5.183
 5476SOL    HW217328   2.041   5.470   5.050
 5477SOL     OW17329   1.503   4.416   3.209
 5477SOL    HW117330   1.481   4.435   3.305
 5477SOL    HW217331   1.467   4.326   3.184
 5478SOL     OW17332   5.343   5.500   6.363
 5478SOL    HW117333   5.321   5.511   6.460
 5478SOL    HW217334   5.320   5.406   6.334
 5479SOL     OW17335   4.722   1.457   4.933
 5479SOL    HW117336   4.687   1.367   4.906
 5479SOL    HW217337   4.811   1.473   4.890
 5480SOL     OW17338   6.181   4.921   4.898
 5480SOL    HW117339   6.115   4.894   4.828
 5480SOL    HW217340   6.133   4.957   4.977
 5481SOL     OW17341   3.824   1.016   5.885
 5481SOL    HW117342   3.920   0.998   5.863
 5481SOL    HW217343   3.790   1.091   5.828
 5482SOL     OW17344   3.884   3.441   2.173
 5482SOL    HW117345   3.792   3.427   2.210
 5482SOL    HW217346   3.945   3.369   2.208
 5483SOL     OW17347   6.644   2.862   5.737
 5483SOL    HW117348   6.688   2.951   5.751
 5483SOL    HW217349   6.682   2.796   5.802
 5484SOL     OW17350   6.823   6.674   3.948
 5484SOL    HW117351   6.796   6.584   3.913
 5484SOL    HW217352   6.906   6.704   3.902
 5485SOL     OW17353   2.874   0.184   4.683
 5485SOL    HW117354   2.919   0.192   4.595
 5485SOL    HW217355   2.874   0.273   4.729
 5486SOL     OW17356   1.501   0.315   3.898
 5486SOL    HW117357   1.450   0.229   3.895
 5486SOL    HW217358   1.580   0.310   3.838
 5487SOL     OW17359   6.004   4.004   6.928
 5487SOL    HW117360   5.992   3.939   7.003
 5487SOL    HW217361   5.939   4.079   6.938
 5488SOL     OW17362   4.289   1.852   0.172
 5488SOL    HW117363   4.355   1.798   0.223
 5488SOL    HW217364   4.288   1.946   0.208
 5489SOL     OW17365   1.551   4.730   2.016
 5489SOL    HW117366   1.500   4.728   2.102
 5489SOL    HW217367   1.494   4.770   1.944
 5490SOL     OW17368   3.393   0.122   0.367
 5490SOL    HW117369   3.446   0.124   0.451
 5490SOL    HW217370   3.298   0.144   0.387
 5491SOL     OW17371   1.439   4.444   6.417
 5491SOL    HW117372   1.396   4.360   6.451
 5491SOL    HW217373   1.505   4.476   6.485
 5492SOL     OW17374   1.228   1.281   6.002
 5492SOL    HW117375   1.156   1.296   6.070
 5492SOL    HW217376   1.225   1.353   5.933
 5493SOL     OW17377   3.574   3.142   5.177
 5493SOL    HW117378   3.656   3.199   5.186
 5493SOL    HW217379   3.552   3.131   5.080
 5494SOL     OW17380   6.648   2.892   0.751
 5494SOL    HW117381   6.552   2.903   0.724
 5494SOL    HW217382   6.703   2.873   0.670
 5495SOL     OW17383   3.556   3.316   0.622
 5495SOL    HW117384   3.458   3.311   0.637
 5495SOL    HW217385   3.604   3.319   0.709
 5496SOL     OW17386   3.544   5.936   1.568
 5496SOL    HW117387   3.518   5.845   1.533
 5496SOL    HW217388   3.509   6.006   1.506
 5497SOL     OW17389   0.528   1.996   3.162
 5497SOL    HW117390   0.554   1.928   3.231
 5497SOL    HW217391   0.601   2.005   3.094
 5498SOL     OW17392   4.998   1.029   0.091
 5498SOL    HW117393   4.935   0.974   0.036
 5498SOL    HW217394   4.947   1.099   0.140
 5499SOL     OW17395   0.715   0.887   3.489
 5499SOL    HW117396   0.777   0.894   3.410
 5499SOL    HW217397   0.695   0.979   3.523
 5500SOL     OW17398   2.244   5.816   0.039
 5500SOL    HW117399   2.266   5.733   0.091
 5500SOL    HW217400   2.210   5.789   6.971
 5501SOL     OW17401   3.387   6.858   1.442
 5501SOL    HW117402   3.452   6.891   1.509
 5501SOL    HW217403   3.435   6.834   1.358
 5502SOL     OW17404   6.206   4.331   6.191
 5502SOL    HW117405   6.189   4.430   6.201
 5502SOL    HW217406   6.119   4.282   6.200
 5503SOL     OW17407   0.917   5.104   2.597
 5503SOL    HW117408   0.900   5.180   2.659
 5503SOL    HW217409   0.831   5.074   2.556
 5504SOL     OW17410   2.977   0.962   4.969
 5504SOL    HW117411   2.999   0.960   5.067
 5504SOL    HW217412   2.926   1.045   4.948
 5505SOL     OW17413   1.771   6.011   4.914
 5505SOL    HW117414   1.725   6.027   4.826
 5505SOL    HW217415   1.870   6.003   4.899
 5506SOL     OW17416   7.000   0.381   4.970
 5506SOL    HW117417   0.076   0.391   4.979
 5506SOL    HW217418   6.978   0.287   4.943
 5507SOL     OW17419   2.749   6.665   3.377
 5507SOL    HW117420   2.723   6.761   3.390
 5507SOL    HW217421   2.793   6.654   3.288
 5508SOL     OW17422   2.293   1.304   0.107
 5508SOL    HW117423   2.321   1.267   0.195
 5508SOL    HW217424   2.362   1.282   0.038
 5509SOL     OW17425   0.173   6.090   0.608
 5509SOL    HW117426   0.083   6.047   0.609
 5509SOL    HW217427   0.175   6.162   0.539
 5510SOL     OW17428   5.098   6.451   6.973
 5510SOL    HW117429   5.070   6.521   6.908
 5510SOL    HW217430   5.024   6.385   6.985
 5511SOL     OW17431   1.748   0.410   3.653
 5511SOL    HW117432   1.725   0.464   3.572
 5511SOL    HW217433   1.808   0.335   3.627
 5512SOL     OW17434   6.284   2.054   0.450
 5512SOL    HW117435   6.209   2.120   0.441
 5512SOL    HW217436   6.324   2.037   0.360
 5513SOL     OW17437   5.140   4.249   5.095
 5513SOL    HW117438   5.225   4.300   5.087
 5513SOL    HW217439   5.118   4.206   5.007
 5514SOL     OW17440   5.357   5.418   2.753
 5514SOL    HW117441   5.262   5.419   2.724
 5514SOL    HW217442   5.375   5.334   2.805
 5515SOL     OW17443   6.304   3.409   1.093
 5515SOL    HW117444   6.339   3.367   1.009
 5515SOL    HW217445   6.262   3.339   1.151
 5516SOL     OW17446   1.759   3.096   0.300
 5516SOL    HW117447   1.673   3.148   0.302
 5516SOL    HW217448   1.836   3.159   0.286
 5517SOL     OW17449   2.693   2.235   2.406
 5517SOL    HW117450   2.696   2.288   2.491
 5517SOL    HW217451   2.647   2.148   2.423
 5518SOL     OW17452   6.464   5.480   6.013
 5518SOL    HW117453   6.478   5.414   6.087
 5518SOL    HW217454   6.394   5.445   5.951
 5519SOL     OW17455   5.202   3.937   2.924
 5519SOL    HW117456   5.252   3.963   2.842
 5519SOL    HW217457   5.189   3.838   2.926
 5520SOL     OW17458   0.667   4.604   2.509
 5520SOL    HW117459   0.765   4.584   2.510
 5520SOL    HW217460   0.624   4.555   2.433
 5521SOL     OW17461   4.237   5.761   2.205
 5521SOL    HW117462   4.270   5.720   2.290
 5521SOL    HW217463   4.312   5.767   2.139
 5522SOL     OW17464   1.975   3.542   1.270
 5522SOL    HW117465   1.890   3.590   1.296
 5522SOL    HW217466   1.964   3.501   1.180
 5523SOL     OW17467   3.329   6.739   2.890
 5523SOL    HW117468   3.348   6.741   2.792
 5523SOL    HW217469   3.243   6.786   2.908
 5524SOL     OW17470   6.867   5.704   4.769
 5524SOL    HW117471   6.850   5.789   4.818
 5524SOL    HW217472   6.823   5.628   4.818
 5525SOL     OW17473   6.814   4.525   0.049
 5525SOL    HW117474   6.896   4.562   0.006
 5525SOL    HW217475   6.818   4.425   0.048
 5526SOL     OW17476   6.138   3.807   4.501
 5526SOL    HW117477   6.038   3.806   4.499
 5526SOL    HW217478   6.170   3.772   4.589
 5527SOL     OW17479   0.549   3.270   2.781
 5527SOL    HW117480   0.458   3.299   2.754
 5527SOL    HW217481   0.553   3.170   2.787
 5528SOL     OW17482   0.842   2.166   6.026
 5528SOL    HW117483   0.764   2.167   6.089
 5528SOL    HW217484   0.902   2.244   6.046
 5529SOL     OW17485   2.242   0.386   4.467
 5529SOL    HW117486   2.340   0.382   4.447
 5529SOL    HW217487   2.228   0.435   4.553
 5530SOL     OW17488   6.951   1.983   1.867
 5530SOL    HW117489   6.931   2.079   1.844
 5530SOL    HW217490   7.022   1.948   1.806
 5531SOL     OW17491   3.867   3.192   4.451
 5531SOL    HW117492   3.793   3.128   4.470
 5531SOL    HW217493   3.916   3.213   4.535
 5532SOL     OW17494   1.487   1.196   1.268
 5532SOL    HW117495   1.501   1.110   1.318
 5532SOL    HW217496   1.524   1.271   1.321
 5533SOL     OW17497   2.622   0.658   2.817
 5533SOL    HW117498   2.611   0.560   2.831
 5533SOL    HW217499   2.712   0.687   2.850
 5534SOL     OW17500   1.142   3.111   6.277
 5534SOL    HW117501   1.043   3.108   6.291
 5534SOL    HW217502   1.170   3.206   6.262
 5535SOL     OW17503   6.991   3.514   2.982
 5535SOL    HW117504   0.065   3.496   2.993
 5535SOL    HW217505   6.941   3.427   2.978
 5536SOL     OW17506   3.008   0.977   4.217
 5536SOL    HW117507   2.981   1.067   4.182
 5536SOL    HW217508   3.101   0.983   4.254
 5537SOL     OW17509   3.279   1.516   4.601
 5537SOL    HW117510   3.284   1.416   4.597
 5537SOL    HW217511   3.295   1.554   4.510
 5538SOL     OW17512   3.167   6.990   4.756
 5538SOL    HW117513   3.100   0.009   4.695
 5538SOL    HW217514   3.245   0.028   4.767
 5539SOL     OW17515   0.679   1.637   0.895
 5539SOL    HW117516   0.598   1.636   0.954
 5539SOL    HW217517   0.741   1.710   0.924
 5540SOL     OW17518   4.938   3.436   2.448
 5540SOL    HW117519   4.956   3.479   2.360
 5540SOL    HW217520   4.936   3.336   2.436
 5541SOL     OW17521   5.424   3.175   5.916
 5541SOL    HW117522   5.349   3.109   5.910
 5541SOL    HW217523   5.407   3.237   5.993
 5542SOL     OW17524   5.856   6.009   5.855
 5542SOL    HW117525   5.922   6.069   5.899
 5542SOL    HW217526   5.873   5.914   5.881
 5543SOL     OW17527   1.764   5.376   6.515
 5543SOL    HW117528   1.804   5.293   6.478
 5543SOL    HW217529   1.724   5.430   6.441
 5544SOL     OW17530   5.516   5.543   5.816
 5544SOL    HW117531   5.605   5.529   5.859
 5544SOL    HW217532   5.506   5.639   5.790
 5545SOL     OW17533   5.044   1.081   2.449
 5545SOL    HW117534   5.059   0.994   2.402
 5545SOL    HW217535   5.013   1.149   2.382
 5546SOL     OW17536   1.117   6.389   3.937
 5546SOL    HW117537   1.093   6.295   3.913
 5546SOL    HW217538   1.200   6.416   3.887
 5547SOL     OW17539   3.951   0.862   4.986
 5547SOL    HW117540   3.905   0.881   5.073
 5547SOL    HW217541   4.040   0.907   4.985
 5548SOL     OW17542   6.362   4.003   5.677
 5548SOL    HW117543   6.460   4.022   5.668
 5548SOL    HW217544   6.328   3.964   5.592
 5549SOL     OW17545   3.701   4.394   1.215
 5549SOL    HW117546   3.748   4.328   1.275
 5549SOL    HW217547   3.710   4.365   1.120
 5550SOL     OW17548   2.429   4.534   2.037
 5550SOL    HW117549   2.412   4.447   2.083
 5550SOL    HW217550   2.493   4.521   1.962
 5551SOL     OW17551   1.413   6.485   2.604
 5551SOL    HW117552   1.381   6.556   2.541
 5551SOL    HW217553   1.513   6.481   2.602
 5552SOL     OW17554   6.253   0.739   6.739
 5552SOL    HW117555   6.183   0.801   6.702
 5552SOL    HW217556   6.255   0.747   6.838
 5553SOL     OW17557   4.832   6.536   6.359
 5553SOL    HW117558   4.878   6.566   6.275
 5553SOL    HW217559   4.776   6.610   6.395
 5554SOL     OW17560   4.949   2.140   0.543
 5554SOL    HW117561   4.967   2.147   0.445
 5554SOL    HW217562   4.933   2.231   0.580
 5555SOL     OW17563   1.095   3.796   2.060
 5555SOL    HW117564   1.084   3.734   2.137
 5555SOL    HW217565   1.178   3.851   2.073
 5556SOL     OW17566   6.176   1.354   3.472
 5556SOL    HW117567   6.158   1.450   3.491
 5556SOL    HW217568   6.211   1.344   3.378
 5557SOL     OW17569   4.144   6.147   2.109
 5557SOL    HW117570   4.109   6.058   2.140
 5557SOL    HW217571   4.186   6.137   2.019
 5558SOL     OW17572   3.220   3.678   6.467
 5558SOL    HW117573   3.298   3.616   6.475
 5558SOL    HW217574   3.153   3.638   6.405
 5559SOL     OW17575   2.021   0.488   2.041
 5559SOL    HW117576   2.058   0.578   2.063
 5559SOL    HW217577   1.962   0.457   2.116
 5560SOL     OW17578   0.133   5.377   1.178
 5560SOL    HW117579   0.156   5.436   1.255
 5560SOL    HW217580   0.064   5.423   1.121
 5561SOL     OW17581   2.221   0.864   4.248
 5561SOL    HW117582   2.222   0.900   4.342
 5561SOL    HW217583   2.133   0.821   4.230
 5562SOL     OW17584   3.953   2.858   6.852
 5562SOL    HW117585   3.951   2.886   6.756
 5562SOL    HW217586   4.038   2.889   6.895
 5563SOL     OW17587   2.959   4.862   2.977
 5563SOL    HW117588   3.002   4.845   3.066
 5563SOL    HW217589   3.030   4.881   2.910
 5564SOL     OW17590   4.808   0.163   0.663
 5564SOL    HW117591   4.828   0.131   0.571
 5564SOL    HW217592   4.742   0.238   0.660
 5565SOL     OW17593   3.849   2.315   6.041
 5565SOL    HW117594   3.751   2.303   6.051
 5565SOL    HW217595   3.868   2.402   5.995
 5566SOL     OW17596   1.414   4.722   6.871
 5566SOL    HW117597   1.467   4.723   6.786
 5566SOL    HW217598   1.345   4.794   6.868
 5567SOL     OW17599   6.917   3.234   0.924
 5567SOL    HW117600   6.849   3.303   0.900
 5567SOL    HW217601   6.875   3.143   0.919
 5568SOL     OW17602   5.324   1.018   3.310
 5568SOL    HW117603   5.310   0.919   3.319
 5568SOL    HW217604   5.239   1.060   3.278
 5569SOL     OW17605   2.227   1.851   2.546
 5569SOL    HW117606   2.248   1.936   2.595
 5569SOL    HW217607   2.159   1.869   2.475
 5570SOL     OW17608   6.597   4.080   4.398
 5570SOL    HW117609   6.628   4.061   4.305
 5570SOL    HW217610   6.641   4.015   4.461
 5571SOL     OW17611   5.928   5.986   1.276
 5571SOL    HW117612   5.993   6.043   1.226
 5571SOL    HW217613   5.886   6.040   1.349
 5572SOL     OW17614   1.074   3.753   4.812
 5572SOL    HW117615   1.087   3.727   4.716
 5572SOL    HW217616   1.132   3.696   4.870
 5573SOL     OW17617   1.648   5.714   4.915
 5573SOL    HW117618   1.669   5.666   4.830
 5573SOL    HW217619   1.697   5.801   4.918
 5574SOL     OW17620   7.012   1.999   2.183
 5574SOL    HW117621   6.981   1.969   2.093
 5574SOL    HW217622   0.012   2.096   2.181
 5575SOL     OW17623   6.804   1.410   1.028
 5575SOL    HW117624   6.845   1.409   1.119
 5575SOL    HW217625   6.734   1.482   1.025
 5576SOL     OW17626   0.918   4.958   1.562
 5576SOL    HW117627   0.867   4.943   1.647
 5576SOL    HW217628   0.964   4.874   1.536
 5577SOL     OW17629   2.906   2.847   0.098
 5577SOL    HW117630   2.866   2.755   0.103
 5577SOL    HW217631   3.002   2.844   0.123
 5578SOL     OW17632   3.531   3.630   1.638
 5578SOL    HW117633   3.546   3.624   1.736
 5578SOL    HW217634   3.584   3.560   1.591
 5579SOL     OW17635   0.412   3.552   0.425
 5579SOL    HW117636   0.401   3.600   0.338
 5579SOL    HW217637   0.388   3.456   0.414
 5580SOL     OW17638   4.818   2.578   5.453
 5580SOL    HW117639   4.905   2.626   5.465
 5580SOL    HW217640   4.791   2.582   5.357
 5581SOL     OW17641   2.268   0.357   1.892
 5581SOL    HW117642   2.175   0.391   1.874
 5581SOL    HW217643   2.264   0.277   1.950
 5582SOL     OW17644   3.441   3.525   6.488
 5582SOL    HW117645   3.504   3.598   6.515
 5582SOL    HW217646   3.492   3.452   6.443
 5583SOL     OW17647   4.811   1.134   2.783
 5583SOL    HW117648   4.907   1.145   2.757
 5583SOL    HW217649   4.780   1.214   2.834
 5584SOL     OW17650   6.707   4.691   4.491
 5584SOL    HW117651   6.654   4.697   4.406
 5584SOL    HW217652   6.785   4.630   4.477
 5585SOL     OW17653   5.699   5.664   3.240
 5585SOL    HW117654   5.627   5.729   3.218
 5585SOL    HW217655   5.774   5.711   3.286
 5586SOL     OW17656   0.328   2.966   5.865
 5586SOL    HW117657   0.368   3.024   5.794
 5586SOL    HW217658   0.229   2.962   5.852
 5587SOL     OW17659   4.239   6.268   0.612
 5587SOL    HW117660   4.214   6.173   0.592
 5587SOL    HW217661   4.160   6.327   0.598
 5588SOL     OW17662   2.105   5.318   2.985
 5588SOL    HW117663   2.137   5.295   3.077
 5588SOL    HW217664   2.150   5.402   2.954
 5589SOL     OW17665   6.548   3.563   5.546
 5589SOL    HW117666   6.479   3.570   5.474
 5589SOL    HW217667   6.612   3.490   5.524
 5590SOL     OW17668   0.129   6.275   3.507
 5590SOL    HW117669   0.158   6.180   3.517
 5590SOL    HW217670   0.205   6.330   3.472
 5591SOL     OW17671   5.856   1.711   1.581
 5591SOL    HW117672   5.942   1.677   1.543
 5591SOL    HW217673   5.869   1.803   1.618
 5592SOL     OW17674   1.850   5.851   2.526
 5592SOL    HW117675   1.937   5.858   2.476
 5592SOL    HW217676   1.809   5.761   2.508
 5593SOL     OW17677   0.909   2.815   0.547
 5593SOL    HW117678   0.923   2.717   0.563
 5593SOL    HW217679   0.811   2.833   0.536
 5594SOL     OW17680   4.735   1.045   6.417
 5594SOL    HW117681   4.681   0.971   6.379
 5594SOL    HW217682   4.758   1.024   6.512
 5595SOL     OW17683   0.128   1.132   4.686
 5595SOL    HW117684   0.147   1.077   4.604
 5595SOL    HW217685   0.055   1.089   4.739
 5596SOL     OW17686   4.570   0.858   2.416
 5596SOL    HW117687   4.551   0.856   2.514
 5596SOL    HW217688   4.617   0.943   2.392
 5597SOL     OW17689   4.839   3.042   4.631
 5597SOL    HW117690   4.918   2.981   4.634
 5597SOL    HW217691   4.777   3.012   4.559
 5598SOL     OW17692   5.244   4.219   4.178
 5598SOL    HW117693   5.209   4.257   4.093
 5598SOL    HW217694   5.342   4.199   4.169
 5599SOL     OW17695   0.880   2.041   2.645
 5599SOL    HW117696   0.877   1.974   2.719
 5599SOL    HW217697   0.909   1.996   2.561
 5600SOL     OW17698   1.011   1.490   1.702
 5600SOL    HW117699   0.921   1.448   1.695
 5600SOL    HW217700   1.078   1.421   1.731
 5601SOL     OW17701   2.012   0.417   6.238
 5601SOL    HW117702   2.035   0.386   6.330
 5601SOL    HW217703   2.068   0.496   6.215
 5602SOL     OW17704   0.271   1.602   0.972
 5602SOL    HW117705   0.315   1.657   0.901
 5602SOL    HW217706   0.258   1.658   1.054
 5603SOL     OW17707   5.699   2.792   0.453
 5603SOL    HW117708   5.710   2.846   0.370
 5603SOL    HW217709   5.619   2.732   0.443
 5604SOL     OW17710   6.483   2.160   4.877
 5604SOL    HW117711   6.500   2.065   4.905
 5604SOL    HW217712   6.456   2.162   4.781
 5605SOL     OW17713   0.163   1.555   5.381
 5605SOL    HW117714   0.126   1.615   5.310
 5605SOL    HW217715   0.098   1.549   5.457
 5606SOL     OW17716   4.845   6.523   0.569
 5606SOL    HW117717   4.793   6.521   0.483
 5606SOL    HW217718   4.937   6.557   0.551
 5607SOL     OW17719   5.262   1.262   2.567
 5607SOL    HW117720   5.211   1.177   2.579
 5607SOL    HW217721   5.215   1.321   2.502
 5608SOL     OW17722   5.462   0.003   4.224
 5608SOL    HW117723   5.518   6.983   4.295
 5608SOL    HW217724   5.460   6.968   4.143
 5609SOL     OW17725   3.177   5.932   0.952
 5609SOL    HW117726   3.083   5.906   0.928
 5609SOL    HW217727   3.229   5.952   0.869
 5610SOL     OW17728   3.886   5.839   0.332
 5610SOL    HW117729   3.815   5.771   0.353
 5610SOL    HW217730   3.866   5.924   0.379
 5611SOL     OW17731   1.333   6.275   2.821
 5611SOL    HW117732   1.246   6.226   2.823
 5611SOL    HW217733   1.316   6.373   2.828
 5612SOL     OW17734   3.795   2.183   6.372
 5612SOL    HW117735   3.752   2.165   6.284
 5612SOL    HW217736   3.809   2.281   6.383
 5613SOL     OW17737   6.187   4.467   3.173
 5613SOL    HW117738   6.103   4.494   3.219
 5613SOL    HW217739   6.189   4.367   3.163
 5614SOL     OW17740   4.455   2.095   4.444
 5614SOL    HW117741   4.365   2.130   4.417
 5614SOL    HW217742   4.524   2.166   4.431
 5615SOL     OW17743   6.994   1.823   4.168
 5615SOL    HW117744   6.984   1.889   4.094
 5615SOL    HW217745   0.007   1.737   4.131
 5616SOL     OW17746   2.670   1.625   5.204
 5616SOL    HW117747   2.661   1.712   5.155
 5616SOL    HW217748   2.614   1.627   5.287
 5617SOL     OW17749   2.743   6.483   5.846
 5617SOL    HW117750   2.675   6.426   5.800
 5617SOL    HW217751   2.745   6.573   5.804
 5618SOL     OW17752   0.075   4.809   3.830
 5618SOL    HW117753   7.003   4.781   3.844
 5618SOL    HW217754   0.088   4.903   3.861
 5619SOL     OW17755   3.141   3.921   5.373
 5619SOL    HW117756   3.051   3.910   5.331
 5619SOL    HW217757   3.187   3.832   5.375
 5620SOL     OW17758   4.356   3.747   0.892
 5620SOL    HW117759   4.422   3.672   0.882
 5620SOL    HW217760   4.395   3.817   0.953
 5621SOL     OW17761   2.183   2.241   0.121
 5621SOL    HW117762   2.187   2.339   0.136
 5621SOL    HW217763   2.240   2.194   0.189
 5622SOL     OW17764   4.340   0.301   6.134
 5622SOL    HW117765   4.255   0.325   6.088
 5622SOL    HW217766   4.322   0.231   6.204
 5623SOL     OW17767   3.038   5.501   5.137
 5623SOL    HW117768   3.003   5.411   5.163
 5623SOL    HW217769   2.972   5.571   5.162
 5624SOL     OW17770   1.169   4.332   3.848
 5624SOL    HW117771   1.259   4.288   3.840
 5624SOL    HW217772   1.097   4.265   3.829
 5625SOL     OW17773   6.248   1.015   5.115
 5625SOL    HW117774   6.255   0.998   5.017
 5625SOL    HW217775   6.327   1.068   5.146
 5626SOL     OW17776   2.650   6.094   4.134
 5626SOL    HW117777   2.646   6.174   4.194
 5626SOL    HW217778   2.574   6.097   4.070
 5627SOL     OW17779   0.841   5.655   6.311
 5627SOL    HW117780   0.823   5.573   6.256
 5627SOL    HW217781   0.869   5.729   6.251
 5628SOL     OW17782   1.266   2.387   0.380
 5628SOL    HW117783   1.219   2.348   0.459
 5628SOL    HW217784   1.290   2.482   0.398
 5629SOL     OW17785   3.724   4.065   3.113
 5629SOL    HW117786   3.721   4.062   3.013
 5629SOL    HW217787   3.800   4.123   3.142
 5630SOL     OW17788   1.685   3.876   0.168
 5630SOL    HW117789   1.682   3.964   0.216
 5630SOL    HW217790   1.599   3.827   0.183
 5631SOL     OW17791   4.505   1.919   0.900
 5631SOL    HW117792   4.579   1.959   0.846
 5631SOL    HW217793   4.435   1.988   0.917
 5632SOL     OW17794   2.704   2.440   6.188
 5632SOL    HW117795   2.757   2.433   6.272
 5632SOL    HW217796   2.735   2.518   6.134
 5633SOL     OW17797   6.020   3.979   3.967
 5633SOL    HW117798   5.958   3.924   3.912
 5633SOL    HW217799   5.970   4.019   4.044
 5634SOL     OW17800   2.122   4.655   4.070
 5634SOL    HW117801   2.187   4.635   4.143
 5634SOL    HW217802   2.089   4.749   4.080
 5635SOL     OW17803   2.198   4.341   5.311
 5635SOL    HW117804   2.129   4.329   5.382
 5635SOL    HW217805   2.278   4.285   5.333
 5636SOL     OW17806   4.456   6.269   4.187
 5636SOL    HW117807   4.540   6.302   4.145
 5636SOL    HW217808   4.467   6.265   4.286
 5637SOL     OW17809   5.332   0.090   3.570
 5637SOL    HW117810   5.375   0.093   3.480
 5637SOL    HW217811   5.279   0.006   3.579
 5638SOL     OW17812   6.128   3.733   1.298
 5638SOL    HW117813   6.199   3.796   1.330
 5638SOL    HW217814   6.050   3.785   1.263
 5639SOL     OW17815   0.507   1.243   1.985
 5639SOL    HW117816   0.589   1.294   1.957
 5639SOL    HW217817   0.437   1.253   1.915
 5640SOL     OW17818   3.181   0.685   3.599
 5640SOL    HW117819   3.154   0.726   3.686
 5640SOL    HW217820   3.180   0.756   3.528
 5641SOL     OW17821   1.079   5.027   5.111
 5641SOL    HW117822   1.060   5.072   5.198
 5641SOL    HW217823   1.011   4.954   5.095
 5642SOL     OW17824   1.572   6.614   5.599
 5642SOL    HW117825   1.483   6.577   5.572
 5642SOL    HW217826   1.640   6.589   5.530
 5643SOL     OW17827   4.493   1.281   5.669
 5643SOL    HW117828   4.537   1.369   5.690
 5643SOL    HW217829   4.414   1.297   5.610
 5644SOL     OW17830   3.502   0.311   5.114
 5644SOL    HW117831   3.555   0.386   5.076
 5644SOL    HW217832   3.417   0.348   5.153
 5645SOL     OW17833   6.315   4.685   3.940
 5645SOL    HW117834   6.368   4.666   3.857
 5645SOL    HW217835   6.223   4.649   3.930
 5646SOL     OW17836   1.662   5.454   3.351
 5646SOL    HW117837   1.706   5.393   3.285
 5646SOL    HW217838   1.666   5.548   3.317
 5647SOL     OW17839   4.809   6.021   1.879
 5647SOL    HW117840   4.729   6.038   1.822
 5647SOL    HW217841   4.863   5.947   1.839
 5648SOL     OW17842   2.356   5.905   2.465
 5648SOL    HW117843   2.404   5.827   2.504
 5648SOL    HW217844   2.413   5.947   2.394
 5649SOL     OW17845   1.063   6.750   4.263
 5649SOL    HW117846   1.132   6.761   4.334
 5649SOL    HW217847   1.071   6.659   4.223
 5650SOL     OW17848   1.035   5.449   1.280
 5650SOL    HW117849   1.004   5.355   1.272
 5650SOL    HW217850   1.083   5.476   1.197
 5651SOL     OW17851   1.696   1.569   1.218
 5651SOL    HW117852   1.652   1.506   1.283
 5651SOL    HW217853   1.776   1.525   1.177
 5652SOL     OW17854   6.218   6.357   0.920
 5652SOL    HW117855   6.263   6.314   0.842
 5652SOL    HW217856   6.286   6.383   0.988
 5653SOL     OW17857   6.322   6.711   6.428
 5653SOL    HW117858   6.313   6.808   6.405
 5653SOL    HW217859   6.339   6.702   6.527
 5654SOL     OW17860   0.827   6.381   4.514
 5654SOL    HW117861   0.774   6.350   4.435
 5654SOL    HW217862   0.766   6.395   4.592
 5655SOL     OW17863   0.384   2.691   3.852
 5655SOL    HW117864   0.465   2.684   3.794
 5655SOL    HW217865   0.313   2.629   3.818
 5656SOL     OW17866   6.616   3.992   6.601
 5656SOL    HW117867   6.712   3.988   6.630
 5656SOL    HW217868   6.557   4.004   6.681
 5657SOL     OW17869   5.925   3.317   6.011
 5657SOL    HW117870   6.006   3.266   6.041
 5657SOL    HW217871   5.863   3.255   5.962
 5658SOL     OW17872   2.881   3.160   6.155
 5658SOL    HW117873   2.810   3.124   6.215
 5658SOL    HW217874   2.866   3.257   6.139
 5659SOL     OW17875   3.501   3.315   6.297
 5659SOL    HW117876   3.404   3.317   6.273
 5659SOL    HW217877   3.539   3.225   6.278
 5660SOL     OW17878   4.636   6.866   5.819
 5660SOL    HW117879   4.684   6.850   5.905
 5660SOL    HW217880   4.546   6.823   5.822
 5661SOL     OW17881   1.957   6.294   4.811
 5661SOL    HW117882   1.865   6.293   4.772
 5661SOL    HW217883   1.987   6.200   4.829
 5662SOL     OW17884   2.942   6.883   3.139
 5662SOL    HW117885   2.960   6.947   3.214
 5662SOL    HW217886   2.932   6.790   3.175
 5663SOL     OW17887   2.587   2.458   0.779
 5663SOL    HW117888   2.559   2.451   0.875
 5663SOL    HW217889   2.629   2.548   0.764
 5664SOL     OW17890   6.974   3.704   4.227
 5664SOL    HW117891   7.010   3.782   4.278
 5664SOL    HW217892   6.878   3.690   4.250
 5665SOL     OW17893   1.231   0.603   0.664
 5665SOL    HW117894   1.279   0.529   0.711
 5665SOL    HW217895   1.276   0.622   0.577
 5666SOL     OW17896   6.726   6.968   3.499
 5666SOL    HW117897   6.750   6.871   3.489
 5666SOL    HW217898   6.809   7.023   3.500
 5667SOL     OW17899   1.430   4.969   4.774
 5667SOL    HW117900   1.429   5.021   4.688
 5667SOL    HW217901   1.387   5.024   4.846
 5668SOL     OW17902   5.724   3.474   3.315
 5668SOL    HW117903   5.664   3.501   3.241
 5668SOL    HW217904   5.771   3.555   3.350
 5669SOL     OW17905   6.329   3.930   0.707
 5669SOL    HW117906   6.428   3.932   0.725
 5669SOL    HW217907   6.285   3.870   0.774
 5670SOL     OW17908   1.556   3.780   3.922
 5670SOL    HW117909   1.533   3.702   3.864
 5670SOL    HW217910   1.596   3.853   3.866
 5671SOL     OW17911   5.884   6.533   5.434
 5671SOL    HW117912   5.871   6.626   5.471
 5671SOL    HW217913   5.806   6.508   5.378
 5672SOL     OW17914   4.884   3.941   6.276
 5672SOL    HW117915   4.961   3.997   6.306
 5672SOL    HW217916   4.916   3.849   6.253
 5673SOL     OW17917   2.058   6.230   1.434
 5673SOL    HW117918   2.123   6.156   1.416
 5673SOL    HW217919   2.108   6.317   1.438
 5674SOL     OW17920   1.304   4.563   4.799
 5674SOL    HW117921   1.377   4.615   4.844
 5674SOL    HW217922   1.259   4.504   4.866
 5675SOL     OW17923   4.445   2.786   6.537
 5675SOL    HW117924   4.537   2.755   6.560
 5675SOL    HW217925   4.433   2.785   6.438
 5676SOL     OW17926   2.312   2.042   3.107
 5676SOL    HW117927   2.299   2.027   3.009
 5676SOL    HW217928   2.267   2.128   3.133
 5677SOL     OW17929   0.936   0.805   0.966
 5677SOL    HW117930   0.987   0.749   0.901
 5677SOL    HW217931   0.994   0.828   1.044
 5678SOL     OW17932   3.996   0.320   3.084
 5678SOL    HW117933   3.998   0.228   3.124
 5678SOL    HW217934   4.035   0.317   2.992
 5679SOL     OW17935   5.718   1.112   4.058
 5679SOL    HW117936   5.635   1.109   4.003
 5679SOL    HW217937   5.702   1.063   4.144
 5680SOL     OW17938   1.517   4.876   6.423
 5680SOL    HW117939   1.521   4.871   6.323
 5680SOL    HW217940   1.535   4.970   6.452
 5681SOL     OW17941   0.668   3.629   1.883
 5681SOL    HW117942   0.668   3.727   1.903
 5681SOL    HW217943   0.597   3.584   1.937
 5682SOL     OW17944   2.312   5.057   4.273
 5682SOL    HW117945   2.390   4.996   4.279
 5682SOL    HW217946   2.252   5.044   4.352
 5683SOL     OW17947   3.674   1.852   6.415
 5683SOL    HW117948   3.754   1.794   6.404
 5683SOL    HW217949   3.591   1.800   6.394
 5684SOL     OW17950   2.339   3.511   5.986
 5684SOL    HW117951   2.424   3.523   5.934
 5684SOL    HW217952   2.323   3.414   6.002
 5685SOL     OW17953   2.684   1.809   3.400
 5685SOL    HW117954   2.608   1.769   3.452
 5685SOL    HW217955   2.767   1.756   3.418
 5686SOL     OW17956   3.363   1.565   5.126
 5686SOL    HW117957   3.459   1.534   5.126
 5686SOL    HW217958   3.326   1.557   5.033
 5687SOL     OW17959   0.590   5.685   5.919
 5687SOL    HW117960   0.570   5.782   5.932
 5687SOL    HW217961   0.675   5.662   5.965
 5688SOL     OW17962   1.516   2.454   2.963
 5688SOL    HW117963   1.456   2.471   3.041
 5688SOL    HW217964   1.534   2.540   2.915
 5689SOL     OW17965   2.522   1.252   2.295
 5689SOL    HW117966   2.496   1.346   2.272
 5689SOL    HW217967   2.606   1.253   2.348
 5690SOL     OW17968   1.250   5.918   0.117
 5690SOL    HW117969   1.207   5.951   0.034
 5690SOL    HW217970   1.180   5.899   0.186
 5691SOL     OW17971   3.633   0.898   2.263
 5691SOL    HW117972   3.714   0.957   2.256
 5691SOL    HW217973   3.662   0.802   2.258
 5692SOL     OW17974   5.532   4.328   0.554
 5692SOL    HW117975   5.559   4.234   0.535
 5692SOL    HW217976   5.440   4.329   0.592
 5693SOL     OW17977   4.480   1.307   1.879
 5693SOL    HW117978   4.416   1.360   1.823
 5693SOL    HW217979   4.526   1.239   1.821
 5694SOL     OW17980   0.982   0.804   2.678
 5694SOL    HW117981   0.957   0.708   2.688
 5694SOL    HW217982   1.002   0.842   2.769
 5695SOL     OW17983   2.034   1.410   3.270
 5695SOL    HW117984   2.124   1.454   3.271
 5695SOL    HW217985   1.964   1.479   3.249
 5696SOL     OW17986   0.537   6.580   4.376
 5696SOL    HW117987   0.542   6.505   4.442
 5696SOL    HW217988   0.620   6.636   4.383
 5697SOL     OW17989   5.591   2.223   2.303
 5697SOL    HW117990   5.671   2.187   2.255
 5697SOL    HW217991   5.520   2.247   2.237
 5698SOL     OW17992   1.790   4.551   3.964
 5698SOL    HW117993   1.783   4.643   4.002
 5698SOL    HW217994   1.835   4.556   3.874
 5699SOL     OW17995   1.309   2.211   2.698
 5699SOL    HW117996   1.210   2.193   2.696
 5699SOL    HW217997   1.330   2.281   2.630
 5700SOL     OW17998   6.334   6.697   3.978
 5700SOL    HW117999   6.372   6.761   4.045
 5700SOL    HW218000   6.311   6.611   4.024
 5701SOL     OW18001   0.498   0.317   1.366
 5701SOL    HW118002   0.436   0.365   1.304
 5701SOL    HW218003   0.445   0.252   1.421
 5702SOL     OW18004   2.255   6.133   4.173
 5702SOL    HW118005   2.334   6.148   4.114
 5702SOL    HW218006   2.178   6.101   4.118
 5703SOL     OW18007   6.890   4.252   0.006
 5703SOL    HW118008   6.899   4.309   6.947
 5703SOL    HW218009   6.838   4.170   7.008
 5704SOL     OW18010   5.057   4.211   3.517
 5704SOL    HW118011   4.963   4.205   3.482
 5704SOL    HW218012   5.065   4.156   3.600
 5705SOL     OW18013   4.711   6.016   6.723
 5705SOL    HW118014   4.800   6.048   6.754
 5705SOL    HW218015   4.708   6.017   6.623
 5706SOL     OW18016   5.290   2.808   2.148
 5706SOL    HW118017   5.228   2.886   2.160
 5706SOL    HW218018   5.353   2.803   2.226
 5707SOL     OW18019   6.352   0.106   0.802
 5707SOL    HW118020   6.309   0.070   0.719
 5707SOL    HW218021   6.310   0.193   0.826
 5708SOL     OW18022   4.841   5.691   2.030
 5708SOL    HW118023   4.791   5.756   2.087
 5708SOL    HW218024   4.916   5.739   1.983
 5709SOL     OW18025   0.510   1.404   2.562
 5709SOL    HW118026   0.543   1.330   2.620
 5709SOL    HW218027   0.580   1.475   2.556
 5710SOL     OW18028   3.539   1.971   0.438
 5710SOL    HW118029   3.560   1.892   0.496
 5710SOL    HW218030   3.624   2.013   0.406
 5711SOL     OW18031   4.907   1.106   1.739
 5711SOL    HW118032   4.945   1.083   1.828
 5711SOL    HW218033   4.979   1.101   1.669
 5712SOL     OW18034   6.065   6.718   0.082
 5712SOL    HW118035   6.161   6.701   0.106
 5712SOL    HW218036   6.006   6.665   0.141
 5713SOL     OW18037   2.843   3.790   1.754
 5713SOL    HW118038   2.749   3.812   1.726
 5713SOL    HW218039   2.871   3.704   1.711
 5714SOL     OW18040   6.834   6.388   1.202
 5714SOL    HW118041   6.811   6.474   1.156
 5714SOL    HW218042   6.840   6.315   1.134
 5715SOL     OW18043   0.101   0.018   2.712
 5715SOL    HW118044   0.059   6.984   2.782
 5715SOL    HW218045   0.200   0.003   2.711
 5716SOL     OW18046   1.269   5.906   5.719
 5716SOL    HW118047   1.343   5.866   5.665
 5716SOL    HW218048   1.208   5.833   5.751
 5717SOL     OW18049   1.440   5.124   0.862
 5717SOL    HW118050   1.540   5.123   0.859
 5717SOL    HW218051   1.404   5.076   0.782
 5718SOL     OW18052   1.267   3.848   0.943
 5718SOL    HW118053   1.255   3.754   0.912
 5718SOL    HW218054   1.295   3.906   0.866
 5719SOL     OW18055   2.679   3.667   0.221
 5719SOL    HW118056   2.617   3.745   0.229
 5719SOL    HW218057   2.750   3.674   0.291
 5720SOL     OW18058   1.169   6.773   4.696
 5720SOL    HW118059   1.209   6.864   4.706
 5720SOL    HW218060   1.188   6.719   4.779
 5721SOL     OW18061   6.165   4.383   0.666
 5721SOL    HW118062   6.077   4.339   0.687
 5721SOL    HW218063   6.154   4.446   0.589
 5722SOL     OW18064   6.512   2.264   5.112
 5722SOL    HW118065   6.597   2.316   5.103
 5722SOL    HW218066   6.502   2.202   5.035
 5723SOL     OW18067   4.279   3.839   0.414
 5723SOL    HW118068   4.264   3.862   0.510
 5723SOL    HW218069   4.203   3.875   0.359
 5724SOL     OW18070   6.035   2.944   4.281
 5724SOL    HW118071   5.940   2.919   4.301
 5724SOL    HW218072   6.065   2.900   4.197
 5725SOL     OW18073   6.319   4.940   4.022
 5725SOL    HW118074   6.317   4.841   4.007
 5725SOL    HW218075   6.317   4.987   3.934
 5726SOL     OW18076   0.119   5.606   4.064
 5726SOL    HW118077   0.090   5.573   4.154
 5726SOL    HW218078   0.052   5.579   3.995
 5727SOL     OW18079   5.908   2.759   4.539
 5727SOL    HW118080   5.919   2.850   4.579
 5727SOL    HW218081   5.965   2.694   4.590
 5728SOL     OW18082   5.133   6.501   5.551
 5728SOL    HW118083   5.185   6.580   5.582
 5728SOL    HW218084   5.048   6.532   5.508
 5729SOL     OW18085   1.645   1.332   6.552
 5729SOL    HW118086   1.662   1.377   6.464
 5729SOL    HW218087   1.654   1.399   6.626
 5730SOL     OW18088   5.869   4.883   6.055
 5730SOL    HW118089   5.886   4.880   6.154
 5730SOL    HW218090   5.778   4.845   6.036
 5731SOL     OW18091   6.761   0.387   2.823
 5731SOL    HW118092   6.766   0.393   2.923
 5731SOL    HW218093   6.851   0.363   2.787
 5732SOL     OW18094   0.512   6.070   3.792
 5732SOL    HW118095   0.415   6.048   3.782
 5732SOL    HW218096   0.560   6.052   3.706
 5733SOL     OW18097   3.369   6.432   5.054
 5733SOL    HW118098   3.465   6.451   5.069
 5733SOL    HW218099   3.356   6.394   4.962
 5734SOL     OW18100   1.321   0.583   5.563
 5734SOL    HW118101   1.343   0.519   5.489
 5734SOL    HW218102   1.284   0.533   5.641
 5735SOL     OW18103   3.918   1.496   0.716
 5735SOL    HW118104   3.894   1.593   0.710
 5735SOL    HW218105   3.987   1.482   0.787
 5736SOL     OW18106   6.476   4.301   0.137
 5736SOL    HW118107   6.558   4.252   0.166
 5736SOL    HW218108   6.396   4.262   0.184
 5737SOL     OW18109   5.386   6.157   0.606
 5737SOL    HW118110   5.373   6.234   0.669
 5737SOL    HW218111   5.463   6.101   0.637
 5738SOL     OW18112   2.199   2.915   6.083
 5738SOL    HW118113   2.217   2.819   6.104
 5738SOL    HW218114   2.176   2.924   5.986
 5739SOL     OW18115   1.768   1.310   6.255
 5739SOL    HW118116   1.851   1.260   6.230
 5739SOL    HW218117   1.774   1.404   6.221
 5740SOL     OW18118   4.146   4.979   0.811
 5740SOL    HW118119   4.153   4.890   0.857
 5740SOL    HW218120   4.115   4.966   0.717
 5741SOL     OW18121   0.261   5.332   4.285
 5741SOL    HW118122   0.354   5.296   4.273
 5741SOL    HW218123   0.207   5.269   4.340
 5742SOL     OW18124   5.157   6.472   2.857
 5742SOL    HW118125   5.242   6.423   2.836
 5742SOL    HW218126   5.106   6.423   2.927
 5743SOL     OW18127   2.318   6.584   5.269
 5743SOL    HW118128   2.341   6.549   5.179
 5743SOL    HW218129   2.401   6.615   5.316
 5744SOL     OW18130   4.773   0.400   1.319
 5744SOL    HW118131   4.834   0.336   1.367
 5744SOL    HW218132   4.678   0.383   1.346
 5745SOL     OW18133   4.017   1.535   4.398
 5745SOL    HW118134   4.000   1.445   4.359
 5745SOL    HW218135   4.112   1.561   4.380
 5746SOL     OW18136   4.599   0.854   0.864
 5746SOL    HW118137   4.634   0.916   0.794
 5746SOL    HW218138   4.621   0.890   0.955
 5747SOL     OW18139   0.200   5.326   2.841
 5747SOL    HW118140   0.249   5.242   2.865
 5747SOL    HW218141   0.265   5.394   2.809
 5748SOL     OW18142   1.708   4.750   1.107
 5748SOL    HW118143   1.746   4.692   1.036
 5748SOL    HW218144   1.609   4.759   1.094
 5749SOL     OW18145   2.995   0.539   4.387
 5749SOL    HW118146   3.005   0.637   4.406
 5749SOL    HW218147   3.031   0.486   4.463
 5750SOL     OW18148   5.766   5.141   4.896
 5750SOL    HW118149   5.858   5.143   4.857
 5750SOL    HW218150   5.702   5.184   4.832
 5751SOL     OW18151   2.538   2.515   4.523
 5751SOL    HW118152   2.463   2.576   4.546
 5751SOL    HW218153   2.559   2.457   4.601
 5752SOL     OW18154   5.870   1.413   6.379
 5752SOL    HW118155   5.883   1.314   6.382
 5752SOL    HW218156   5.776   1.433   6.353
 5753SOL     OW18157   3.396   3.892   6.345
 5753SOL    HW118158   3.312   3.846   6.376
 5753SOL    HW218159   3.389   3.909   6.247
 5754SOL     OW18160   5.549   6.039   1.417
 5754SOL    HW118161   5.605   6.120   1.432
 5754SOL    HW218162   5.537   5.990   1.503
 5755SOL     OW18163   3.284   3.703   5.601
 5755SOL    HW118164   3.298   3.614   5.644
 5755SOL    HW218165   3.273   3.691   5.502
 5756SOL     OW18166   7.008   5.378   3.623
 5756SOL    HW118167   0.005   5.289   3.583
 5756SOL    HW218168   0.051   5.445   3.589
 5757SOL     OW18169   6.497   6.320   2.324
 5757SOL    HW118170   6.481   6.415   2.352
 5757SOL    HW218171   6.589   6.293   2.351
 5758SOL     OW18172   2.592   1.882   4.044
 5758SOL    HW118173   2.588   1.789   4.081
 5758SOL    HW218174   2.502   1.910   4.012
 5759SOL     OW18175   4.682   2.114   6.897
 5759SOL    HW118176   4.724   2.025   6.912
 5759SOL    HW218177   4.601   2.123   6.955
 5760SOL     OW18178   1.823   6.507   1.998
 5760SOL    HW118179   1.914   6.543   2.018
 5760SOL    HW218180   1.764   6.582   1.967
 5761SOL     OW18181   5.885   0.722   5.432
 5761SOL    HW118182   5.826   0.795   5.466
 5761SOL    HW218183   5.958   0.762   5.376
 5762SOL     OW18184   4.905   0.112   0.366
 5762SOL    HW118185   4.818   0.071   0.338
 5762SOL    HW218186   4.960   0.132   0.285
 5763SOL     OW18187   0.851   6.964   0.279
 5763SOL    HW118188   0.761   6.976   0.237
 5763SOL    HW218189   0.915   6.926   0.212
 5764SOL     OW18190   5.585   4.874   6.050
 5764SOL    HW118191   5.579   4.946   5.980
 5764SOL    HW218192   5.493   4.838   6.067
 5765SOL     OW18193   6.441   4.802   6.474
 5765SOL    HW118194   6.407   4.737   6.543
 5765SOL    HW218195   6.410   4.773   6.383
 5766SOL     OW18196   2.706   1.271   1.801
 5766SOL    HW118197   2.613   1.299   1.824
 5766SOL    HW218198   2.725   1.182   1.841
 5767SOL     OW18199   2.247   6.748   0.376
 5767SOL    HW118200   2.322   6.685   0.356
 5767SOL    HW218201   2.170   6.729   0.315
 5768SOL     OW18202   6.870   7.018   3.038
 5768SOL    HW118203   6.850   6.977   2.949
 5768SOL    HW218204   6.799   0.062   3.060
 5769SOL     OW18205   2.570   0.161   3.253
 5769SOL    HW118206   2.546   0.223   3.179
 5769SOL    HW218207   2.608   0.214   3.329
 5770SOL     OW18208   0.088   0.148   0.692
 5770SOL    HW118209   0.066   0.100   0.777
 5770SOL    HW218210   0.003   0.172   0.645
 5771SOL     OW18211   1.661   6.421   1.298
 5771SOL    HW118212   1.574   6.407   1.345
 5771SOL    HW218213   1.697   6.512   1.320
 5772SOL     OW18214   5.738   2.916   0.703
 5772SOL    HW118215   5.834   2.926   0.678
 5772SOL    HW218216   5.690   2.866   0.632
 5773SOL     OW18217   5.856   6.870   3.846
 5773SOL    HW118218   5.955   6.878   3.861
 5773SOL    HW218219   5.833   6.775   3.824
 5774SOL     OW18220   2.398   4.315   3.459
 5774SOL    HW118221   2.407   4.315   3.359
 5774SOL    HW218222   2.485   4.338   3.501
 5775SOL     OW18223   1.631   0.552   1.011
 5775SOL    HW118224   1.712   0.493   1.020
 5775SOL    HW218225   1.655   0.645   1.040
 5776SOL     OW18226   6.574   0.729   6.271
 5776SOL    HW118227   6.550   0.664   6.343
 5776SOL    HW218228   6.673   0.744   6.271
 5777SOL     OW18229   5.915   0.962   4.356
 5777SOL    HW118230   5.964   0.910   4.426
 5777SOL    HW218231   5.856   0.900   4.303
 5778SOL     OW18232   2.477   0.403   2.269
 5778SOL    HW118233   2.554   0.400   2.333
 5778SOL    HW218234   2.506   0.450   2.186
 5779SOL     OW18235   3.689   0.594   0.797
 5779SOL    HW118236   3.623   0.633   0.861
 5779SOL    HW218237   3.782   0.615   0.827
 5780SOL     OW18238   6.506   5.359   1.493
 5780SOL    HW118239   6.548   5.433   1.546
 5780SOL    HW218240   6.470   5.290   1.556
 5781SOL     OW18241   2.228   4.193   4.835
 5781SOL    HW118242   2.272   4.160   4.918
 5781SOL    HW218243   2.196   4.115   4.781
 5782SOL     OW18244   1.615   1.392   1.421
 5782SOL    HW118245   1.574   1.452   1.489
 5782SOL    HW218246   1.672   1.324   1.466
 5783SOL     OW18247   1.743   1.679   0.540
 5783SOL    HW118248   1.775   1.760   0.492
 5783SOL    HW218249   1.661   1.702   0.593
 5784SOL     OW18250   0.679   6.240   0.218
 5784SOL    HW118251   0.694   6.150   0.258
 5784SOL    HW218252   0.597   6.282   0.259
 5785SOL     OW18253   1.211   1.107   1.218
 5785SOL    HW118254   1.216   1.180   1.150
 5785SOL    HW218255   1.234   1.145   1.308
 5786SOL     OW18256   1.484   3.105   1.352
 5786SOL    HW118257   1.524   3.013   1.345
 5786SOL    HW218258   1.414   3.105   1.423
 5787SOL     OW18259   5.674   2.197   4.211
 5787SOL    HW118260   5.705   2.116   4.259
 5787SOL    HW218261   5.749   2.236   4.158
 5788SOL     OW18262   2.954   0.377   1.083
 5788SOL    HW118263   2.856   0.363   1.069
 5788SOL    HW218264   2.987   0.319   1.157
 5789SOL     OW18265   3.914   2.878   6.565
 5789SOL    HW118266   4.007   2.850   6.542
 5789SOL    HW218267   3.859   2.881   6.482
 5790SOL     OW18268   6.564   5.869   4.845
 5790SOL    HW118269   6.552   5.862   4.746
 5790SOL    HW218270   6.660   5.888   4.866
 5791SOL     OW18271   3.140   1.357   2.342
 5791SOL    HW118272   3.098   1.279   2.295
 5791SOL    HW218273   3.114   1.356   2.439
 5792SOL     OW18274   5.238   3.482   3.365
 5792SOL    HW118275   5.247   3.498   3.267
 5792SOL    HW218276   5.288   3.399   3.390
 5793SOL     OW18277   5.858   2.664   5.294
 5793SOL    HW118278   5.808   2.732   5.240
 5793SOL    HW218279   5.793   2.604   5.341
 5794SOL     OW18280   3.224   6.874   6.362
 5794SOL    HW118281   3.230   6.876   6.462
 5794SOL    HW218282   3.131   6.897   6.334
 5795SOL     OW18283   1.016   6.085   1.662
 5795SOL    HW118284   0.973   6.053   1.578
 5795SOL    HW218285   1.012   6.012   1.731
 5796SOL     OW18286   4.738   1.369   6.403
 5796SOL    HW118287   4.809   1.426   6.360
 5796SOL    HW218288   4.682   1.426   6.463
 5797SOL     OW18289   6.011   1.606   0.721
 5797SOL    HW118290   5.940   1.561   0.775
 5797SOL    HW218291   5.996   1.587   0.624
 5798SOL     OW18292   0.516   3.543   4.787
 5798SOL    HW118293   0.450   3.566   4.715
 5798SOL    HW218294   0.555   3.453   4.769
 5799SOL     OW18295   1.127   6.793   2.977
 5799SOL    HW118296   1.085   6.781   3.068
 5799SOL    HW218297   1.203   6.729   2.967
 5800SOL     OW18298   0.555   6.940   0.829
 5800SOL    HW118299   0.544   6.847   0.864
 5800SOL    HW218300   0.643   6.977   0.861
 5801SOL     OW18301   2.309   2.680   2.487
 5801SOL    HW118302   2.404   2.652   2.499
 5801SOL    HW218303   2.290   2.761   2.543
 5802SOL     OW18304   6.441   2.413   3.001
 5802SOL    HW118305   6.350   2.413   3.044
 5802SOL    HW218306   6.482   2.503   3.011
 5803SOL     OW18307   1.469   4.593   4.188
 5803SOL    HW118308   1.493   4.628   4.098
 5803SOL    HW218309   1.496   4.659   4.258
 5804SOL     OW18310   6.365   6.444   3.759
 5804SOL    HW118311   6.351   6.466   3.663
 5804SOL    HW218312   6.419   6.516   3.802
 5805SOL     OW18313   1.694   3.566   1.084
 5805SOL    HW118314   1.633   3.644   1.099
 5805SOL    HW218315   1.650   3.483   1.118
 5806SOL     OW18316   0.631   3.460   3.704
 5806SOL    HW118317   0.584   3.412   3.778
 5806SOL    HW218318   0.574   3.458   3.622
 5807SOL     OW18319   1.274   5.990   1.154
 5807SOL    HW118320   1.366   6.000   1.115
 5807SOL    HW218321   1.267   6.045   1.237
 5808SOL     OW18322   6.466   6.832   4.177
 5808SOL    HW118323   6.535   6.903   4.192
 5808SOL    HW218324   6.435   6.798   4.266
 5809SOL     OW18325   0.699   1.773   5.912
 5809SOL    HW118326   0.638   1.853   5.913
 5809SOL    HW218327   0.766   1.782   5.986
 5810SOL     OW18328   4.432   6.761   5.098
 5810SOL    HW118329   4.397   6.727   5.011
 5810SOL    HW218330   4.402   6.699   5.172
 5811SOL     OW18331   2.837   2.631   5.994
 5811SOL    HW118332   2.795   2.663   5.909
 5811SOL    HW218333   2.873   2.708   6.045
 5812SOL     OW18334   5.937   3.020   0.478
 5812SOL    HW118335   5.867   3.083   0.443
 5812SOL    HW218336   5.903   2.926   0.474
 5813SOL     OW18337   3.707   6.264   1.100
 5813SOL    HW118338   3.775   6.319   1.052
 5813SOL    HW218339   3.677   6.189   1.040
 5814SOL     OW18340   6.642   1.971   2.268
 5814SOL    HW118341   6.578   1.899   2.293
 5814SOL    HW218342   6.672   1.958   2.174
 5815SOL     OW18343   6.222   1.591   3.925
 5815SOL    HW118344   6.128   1.611   3.897
 5815SOL    HW218345   6.282   1.594   3.846
 5816SOL     OW18346   0.429   5.259   2.368
 5816SOL    HW118347   0.522   5.290   2.387
 5816SOL    HW218348   0.406   5.182   2.428
 5817SOL     OW18349   5.477   3.886   5.150
 5817SOL    HW118350   5.400   3.861   5.091
 5817SOL    HW218351   5.483   3.821   5.226
 5818SOL     OW18352   1.067   6.462   4.861
 5818SOL    HW118353   1.004   6.467   4.938
 5818SOL    HW218354   1.032   6.397   4.793
 5819SOL     OW18355   3.006   5.098   0.112
 5819SOL    HW118356   3.104   5.080   0.097
 5819SOL    HW218357   2.996   5.166   0.184
 5820SOL     OW18358   5.536   4.957   2.110
 5820SOL    HW118359   5.458   4.894   2.102
 5820SOL    HW218360   5.506   5.042   2.152
 5821SOL     OW18361   6.937   1.168   1.229
 5821SOL    HW118362   6.991   1.098   1.275
 5821SOL    HW218363   6.859   1.193   1.286
 5822SOL     OW18364   1.485   2.092   2.916
 5822SOL    HW118365   1.413   2.107   2.848
 5822SOL    HW218366   1.567   2.143   2.889
 5823SOL     OW18367   2.472   6.397   4.571
 5823SOL    HW118368   2.388   6.349   4.594
 5823SOL    HW218369   2.454   6.461   4.497
 5824SOL     OW18370   0.706   6.906   2.289
 5824SOL    HW118371   0.686   6.808   2.282
 5824SOL    HW218372   0.743   6.938   2.202
 5825SOL     OW18373   6.783   6.607   4.880
 5825SOL    HW118374   6.762   6.671   4.954
 5825SOL    HW218375   6.838   6.532   4.915
 5826SOL     OW18376   0.084   0.535   5.189
 5826SOL    HW118377   7.022   0.578   5.159
 5826SOL    HW218378   0.141   0.516   5.109
 5827SOL     OW18379   1.453   3.521   5.021
 5827SOL    HW118380   1.422   3.430   4.994
 5827SOL    HW218381   1.381   3.588   5.004
 5828SOL     OW18382   5.344   6.532   3.998
 5828SOL    HW118383   5.282   6.604   3.968
 5828SOL    HW218384   5.417   6.520   3.931
 5829SOL     OW18385   1.694   0.724   4.962
 5829SOL    HW118386   1.666   0.630   4.949
 5829SOL    HW218387   1.764   0.729   5.035
 5830SOL     OW18388   3.587   4.865   5.510
 5830SOL    HW118389   3.610   4.822   5.597
 5830SOL    HW218390   3.602   4.964   5.516
 5831SOL     OW18391   1.099   1.533   5.445
 5831SOL    HW118392   1.197   1.514   5.454
 5831SOL    HW218393   1.050   1.487   5.518
 5832SOL     OW18394   3.245   4.561   1.240
 5832SOL    HW118395   3.281   4.655   1.238
 5832SOL    HW218396   3.214   4.535   1.149
 5833SOL     OW18397   4.153   3.929   5.445
 5833SOL    HW118398   4.063   3.886   5.451
 5833SOL    HW218399   4.224   3.861   5.466
 5834SOL     OW18400   6.697   4.471   6.657
 5834SOL    HW118401   6.793   4.446   6.675
 5834SOL    HW218402   6.641   4.388   6.657
 5835SOL     OW18403   5.408   0.704   2.661
 5835SOL    HW118404   5.353   0.635   2.708
 5835SOL    HW218405   5.479   0.739   2.722
 5836SOL     OW18406   4.004   6.137   2.479
 5836SOL    HW118407   3.945   6.209   2.516
 5836SOL    HW218408   4.072   6.177   2.418
 5837SOL     OW18409   3.807   4.348   0.505
 5837SOL    HW118410   3.813   4.268   0.564
 5837SOL    HW218411   3.783   4.319   0.412
 5838SOL     OW18412   3.298   2.073   1.505
 5838SOL    HW118413   3.389   2.075   1.462
 5838SOL    HW218414   3.294   1.999   1.571
 5839SOL     OW18415   0.727   2.552   2.111
 5839SOL    HW118416   0.695   2.539   2.205
 5839SOL    HW218417   0.671   2.497   2.049
 5840SOL     OW18418   0.386   3.840   2.057
 5840SOL    HW118419   0.366   3.743   2.043
 5840SOL    HW218420   0.469   3.864   2.007
 5841SOL     OW18421   4.262   0.769   1.669
 5841SOL    HW118422   4.269   0.848   1.730
 5841SOL    HW218423   4.334   0.774   1.600
 5842SOL     OW18424   3.925   1.727   0.488
 5842SOL    HW118425   3.961   1.799   0.428
 5842SOL    HW218426   3.841   1.760   0.532
 5843SOL     OW18427   1.912   3.736   1.042
 5843SOL    HW118428   1.978   3.777   1.106
 5843SOL    HW218429   1.838   3.693   1.093
 5844SOL     OW18430   0.598   6.837   4.940
 5844SOL    HW118431   0.697   6.852   4.933
 5844SOL    HW218432   0.565   6.876   5.026
 5845SOL     OW18433   6.962   6.907   1.494
 5845SOL    HW118434   6.864   6.924   1.498
 5845SOL    HW218435   7.005   6.970   1.429
 5846SOL     OW18436   6.538   3.930   4.963
 5846SOL    HW118437   6.573   4.019   4.991
 5846SOL    HW218438   6.567   3.861   5.030
 5847SOL     OW18439   2.348   2.983   1.770
 5847SOL    HW118440   2.348   2.992   1.670
 5847SOL    HW218441   2.307   3.064   1.811
 5848SOL     OW18442   2.450   6.094   3.915
 5848SOL    HW118443   2.446   5.998   3.941
 5848SOL    HW218444   2.508   6.104   3.834
 5849SOL     OW18445   2.509   6.342   5.231
 5849SOL    HW118446   2.425   6.376   5.190
 5849SOL    HW218447   2.534   6.399   5.309
 5850SOL     OW18448   1.367   2.639   2.126
 5850SOL    HW118449   1.428   2.596   2.194
 5850SOL    HW218450   1.281   2.587   2.122
 5851SOL     OW18451   5.903   3.272   4.451
 5851SOL    HW118452   5.872   3.249   4.359
 5851SOL    HW218453   5.944   3.364   4.450
 5852SOL     OW18454   4.640   5.814   3.496
 5852SOL    HW118455   4.671   5.738   3.440
 5852SOL    HW218456   4.541   5.808   3.508
 5853SOL     OW18457   3.783   5.151   5.351
 5853SOL    HW118458   3.689   5.164   5.383
 5853SOL    HW218459   3.846   5.196   5.413
 5854SOL     OW18460   3.481   4.633   5.768
 5854SOL    HW118461   3.406   4.643   5.832
 5854SOL    HW218462   3.446   4.635   5.674
 5855SOL     OW18463   1.988   2.186   4.051
 5855SOL    HW118464   1.967   2.112   3.987
 5855SOL    HW218465   2.082   2.217   4.035
 5856SOL     OW18466   1.501   6.650   2.242
 5856SOL    HW118467   1.546   6.669   2.329
 5856SOL    HW218468   1.520   6.556   2.214
 5857SOL     OW18469   0.301   3.389   5.656
 5857SOL    HW118470   0.318   3.438   5.741
 5857SOL    HW218471   0.208   3.409   5.624
 5858SOL     OW18472   2.445   1.250   3.032
 5858SOL    HW118473   2.464   1.317   2.960
 5858SOL    HW218474   2.356   1.208   3.016
 5859SOL     OW18475   5.816   6.771   1.407
 5859SOL    HW118476   5.915   6.775   1.423
 5859SOL    HW218477   5.776   6.862   1.420
 5860SOL     OW18478   0.634   4.513   3.228
 5860SOL    HW118479   0.727   4.481   3.214
 5860SOL    HW218480   0.624   4.550   3.321
 5861SOL     OW18481   5.987   0.552   5.135
 5861SOL    HW118482   5.903   0.506   5.164
 5861SOL    HW218483   5.976   0.584   5.041
 5862SOL     OW18484   6.723   5.890   2.118
 5862SOL    HW118485   6.733   5.936   2.207
 5862SOL    HW218486   6.773   5.942   2.049
 5863SOL     OW18487   2.985   0.810   4.443
 5863SOL    HW118488   2.997   0.859   4.356
 5863SOL    HW218489   3.032   0.860   4.516
 5864SOL     OW18490   3.533   3.615   3.246
 5864SOL    HW118491   3.526   3.699   3.301
 5864SOL    HW218492   3.512   3.536   3.302
 5865SOL     OW18493   5.845   1.442   5.758
 5865SOL    HW118494   5.788   1.397   5.826
 5865SOL    HW218495   5.811   1.534   5.741
 5866SOL     OW18496   3.364   3.212   1.237
 5866SOL    HW118497   3.415   3.296   1.255
 5866SOL    HW218498   3.324   3.178   1.322
 5867SOL     OW18499   2.029   2.245   1.162
 5867SOL    HW118500   1.982   2.286   1.240
 5867SOL    HW218501   2.079   2.316   1.112
 5868SOL     OW18502   1.078   1.694   5.978
 5868SOL    HW118503   1.026   1.769   6.018
 5868SOL    HW218504   1.070   1.697   5.878
 5869SOL     OW18505   1.195   4.687   3.359
 5869SOL    HW118506   1.278   4.706   3.307
 5869SOL    HW218507   1.213   4.612   3.424
 5870SOL     OW18508   4.083   4.764   5.410
 5870SOL    HW118509   4.159   4.765   5.345
 5870SOL    HW218510   4.108   4.707   5.489
 5871SOL     OW18511   3.456   3.348   3.632
 5871SOL    HW118512   3.417   3.299   3.554
 5871SOL    HW218513   3.523   3.414   3.599
 5872SOL     OW18514   3.771   5.926   1.315
 5872SOL    HW118515   3.830   5.960   1.388
 5872SOL    HW218516   3.688   5.982   1.310
 5873SOL     OW18517   2.489   5.292   2.395
 5873SOL    HW118518   2.543   5.290   2.479
 5873SOL    HW218519   2.520   5.368   2.337
 5874SOL     OW18520   2.085   4.119   5.127
 5874SOL    HW118521   2.115   4.169   5.208
 5874SOL    HW218522   2.165   4.080   5.080
 5875SOL     OW18523   3.561   2.103   0.057
 5875SOL    HW118524   3.599   2.172   0.118
 5875SOL    HW218525   3.463   2.094   0.072
 5876SOL     OW18526   4.118   3.643   2.226
 5876SOL    HW118527   4.216   3.647   2.204
 5876SOL    HW218528   4.106   3.596   2.314
 5877SOL     OW18529   6.037   6.563   1.181
 5877SOL    HW118530   6.112   6.522   1.234
 5877SOL    HW218531   6.019   6.655   1.216
 5878SOL     OW18532   1.471   5.754   3.433
 5878SOL    HW118533   1.473   5.702   3.518
 5878SOL    HW218534   1.556   5.739   3.382
 5879SOL     OW18535   6.449   3.384   0.178
 5879SOL    HW118536   6.422   3.480   0.174
 5879SOL    HW218537   6.521   3.366   0.111
 5880SOL     OW18538   2.801   5.602   1.268
 5880SOL    HW118539   2.740   5.598   1.347
 5880SOL    HW218540   2.871   5.672   1.284
 5881SOL     OW18541   0.072   4.791   3.448
 5881SOL    HW118542   0.096   4.696   3.429
 5881SOL    HW218543   0.154   4.842   3.473
 5882SOL     OW18544   5.619   0.487   0.911
 5882SOL    HW118545   5.590   0.486   1.006
 5882SOL    HW218546   5.544   0.519   0.853
 5883SOL     OW18547   0.312   2.394   6.488
 5883SOL    HW118548   0.251   2.473   6.490
 5883SOL    HW218549   0.403   2.420   6.521
 5884SOL     OW18550   2.073   0.944   3.556
 5884SOL    HW118551   2.147   0.898   3.605
 5884SOL    HW218552   2.109   0.985   3.472
 5885SOL     OW18553   6.705   7.005   1.492
 5885SOL    HW118554   6.742   0.068   1.457
 5885SOL    HW218555   6.667   7.019   1.584
 5886SOL     OW18556   0.495   2.298   4.709
 5886SOL    HW118557   0.553   2.231   4.663
 5886SOL    HW218558   0.550   2.351   4.774
 5887SOL     OW18559   4.286   1.358   3.361
 5887SOL    HW118560   4.295   1.407   3.447
 5887SOL    HW218561   4.223   1.281   3.373
 5888SOL     OW18562   2.920   6.800   2.755
 5888SOL    HW118563   2.840   6.762   2.801
 5888SOL    HW218564   2.983   6.838   2.823
 5889SOL     OW18565   1.931   6.763   1.474
 5889SOL    HW118566   1.903   6.856   1.499
 5889SOL    HW218567   1.972   6.718   1.553
 5890SOL     OW18568   1.218   0.132   5.276
 5890SOL    HW118569   1.186   0.047   5.318
 5890SOL    HW218570   1.177   0.142   5.186
 5891SOL     OW18571   4.121   3.268   6.206
 5891SOL    HW118572   4.120   3.168   6.211
 5891SOL    HW218573   4.094   3.297   6.115
 5892SOL     OW18574   1.209   6.218   1.811
 5892SOL    HW118575   1.234   6.296   1.755
 5892SOL    HW218576   1.151   6.156   1.758
 5893SOL     OW18577   1.009   3.678   3.627
 5893SOL    HW118578   0.938   3.708   3.690
 5893SOL    HW218579   0.968   3.617   3.558
 5894SOL     OW18580   1.146   4.981   3.168
 5894SOL    HW118581   1.159   5.058   3.106
 5894SOL    HW218582   1.162   5.010   3.262
 5895SOL     OW18583   5.390   2.608   4.235
 5895SOL    HW118584   5.459   2.544   4.269
 5895SOL    HW218585   5.329   2.634   4.310
 5896SOL     OW18586   4.041   1.760   0.088
 5896SOL    HW118587   4.112   1.829   0.104
 5896SOL    HW218588   4.061   1.678   0.143
 5897SOL     OW18589   4.004   6.934   1.947
 5897SOL    HW118590   4.009   6.838   1.919
 5897SOL    HW218591   4.083   6.984   1.910
 5898SOL     OW18592   1.915   0.329   3.034
 5898SOL    HW118593   1.871   0.408   2.992
 5898SOL    HW218594   2.000   0.308   2.986
 5899SOL     OW18595   5.526   0.007   5.556
 5899SOL    HW118596   5.549   0.081   5.492
 5899SOL    HW218597   5.502   0.046   5.645
 5900SOL     OW18598   4.299   5.205   3.827
 5900SOL    HW118599   4.214   5.225   3.876
 5900SOL    HW218600   4.373   5.260   3.865
 5901SOL     OW18601   2.648   0.654   6.373
 5901SOL    HW118602   2.613   0.748   6.375
 5901SOL    HW218603   2.707   0.639   6.451
 5902SOL     OW18604   6.987   2.084   0.759
 5902SOL    HW118605   6.995   1.999   0.811
 5902SOL    HW218606   6.942   2.066   0.672
 5903SOL     OW18607   5.101   3.942   0.699
 5903SOL    HW118608   5.180   3.927   0.639
 5903SOL    HW218609   5.039   3.864   0.692
 5904SOL     OW18610   0.019   3.634   2.452
 5904SOL    HW118611   0.030   3.727   2.487
 5904SOL    HW218612   0.093   3.614   2.388
 5905SOL     OW18613   5.900   5.909   3.012
 5905SOL    HW118614   5.921   5.978   2.943
 5905SOL    HW218615   5.815   5.935   3.059
 5906SOL     OW18616   5.353   1.043   4.452
 5906SOL    HW118617   5.313   1.103   4.521
 5906SOL    HW218618   5.400   0.967   4.498
 5907SOL     OW18619   1.634   6.228   1.808
 5907SOL    HW118620   1.602   6.306   1.754
 5907SOL    HW218621   1.730   6.241   1.832
 5908SOL     OW18622   0.959   2.592   5.711
 5908SOL    HW118623   0.893   2.520   5.689
 5908SOL    HW218624   1.045   2.550   5.742
 5909SOL     OW18625   0.620   5.298   0.478
 5909SOL    HW118626   0.537   5.245   0.495
 5909SOL    HW218627   0.700   5.240   0.493
 5910SOL     OW18628   0.772   3.003   3.208
 5910SOL    HW118629   0.860   2.955   3.203
 5910SOL    HW218630   0.784   3.088   3.259
 5911SOL     OW18631   6.920   5.526   6.579
 5911SOL    HW118632   6.937   5.553   6.485
 5911SOL    HW218633   6.934   5.427   6.589
 5912SOL     OW18634   6.473   1.437   5.414
 5912SOL    HW118635   6.382   1.460   5.379
 5912SOL    HW218636   6.467   1.417   5.512
 5913SOL     OW18637   5.276   2.906   0.166
 5913SOL    HW118638   5.337   2.983   0.186
 5913SOL    HW218639   5.223   2.927   0.083
 5914SOL     OW18640   1.197   6.780   6.394
 5914SOL    HW118641   1.269   6.850   6.397
 5914SOL    HW218642   1.172   6.761   6.300
 5915SOL     OW18643   3.745   6.284   0.083
 5915SOL    HW118644   3.762   6.207   0.021
 5915SOL    HW218645   3.756   6.370   0.033
 5916SOL     OW18646   0.005   6.901   2.459
 5916SOL    HW118647   7.004   6.929   2.366
 5916SOL    HW218648   0.061   6.971   2.502
 5917SOL     OW18649   3.268   4.099   5.521
 5917SOL    HW118650   3.221   4.045   5.452
 5917SOL    HW218651   3.367   4.085   5.513
 5918SOL     OW18652   1.718   5.548   6.271
 5918SOL    HW118653   1.637   5.605   6.289
 5918SOL    HW218654   1.799   5.606   6.268
 5919SOL     OW18655   3.263   4.070   2.996
 5919SOL    HW118656   3.223   4.022   2.918
 5919SOL    HW218657   3.235   4.025   3.081
 5920SOL     OW18658   5.197   1.431   6.395
 5920SOL    HW118659   5.184   1.335   6.419
 5920SOL    HW218660   5.129   1.458   6.328
 5921SOL     OW18661   3.932   5.184   6.503
 5921SOL    HW118662   3.967   5.091   6.490
 5921SOL    HW218663   3.872   5.208   6.426
 5922SOL     OW18664   6.184   3.798   4.133
 5922SOL    HW118665   6.242   3.838   4.204
 5922SOL    HW218666   6.144   3.872   4.077
 5923SOL     OW18667   0.124   0.749   1.505
 5923SOL    HW118668   0.028   0.718   1.510
 5923SOL    HW218669   0.169   0.730   1.592
 5924SOL     OW18670   5.892   6.801   3.037
 5924SOL    HW118671   5.976   6.756   3.066
 5924SOL    HW218672   5.837   6.824   3.118
 5925SOL     OW18673   4.179   6.072   1.844
 5925SOL    HW118674   4.085   6.038   1.847
 5925SOL    HW218675   4.194   6.120   1.757
 5926SOL     OW18676   4.690   4.363   2.577
 5926SOL    HW118677   4.687   4.295   2.651
 5926SOL    HW218678   4.731   4.322   2.496
 5927SOL     OW18679   1.119   3.605   1.844
 5927SOL    HW118680   1.039   3.544   1.845
 5927SOL    HW218681   1.121   3.658   1.929
 5928SOL     OW18682   3.871   0.031   1.591
 5928SOL    HW118683   3.841   0.101   1.656
 5928SOL    HW218684   3.845   6.964   1.626
 5929SOL     OW18685   5.891   1.194   5.601
 5929SOL    HW118686   5.945   1.196   5.685
 5929SOL    HW218687   5.915   1.112   5.549
 5930SOL     OW18688   0.566   2.801   2.561
 5930SOL    HW118689   0.524   2.857   2.489
 5930SOL    HW218690   0.548   2.844   2.650
 5931SOL     OW18691   5.897   6.145   2.383
 5931SOL    HW118692   5.832   6.154   2.459
 5931SOL    HW218693   5.970   6.082   2.409
 5932SOL     OW18694   3.178   6.894   6.659
 5932SOL    HW118695   3.162   6.842   6.743
 5932SOL    HW218696   3.268   6.937   6.662
 5933SOL     OW18697   6.614   4.983   3.844
 5933SOL    HW118698   6.651   4.894   3.872
 5933SOL    HW218699   6.648   5.053   3.907
 5934SOL     OW18700   3.512   3.394   5.503
 5934SOL    HW118701   3.535   3.489   5.481
 5934SOL    HW218702   3.422   3.392   5.548
 5935SOL     OW18703   0.610   6.354   5.282
 5935SOL    HW118704   0.617   6.304   5.197
 5935SOL    HW218705   0.553   6.303   5.347
 5936SOL     OW18706   2.995   3.774   2.589
 5936SOL    HW118707   2.953   3.709   2.652
 5936SOL    HW218708   3.036   3.725   2.512
 5937SOL     OW18709   6.021   3.002   2.360
 5937SOL    HW118710   6.087   2.966   2.426
 5937SOL    HW218711   6.068   3.063   2.296
 5938SOL     OW18712   6.142   5.861   4.833
 5938SOL    HW118713   6.072   5.913   4.882
 5938SOL    HW218714   6.122   5.862   4.736
 5939SOL     OW18715   3.136   5.987   4.356
 5939SOL    HW118716   3.210   5.920   4.362
 5939SOL    HW218717   3.049   5.944   4.378
 5940SOL     OW18718   4.350   4.975   3.649
 5940SOL    HW118719   4.357   4.890   3.701
 5940SOL    HW218720   4.349   5.053   3.712
 5941SOL     OW18721   5.670   2.728   3.562
 5941SOL    HW118722   5.754   2.780   3.580
 5941SOL    HW218723   5.603   2.787   3.517
 5942SOL     OW18724   5.630   3.384   6.619
 5942SOL    HW118725   5.565   3.361   6.691
 5942SOL    HW218726   5.703   3.316   6.616
 5943SOL     OW18727   3.744   3.352   6.504
 5943SOL    HW118728   3.664   3.320   6.555
 5943SOL    HW218729   3.772   3.442   6.538
 5944SOL     OW18730   1.039   2.897   0.318
 5944SOL    HW118731   1.019   2.885   0.415
 5944SOL    HW218732   1.101   2.824   0.287
 5945SOL     OW18733   0.113   6.117   5.558
 5945SOL    HW118734   0.122   6.206   5.603
 5945SOL    HW218735   0.045   6.062   5.606
 5946SOL     OW18736   3.138   4.550   0.172
 5946SOL    HW118737   3.166   4.456   0.152
 5946SOL    HW218738   3.202   4.614   0.129
 5947SOL     OW18739   2.941   3.660   3.398
 5947SOL    HW118740   2.841   3.656   3.388
 5947SOL    HW218741   2.979   3.569   3.381
 5948SOL     OW18742   4.569   4.609   2.297
 5948SOL    HW118743   4.656   4.655   2.314
 5948SOL    HW218744   4.584   4.513   2.277
 5949SOL     OW18745   4.677   5.650   0.975
 5949SOL    HW118746   4.722   5.564   0.998
 5949SOL    HW218747   4.703   5.721   1.040
 5950SOL     OW18748   4.875   2.323   5.517
 5950SOL    HW118749   4.861   2.422   5.509
 5950SOL    HW218750   4.907   2.287   5.430
 5951SOL     OW18751   1.002   5.704   4.928
 5951SOL    HW118752   0.915   5.738   4.892
 5951SOL    HW218753   1.021   5.750   5.015
 5952SOL     OW18754   4.258   5.367   3.222
 5952SOL    HW118755   4.246   5.274   3.189
 5952SOL    HW218756   4.175   5.395   3.271
 5953SOL     OW18757   6.658   4.270   5.007
 5953SOL    HW118758   6.683   4.366   5.019
 5953SOL    HW218759   6.736   4.218   4.975
 5954SOL     OW18760   0.300   5.626   5.707
 5954SOL    HW118761   0.331   5.611   5.801
 5954SOL    HW218762   0.377   5.619   5.645
 5955SOL     OW18763   4.475   5.441   1.625
 5955SOL    HW118764   4.452   5.344   1.636
 5955SOL    HW218765   4.546   5.450   1.555
 5956SOL     OW18766   5.590   1.388   3.876
 5956SOL    HW118767   5.555   1.318   3.815
 5956SOL    HW218768   5.521   1.461   3.885
 5957SOL     OW18769   2.327   1.906   3.955
 5957SOL    HW118770   2.363   1.827   3.904
 5957SOL    HW218771   2.243   1.939   3.910
 5958SOL     OW18772   4.283   0.502   2.979
 5958SOL    HW118773   4.221   0.433   2.940
 5958SOL    HW218774   4.284   0.582   2.919
 5959SOL     OW18775   4.126   2.528   5.721
 5959SOL    HW118776   4.034   2.565   5.735
 5959SOL    HW218777   4.143   2.458   5.790
 5960SOL     OW18778   2.710   6.451   4.040
 5960SOL    HW118779   2.770   6.526   4.012
 5960SOL    HW218780   2.756   6.364   4.023
 5961SOL     OW18781   4.464   1.216   2.133
 5961SOL    HW118782   4.552   1.198   2.177
 5961SOL    HW218783   4.478   1.274   2.053
 5962SOL     OW18784   5.257   5.778   6.015
 5962SOL    HW118785   5.345   5.796   6.058
 5962SOL    HW218786   5.216   5.697   6.057
 5963SOL     OW18787   3.254   3.747   6.767
 5963SOL    HW118788   3.236   3.716   6.674
 5963SOL    HW218789   3.318   3.685   6.811
 5964SOL     OW18790   2.626   0.060   4.216
 5964SOL    HW118791   2.664   0.010   4.138
 5964SOL    HW218792   2.700   0.085   4.278
 5965SOL     OW18793   1.852   0.633   6.999
 5965SOL    HW118794   1.906   0.628   0.060
 5965SOL    HW218795   1.794   0.552   6.992
 5966SOL     OW18796   1.130   6.784   6.132
 5966SOL    HW118797   1.033   6.808   6.131
 5966SOL    HW218798   1.149   6.721   6.056
 5967SOL     OW18799   1.871   0.433   5.558
 5967SOL    HW118800   1.891   0.432   5.656
 5967SOL    HW218801   1.799   0.501   5.539
 5968SOL     OW18802   5.788   2.876   0.206
 5968SOL    HW118803   5.760   2.876   0.110
 5968SOL    HW218804   5.876   2.828   0.216
 5969SOL     OW18805   5.042   1.307   6.657
 5969SOL    HW118806   5.007   1.365   6.730
 5969SOL    HW218807   5.055   1.360   6.574
 5970SOL     OW18808   0.418   4.411   0.859
 5970SOL    HW118809   0.379   4.320   0.875
 5970SOL    HW218810   0.354   4.466   0.806
 5971SOL     OW18811   6.441   0.183   1.475
 5971SOL    HW118812   6.515   0.204   1.410
 5971SOL    HW218813   6.480   0.139   1.556
 5972SOL     OW18814   5.084   5.843   6.283
 5972SOL    HW118815   5.162   5.880   6.332
 5972SOL    HW218816   5.059   5.904   6.208
 5973SOL     OW18817   1.463   3.163   2.932
 5973SOL    HW118818   1.451   3.249   2.883
 5973SOL    HW218819   1.433   3.174   3.027
 5974SOL     OW18820   4.883   0.386   0.426
 5974SOL    HW118821   4.869   0.287   0.432
 5974SOL    HW218822   4.974   0.404   0.388
 5975SOL     OW18823   3.849   6.224   0.850
 5975SOL    HW118824   3.844   6.126   0.864
 5975SOL    HW218825   3.945   6.251   0.837
 5976SOL     OW18826   3.366   3.263   5.286
 5976SOL    HW118827   3.394   3.255   5.382
 5976SOL    HW218828   3.411   3.191   5.233
 5977SOL     OW18829   0.445   5.842   0.507
 5977SOL    HW118830   0.364   5.856   0.565
 5977SOL    HW218831   0.525   5.827   0.565
 5978SOL     OW18832   3.599   5.498   1.426
 5978SOL    HW118833   3.584   5.423   1.490
 5978SOL    HW218834   3.675   5.474   1.364
 5979SOL     OW18835   6.559   0.842   2.017
 5979SOL    HW118836   6.553   0.844   2.117
 5979SOL    HW218837   6.468   0.827   1.978
 5980SOL     OW18838   3.428   2.905   2.071
 5980SOL    HW118839   3.468   2.983   2.119
 5980SOL    HW218840   3.360   2.938   2.005
 5981SOL     OW18841   5.054   1.662   0.407
 5981SOL    HW118842   5.065   1.596   0.481
 5981SOL    HW218843   5.010   1.744   0.443
 5982SOL     OW18844   5.957   2.236   2.948
 5982SOL    HW118845   5.955   2.335   2.964
 5982SOL    HW218846   5.905   2.215   2.866
 5983SOL     OW18847   1.320   0.738   4.169
 5983SOL    HW118848   1.354   0.828   4.196
 5983SOL    HW218849   1.322   0.730   4.069
 5984SOL     OW18850   6.014   6.637   3.716
 5984SOL    HW118851   5.952   6.685   3.653
 5984SOL    HW218852   6.048   6.554   3.672
 5985SOL     OW18853   6.467   2.544   3.593
 5985SOL    HW118854   6.552   2.579   3.634
 5985SOL    HW218855   6.479   2.537   3.494
 5986SOL     OW18856   4.217   4.108   5.628
 5986SOL    HW118857   4.163   4.192   5.632
 5986SOL    HW218858   4.177   4.046   5.560
 5987SOL     OW18859   5.445   0.821   4.822
 5987SOL    HW118860   5.356   0.866   4.821
 5987SOL    HW218861   5.456   0.772   4.909
 5988SOL     OW18862   3.612   0.888   6.741
 5988SOL    HW118863   3.636   0.981   6.710
 5988SOL    HW218864   3.577   0.835   6.663
 5989SOL     OW18865   1.499   5.172   5.610
 5989SOL    HW118866   1.461   5.247   5.556
 5989SOL    HW218867   1.424   5.120   5.651
 5990SOL     OW18868   3.830   4.090   0.618
 5990SOL    HW118869   3.853   4.090   0.716
 5990SOL    HW218870   3.752   4.030   0.603
 5991SOL     OW18871   4.387   5.840   6.788
 5991SOL    HW118872   4.370   5.921   6.732
 5991SOL    HW218873   4.390   5.759   6.730
 5992SOL     OW18874   3.596   6.726   1.786
 5992SOL    HW118875   3.571   6.632   1.808
 5992SOL    HW218876   3.619   6.775   1.870
 5993SOL     OW18877   5.108   4.132   6.274
 5993SOL    HW118878   5.152   4.095   6.193
 5993SOL    HW218879   5.171   4.127   6.352
 5994SOL     OW18880   6.569   2.611   1.249
 5994SOL    HW118881   6.560   2.608   1.150
 5994SOL    HW218882   6.665   2.602   1.274
 5995SOL     OW18883   4.761   2.772   1.946
 5995SOL    HW118884   4.688   2.721   1.992
 5995SOL    HW218885   4.738   2.870   1.945
 5996SOL     OW18886   1.476   5.312   1.887
 5996SOL    HW118887   1.491   5.310   1.788
 5996SOL    HW218888   1.505   5.225   1.927
 5997SOL     OW18889   0.919   6.520   3.342
 5997SOL    HW118890   0.912   6.495   3.439
 5997SOL    HW218891   0.848   6.473   3.290
 5998SOL     OW18892   5.962   0.605   1.620
 5998SOL    HW118893   5.930   0.516   1.654
 5998SOL    HW218894   5.896   0.641   1.553
 5999SOL     OW18895   2.564   3.272   1.057
 5999SOL    HW118896   2.643   3.316   1.015
 5999SOL    HW218897   2.562   3.175   1.032
 6000SOL     OW18898   0.897   6.086   0.492
 6000SOL    HW118899   0.817   6.146   0.486
 6000SOL    HW218900   0.887   6.027   0.572
 6001SOL     OW18901   5.577   5.214   6.965
 6001SOL    HW118902   5.565   5.118   6.939
 6001SOL    HW218903   5.503   5.268   6.925
 6002SOL     OW18904   6.615   0.122   5.780
 6002SOL    HW118905   6.575   0.193   5.722
 6002SOL    HW218906   6.546   0.088   5.844
 6003SOL     OW18907   5.738   2.530   4.495
 6003SOL    HW118908   5.810   2.599   4.507
 6003SOL    HW218909   5.745   2.461   4.568
 6004SOL     OW18910   6.319   2.280   3.552
 6004SOL    HW118911   6.366   2.359   3.512
 6004SOL    HW218912   6.359   2.196   3.516
 6005SOL     OW18913   5.708   4.762   5.254
 6005SOL    HW118914   5.656   4.683   5.286
 6005SOL    HW218915   5.790   4.772   5.310
 6006SOL     OW18916   2.877   0.304   4.949
 6006SOL    HW118917   2.974   0.282   4.960
 6006SOL    HW218918   2.852   0.376   5.013
 6007SOL     OW18919   0.057   3.199   6.193
 6007SOL    HW118920   6.984   3.223   6.204
 6007SOL    HW218921   0.075   3.109   6.233
 6008SOL     OW18922   2.132   4.597   4.980
 6008SOL    HW118923   2.129   4.609   5.079
 6008SOL    HW218924   2.066   4.658   4.936
 6009SOL     OW18925   4.357   5.789   3.404
 6009SOL    HW118926   4.309   5.866   3.447
 6009SOL    HW218927   4.385   5.815   3.312
 6010SOL     OW18928   0.891   4.746   3.650
 6010SOL    HW118929   0.905   4.796   3.564
 6010SOL    HW218930   0.924   4.653   3.641
 6011SOL     OW18931   4.901   3.123   2.935
 6011SOL    HW118932   4.869   3.081   3.020
 6011SOL    HW218933   4.879   3.221   2.937
 6012SOL     OW18934   6.380   0.704   0.198
 6012SOL    HW118935   6.323   0.633   0.157
 6012SOL    HW218936   6.446   0.663   0.260
 6013SOL     OW18937   4.700   1.403   2.470
 6013SOL    HW118938   4.684   1.462   2.391
 6013SOL    HW218939   4.631   1.421   2.539
 6014SOL     OW18940   3.486   4.150   4.106
 6014SOL    HW118941   3.474   4.151   4.006
 6014SOL    HW218942   3.397   4.158   4.150
 6015SOL     OW18943   6.295   3.555   4.346
 6015SOL    HW118944   6.248   3.492   4.408
 6015SOL    HW218945   6.256   3.647   4.355
 6016SOL     OW18946   5.514   2.033   5.740
 6016SOL    HW118947   5.613   2.017   5.737
 6016SOL    HW218948   5.473   1.977   5.812
 6017SOL     OW18949   6.770   5.096   5.300
 6017SOL    HW118950   6.841   5.166   5.293
 6017SOL    HW218951   6.726   5.085   5.210
 6018SOL     OW18952   3.094   1.295   5.172
 6018SOL    HW118953   3.077   1.390   5.197
 6018SOL    HW218954   3.191   1.282   5.154
 6019SOL     OW18955   0.701   3.588   5.557
 6019SOL    HW118956   0.640   3.515   5.585
 6019SOL    HW218957   0.660   3.677   5.580
 6020SOL     OW18958   0.830   5.613   0.518
 6020SOL    HW118959   0.869   5.689   0.570
 6020SOL    HW218960   0.809   5.537   0.580
 6021SOL     OW18961   4.879   0.298   2.936
 6021SOL    HW118962   4.813   0.276   3.009
 6021SOL    HW218963   4.829   0.322   2.853
 6022SOL     OW18964   7.006   1.846   3.284
 6022SOL    HW118965   7.020   1.787   3.204
 6022SOL    HW218966   0.059   1.834   3.348
 6023SOL     OW18967   5.261   0.154   2.016
 6023SOL    HW118968   5.332   0.127   2.081
 6023SOL    HW218969   5.252   0.254   2.016
 6024SOL     OW18970   0.682   4.419   0.784
 6024SOL    HW118971   0.593   4.419   0.829
 6024SOL    HW218972   0.670   4.405   0.686
 6025SOL     OW18973   3.856   1.362   3.309
 6025SOL    HW118974   3.897   1.452   3.293
 6025SOL    HW218975   3.757   1.368   3.298
 6026SOL     OW18976   6.768   5.451   4.960
 6026SOL    HW118977   6.736   5.414   4.873
 6026SOL    HW218978   6.698   5.512   4.998
 6027SOL     OW18979   0.114   3.235   5.903
 6027SOL    HW118980   0.189   3.242   5.969
 6027SOL    HW218981   0.028   3.259   5.948
 6028SOL     OW18982   5.376   4.623   1.199
 6028SOL    HW118983   5.388   4.536   1.247
 6028SOL    HW218984   5.278   4.642   1.189
 6029SOL     OW18985   2.723   7.007   3.922
 6029SOL    HW118986   2.644   6.950   3.900
 6029SOL    HW218987   2.778   7.021   3.840
 6030SOL     OW18988   5.063   3.930   4.631
 6030SOL    HW118989   4.986   3.991   4.649
 6030SOL    HW218990   5.085   3.931   4.534
 6031SOL     OW18991   2.088   5.822   4.375
 6031SOL    HW118992   2.178   5.798   4.412
 6031SOL    HW218993   2.017   5.782   4.432
 6032SOL     OW18994   2.742   4.714   2.871
 6032SOL    HW118995   2.819   4.772   2.896
 6032SOL    HW218996   2.772   4.618   2.869
 6033SOL     OW18997   2.197   2.990   2.559
 6033SOL    HW118998   2.200   2.988   2.459
 6033SOL    HW218999   2.111   3.033   2.589
 6034SOL     OW19000   0.765   0.270   6.383
 6034SOL    HW119001   0.755   0.339   6.311
 6034SOL    HW219002   0.785   0.315   6.470
 6035SOL     OW19003   1.284   0.105   2.431
 6035SOL    HW119004   1.217   0.139   2.365
 6035SOL    HW219005   1.239   0.082   2.517
 6036SOL     OW19006   5.901   4.949   1.295
 6036SOL    HW119007   5.900   5.044   1.327
 6036SOL    HW219008   5.935   4.947   1.201
 6037SOL     OW19009   3.515   0.150   0.609
 6037SOL    HW119010   3.613   0.156   0.629
 6037SOL    HW219011   3.468   0.109   0.687
 6038SOL     OW19012   1.178   2.509   6.672
 6038SOL    HW119013   1.269   2.484   6.706
 6038SOL    HW219014   1.186   2.585   6.608
 6039SOL     OW19015   4.132   3.607   3.280
 6039SOL    HW119016   4.089   3.647   3.361
 6039SOL    HW219017   4.101   3.513   3.269
 6040SOL     OW19018   1.948   1.564   0.401
 6040SOL    HW119019   1.875   1.608   0.454
 6040SOL    HW219020   2.035   1.577   0.449
 6041SOL     OW19021   3.464   2.203   5.227
 6041SOL    HW119022   3.544   2.186   5.168
 6041SOL    HW219023   3.384   2.222   5.169
 6042SOL     OW19024   3.785   6.920   3.017
 6042SOL    HW119025   3.858   6.911   3.085
 6042SOL    HW219026   3.825   6.947   2.930
 6043SOL     OW19027   1.321   0.650   4.448
 6043SOL    HW119028   1.313   0.712   4.369
 6043SOL    HW219029   1.237   0.655   4.502
 6044SOL     OW19030   2.532   2.035   2.034
 6044SOL    HW119031   2.499   2.120   2.076
 6044SOL    HW219032   2.632   2.038   2.027
 6045SOL     OW19033   5.276   3.460   3.936
 6045SOL    HW119034   5.281   3.379   3.995
 6045SOL    HW219035   5.338   3.449   3.859
 6046SOL     OW19036   3.432   2.857   0.469
 6046SOL    HW119037   3.428   2.758   0.479
 6046SOL    HW219038   3.398   2.900   0.552
 6047SOL     OW19039   5.449   2.189   1.327
 6047SOL    HW119040   5.471   2.277   1.285
 6047SOL    HW219041   5.349   2.177   1.328
 6048SOL     OW19042   4.953   5.644   5.153
 6048SOL    HW119043   5.013   5.720   5.129
 6048SOL    HW219044   4.978   5.608   5.242
 6049SOL     OW19045   5.062   4.781   6.091
 6049SOL    HW119046   5.021   4.803   6.179
 6049SOL    HW219047   5.019   4.836   6.019
 6050SOL     OW19048   2.298   5.455   1.066
 6050SOL    HW119049   2.262   5.510   0.990
 6050SOL    HW219050   2.396   5.470   1.074
 6051SOL     OW19051   2.050   6.538   2.758
 6051SOL    HW119052   2.040   6.455   2.703
 6051SOL    HW219053   2.132   6.530   2.814
 6052SOL     OW19054   5.499   1.325   1.676
 6052SOL    HW119055   5.574   1.392   1.673
 6052SOL    HW219056   5.415   1.371   1.706
 6053SOL     OW19057   3.782   0.659   6.213
 6053SOL    HW119058   3.815   0.608   6.134
 6053SOL    HW219059   3.792   0.757   6.197
 6054SOL     OW19060   3.323   4.325   0.686
 6054SOL    HW119061   3.384   4.394   0.725
 6054SOL    HW219062   3.316   4.247   0.749
 6055SOL     OW19063   3.863   5.750   5.883
 6055SOL    HW119064   3.889   5.808   5.960
 6055SOL    HW219065   3.918   5.666   5.884
 6056SOL     OW19066   5.103   3.227   5.126
 6056SOL    HW119067   5.043   3.293   5.081
 6056SOL    HW219068   5.196   3.262   5.126
 6057SOL     OW19069   5.828   0.391   1.999
 6057SOL    HW119070   5.798   0.407   2.093
 6057SOL    HW219071   5.928   0.398   1.994
 6058SOL     OW19072   5.677   4.082   0.500
 6058SOL    HW119073   5.776   4.090   0.501
 6058SOL    HW219074   5.647   4.021   0.573
 6059SOL     OW19075   5.102   4.587   5.673
 6059SOL    HW119076   5.145   4.677   5.676
 6059SOL    HW219077   5.075   4.566   5.580
 6060SOL     OW19078   2.581   3.235   6.747
 6060SOL    HW119079   2.636   3.152   6.749
 6060SOL    HW219080   2.632   3.311   6.788
 6061SOL     OW19081   4.759   4.208   0.878
 6061SOL    HW119082   4.852   4.175   0.894
 6061SOL    HW219083   4.736   4.197   0.781
 6062SOL     OW19084   2.435   1.707   6.920
 6062SOL    HW119085   2.506   1.638   6.909
 6062SOL    HW219086   2.359   1.669   6.973
 6063SOL     OW19087   3.486   3.825   5.731
 6063SOL    HW119088   3.401   3.774   5.719
 6063SOL    HW219089   3.475   3.917   5.693
 6064SOL     OW19090   1.092   0.867   1.191
 6064SOL    HW119091   1.146   0.795   1.235
 6064SOL    HW219092   1.124   0.957   1.221
 6065SOL     OW19093   0.201   5.750   1.826
 6065SOL    HW119094   0.167   5.824   1.769
 6065SOL    HW219095   0.189   5.662   1.779
 6066SOL     OW19096   5.927   0.974   5.106
 6066SOL    HW119097   5.881   1.022   5.181
 6066SOL    HW219098   5.971   0.892   5.141
 6067SOL     OW19099   4.818   1.192   5.483
 6067SOL    HW119100   4.913   1.166   5.468
 6067SOL    HW219101   4.811   1.251   5.563
 6068SOL     OW19102   4.951   2.202   4.416
 6068SOL    HW119103   4.944   2.134   4.343
 6068SOL    HW219104   4.966   2.156   4.503
 6069SOL     OW19105   6.365   4.120   5.321
 6069SOL    HW119106   6.464   4.121   5.335
 6069SOL    HW219107   6.331   4.026   5.325
 6070SOL     OW19108   3.704   2.936   1.438
 6070SOL    HW119109   3.724   2.838   1.434
 6070SOL    HW219110   3.606   2.950   1.450
 6071SOL     OW19111   1.301   5.893   4.306
 6071SOL    HW119112   1.229   5.905   4.374
 6071SOL    HW219113   1.260   5.886   4.215
 6072SOL     OW19114   0.531   0.892   1.949
 6072SOL    HW119115   0.553   0.800   1.983
 6072SOL    HW219116   0.464   0.934   2.011
 6073SOL     OW19117   5.285   2.631   0.861
 6073SOL    HW119118   5.342   2.702   0.820
 6073SOL    HW219119   5.211   2.673   0.912
 6074SOL     OW19120   1.871   6.894   2.208
 6074SOL    HW119121   1.921   6.817   2.169
 6074SOL    HW219122   1.822   6.864   2.290
 6075SOL     OW19123   4.362   0.039   5.211
 6075SOL    HW119124   4.283   0.011   5.265
 6075SOL    HW219125   4.394   6.985   5.157
 6076SOL     OW19126   2.553   5.347   3.305
 6076SOL    HW119127   2.497   5.418   3.264
 6076SOL    HW219128   2.516   5.257   3.281
 6077SOL     OW19129   6.450   6.373   1.086
 6077SOL    HW119130   6.516   6.439   1.050
 6077SOL    HW219131   6.497   6.310   1.148
 6078SOL     OW19132   4.414   4.836   0.610
 6078SOL    HW119133   4.491   4.851   0.549
 6078SOL    HW219134   4.342   4.903   0.590
 6079SOL     OW19135   5.316   4.813   6.425
 6079SOL    HW119136   5.280   4.753   6.496
 6079SOL    HW219137   5.277   4.905   6.435
 6080SOL     OW19138   0.408   5.342   1.423
 6080SOL    HW119139   0.440   5.275   1.491
 6080SOL    HW219140   0.478   5.355   1.353
 6081SOL     OW19141   6.992   2.971   5.036
 6081SOL    HW119142   6.996   3.002   4.941
 6081SOL    HW219143   6.992   2.871   5.039
 6082SOL     OW19144   3.454   6.777   2.638
 6082SOL    HW119145   3.543   6.819   2.620
 6082SOL    HW219146   3.382   6.830   2.592
 6083SOL     OW19147   5.603   5.387   0.814
 6083SOL    HW119148   5.685   5.338   0.786
 6083SOL    HW219149   5.622   5.441   0.896
 6084SOL     OW19150   0.810   6.437   2.002
 6084SOL    HW119151   0.763   6.440   2.090
 6084SOL    HW219152   0.897   6.389   2.013
 6085SOL     OW19153   6.619   5.548   6.621
 6085SOL    HW119154   6.607   5.473   6.686
 6085SOL    HW219155   6.715   5.556   6.596
 6086SOL     OW19156   2.634   2.016   5.820
 6086SOL    HW119157   2.622   1.927   5.864
 6086SOL    HW219158   2.547   2.047   5.783
 6087SOL     OW19159   3.542   5.924   1.105
 6087SOL    HW119160   3.556   5.993   1.035
 6087SOL    HW219161   3.620   5.862   1.107
 6088SOL     OW19162   5.363   6.727   4.842
 6088SOL    HW119163   5.290   6.793   4.854
 6088SOL    HW219164   5.447   6.762   4.883
 6089SOL     OW19165   6.030   2.447   3.521
 6089SOL    HW119166   5.993   2.459   3.613
 6089SOL    HW219167   6.071   2.533   3.490
 6090SOL     OW19168   2.045   4.794   4.550
 6090SOL    HW119169   2.077   4.888   4.560
 6090SOL    HW219170   1.987   4.788   4.469
 6091SOL     OW19171   2.784   1.656   0.440
 6091SOL    HW119172   2.709   1.703   0.394
 6091SOL    HW219173   2.777   1.558   0.424
 6092SOL     OW19174   4.700   0.924   1.505
 6092SOL    HW119175   4.741   0.886   1.588
 6092SOL    HW219176   4.613   0.878   1.488
 6093SOL     OW19177   2.438   2.146   1.763
 6093SOL    HW119178   2.451   2.082   1.840
 6093SOL    HW219179   2.472   2.236   1.790
 6094SOL     OW19180   1.575   6.171   2.905
 6094SOL    HW119181   1.504   6.236   2.882
 6094SOL    HW219182   1.580   6.100   2.835
 6095SOL     OW19183   4.815   4.645   6.371
 6095SOL    HW119184   4.803   4.681   6.464
 6095SOL    HW219185   4.735   4.592   6.345
 6096SOL     OW19186   5.984   6.895   2.139
 6096SOL    HW119187   6.027   6.977   2.174
 6096SOL    HW219188   5.926   6.854   2.210
 6097SOL     OW19189   1.797   5.007   2.223
 6097SOL    HW119190   1.892   5.010   2.189
 6097SOL    HW219191   1.797   5.014   2.322
 6098SOL     OW19192   6.637   1.421   6.096
 6098SOL    HW119193   6.620   1.384   6.187
 6098SOL    HW219194   6.644   1.521   6.102
 6099SOL     OW19195   5.139   5.734   5.642
 6099SOL    HW119196   5.131   5.798   5.719
 6099SOL    HW219197   5.193   5.776   5.570
 6100SOL     OW19198   0.428   6.217   2.259
 6100SOL    HW119199   0.463   6.278   2.331
 6100SOL    HW219200   0.330   6.232   2.247
 6101SOL     OW19201   6.793   3.003   2.952
 6101SOL    HW119202   6.696   2.992   2.973
 6101SOL    HW219203   6.811   2.967   2.861
 6102SOL     OW19204   4.341   5.537   2.600
 6102SOL    HW119205   4.401   5.460   2.621
 6102SOL    HW219206   4.309   5.579   2.685
 6103SOL     OW19207   6.836   0.707   1.480
 6103SOL    HW119208   6.824   0.806   1.472
 6103SOL    HW219209   6.869   0.685   1.572
 6104SOL     OW19210   6.444   6.957   5.207
 6104SOL    HW119211   6.384   6.893   5.159
 6104SOL    HW219212   6.433   0.025   5.169
 6105SOL     OW19213   1.644   5.281   5.810
 6105SOL    HW119214   1.708   5.343   5.765
 6105SOL    HW219215   1.587   5.236   5.741
 6106SOL     OW19216   1.179   4.882   0.057
 6106SOL    HW119217   1.258   4.930   0.095
 6106SOL    HW219218   1.187   4.880   6.980
 6107SOL     OW19219   4.750   5.662   4.987
 6107SOL    HW119220   4.675   5.712   5.031
 6107SOL    HW219221   4.834   5.676   5.041
 6108SOL     OW19222   2.058   2.505   3.414
 6108SOL    HW119223   2.076   2.411   3.382
 6108SOL    HW219224   2.081   2.512   3.511
 6109SOL     OW19225   5.760   0.993   5.409
 6109SOL    HW119226   5.724   1.086   5.414
 6109SOL    HW219227   5.686   0.929   5.388
 6110SOL     OW19228   2.807   3.049   0.777
 6110SOL    HW119229   2.882   2.983   0.773
 6110SOL    HW219230   2.732   3.018   0.718
 6111SOL     OW19231   1.050   3.298   2.377
 6111SOL    HW119232   1.054   3.351   2.462
 6111SOL    HW219233   1.037   3.201   2.399
 6112SOL     OW19234   4.391   0.509   2.686
 6112SOL    HW119235   4.343   0.564   2.617
 6112SOL    HW219236   4.478   0.552   2.709
 6113SOL     OW19237   2.454   2.935   6.694
 6113SOL    HW119238   2.422   2.894   6.779
 6113SOL    HW219239   2.549   2.965   6.705
 6114SOL     OW19240   4.827   3.922   2.613
 6114SOL    HW119241   4.835   3.827   2.641
 6114SOL    HW219242   4.860   3.982   2.685
 6115SOL     OW19243   6.593   0.918   4.874
 6115SOL    HW119244   6.521   0.975   4.833
 6115SOL    HW219245   6.632   0.965   4.953
 6116SOL     OW19246   3.679   1.679   6.145
 6116SOL    HW119247   3.587   1.673   6.183
 6116SOL    HW219248   3.724   1.590   6.153
 6117SOL     OW19249   1.871   2.103   3.209
 6117SOL    HW119250   1.792   2.163   3.194
 6117SOL    HW219251   1.913   2.081   3.121
 6118SOL     OW19252   6.030   1.288   1.604
 6118SOL    HW119253   5.998   1.296   1.510
 6118SOL    HW219254   6.060   1.194   1.622
 6119SOL     OW19255   1.347   3.704   0.571
 6119SOL    HW119256   1.427   3.668   0.522
 6119SOL    HW219257   1.341   3.662   0.661
 6120SOL     OW19258   1.849   5.968   5.599
 6120SOL    HW119259   1.887   6.049   5.644
 6120SOL    HW219260   1.803   5.996   5.514
 6121SOL     OW19261   1.090   3.884   5.686
 6121SOL    HW119262   1.073   3.894   5.588
 6121SOL    HW219263   1.003   3.880   5.736
 6122SOL     OW19264   4.649   5.289   6.795
 6122SOL    HW119265   4.728   5.311   6.852
 6122SOL    HW219266   4.676   5.289   6.699
 6123SOL     OW19267   4.766   6.889   5.577
 6123SOL    HW119268   4.733   6.881   5.671
 6123SOL    HW219269   4.764   6.985   5.549
 6124SOL     OW19270   0.706   6.760   5.924
 6124SOL    HW119271   0.756   6.815   5.857
 6124SOL    HW219272   0.698   6.666   5.890
 6125SOL     OW19273   2.282   4.363   6.789
 6125SOL    HW119274   2.369   4.359   6.838
 6125SOL    HW219275   2.247   4.271   6.777
 6126SOL     OW19276   0.308   1.278   5.021
 6126SOL    HW119277   0.318   1.328   5.107
 6126SOL    HW219278   0.211   1.269   4.999
 6127SOL     OW19279   4.196   0.106   1.923
 6127SOL    HW119280   4.253   0.128   2.002
 6127SOL    HW219281   4.254   0.088   1.844
 6128SOL     OW19282   5.394   5.321   0.621
 6128SOL    HW119283   5.482   5.366   0.636
 6128SOL    HW219284   5.323   5.370   0.670
 6129SOL     OW19285   0.650   3.875   3.536
 6129SOL    HW119286   0.686   3.813   3.606
 6129SOL    HW219287   0.725   3.923   3.492
 6130SOL     OW19288   5.195   2.660   2.685
 6130SOL    HW119289   5.158   2.571   2.714
 6130SOL    HW219290   5.128   2.707   2.627
 6131SOL     OW19291   0.909   1.405   3.436
 6131SOL    HW119292   0.938   1.353   3.516
 6131SOL    HW219293   0.812   1.389   3.419
 6132SOL     OW19294   3.857   2.217   6.707
 6132SOL    HW119295   3.835   2.253   6.798
 6132SOL    HW219296   3.855   2.292   6.640
 6133SOL     OW19297   2.156   3.037   2.915
 6133SOL    HW119298   2.104   3.118   2.886
 6133SOL    HW219299   2.111   2.955   2.881
 6134SOL     OW19300   4.386   6.780   0.078
 6134SOL    HW119301   4.397   6.718   7.023
 6134SOL    HW219302   4.349   6.730   0.156
 6135SOL     OW19303   0.446   5.579   1.583
 6135SOL    HW119304   0.363   5.537   1.548
 6135SOL    HW219305   0.525   5.523   1.558
 6136SOL     OW19306   1.479   2.537   1.903
 6136SOL    HW119307   1.392   2.538   1.855
 6136SOL    HW219308   1.490   2.622   1.955
 6137SOL     OW19309   0.390   4.238   2.208
 6137SOL    HW119310   0.313   4.236   2.144
 6137SOL    HW219311   0.382   4.162   2.272
 6138SOL     OW19312   3.695   6.975   3.557
 6138SOL    HW119313   3.716   0.018   3.484
 6138SOL    HW219314   3.601   6.942   3.545
 6139SOL     OW19315   0.768   6.437   5.517
 6139SOL    HW119316   0.697   6.440   5.447
 6139SOL    HW219317   0.843   6.378   5.487
 6140SOL     OW19318   0.666   0.557   2.180
 6140SOL    HW119319   0.723   0.634   2.150
 6140SOL    HW219320   0.649   0.496   2.103
 6141SOL     OW19321   0.283   0.299   6.115
 6141SOL    HW119322   0.356   0.275   6.051
 6141SOL    HW219323   0.207   0.340   6.065
 6142SOL     OW19324   0.597   5.893   6.195
 6142SOL    HW119325   0.560   5.807   6.230
 6142SOL    HW219326   0.536   5.968   6.222
 6143SOL     OW19327   0.334   4.233   1.118
 6143SOL    HW119328   0.343   4.178   1.201
 6143SOL    HW219329   0.341   4.174   1.038
 6144SOL     OW19330   5.179   5.091   3.530
 6144SOL    HW119331   5.126   5.172   3.556
 6144SOL    HW219332   5.187   5.087   3.430
 6145SOL     OW19333   5.362   4.857   3.945
 6145SOL    HW119334   5.368   4.867   3.846
 6145SOL    HW219335   5.395   4.941   3.988
 6146SOL     OW19336   3.430   5.963   3.330
 6146SOL    HW119337   3.467   5.991   3.242
 6146SOL    HW219338   3.365   6.031   3.362
 6147SOL     OW19339   1.883   2.487   5.034
 6147SOL    HW119340   1.870   2.462   5.130
 6147SOL    HW219341   1.803   2.537   5.001
 6148SOL     OW19342   4.238   5.841   5.668
 6148SOL    HW119343   4.215   5.925   5.618
 6148SOL    HW219344   4.230   5.763   5.606
 6149SOL     OW19345   2.528   6.981   1.861
 6149SOL    HW119346   2.590   0.030   1.827
 6149SOL    HW219347   2.581   6.913   1.911
 6150SOL     OW19348   6.108   3.867   6.701
 6150SOL    HW119349   6.181   3.810   6.738
 6150SOL    HW219350   6.066   3.920   6.774
 6151SOL     OW19351   5.678   5.015   5.135
 6151SOL    HW119352   5.675   4.917   5.157
 6151SOL    HW219353   5.732   5.028   5.051
 6152SOL     OW19354   0.415   5.468   4.909
 6152SOL    HW119355   0.411   5.443   4.812
 6152SOL    HW219356   0.340   5.424   4.958
 6153SOL     OW19357   5.558   5.096   1.279
 6153SOL    HW119358   5.585   5.001   1.262
 6153SOL    HW219359   5.531   5.107   1.374
 6154SOL     OW19360   5.715   3.163   2.363
 6154SOL    HW119361   5.779   3.087   2.362
 6154SOL    HW219362   5.745   3.232   2.429
 6155SOL     OW19363   3.299   0.991   2.906
 6155SOL    HW119364   3.240   0.971   2.828
 6155SOL    HW219365   3.379   1.042   2.875
 6156SOL     OW19366   4.520   5.055   1.443
 6156SOL    HW119367   4.421   5.052   1.457
 6156SOL    HW219368   4.564   4.994   1.509
 6157SOL     OW19369   0.683   2.152   2.967
 6157SOL    HW119370   0.625   2.147   2.886
 6157SOL    HW219371   0.692   2.247   2.996
 6158SOL     OW19372   3.683   2.281   0.226
 6158SOL    HW119373   3.615   2.340   0.270
 6158SOL    HW219374   3.758   2.337   0.190
 6159SOL     OW19375   4.614   2.356   0.908
 6159SOL    HW119376   4.630   2.275   0.965
 6159SOL    HW219377   4.688   2.422   0.922
 6160SOL     OW19378   6.085   7.021   6.623
 6160SOL    HW119379   6.111   6.958   6.696
 6160SOL    HW219380   5.992   7.000   6.593
 6161SOL     OW19381   5.613   1.324   0.302
 6161SOL    HW119382   5.640   1.331   0.398
 6161SOL    HW219383   5.653   1.243   0.261
 6162SOL     OW19384   6.195   6.149   3.829
 6162SOL    HW119385   6.192   6.126   3.731
 6162SOL    HW219386   6.286   6.129   3.865
 6163SOL     OW19387   5.086   5.825   2.540
 6163SOL    HW119388   5.101   5.872   2.453
 6163SOL    HW219389   5.099   5.727   2.528
 6164SOL     OW19390   3.480   4.185   4.869
 6164SOL    HW119391   3.392   4.171   4.915
 6164SOL    HW219392   3.546   4.223   4.934
 6165SOL     OW19393   4.424   1.832   6.093
 6165SOL    HW119394   4.373   1.860   6.174
 6165SOL    HW219395   4.361   1.816   6.018
 6166SOL     OW19396   6.172   1.801   0.803
 6166SOL    HW119397   6.117   1.718   0.794
 6166SOL    HW219398   6.114   1.875   0.838
 6167SOL     OW19399   1.013   4.804   2.773
 6167SOL    HW119400   1.062   4.789   2.859
 6167SOL    HW219401   0.977   4.897   2.771
 6168SOL     OW19402   0.232   3.186   3.291
 6168SOL    HW119403   0.317   3.210   3.243
 6168SOL    HW219404   0.200   3.264   3.344
 6169SOL     OW19405   1.449   1.752   6.930
 6169SOL    HW119406   1.460   1.657   6.899
 6169SOL    HW219407   1.478   1.759   0.002
 6170SOL     OW19408   3.215   4.409   5.445
 6170SOL    HW119409   3.266   4.361   5.373
 6170SOL    HW219410   3.220   4.355   5.529
 6171SOL     OW19411   1.521   3.390   1.202
 6171SOL    HW119412   1.548   3.440   1.284
 6171SOL    HW219413   1.530   3.291   1.219
 6172SOL     OW19414   1.136   0.776   3.318
 6172SOL    HW119415   1.080   0.832   3.379
 6172SOL    HW219416   1.078   0.737   3.247
 6173SOL     OW19417   6.878   4.920   2.418
 6173SOL    HW119418   6.835   4.913   2.508
 6173SOL    HW219419   6.808   4.918   2.347
 6174SOL     OW19420   6.075   5.064   3.132
 6174SOL    HW119421   6.137   4.986   3.143
 6174SOL    HW219422   5.994   5.049   3.189
 6175SOL     OW19423   5.161   0.367   3.648
 6175SOL    HW119424   5.210   0.280   3.639
 6175SOL    HW219425   5.127   0.375   3.742
 6176SOL     OW19426   6.623   2.931   0.224
 6176SOL    HW119427   6.718   2.918   0.197
 6176SOL    HW219428   6.609   2.897   0.317
 6177SOL     OW19429   6.621   1.667   1.500
 6177SOL    HW119430   6.681   1.739   1.536
 6177SOL    HW219431   6.534   1.671   1.548
 6178SOL     OW19432   4.589   5.145   2.464
 6178SOL    HW119433   4.506   5.158   2.518
 6178SOL    HW219434   4.668   5.176   2.517
 6179SOL     OW19435   6.582   4.942   4.348
 6179SOL    HW119436   6.606   4.861   4.295
 6179SOL    HW219437   6.578   4.918   4.445
 6180SOL     OW19438   3.467   6.143   6.602
 6180SOL    HW119439   3.520   6.073   6.650
 6180SOL    HW219440   3.425   6.102   6.521
 6181SOL     OW19441   4.396   6.384   1.076
 6181SOL    HW119442   4.481   6.390   1.128
 6181SOL    HW219443   4.319   6.376   1.139
 6182SOL     OW19444   5.345   3.351   5.138
 6182SOL    HW119445   5.364   3.394   5.049
 6182SOL    HW219446   5.404   3.270   5.149
 6183SOL     OW19447   2.782   0.082   2.968
 6183SOL    HW119448   2.794   7.022   3.022
 6183SOL    HW219449   2.871   0.116   2.938
 6184SOL     OW19450   1.824   6.508   6.150
 6184SOL    HW119451   1.870   6.482   6.235
 6184SOL    HW219452   1.815   6.607   6.147
 6185SOL     OW19453   0.857   4.748   6.069
 6185SOL    HW119454   0.944   4.720   6.110
 6185SOL    HW219455   0.856   4.848   6.058
 6186SOL     OW19456   6.011   0.270   4.939
 6186SOL    HW119457   5.931   0.296   4.885
 6186SOL    HW219458   5.984   0.255   5.034
 6187SOL     OW19459   4.294   4.653   4.246
 6187SOL    HW119460   4.303   4.729   4.311
 6187SOL    HW219461   4.302   4.566   4.294
 6188SOL     OW19462   2.255   6.750   1.089
 6188SOL    HW119463   2.198   6.740   1.170
 6188SOL    HW219464   2.197   6.769   1.010
 6189SOL     OW19465   4.667   4.256   3.989
 6189SOL    HW119466   4.675   4.178   4.051
 6189SOL    HW219467   4.614   4.329   4.032
 6190SOL     OW19468   6.571   3.478   6.333
 6190SOL    HW119469   6.527   3.528   6.259
 6190SOL    HW219470   6.629   3.541   6.385
 6191SOL     OW19471   4.303   3.190   0.036
 6191SOL    HW119472   4.367   3.154   0.104
 6191SOL    HW219473   4.345   3.186   6.968
 6192SOL     OW19474   3.171   3.204   6.806
 6192SOL    HW119475   3.205   3.283   6.755
 6192SOL    HW219476   3.151   3.231   6.900
 6193SOL     OW19477   5.097   1.072   2.710
 6193SOL    HW119478   5.130   0.978   2.717
 6193SOL    HW219479   5.051   1.085   2.621
 6194SOL     OW19480   1.116   6.728   0.192
 6194SOL    HW119481   1.121   6.828   0.197
 6194SOL    HW219482   1.022   6.698   0.207
 6195SOL     OW19483   3.948   5.643   5.439
 6195SOL    HW119484   3.912   5.569   5.495
 6195SOL    HW219485   3.926   5.731   5.481
 6196SOL     OW19486   5.899   1.974   1.342
 6196SOL    HW119487   5.838   2.004   1.268
 6196SOL    HW219488   5.955   1.898   1.310
 6197SOL     OW19489   4.027   3.986   0.443
 6197SOL    HW119490   4.064   4.054   0.380
 6197SOL    HW219491   3.986   4.033   0.521
 6198SOL     OW19492   3.176   5.143   2.270
 6198SOL    HW119493   3.228   5.059   2.287
 6198SOL    HW219494   3.236   5.211   2.227
 6199SOL     OW19495   1.127   6.907   1.029
 6199SOL    HW119496   1.091   6.814   1.037
 6199SOL    HW219497   1.181   6.915   0.945
 6200SOL     OW19498   1.960   0.787   5.571
 6200SOL    HW119499   1.897   0.863   5.584
 6200SOL    HW219500   2.038   0.816   5.515
 6201SOL     OW19501   1.631   3.838   5.413
 6201SOL    HW119502   1.696   3.853   5.338
 6201SOL    HW219503   1.558   3.778   5.381
 6202SOL     OW19504   4.095   1.859   1.520
 6202SOL    HW119505   4.190   1.831   1.508
 6202SOL    HW219506   4.083   1.951   1.484
 6203SOL     OW19507   5.652   6.637   3.330
 6203SOL    HW119508   5.622   6.722   3.285
 6203SOL    HW219509   5.652   6.562   3.264
 6204SOL     OW19510   0.422   5.149   5.104
 6204SOL    HW119511   0.350   5.214   5.078
 6204SOL    HW219512   0.448   5.164   5.199
 6205SOL     OW19513   5.736   6.419   0.090
 6205SOL    HW119514   5.726   6.340   0.150
 6205SOL    HW219515   5.746   6.388   7.018
 6206SOL     OW19516   6.267   0.589   2.889
 6206SOL    HW119517   6.253   0.501   2.934
 6206SOL    HW219518   6.315   0.651   2.951
 6207SOL     OW19519   1.783   4.192   4.261
 6207SOL    HW119520   1.862   4.246   4.291
 6207SOL    HW219521   1.763   4.213   4.165
 6208SOL     OW19522   6.156   1.429   6.621
 6208SOL    HW119523   6.179   1.389   6.532
 6208SOL    HW219524   6.101   1.511   6.607
 6209SOL     OW19525   4.604   5.431   0.108
 6209SOL    HW119526   4.547   5.399   0.032
 6209SOL    HW219527   4.666   5.501   0.075
 6210SOL     OW19528   5.885   4.549   3.735
 6210SOL    HW119529   5.964   4.516   3.787
 6210SOL    HW219530   5.848   4.631   3.780
 6211SOL     OW19531   3.008   6.110   4.752
 6211SOL    HW119532   2.937   6.043   4.775
 6211SOL    HW219533   3.017   6.175   4.828
 6212SOL     OW19534   2.107   5.399   3.259
 6212SOL    HW119535   2.047   5.450   3.322
 6212SOL    HW219536   2.198   5.391   3.299
 6213SOL     OW19537   4.825   0.324   6.799
 6213SOL    HW119538   4.739   0.330   6.749
 6213SOL    HW219539   4.807   0.321   6.897
 6214SOL     OW19540   4.255   4.822   3.426
 6214SOL    HW119541   4.322   4.756   3.391
 6214SOL    HW219542   4.298   4.880   3.495
 6215SOL     OW19543   3.970   1.981   0.305
 6215SOL    HW119544   3.952   1.980   0.207
 6215SOL    HW219545   3.884   1.980   0.355
 6216SOL     OW19546   6.298   2.106   2.298
 6216SOL    HW119547   6.210   2.137   2.334
 6216SOL    HW219548   6.346   2.183   2.256
 6217SOL     OW19549   0.190   2.902   2.977
 6217SOL    HW119550   0.182   2.823   3.038
 6217SOL    HW219551   0.117   2.899   2.909
 6218SOL     OW19552   2.952   5.049   5.550
 6218SOL    HW119553   3.040   5.086   5.579
 6218SOL    HW219554   2.965   4.995   5.466
 6219SOL     OW19555   1.075   1.940   4.264
 6219SOL    HW119556   1.034   1.859   4.223
 6219SOL    HW219557   1.081   1.928   4.363
 6220SOL     OW19558   1.420   3.152   5.349
 6220SOL    HW119559   1.468   3.203   5.278
 6220SOL    HW219560   1.467   3.163   5.437
 6221SOL     OW19561   6.263   5.736   6.803
 6221SOL    HW119562   6.246   5.764   6.708
 6221SOL    HW219563   6.280   5.816   6.859
 6222SOL     OW19564   1.408   6.436   1.430
 6222SOL    HW119565   1.319   6.393   1.447
 6222SOL    HW219566   1.394   6.524   1.384
 6223SOL     OW19567   0.208   4.540   4.914
 6223SOL    HW119568   0.176   4.446   4.922
 6223SOL    HW219569   0.260   4.565   4.996
 6224SOL     OW19570   2.550   2.101   6.086
 6224SOL    HW119571   2.625   2.133   6.028
 6224SOL    HW219572   2.521   2.010   6.055
 6225SOL     OW19573   3.485   3.153   1.006
 6225SOL    HW119574   3.575   3.187   1.033
 6225SOL    HW219575   3.426   3.145   1.086
 6226SOL     OW19576   5.495   1.647   5.281
 6226SOL    HW119577   5.553   1.674   5.357
 6226SOL    HW219578   5.518   1.701   5.200
 6227SOL     OW19579   3.884   5.459   5.613
 6227SOL    HW119580   3.791   5.471   5.578
 6227SOL    HW219581   3.890   5.375   5.666
 6228SOL     OW19582   0.844   2.933   2.840
 6228SOL    HW119583   0.846   2.932   2.740
 6228SOL    HW219584   0.816   3.023   2.871
 6229SOL     OW19585   0.785   2.993   2.559
 6229SOL    HW119586   0.728   3.074   2.570
 6229SOL    HW219587   0.728   2.916   2.529
 6230SOL     OW19588   1.318   1.359   3.984
 6230SOL    HW119589   1.250   1.428   3.959
 6230SOL    HW219590   1.297   1.273   3.937
 6231SOL     OW19591   6.709   4.983   1.422
 6231SOL    HW119592   6.678   4.996   1.516
 6231SOL    HW219593   6.681   5.061   1.366
 6232SOL     OW19594   6.319   1.658   1.138
 6232SOL    HW119595   6.372   1.597   1.197
 6232SOL    HW219596   6.315   1.620   1.046
 6233SOL     OW19597   5.963   0.756   0.335
 6233SOL    HW119598   6.014   0.688   0.386
 6233SOL    HW219599   5.865   0.736   0.340
 6234SOL     OW19600   6.422   1.684   5.630
 6234SOL    HW119601   6.462   1.754   5.571
 6234SOL    HW219602   6.495   1.625   5.664
 6235SOL     OW19603   1.606   0.162   1.421
 6235SOL    HW119604   1.657   0.171   1.506
 6235SOL    HW219605   1.555   0.246   1.402
 6236SOL     OW19606   0.513   4.107   0.242
 6236SOL    HW119607   0.529   4.201   0.211
 6236SOL    HW219608   0.600   4.058   0.245
 6237SOL     OW19609   3.574   5.931   6.746
 6237SOL    HW119610   3.591   5.854   6.685
 6237SOL    HW219611   3.498   5.909   6.807
 6238SOL     OW19612   3.951   5.116   3.297
 6238SOL    HW119613   3.870   5.064   3.323
 6238SOL    HW219614   3.943   5.209   3.333
 6239SOL     OW19615   3.453   6.000   1.852
 6239SOL    HW119616   3.469   5.991   1.754
 6239SOL    HW219617   3.536   5.973   1.902
 6240SOL     OW19618   2.894   3.209   6.509
 6240SOL    HW119619   2.966   3.146   6.479
 6240SOL    HW219620   2.889   3.209   6.609
 6241SOL     OW19621   3.263   0.017   1.693
 6241SOL    HW119622   3.302   0.002   1.602
 6241SOL    HW219623   3.169   7.007   1.695
 6242SOL     OW19624   5.288   0.998   3.796
 6242SOL    HW119625   5.200   1.021   3.755
 6242SOL    HW219626   5.281   0.910   3.842
 6243SOL     OW19627   6.002   6.597   3.986
 6243SOL    HW119628   5.972   6.502   3.985
 6243SOL    HW219629   6.026   6.626   3.893
 6244SOL     OW19630   1.109   2.100   2.328
 6244SOL    HW119631   1.110   2.008   2.368
 6244SOL    HW219632   1.015   2.129   2.313
 6245SOL     OW19633   1.785   4.085   0.333
 6245SOL    HW119634   1.843   4.151   0.286
 6245SOL    HW219635   1.839   4.034   0.400
 6246SOL     OW19636   1.871   2.691   5.722
 6246SOL    HW119637   1.864   2.592   5.720
 6246SOL    HW219638   1.821   2.730   5.645
 6247SOL     OW19639   1.438   6.717   3.940
 6247SOL    HW119640   1.354   6.688   3.894
 6247SOL    HW219641   1.494   6.772   3.878
 6248SOL     OW19642   2.933   3.967   0.889
 6248SOL    HW119643   2.865   4.040   0.882
 6248SOL    HW219644   3.021   4.007   0.915
 6249SOL     OW19645   0.749   4.010   0.221
 6249SOL    HW119646   0.794   3.959   0.295
 6249SOL    HW219647   0.807   4.010   0.140
 6250SOL     OW19648   0.202   5.822   0.655
 6250SOL    HW119649   0.188   5.921   0.659
 6250SOL    HW219650   0.114   5.776   0.640
 6251SOL     OW19651   3.617   4.990   6.578
 6251SOL    HW119652   3.660   4.916   6.629
 6251SOL    HW219653   3.571   4.953   6.497
 6252SOL     OW19654   1.331   6.460   5.982
 6252SOL    HW119655   1.277   6.424   6.058
 6252SOL    HW219656   1.418   6.411   5.976
 6253SOL     OW19657   2.081   4.006   2.765
 6253SOL    HW119658   1.991   4.031   2.799
 6253SOL    HW219659   2.130   3.952   2.834
 6254SOL     OW19660   4.853   1.151   0.471
 6254SOL    HW119661   4.782   1.105   0.523
 6254SOL    HW219662   4.943   1.130   0.509
 6255SOL     OW19663   2.722   0.602   1.271
 6255SOL    HW119664   2.819   0.595   1.250
 6255SOL    HW219665   2.669   0.573   1.190
 6256SOL     OW19666   3.211   4.994   2.871
 6256SOL    HW119667   3.162   5.076   2.842
 6256SOL    HW219668   3.306   4.999   2.839
 6257SOL     OW19669   4.880   2.419   0.688
 6257SOL    HW119670   4.872   2.415   0.787
 6257SOL    HW219671   4.925   2.504   0.661
 6258SOL     OW19672   4.483   0.093   3.687
 6258SOL    HW119673   4.473   0.054   3.779
 6258SOL    HW219674   4.518   0.186   3.694
 6259SOL     OW19675   2.740   2.695   0.694
 6259SOL    HW119676   2.778   2.651   0.613
 6259SOL    HW219677   2.814   2.743   0.743
 6260SOL     OW19678   3.211   5.484   0.116
 6260SOL    HW119679   3.122   5.527   0.104
 6260SOL    HW219680   3.249   5.458   0.027
 6261SOL     OW19681   3.690   0.058   6.366
 6261SOL    HW119682   3.748   0.082   6.289
 6261SOL    HW219683   3.743   0.006   6.433
 6262SOL     OW19684   1.626   4.932   0.649
 6262SOL    HW119685   1.650   4.986   0.569
 6262SOL    HW219686   1.710   4.904   0.697
 6263SOL     OW19687   0.206   0.559   5.434
 6263SOL    HW119688   0.257   0.645   5.426
 6263SOL    HW219689   0.161   0.539   5.347
 6264SOL     OW19690   1.389   0.199   1.677
 6264SOL    HW119691   1.474   0.175   1.722
 6264SOL    HW219692   1.349   0.117   1.635
 6265SOL     OW19693   2.822   4.198   0.783
 6265SOL    HW119694   2.731   4.172   0.750
 6265SOL    HW219695   2.818   4.288   0.826
 6266SOL     OW19696   4.152   7.022   4.679
 6266SOL    HW119697   4.214   0.073   4.653
 6266SOL    HW219698   4.158   6.948   4.612
 6267SOL     OW19699   2.482   0.645   6.673
 6267SOL    HW119700   2.423   0.691   6.607
 6267SOL    HW219701   2.568   0.694   6.681
 6268SOL     OW19702   3.608   6.485   3.219
 6268SOL    HW119703   3.642   6.508   3.129
 6268SOL    HW219704   3.516   6.521   3.231
 6269SOL     OW19705   6.587   5.596   1.632
 6269SOL    HW119706   6.671   5.584   1.684
 6269SOL    HW219707   6.581   5.690   1.599
 6270SOL     OW19708   1.699   0.646   5.565
 6270SOL    HW119709   1.774   0.694   5.611
 6270SOL    HW219710   1.655   0.584   5.630
 6271SOL     OW19711   5.730   2.297   5.938
 6271SOL    HW119712   5.630   2.304   5.948
 6271SOL    HW219713   5.762   2.364   5.872
 6272SOL     OW19714   0.720   2.415   6.379
 6272SOL    HW119715   0.813   2.412   6.417
 6272SOL    HW219716   0.722   2.460   6.290
 6273SOL     OW19717   2.084   6.855   3.167
 6273SOL    HW119718   2.099   6.939   3.220
 6273SOL    HW219719   1.999   6.864   3.115
 6274SOL     OW19720   2.014   5.284   6.045
 6274SOL    HW119721   2.079   5.211   6.067
 6274SOL    HW219722   2.040   5.325   5.958
 6275SOL     OW19723   2.047   6.017   4.826
 6275SOL    HW119724   2.121   5.993   4.764
 6275SOL    HW219725   2.068   5.984   4.918
 6276SOL     OW19726   2.116   5.018   3.220
 6276SOL    HW119727   2.182   4.957   3.176
 6276SOL    HW219728   2.023   4.988   3.199
 6277SOL     OW19729   5.533   3.645   1.776
 6277SOL    HW119730   5.616   3.609   1.818
 6277SOL    HW219731   5.471   3.569   1.755
 6278SOL     OW19732   5.039   6.994   4.769
 6278SOL    HW119733   5.002   6.910   4.729
 6278SOL    HW219734   5.109   0.009   4.709
 6279SOL     OW19735   3.517   0.759   6.501
 6279SOL    HW119736   3.438   0.722   6.451
 6279SOL    HW219737   3.573   0.684   6.535
 6280SOL     OW19738   0.732   2.184   5.272
 6280SOL    HW119739   0.683   2.249   5.213
 6280SOL    HW219740   0.822   2.165   5.232
 6281SOL     OW19741   1.778   4.935   3.860
 6281SOL    HW119742   1.816   4.983   3.938
 6281SOL    HW219743   1.849   4.877   3.818
 6282SOL     OW19744   1.366   7.005   5.044
 6282SOL    HW119745   1.325   0.071   5.028
 6282SOL    HW219746   1.379   6.991   5.142
 6283SOL     OW19747   6.771   3.043   6.006
 6283SOL    HW119748   6.747   3.077   5.915
 6283SOL    HW219749   6.832   2.964   5.997
 6284SOL     OW19750   1.958   5.225   4.489
 6284SOL    HW119751   1.863   5.203   4.509
 6284SOL    HW219752   1.967   5.323   4.474
 6285SOL     OW19753   0.911   3.222   3.856
 6285SOL    HW119754   0.996   3.192   3.900
 6285SOL    HW219755   0.893   3.317   3.882
 6286SOL     OW19756   6.511   1.836   3.881
 6286SOL    HW119757   6.446   1.818   3.808
 6286SOL    HW219758   6.562   1.753   3.902
 6287SOL     OW19759   3.789   4.915   3.930
 6287SOL    HW119760   3.702   4.941   3.971
 6287SOL    HW219761   3.787   4.936   3.832
 6288SOL     OW19762   5.720   4.871   2.499
 6288SOL    HW119763   5.685   4.965   2.504
 6288SOL    HW219764   5.690   4.829   2.414
 6289SOL     OW19765   1.335   4.987   2.090
 6289SOL    HW119766   1.330   4.900   2.139
 6289SOL    HW219767   1.305   5.061   2.150
 6290SOL     OW19768   5.974   3.582   4.165
 6290SOL    HW119769   6.031   3.654   4.126
 6290SOL    HW219770   5.895   3.567   4.106
 6291SOL     OW19771   3.570   2.856   4.834
 6291SOL    HW119772   3.668   2.874   4.818
 6291SOL    HW219773   3.547   2.878   4.929
 6292SOL     OW19774   1.412   2.153   3.619
 6292SOL    HW119775   1.365   2.086   3.562
 6292SOL    HW219776   1.416   2.120   3.713
 6293SOL     OW19777   3.450   0.305   7.005
 6293SOL    HW119778   3.526   0.271   0.038
 6293SOL    HW219779   3.370   0.322   0.040
 6294SOL     OW19780   3.588   4.965   4.260
 6294SOL    HW119781   3.571   4.949   4.163
 6294SOL    HW219782   3.645   5.046   4.271
 6295SOL     OW19783   5.379   5.243   5.806
 6295SOL    HW119784   5.436   5.315   5.846
 6295SOL    HW219785   5.328   5.197   5.879
 6296SOL     OW19786   6.996   6.670   5.194
 6296SOL    HW119787   0.038   6.743   5.215
 6296SOL    HW219788   6.921   6.708   5.140
 6297SOL     OW19789   4.720   6.916   4.866
 6297SOL    HW119790   4.651   6.866   4.917
 6297SOL    HW219791   4.780   6.965   4.929
 6298SOL     OW19792   1.367   2.640   5.869
 6298SOL    HW119793   1.289   2.689   5.908
 6298SOL    HW219794   1.444   2.702   5.859
 6299SOL     OW19795   5.322   1.406   0.354
 6299SOL    HW119796   5.269   1.459   0.287
 6299SOL    HW219797   5.408   1.377   0.313
 6300SOL     OW19798   5.090   0.385   6.908
 6300SOL    HW119799   5.011   0.360   6.852
 6300SOL    HW219800   5.157   0.311   6.907
 6301SOL     OW19801   3.489   0.641   0.986
 6301SOL    HW119802   3.434   0.718   0.953
 6301SOL    HW219803   3.463   0.619   1.080
 6302SOL     OW19804   1.735   1.142   3.913
 6302SOL    HW119805   1.697   1.234   3.920
 6302SOL    HW219806   1.770   1.127   3.820
 6303SOL     OW19807   2.019   0.958   4.821
 6303SOL    HW119808   1.982   0.971   4.913
 6303SOL    HW219809   2.096   1.019   4.807
 6304SOL     OW19810   2.288   1.345   1.356
 6304SOL    HW119811   2.212   1.313   1.412
 6304SOL    HW219812   2.316   1.272   1.293
 6305SOL     OW19813   6.237   6.951   1.848
 6305SOL    HW119814   6.335   6.970   1.839
 6305SOL    HW219815   6.198   7.009   1.919
 6306SOL     OW19816   1.293   3.276   4.181
 6306SOL    HW119817   1.320   3.365   4.144
 6306SOL    HW219818   1.267   3.287   4.277
 6307SOL     OW19819   4.057   4.444   5.770
 6307SOL    HW119820   4.033   4.380   5.697
 6307SOL    HW219821   3.990   4.438   5.844
 6308SOL     OW19822   1.930   2.069   4.668
 6308SOL    HW119823   1.901   2.149   4.720
 6308SOL    HW219824   2.028   2.075   4.649
 6309SOL     OW19825   5.201   4.242   4.454
 6309SOL    HW119826   5.291   4.253   4.498
 6309SOL    HW219827   5.214   4.221   4.357
 6310SOL     OW19828   2.007   5.739   3.118
 6310SOL    HW119829   1.956   5.825   3.115
 6310SOL    HW219830   2.041   5.724   3.211
 6311SOL     OW19831   5.440   0.534   5.740
 6311SOL    HW119832   5.497   0.604   5.697
 6311SOL    HW219833   5.473   0.519   5.834
 6312SOL     OW19834   6.277   5.099   5.866
 6312SOL    HW119835   6.366   5.124   5.905
 6312SOL    HW219836   6.290   5.067   5.772
 6313SOL     OW19837   1.373   6.480   3.781
 6313SOL    HW119838   1.371   6.425   3.698
 6313SOL    HW219839   1.453   6.454   3.836
 6314SOL     OW19840   4.257   6.659   1.701
 6314SOL    HW119841   4.293   6.569   1.725
 6314SOL    HW219842   4.239   6.663   1.603
 6315SOL     OW19843   3.637   3.086   6.218
 6315SOL    HW119844   3.671   3.050   6.131
 6315SOL    HW219845   3.685   3.041   6.293
 6316SOL     OW19846   4.512   1.859   6.729
 6316SOL    HW119847   4.462   1.804   6.796
 6316SOL    HW219848   4.603   1.881   6.764
 6317SOL     OW19849   5.122   5.324   2.663
 6317SOL    HW119850   5.058   5.388   2.707
 6317SOL    HW219851   5.112   5.234   2.703
 6318SOL     OW19852   2.765   2.149   4.676
 6318SOL    HW119853   2.793   2.148   4.580
 6318SOL    HW219854   2.847   2.155   4.733
 6319SOL     OW19855   7.007   2.198   3.822
 6319SOL    HW119856   6.949   2.274   3.792
 6319SOL    HW219857   0.065   2.233   3.868
 6320SOL     OW19858   5.881   5.503   4.980
 6320SOL    HW119859   5.792   5.459   4.980
 6320SOL    HW219860   5.927   5.487   5.067
 6321SOL     OW19861   3.277   3.628   1.114
 6321SOL    HW119862   3.331   3.697   1.163
 6321SOL    HW219863   3.275   3.651   1.017
 6322SOL     OW19864   2.016   2.391   6.902
 6322SOL    HW119865   1.958   2.317   6.937
 6322SOL    HW219866   1.958   2.466   6.871
 6323SOL     OW19867   3.127   2.666   1.506
 6323SOL    HW119868   3.106   2.571   1.531
 6323SOL    HW219869   3.225   2.675   1.490
 6324SOL     OW19870   5.437   0.302   6.229
 6324SOL    HW119871   5.377   0.379   6.207
 6324SOL    HW219872   5.449   0.296   6.328
 6325SOL     OW19873   2.354   2.188   2.380
 6325SOL    HW119874   2.342   2.260   2.448
 6325SOL    HW219875   2.349   2.227   2.288
 6326SOL     OW19876   5.065   5.697   1.399
 6326SOL    HW119877   5.030   5.603   1.402
 6326SOL    HW219878   5.163   5.695   1.381
 6327SOL     OW19879   0.246   0.527   4.980
 6327SOL    HW119880   0.327   0.534   5.038
 6327SOL    HW219881   0.244   0.603   4.915
 6328SOL     OW19882   1.823   4.028   0.912
 6328SOL    HW119883   1.903   4.045   0.970
 6328SOL    HW219884   1.845   3.959   0.844
 6329SOL     OW19885   2.013   2.722   3.270
 6329SOL    HW119886   2.036   2.784   3.346
 6329SOL    HW219887   2.033   2.628   3.297
 6330SOL     OW19888   4.713   1.178   0.993
 6330SOL    HW119889   4.783   1.242   1.024
 6330SOL    HW219890   4.626   1.226   0.979
 6331SOL     OW19891   6.329   1.879   6.938
 6331SOL    HW119892   6.322   1.972   6.904
 6331SOL    HW219893   6.239   1.848   6.968
 6332SOL     OW19894   6.430   3.671   1.874
 6332SOL    HW119895   6.438   3.709   1.966
 6332SOL    HW219896   6.336   3.681   1.841
 6333SOL     OW19897   4.092   5.614   4.851
 6333SOL    HW119898   4.173   5.669   4.869
 6333SOL    HW219899   4.119   5.517   4.845
 6334SOL     OW19900   3.359   0.225   1.859
 6334SOL    HW119901   3.323   0.145   1.812
 6334SOL    HW219902   3.372   0.204   1.956
 6335SOL     OW19903   4.579   1.090   0.054
 6335SOL    HW119904   4.568   1.179   0.096
 6335SOL    HW219905   4.506   1.029   0.085
 6336SOL     OW19906   0.498   1.753   6.623
 6336SOL    HW119907   0.537   1.844   6.637
 6336SOL    HW219908   0.460   1.720   6.710
 6337SOL     OW19909   4.992   4.277   6.035
 6337SOL    HW119910   4.985   4.372   6.003
 6337SOL    HW219911   5.089   4.255   6.049
 6338SOL     OW19912   3.514   1.912   3.311
 6338SOL    HW119913   3.504   1.817   3.281
 6338SOL    HW219914   3.510   1.973   3.231
 6339SOL     OW19915   1.462   2.998   2.620
 6339SOL    HW119916   1.381   2.970   2.672
 6339SOL    HW219917   1.534   3.027   2.684
 6340SOL     OW19918   1.327   4.991   2.711
 6340SOL    HW119919   1.328   4.895   2.684
 6340SOL    HW219920   1.334   4.997   2.811
 6341SOL     OW19921   0.564   4.216   3.945
 6341SOL    HW119922   0.627   4.243   3.872
 6341SOL    HW219923   0.508   4.294   3.972
 6342SOL     OW19924   2.352   1.826   2.026
 6342SOL    HW119925   2.412   1.906   2.025
 6342SOL    HW219926   2.378   1.764   1.951
 6343SOL     OW19927   4.973   2.445   6.923
 6343SOL    HW119928   5.051   2.429   6.984
 6343SOL    HW219929   4.942   2.358   6.884
 6344SOL     OW19930   5.444   3.420   4.895
 6344SOL    HW119931   5.537   3.382   4.896
 6344SOL    HW219932   5.383   3.358   4.848
 6345SOL     OW19933   4.853   1.887   2.164
 6345SOL    HW119934   4.900   1.805   2.131
 6345SOL    HW219935   4.783   1.914   2.099
 6346SOL     OW19936   6.801   4.565   4.062
 6346SOL    HW119937   6.893   4.550   4.026
 6346SOL    HW219938   6.774   4.485   4.117
 6347SOL     OW19939   1.908   0.021   1.534
 6347SOL    HW119940   1.996   0.019   1.487
 6347SOL    HW219941   1.860   0.105   1.512
 6348SOL     OW19942   1.460   3.930   4.866
 6348SOL    HW119943   1.494   3.921   4.959
 6348SOL    HW219944   1.363   3.954   4.869
 6349SOL     OW19945   3.365   0.115   1.106
 6349SOL    HW119946   3.378   0.206   1.068
 6349SOL    HW219947   3.405   0.111   1.198
 6350SOL     OW19948   2.566   4.614   3.996
 6350SOL    HW119949   2.575   4.558   3.914
 6350SOL    HW219950   2.609   4.703   3.980
 6351SOL     OW19951   6.284   3.584   3.430
 6351SOL    HW119952   6.243   3.574   3.520
 6351SOL    HW219953   6.254   3.509   3.371
 6352SOL     OW19954   3.156   5.230   4.679
 6352SOL    HW119955   3.149   5.273   4.770
 6352SOL    HW219956   3.065   5.204   4.648
 6353SOL     OW19957   0.114   1.099   6.002
 6353SOL    HW119958   0.176   1.020   5.999
 6353SOL    HW219959   0.021   1.068   6.020
 6354SOL     OW19960   1.856   6.183   3.304
 6354SOL    HW119961   1.933   6.246   3.311
 6354SOL    HW219962   1.791   6.217   3.236
 6355SOL     OW19963   1.157   5.520   5.997
 6355SOL    HW119964   1.127   5.611   6.023
 6355SOL    HW219965   1.078   5.463   5.974
 6356SOL     OW19966   3.553   4.925   2.458
 6356SOL    HW119967   3.549   4.919   2.358
 6356SOL    HW219968   3.647   4.944   2.486
 6357SOL     OW19969   5.185   3.101   2.507
 6357SOL    HW119970   5.135   3.147   2.580
 6357SOL    HW219971   5.283   3.111   2.522
 6358SOL     OW19972   1.313   2.166   6.059
 6358SOL    HW119973   1.373   2.237   6.021
 6358SOL    HW219974   1.279   2.195   6.148
 6359SOL     OW19975   6.369   6.691   5.685
 6359SOL    HW119976   6.299   6.761   5.674
 6359SOL    HW219977   6.460   6.732   5.679
 6360SOL     OW19978   1.843   3.880   4.052
 6360SOL    HW119979   1.799   3.922   4.132
 6360SOL    HW219980   1.858   3.783   4.070
 6361SOL     OW19981   6.238   0.131   0.537
 6361SOL    HW119982   6.199   0.202   0.478
 6361SOL    HW219983   6.335   0.119   0.515
 6362SOL     OW19984   6.824   5.862   0.352
 6362SOL    HW119985   6.770   5.788   0.310
 6362SOL    HW219986   6.871   5.914   0.280
 6363SOL     OW19987   2.376   4.342   3.167
 6363SOL    HW119988   2.302   4.407   3.183
 6363SOL    HW219989   2.351   4.282   3.090
 6364SOL     OW19990   3.125   1.417   5.961
 6364SOL    HW119991   3.111   1.380   5.869
 6364SOL    HW219992   3.210   1.470   5.963
 6365SOL     OW19993   5.626   6.938   4.424
 6365SOL    HW119994   5.624   0.007   4.462
 6365SOL    HW219995   5.708   6.891   4.456
 6366SOL     OW19996   1.130   5.360   6.620
 6366SOL    HW119997   1.201   5.387   6.555
 6366SOL    HW219998   1.064   5.301   6.574
 6367SOL     OW19999   3.909   0.078   4.579
 6367SOL    HW120000   3.831   0.034   4.623
 6367SOL    HW220001   3.994   0.053   4.626
 6368SOL     OW20002   3.235   6.091   3.463
 6368SOL    HW120003   3.262   6.119   3.555
 6368SOL    HW220004   3.200   5.997   3.467
 6369SOL     OW20005   1.956   4.377   4.310
 6369SOL    HW120006   1.984   4.359   4.404
 6369SOL    HW220007   2.037   4.393   4.253
 6370SOL     OW20008   0.608   3.576   2.560
 6370SOL    HW120009   0.639   3.652   2.503
 6370SOL    HW220010   0.686   3.516   2.580
 6371SOL     OW20011   5.187   3.772   4.185
 6371SOL    HW120012   5.181   3.680   4.223
 6371SOL    HW220013   5.252   3.773   4.109
 6372SOL     OW20014   3.723   0.225   2.013
 6372SOL    HW120015   3.650   0.286   1.979
 6372SOL    HW220016   3.803   0.235   1.954
 6373SOL     OW20017   5.464   4.487   3.668
 6373SOL    HW120018   5.409   4.500   3.751
 6373SOL    HW220019   5.407   4.500   3.587
 6374SOL     OW20020   3.247   3.845   4.859
 6374SOL    HW120021   3.208   3.770   4.805
 6374SOL    HW220022   3.289   3.912   4.797
 6375SOL     OW20023   6.840   1.650   4.459
 6375SOL    HW120024   6.747   1.643   4.423
 6375SOL    HW220025   6.896   1.577   4.419
 6376SOL     OW20026   6.285   2.635   5.344
 6376SOL    HW120027   6.278   2.547   5.298
 6376SOL    HW220028   6.210   2.646   5.409
 6377SOL     OW20029   6.156   1.737   5.649
 6377SOL    HW120030   6.150   1.757   5.551
 6377SOL    HW220031   6.252   1.719   5.672
 6378SOL     OW20032   4.949   5.207   3.627
 6378SOL    HW120033   4.922   5.301   3.608
 6378SOL    HW220034   4.908   5.146   3.560
 6379SOL     OW20035   2.227   4.183   4.206
 6379SOL    HW120036   2.197   4.089   4.192
 6379SOL    HW220037   2.205   4.212   4.299
 6380SOL     OW20038   0.717   1.323   6.487
 6380SOL    HW120039   0.747   1.231   6.512
 6380SOL    HW220040   0.641   1.351   6.546
 6381SOL     OW20041   3.832   3.341   1.801
 6381SOL    HW120042   3.922   3.386   1.797
 6381SOL    HW220043   3.831   3.265   1.736
 6382SOL     OW20044   0.840   2.310   0.222
 6382SOL    HW120045   0.934   2.343   0.217
 6382SOL    HW220046   0.790   2.361   0.292
 6383SOL     OW20047   1.977   2.048   2.975
 6383SOL    HW120048   1.984   2.112   2.898
 6383SOL    HW220049   2.027   1.965   2.953
 6384SOL     OW20050   5.116   4.243   1.350
 6384SOL    HW120051   5.181   4.298   1.298
 6384SOL    HW220052   5.130   4.146   1.329
 6385SOL     OW20053   6.756   5.122   4.056
 6385SOL    HW120054   6.670   5.129   4.106
 6385SOL    HW220055   6.827   5.084   4.116
 6386SOL     OW20056   2.332   4.588   6.384
 6386SOL    HW120057   2.299   4.652   6.314
 6386SOL    HW220058   2.425   4.614   6.411
 6387SOL     OW20059   0.934   1.515   6.577
 6387SOL    HW120060   0.843   1.483   6.554
 6387SOL    HW220061   0.963   1.585   6.512
 6388SOL     OW20062   4.116   4.633   1.268
 6388SOL    HW120063   4.054   4.696   1.222
 6388SOL    HW220064   4.111   4.544   1.225
 6389SOL     OW20065   0.775   6.276   2.560
 6389SOL    HW120066   0.720   6.247   2.638
 6389SOL    HW220067   0.771   6.375   2.552
 6390SOL     OW20068   0.933   1.937   4.804
 6390SOL    HW120069   0.943   1.883   4.888
 6390SOL    HW220070   0.945   2.034   4.825
 6391SOL     OW20071   2.712   6.731   5.672
 6391SOL    HW120072   2.622   6.761   5.642
 6391SOL    HW220073   2.775   6.729   5.594
 6392SOL     OW20074   2.416   0.263   3.693
 6392SOL    HW120075   2.322   0.294   3.677
 6392SOL    HW220076   2.421   0.164   3.677
 6393SOL     OW20077   5.932   0.037   1.235
 6393SOL    HW120078   5.870   0.040   1.313
 6393SOL    HW220079   5.879   0.040   1.150
 6394SOL     OW20080   2.308   4.781   1.152
 6394SOL    HW120081   2.224   4.811   1.197
 6394SOL    HW220082   2.292   4.692   1.108
 6395SOL     OW20083   6.511   2.949   2.031
 6395SOL    HW120084   6.492   3.039   1.993
 6395SOL    HW220085   6.563   2.959   2.116
 6396SOL     OW20086   5.399   3.150   6.461
 6396SOL    HW120087   5.499   3.150   6.465
 6396SOL    HW220088   5.364   3.241   6.483
 6397SOL     OW20089   5.737   2.567   6.076
 6397SOL    HW120090   5.775   2.478   6.049
 6397SOL    HW220091   5.644   2.575   6.039
 6398SOL     OW20092   3.174   1.100   0.795
 6398SOL    HW120093   3.122   1.052   0.725
 6398SOL    HW220094   3.115   1.121   0.872
 6399SOL     OW20095   1.230   5.205   6.817
 6399SOL    HW120096   1.145   5.206   6.871
 6399SOL    HW220097   1.219   5.263   6.736
 6400SOL     OW20098   2.464   6.380   2.770
 6400SOL    HW120099   2.417   6.339   2.692
 6400SOL    HW220100   2.456   6.480   2.765
 6401SOL     OW20101   0.554   4.696   3.439
 6401SOL    HW120102   0.483   4.766   3.440
 6401SOL    HW220103   0.627   4.722   3.503
 6402SOL     OW20104   4.441   1.008   2.867
 6402SOL    HW120105   4.435   1.107   2.875
 6402SOL    HW220106   4.381   0.965   2.934
 6403SOL     OW20107   0.059   6.161   6.535
 6403SOL    HW120108   6.990   6.164   6.494
 6403SOL    HW220109   0.101   6.072   6.516
 6404SOL     OW20110   4.422   1.298   2.915
 6404SOL    HW120111   4.324   1.284   2.897
 6404SOL    HW220112   4.464   1.345   2.838
 6405SOL     OW20113   2.437   0.729   3.469
 6405SOL    HW120114   2.387   0.769   3.546
 6405SOL    HW220115   2.477   0.802   3.413
 6406SOL     OW20116   1.502   2.695   3.690
 6406SOL    HW120117   1.565   2.772   3.697
 6406SOL    HW220118   1.534   2.620   3.748
 6407SOL     OW20119   2.998   0.035   3.758
 6407SOL    HW120120   3.078   0.004   3.810
 6407SOL    HW220121   2.980   0.131   3.780
 6408SOL     OW20122   5.931   1.982   0.247
 6408SOL    HW120123   5.990   1.958   0.324
 6408SOL    HW220124   5.862   2.048   0.277
 6409SOL     OW20125   0.830   4.873   3.143
 6409SOL    HW120126   0.899   4.945   3.142
 6409SOL    HW220127   0.744   4.908   3.108
 6410SOL     OW20128   2.200   1.554   0.482
 6410SOL    HW120129   2.250   1.478   0.442
 6410SOL    HW220130   2.203   1.547   0.582
 6411SOL     OW20131   0.365   2.542   3.371
 6411SOL    HW120132   0.404   2.622   3.415
 6411SOL    HW220133   0.325   2.482   3.440
 6412SOL     OW20134   0.294   2.778   5.163
 6412SOL    HW120135   0.301   2.822   5.074
 6412SOL    HW220136   0.204   2.798   5.203
 6413SOL     OW20137   4.083   4.804   3.202
 6413SOL    HW120138   4.128   4.815   3.291
 6413SOL    HW220139   4.132   4.734   3.149
 6414SOL     OW20140   5.950   0.348   1.446
 6414SOL    HW120141   5.907   0.333   1.535
 6414SOL    HW220142   6.045   0.318   1.450
 6415SOL     OW20143   2.003   2.378   3.019
 6415SOL    HW120144   1.909   2.411   3.033
 6415SOL    HW220145   2.058   2.452   2.980
 6416SOL     OW20146   1.055   1.113   6.447
 6416SOL    HW120147   1.078   1.211   6.446
 6416SOL    HW220148   1.107   1.066   6.376
 6417SOL     OW20149   6.709   4.100   1.775
 6417SOL    HW120150   6.635   4.034   1.784
 6417SOL    HW220151   6.759   4.107   1.862
 6418SOL     OW20152   4.756   4.659   1.652
 6418SOL    HW120153   4.749   4.749   1.608
 6418SOL    HW220154   4.718   4.589   1.592
 6419SOL     OW20155   2.365   4.446   2.820
 6419SOL    HW120156   2.392   4.357   2.858
 6419SOL    HW220157   2.298   4.432   2.747
 6420SOL     OW20158   2.983   3.776   5.622
 6420SOL    HW120159   2.991   3.873   5.645
 6420SOL    HW220160   3.056   3.725   5.668
 6421SOL     OW20161   5.628   1.284   2.325
 6421SOL    HW120162   5.582   1.339   2.257
 6421SOL    HW220163   5.693   1.341   2.376
 6422SOL     OW20164   0.230   0.522   4.398
 6422SOL    HW120165   0.318   0.500   4.356
 6422SOL    HW220166   0.193   0.606   4.357
 6423SOL     OW20167   4.647   4.855   2.500
 6423SOL    HW120168   4.703   4.837   2.419
 6423SOL    HW220169   4.612   4.948   2.496
 6424SOL     OW20170   6.412   5.977   5.385
 6424SOL    HW120171   6.445   6.058   5.432
 6424SOL    HW220172   6.331   5.999   5.332
 6425SOL     OW20173   6.360   5.567   3.277
 6425SOL    HW120174   6.309   5.594   3.195
 6425SOL    HW220175   6.347   5.470   3.294
 6426SOL     OW20176   0.613   5.172   3.415
 6426SOL    HW120177   0.653   5.133   3.498
 6426SOL    HW220178   0.513   5.171   3.423
 6427SOL     OW20179   2.202   3.303   6.202
 6427SOL    HW120180   2.130   3.250   6.156
 6427SOL    HW220181   2.291   3.278   6.165
 6428SOL     OW20182   6.673   2.814   6.943
 6428SOL    HW120183   6.732   2.748   6.897
 6428SOL    HW220184   6.720   2.851   0.000
 6429SOL     OW20185   0.684   1.639   5.680
 6429SOL    HW120186   0.627   1.678   5.608
 6429SOL    HW220187   0.669   1.689   5.765
 6430SOL     OW20188   5.371   1.124   2.066
 6430SOL    HW120189   5.387   1.134   1.968
 6430SOL    HW220190   5.360   1.214   2.108
 6431SOL     OW20191   5.461   6.561   3.509
 6431SOL    HW120192   5.499   6.547   3.600
 6431SOL    HW220193   5.534   6.585   3.446
 6432SOL     OW20194   4.518   3.674   0.047
 6432SOL    HW120195   4.521   3.757   0.104
 6432SOL    HW220196   4.579   3.686   6.992
 6433SOL     OW20197   3.624   4.561   0.560
 6433SOL    HW120198   3.708   4.510   0.542
 6433SOL    HW220199   3.575   4.520   0.637
 6434SOL     OW20200   1.976   3.681   0.345
 6434SOL    HW120201   1.955   3.777   0.365
 6434SOL    HW220202   1.979   3.668   0.246
 6435SOL     OW20203   4.107   6.140   7.012
 6435SOL    HW120204   4.172   6.193   0.043
 6435SOL    HW220205   4.109   6.171   6.916
 6436SOL     OW20206   2.227   3.027   3.182
 6436SOL    HW120207   2.193   3.097   3.245
 6436SOL    HW220208   2.190   3.043   3.091
 6437SOL     OW20209   2.182   0.756   1.349
 6437SOL    HW120210   2.216   0.849   1.361
 6437SOL    HW220211   2.112   0.736   1.419
 6438SOL     OW20212   0.819   4.577   6.553
 6438SOL    HW120213   0.807   4.614   6.461
 6438SOL    HW220214   0.756   4.622   6.616
 6439SOL     OW20215   6.329   0.561   1.568
 6439SOL    HW120216   6.278   0.481   1.601
 6439SOL    HW220217   6.268   0.640   1.565
 6440SOL     OW20218   2.257   1.810   1.103
 6440SOL    HW120219   2.336   1.846   1.054
 6440SOL    HW220220   2.181   1.797   1.040
 6441SOL     OW20221   1.039   6.698   2.304
 6441SOL    HW120222   1.031   6.689   2.204
 6441SOL    HW220223   1.045   6.795   2.328
 6442SOL     OW20224   2.834   1.141   3.938
 6442SOL    HW120225   2.915   1.151   3.994
 6442SOL    HW220226   2.831   1.048   3.900
 6443SOL     OW20227   4.145   2.615   6.291
 6443SOL    HW120228   4.097   2.631   6.204
 6443SOL    HW220229   4.213   2.543   6.278
 6444SOL     OW20230   0.200   2.430   3.736
 6444SOL    HW120231   0.141   2.511   3.741
 6444SOL    HW220232   0.183   2.373   3.816
 6445SOL     OW20233   5.024   2.978   5.489
 6445SOL    HW120234   5.006   2.935   5.577
 6445SOL    HW220235   4.942   2.972   5.432
 6446SOL     OW20236   0.961   0.707   6.204
 6446SOL    HW120237   1.015   0.788   6.226
 6446SOL    HW220238   1.022   0.634   6.172
 6447SOL     OW20239   0.108   5.505   2.530
 6447SOL    HW120240   0.134   5.559   2.450
 6447SOL    HW220241   0.174   5.519   2.604
 6448SOL     OW20242   4.908   4.562   2.827
 6448SOL    HW120243   4.883   4.627   2.756
 6448SOL    HW220244   4.985   4.598   2.880
 6449SOL     OW20245   2.787   4.493   0.329
 6449SOL    HW120246   2.818   4.516   0.421
 6449SOL    HW220247   2.827   4.558   0.263
 6450SOL     OW20248   0.344   3.739   1.423
 6450SOL    HW120249   0.356   3.703   1.516
 6450SOL    HW220250   0.272   3.808   1.423
 6451SOL     OW20251   2.513   6.772   5.424
 6451SOL    HW120252   2.482   6.844   5.485
 6451SOL    HW220253   2.555   6.813   5.343
 6452SOL     OW20254   3.450   6.412   4.736
 6452SOL    HW120255   3.437   6.493   4.679
 6452SOL    HW220256   3.536   6.368   4.711
 6453SOL     OW20257   1.383   6.875   0.426
 6453SOL    HW120258   1.357   6.829   0.341
 6453SOL    HW220259   1.300   6.892   0.480
 6454SOL     OW20260   3.404   1.562   3.190
 6454SOL    HW120261   3.481   1.616   3.155
 6454SOL    HW220262   3.319   1.609   3.167
 6455SOL     OW20263   0.262   2.067   4.129
 6455SOL    HW120264   0.174   2.020   4.126
 6455SOL    HW220265   0.279   2.098   4.223
 6456SOL     OW20266   1.817   0.840   3.547
 6456SOL    HW120267   1.912   0.872   3.549
 6456SOL    HW220268   1.794   0.810   3.454
 6457SOL     OW20269   5.216   1.306   1.092
 6457SOL    HW120270   5.163   1.274   1.171
 6457SOL    HW220271   5.217   1.406   1.091
 6458SOL     OW20272   0.713   0.112   3.288
 6458SOL    HW120273   0.791   0.173   3.298
 6458SOL    HW220274   0.742   0.018   3.311
 6459SOL     OW20275   6.018   4.832   0.468
 6459SOL    HW120276   5.943   4.895   0.489
 6459SOL    HW220277   6.067   4.810   0.552
 6460SOL     OW20278   4.602   4.969   5.638
 6460SOL    HW120279   4.647   5.053   5.667
 6460SOL    HW220280   4.564   4.981   5.546
 6461SOL     OW20281   2.752   4.901   4.999
 6461SOL    HW120282   2.784   4.807   5.008
 6461SOL    HW220283   2.830   4.962   4.988
 6462SOL     OW20284   2.424   2.697   4.934
 6462SOL    HW120285   2.447   2.794   4.929
 6462SOL    HW220286   2.342   2.680   4.880
 6463SOL     OW20287   1.164   3.618   0.011
 6463SOL    HW120288   1.256   3.603   6.999
 6463SOL    HW220289   1.112   3.532   0.006
 6464SOL     OW20290   0.791   5.356   4.668
 6464SOL    HW120291   0.733   5.292   4.718
 6464SOL    HW220292   0.870   5.381   4.725
 6465SOL     OW20293   6.354   2.595   3.875
 6465SOL    HW120294   6.362   2.544   3.789
 6465SOL    HW220295   6.434   2.578   3.932
 6466SOL     OW20296   1.107   1.210   6.900
 6466SOL    HW120297   1.164   1.280   6.942
 6466SOL    HW220298   1.015   1.245   6.886
 6467SOL     OW20299   2.937   0.755   0.132
 6467SOL    HW120300   2.967   0.838   0.178
 6467SOL    HW220301   2.999   0.735   0.056
 6468SOL     OW20302   4.440   6.850   1.794
 6468SOL    HW120303   4.409   6.940   1.766
 6468SOL    HW220304   4.377   6.780   1.760
 6469SOL     OW20305   4.345   0.762   5.521
 6469SOL    HW120306   4.373   0.858   5.516
 6469SOL    HW220307   4.358   0.729   5.615
 6470SOL     OW20308   5.910   5.658   6.696
 6470SOL    HW120309   5.875   5.592   6.762
 6470SOL    HW220310   5.918   5.748   6.739
 6471SOL     OW20311   6.525   6.364   5.803
 6471SOL    HW120312   6.581   6.348   5.884
 6471SOL    HW220313   6.434   6.393   5.831
 6472SOL     OW20314   0.517   4.246   1.407
 6472SOL    HW120315   0.431   4.263   1.359
 6472SOL    HW220316   0.536   4.148   1.408
 6473SOL     OW20317   2.129   1.554   4.208
 6473SOL    HW120318   2.103   1.621   4.278
 6473SOL    HW220319   2.111   1.591   4.117
 6474SOL     OW20320   2.115   3.661   6.039
 6474SOL    HW120321   2.030   3.626   5.999
 6474SOL    HW220322   2.186   3.591   6.033
 6475SOL     OW20323   6.966   5.282   4.557
 6475SOL    HW120324   0.016   5.232   4.509
 6475SOL    HW220325   6.945   5.236   4.643
 6476SOL     OW20326   4.597   3.627   1.334
 6476SOL    HW120327   4.523   3.681   1.374
 6476SOL    HW220328   4.558   3.553   1.280
 6477SOL     OW20329   6.966   5.010   1.085
 6477SOL    HW120330   6.898   4.950   1.127
 6477SOL    HW220331   6.925   5.058   1.007
 6478SOL     OW20332   3.860   5.949   2.366
 6478SOL    HW120333   3.865   5.866   2.421
 6478SOL    HW220334   3.923   6.018   2.403
 6479SOL     OW20335   3.838   5.511   3.504
 6479SOL    HW120336   3.868   5.601   3.474
 6479SOL    HW220337   3.857   5.500   3.601
 6480SOL     OW20338   3.012   2.271   5.737
 6480SOL    HW120339   2.954   2.207   5.788
 6480SOL    HW220340   2.964   2.358   5.727
 6481SOL     OW20341   3.087   2.147   2.495
 6481SOL    HW120342   3.090   2.051   2.465
 6481SOL    HW220343   3.063   2.205   2.416
 6482SOL     OW20344   0.178   0.795   6.291
 6482SOL    HW120345   0.152   0.807   6.195
 6482SOL    HW220346   0.275   0.816   6.303
 6483SOL     OW20347   2.364   6.044   2.035
 6483SOL    HW120348   2.450   6.091   2.016
 6483SOL    HW220349   2.319   6.086   2.114
 6484SOL     OW20350   4.110   1.093   2.557
 6484SOL    HW120351   4.063   1.004   2.558
 6484SOL    HW220352   4.122   1.123   2.463
 6485SOL     OW20353   1.791   3.704   3.067
 6485SOL    HW120354   1.849   3.750   3.134
 6485SOL    HW220355   1.840   3.696   2.980
 6486SOL     OW20356   1.775   4.225   4.565
 6486SOL    HW120357   1.850   4.223   4.630
 6486SOL    HW220358   1.763   4.133   4.525
 6487SOL     OW20359   6.653   5.846   5.190
 6487SOL    HW120360   6.582   5.896   5.140
 6487SOL    HW220361   6.647   5.749   5.167
 6488SOL     OW20362   3.094   5.682   5.566
 6488SOL    HW120363   3.045   5.716   5.486
 6488SOL    HW220364   3.075   5.741   5.644
 6489SOL     OW20365   2.782   3.465   6.462
 6489SOL    HW120366   2.808   3.370   6.479
 6489SOL    HW220367   2.716   3.468   6.387
 6490SOL     OW20368   4.139   1.962   6.601
 6490SOL    HW120369   4.039   1.957   6.599
 6490SOL    HW220370   4.170   1.978   6.695
 6491SOL     OW20371   4.123   1.100   6.712
 6491SOL    HW120372   4.096   1.052   6.629
 6491SOL    HW220373   4.172   1.038   6.772
 6492SOL     OW20374   5.640   5.753   0.064
 6492SOL    HW120375   5.592   5.827   0.015
 6492SOL    HW220376   5.624   5.667   0.017
 6493SOL     OW20377   1.369   5.635   4.389
 6493SOL    HW120378   1.278   5.608   4.421
 6493SOL    HW220379   1.362   5.721   4.339
 6494SOL     OW20380   0.592   1.126   3.298
 6494SOL    HW120381   0.535   1.107   3.377
 6494SOL    HW220382   0.548   1.091   3.216
 6495SOL     OW20383   4.559   6.269   4.428
 6495SOL    HW120384   4.581   6.174   4.409
 6495SOL    HW220385   4.644   6.322   4.436
 6496SOL     OW20386   0.101   0.036   1.874
 6496SOL    HW120387   0.017   0.059   1.826
 6496SOL    HW220388   0.129   0.112   1.932
 6497SOL     OW20389   2.673   3.943   6.777
 6497SOL    HW120390   2.643   3.886   6.700
 6497SOL    HW220391   2.721   3.886   6.844
 6498SOL     OW20392   2.234   4.127   3.822
 6498SOL    HW120393   2.289   4.167   3.896
 6498SOL    HW220394   2.197   4.039   3.853
 6499SOL     OW20395   5.483   2.178   5.201
 6499SOL    HW120396   5.516   2.238   5.128
 6499SOL    HW220397   5.430   2.103   5.161
 6500SOL     OW20398   6.831   4.758   3.856
 6500SOL    HW120399   6.846   4.732   3.760
 6500SOL    HW220400   6.816   4.676   3.911
 6501SOL     OW20401   6.546   2.907   6.636
 6501SOL    HW120402   6.622   2.872   6.691
 6501SOL    HW220403   6.547   2.865   6.546
 6502SOL     OW20404   6.259   4.016   1.908
 6502SOL    HW120405   6.245   4.102   1.957
 6502SOL    HW220406   6.172   3.986   1.868
 6503SOL     OW20407   5.307   0.313   4.015
 6503SOL    HW120408   5.351   0.233   3.976
 6503SOL    HW220409   5.363   0.394   3.996
 6504SOL     OW20410   4.944   6.577   6.111
 6504SOL    HW120411   5.010   6.652   6.115
 6504SOL    HW220412   4.949   6.534   6.021
 6505SOL     OW20413   5.571   4.815   1.237
 6505SOL    HW120414   5.618   4.785   1.154
 6505SOL    HW220415   5.492   4.756   1.253
 6506SOL     OW20416   6.258   3.448   1.595
 6506SOL    HW120417   6.241   3.546   1.598
 6506SOL    HW220418   6.352   3.431   1.568
 6507SOL     OW20419   1.389   5.472   5.521
 6507SOL    HW120420   1.455   5.547   5.518
 6507SOL    HW220421   1.363   5.455   5.616
 6508SOL     OW20422   2.599   1.167   3.527
 6508SOL    HW120423   2.639   1.198   3.613
 6508SOL    HW220424   2.565   1.245   3.475
 6509SOL     OW20425   2.815   2.321   3.970
 6509SOL    HW120426   2.809   2.226   4.002
 6509SOL    HW220427   2.845   2.322   3.875
 6510SOL     OW20428   0.026   4.594   6.957
 6510SOL    HW120429   0.113   4.578   6.910
 6510SOL    HW220430   0.037   4.668   7.023
 6511SOL     OW20431   5.088   0.796   5.135
 6511SOL    HW120432   5.007   0.773   5.081
 6511SOL    HW220433   5.109   0.893   5.123
 6512SOL     OW20434   5.139   0.308   1.690
 6512SOL    HW120435   5.058   0.301   1.749
 6512SOL    HW220436   5.169   0.404   1.686
 6513SOL     OW20437   3.446   5.245   3.240
 6513SOL    HW120438   3.371   5.185   3.214
 6513SOL    HW220439   3.413   5.316   3.302
 6514SOL     OW20440   5.939   7.012   3.335
 6514SOL    HW120441   5.929   0.067   3.274
 6514SOL    HW220442   5.949   0.020   3.429
 6515SOL     OW20443   0.808   4.870   4.181
 6515SOL    HW120444   0.832   4.967   4.190
 6515SOL    HW220445   0.827   4.840   4.088
 6516SOL     OW20446   0.667   3.233   1.121
 6516SOL    HW120447   0.737   3.172   1.158
 6516SOL    HW220448   0.711   3.306   1.069
 6517SOL     OW20449   6.557   1.223   0.895
 6517SOL    HW120450   6.612   1.298   0.858
 6517SOL    HW220451   6.559   1.225   0.994
 6518SOL     OW20452   0.248   0.111   6.795
 6518SOL    HW120453   0.268   0.142   6.888
 6518SOL    HW220454   0.229   0.013   6.796
 6519SOL     OW20455   2.495   1.705   3.556
 6519SOL    HW120456   2.519   1.701   3.653
 6519SOL    HW220457   2.452   1.619   3.529
 6520SOL     OW20458   5.751   5.744   2.373
 6520SOL    HW120459   5.820   5.674   2.388
 6520SOL    HW220460   5.764   5.818   2.439
 6521SOL     OW20461   1.311   2.074   4.201
 6521SOL    HW120462   1.226   2.048   4.247
 6521SOL    HW220463   1.293   2.150   4.138
 6522SOL     OW20464   3.598   4.381   7.005
 6522SOL    HW120465   3.653   4.424   6.934
 6522SOL    HW220466   3.566   4.451   0.046
 6523SOL     OW20467   3.065   0.775   6.897
 6523SOL    HW120468   3.158   0.778   6.933
 6523SOL    HW220469   3.048   0.685   6.856
 6524SOL     OW20470   3.006   3.392   2.725
 6524SOL    HW120471   2.977   3.472   2.777
 6524SOL    HW220472   2.992   3.409   2.627
 6525SOL     OW20473   1.486   3.402   2.743
 6525SOL    HW120474   1.565   3.376   2.686
 6525SOL    HW220475   1.402   3.386   2.692
 6526SOL     OW20476   1.891   6.890   5.601
 6526SOL    HW120477   1.854   6.982   5.596
 6526SOL    HW220478   1.953   6.884   5.679
 6527SOL     OW20479   0.709   1.470   4.505
 6527SOL    HW120480   0.636   1.521   4.551
 6527SOL    HW220481   0.795   1.521   4.511
 6528SOL     OW20482   6.749   1.117   3.614
 6528SOL    HW120483   6.680   1.124   3.686
 6528SOL    HW220484   6.814   1.045   3.636
 6529SOL     OW20485   6.802   1.538   3.204
 6529SOL    HW120486   6.796   1.611   3.136
 6529SOL    HW220487   6.744   1.560   3.282
 6530SOL     OW20488   6.515   3.386   1.480
 6530SOL    HW120489   6.501   3.331   1.398
 6530SOL    HW220490   6.612   3.406   1.491
 6531SOL     OW20491   5.549   3.943   4.737
 6531SOL    HW120492   5.647   3.944   4.757
 6531SOL    HW220493   5.524   4.025   4.686
 6532SOL     OW20494   6.274   0.514   0.007
 6532SOL    HW120495   6.334   0.586   6.995
 6532SOL    HW220496   6.309   0.425   7.001
 6533SOL     OW20497   4.692   6.295   1.567
 6533SOL    HW120498   4.647   6.302   1.656
 6533SOL    HW220499   4.736   6.205   1.559
 6534SOL     OW20500   3.093   4.448   1.428
 6534SOL    HW120501   3.111   4.349   1.435
 6534SOL    HW220502   3.163   4.490   1.370
 6535SOL     OW20503   0.127   3.465   4.202
 6535SOL    HW120504   0.121   3.442   4.300
 6535SOL    HW220505   0.095   3.558   4.187
 6536SOL     OW20506   0.456   2.815   5.517
 6536SOL    HW120507   0.373   2.760   5.512
 6536SOL    HW220508   0.448   2.893   5.454
 6537SOL     OW20509   5.721   5.384   0.257
 6537SOL    HW120510   5.636   5.437   0.268
 6537SOL    HW220511   5.700   5.296   0.215
 6538SOL     OW20512   3.768   4.573   0.156
 6538SOL    HW120513   3.677   4.592   0.192
 6538SOL    HW220514   3.802   4.652   0.107
 6539SOL     OW20515   3.106   1.217   6.420
 6539SOL    HW120516   3.176   1.250   6.483
 6539SOL    HW220517   3.134   1.129   6.381
 6540SOL     OW20518   4.551   1.690   5.422
 6540SOL    HW120519   4.597   1.621   5.366
 6540SOL    HW220520   4.536   1.654   5.514
 6541SOL     OW20521   4.131   1.755   5.260
 6541SOL    HW120522   4.149   1.770   5.357
 6541SOL    HW220523   4.217   1.760   5.209
 6542SOL     OW20524   6.731   5.127   3.648
 6542SOL    HW120525   6.672   5.078   3.712
 6542SOL    HW220526   6.714   5.225   3.654
 6543SOL     OW20527   6.329   3.972   0.010
 6543SOL    HW120528   6.356   3.921   0.091
 6543SOL    HW220529   6.304   4.065   0.035
 6544SOL     OW20530   0.189   6.134   2.704
 6544SOL    HW120531   0.172   6.066   2.633
 6544SOL    HW220532   0.140   6.110   2.787
 6545SOL     OW20533   5.452   2.011   6.813
 6545SOL    HW120534   5.428   1.953   6.735
 6545SOL    HW220535   5.377   2.073   6.833
 6546SOL     OW20536   4.555   3.941   6.620
 6546SOL    HW120537   4.501   4.013   6.575
 6546SOL    HW220538   4.519   3.852   6.594
 6547SOL     OW20539   4.841   1.738   5.999
 6547SOL    HW120540   4.786   1.713   5.918
 6547SOL    HW220541   4.787   1.722   6.081
 6548SOL     OW20542   0.999   3.386   6.998
 6548SOL    HW120543   1.044   3.329   6.930
 6548SOL    HW220544   0.934   3.330   0.027
 6549SOL     OW20545   4.036   1.194   0.694
 6549SOL    HW120546   3.986   1.206   0.608
 6549SOL    HW220547   4.011   1.267   0.757
 6550SOL     OW20548   0.028   6.523   3.259
 6550SOL    HW120549   0.095   6.535   3.332
 6550SOL    HW220550   6.963   6.497   3.298
 6551SOL     OW20551   1.737   4.335   2.106
 6551SOL    HW120552   1.717   4.407   2.040
 6551SOL    HW220553   1.836   4.319   2.109
 6552SOL     OW20554   2.200   6.903   5.259
 6552SOL    HW120555   2.174   6.866   5.348
 6552SOL    HW220556   2.131   6.878   5.191
 6553SOL     OW20557   0.575   1.694   2.563
 6553SOL    HW120558   0.558   1.661   2.470
 6553SOL    HW220559   0.495   1.676   2.620
 6554SOL     OW20560   6.498   1.435   5.699
 6554SOL    HW120561   6.455   1.459   5.786
 6554SOL    HW220562   6.593   1.465   5.699
 6555SOL     OW20563   1.193   2.043   1.584
 6555SOL    HW120564   1.273   2.051   1.644
 6555SOL    HW220565   1.116   2.005   1.635
 6556SOL     OW20566   4.456   4.858   4.905
 6556SOL    HW120567   4.357   4.844   4.897
 6556SOL    HW220568   4.497   4.860   4.814
 6557SOL     OW20569   4.586   5.575   1.320
 6557SOL    HW120570   4.642   5.655   1.298
 6557SOL    HW220571   4.490   5.595   1.298
 6558SOL     OW20572   6.320   5.698   0.717
 6558SOL    HW120573   6.336   5.793   0.691
 6558SOL    HW220574   6.298   5.644   0.635
 6559SOL     OW20575   6.830   4.003   6.727
 6559SOL    HW120576   6.795   4.012   6.820
 6559SOL    HW220577   6.918   3.956   6.729
 6560SOL     OW20578   3.703   3.263   1.085
 6560SOL    HW120579   3.695   3.362   1.091
 6560SOL    HW220580   3.796   3.238   1.059
 6561SOL     OW20581   3.673   3.707   2.246
 6561SOL    HW120582   3.663   3.768   2.325
 6561SOL    HW220583   3.586   3.663   2.227
 6562SOL     OW20584   5.771   4.790   6.777
 6562SOL    HW120585   5.714   4.864   6.813
 6562SOL    HW220586   5.862   4.796   6.816
 6563SOL     OW20587   0.353   6.103   0.135
 6563SOL    HW120588   0.415   6.127   0.061
 6563SOL    HW220589   0.272   6.162   0.131
 6564SOL     OW20590   6.798   4.247   2.455
 6564SOL    HW120591   6.772   4.285   2.366
 6564SOL    HW220592   6.874   4.301   2.493
 6565SOL     OW20593   6.002   2.610   4.244
 6565SOL    HW120594   5.950   2.655   4.316
 6565SOL    HW220595   6.036   2.678   4.180
 6566SOL     OW20596   3.051   0.186   1.231
 6566SOL    HW120597   3.013   0.093   1.226
 6566SOL    HW220598   3.105   0.195   1.315
 6567SOL     OW20599   4.134   2.415   1.347
 6567SOL    HW120600   4.099   2.347   1.283
 6567SOL    HW220601   4.201   2.372   1.408
 6568SOL     OW20602   4.970   5.718   2.936
 6568SOL    HW120603   4.915   5.670   3.005
 6568SOL    HW220604   4.952   5.816   2.941
 6569SOL     OW20605   3.612   3.903   0.601
 6569SOL    HW120606   3.543   3.886   0.530
 6569SOL    HW220607   3.574   3.878   0.690
 6570SOL     OW20608   4.733   6.830   1.735
 6570SOL    HW120609   4.785   6.784   1.807
 6570SOL    HW220610   4.652   6.873   1.775
 6571SOL     OW20611   3.319   6.245   2.144
 6571SOL    HW120612   3.367   6.248   2.056
 6571SOL    HW220613   3.372   6.295   2.213
 6572SOL     OW20614   6.707   5.387   5.522
 6572SOL    HW120615   6.659   5.306   5.489
 6572SOL    HW220616   6.798   5.360   5.555
 6573SOL     OW20617   3.052   0.901   3.031
 6573SOL    HW120618   2.990   0.979   3.031
 6573SOL    HW220619   3.146   0.932   3.024
 6574SOL     OW20620   3.137   6.036   2.193
 6574SOL    HW120621   3.193   6.118   2.202
 6574SOL    HW220622   3.122   5.995   2.283
 6575SOL     OW20623   1.082   1.658   1.915
 6575SOL    HW120624   1.157   1.630   1.856
 6575SOL    HW220625   0.996   1.618   1.882
 6576SOL     OW20626   1.429   6.902   6.857
 6576SOL    HW120627   1.440   6.830   6.789
 6576SOL    HW220628   1.458   6.989   6.818
 6577SOL     OW20629   0.359   1.871   3.561
 6577SOL    HW120630   0.311   1.789   3.529
 6577SOL    HW220631   0.336   1.888   3.657
 6578SOL     OW20632   0.532   4.317   2.544
 6578SOL    HW120633   0.478   4.399   2.559
 6578SOL    HW220634   0.577   4.321   2.454
 6579SOL     OW20635   0.236   3.940   4.744
 6579SOL    HW120636   0.312   3.984   4.697
 6579SOL    HW220637   0.248   3.951   4.843
 6580SOL     OW20638   6.941   1.428   1.344
 6580SOL    HW120639   0.004   1.385   1.371
 6580SOL    HW220640   6.885   1.442   1.426
 6581SOL     OW20641   3.265   1.254   6.635
 6581SOL    HW120642   3.342   1.294   6.685
 6581SOL    HW220643   3.258   1.157   6.658
 6582SOL     OW20644   1.535   0.510   2.239
 6582SOL    HW120645   1.598   0.535   2.313
 6582SOL    HW220646   1.509   0.593   2.189
 6583SOL     OW20647   4.312   0.424   5.495
 6583SOL    HW120648   4.237   0.454   5.554
 6583SOL    HW220649   4.372   0.501   5.475
 6584SOL     OW20650   5.196   1.591   0.198
 6584SOL    HW120651   5.141   1.637   0.268
 6584SOL    HW220652   5.170   1.625   0.108
 6585SOL     OW20653   6.631   0.908   0.483
 6585SOL    HW120654   6.652   0.945   0.574
 6585SOL    HW220655   6.596   0.982   0.425
 6586SOL     OW20656   6.342   2.315   6.111
 6586SOL    HW120657   6.337   2.256   6.030
 6586SOL    HW220658   6.274   2.389   6.103
 6587SOL     OW20659   2.874   5.525   4.141
 6587SOL    HW120660   2.928   5.576   4.074
 6587SOL    HW220661   2.781   5.562   4.145
 6588SOL     OW20662   1.725   3.942   1.812
 6588SOL    HW120663   1.692   4.003   1.884
 6588SOL    HW220664   1.717   3.847   1.843
 6589SOL     OW20665   4.769   0.203   6.480
 6589SOL    HW120666   4.845   0.239   6.533
 6589SOL    HW220667   4.735   0.119   6.524
 6590SOL     OW20668   0.710   1.334   6.104
 6590SOL    HW120669   0.741   1.340   6.009
 6590SOL    HW220670   0.778   1.375   6.164
 6591SOL     OW20671   4.786   6.247   2.701
 6591SOL    HW120672   4.704   6.299   2.724
 6591SOL    HW220673   4.817   6.196   2.781
 6592SOL     OW20674   6.048   6.903   4.144
 6592SOL    HW120675   6.104   6.895   4.061
 6592SOL    HW220676   5.989   6.823   4.152
 6593SOL     OW20677   2.248   1.881   3.525
 6593SOL    HW120678   2.331   1.827   3.537
 6593SOL    HW220679   2.212   1.907   3.615
 6594SOL     OW20680   4.074   1.505   0.437
 6594SOL    HW120681   4.062   1.451   0.519
 6594SOL    HW220682   4.013   1.585   0.440
 6595SOL     OW20683   0.850   3.439   0.964
 6595SOL    HW120684   0.873   3.381   0.886
 6595SOL    HW220685   0.815   3.526   0.931
 6596SOL     OW20686   3.273   6.712   4.706
 6596SOL    HW120687   3.242   6.682   4.616
 6596SOL    HW220688   3.237   6.803   4.724
 6597SOL     OW20689   1.505   6.070   3.399
 6597SOL    HW120690   1.532   5.988   3.450
 6597SOL    HW220691   1.584   6.104   3.348
 6598SOL     OW20692   0.821   0.241   4.312
 6598SOL    HW120693   0.880   0.317   4.337
 6598SOL    HW220694   0.872   0.155   4.318
 6599SOL     OW20695   3.356   5.687   5.616
 6599SOL    HW120696   3.378   5.751   5.543
 6599SOL    HW220697   3.263   5.654   5.604
 6600SOL     OW20698   4.470   5.078   5.876
 6600SOL    HW120699   4.512   5.054   5.788
 6600SOL    HW220700   4.541   5.094   5.943
 6601SOL     OW20701   0.753   1.031   0.037
 6601SOL    HW120702   0.787   0.939   0.017
 6601SOL    HW220703   0.736   1.040   0.136
 6602SOL     OW20704   6.570   1.331   2.017
 6602SOL    HW120705   6.474   1.353   1.997
 6602SOL    HW220706   6.623   1.415   2.019
 6603SOL     OW20707   0.847   2.819   4.077
 6603SOL    HW120708   0.761   2.804   4.127
 6603SOL    HW220709   0.827   2.832   3.980
 6604SOL     OW20710   2.448   6.647   0.809
 6604SOL    HW120711   2.441   6.559   0.855
 6604SOL    HW220712   2.357   6.679   0.782
 6605SOL     OW20713   5.783   4.464   0.500
 6605SOL    HW120714   5.687   4.436   0.501
 6605SOL    HW220715   5.841   4.384   0.512
 6606SOL     OW20716   5.372   0.196   2.381
 6606SOL    HW120717   5.337   0.285   2.350
 6606SOL    HW220718   5.468   0.188   2.357
 6607SOL     OW20719   1.504   2.463   1.494
 6607SOL    HW120720   1.542   2.378   1.530
 6607SOL    HW220721   1.562   2.496   1.420
 6608SOL     OW20722   5.158   5.928   2.283
 6608SOL    HW120723   5.093   5.989   2.237
 6608SOL    HW220724   5.228   5.899   2.218
 6609SOL     OW20725   4.142   0.872   6.175
 6609SOL    HW120726   4.134   0.806   6.250
 6609SOL    HW220727   4.190   0.954   6.207
 6610SOL     OW20728   2.419   1.189   6.317
 6610SOL    HW120729   2.459   1.179   6.226
 6610SOL    HW220730   2.489   1.176   6.387
 6611SOL     OW20731   6.332   2.815   3.177
 6611SOL    HW120732   6.326   2.873   3.259
 6611SOL    HW220733   6.242   2.776   3.158
 6612SOL     OW20734   0.342   2.667   6.831
 6612SOL    HW120735   0.320   2.723   6.752
 6612SOL    HW220736   0.438   2.639   6.827
 6613SOL     OW20737   5.556   5.862   4.359
 6613SOL    HW120738   5.631   5.906   4.310
 6613SOL    HW220739   5.478   5.852   4.297
 6614SOL     OW20740   4.918   6.235   6.956
 6614SOL    HW120741   4.984   6.160   6.961
 6614SOL    HW220742   4.888   6.246   6.861
 6615SOL     OW20743   1.394   4.596   3.802
 6615SOL    HW120744   1.301   4.585   3.839
 6615SOL    HW220745   1.448   4.652   3.865
 6616SOL     OW20746   4.240   1.245   6.491
 6616SOL    HW120747   4.258   1.179   6.418
 6616SOL    HW220748   4.200   1.197   6.570
 6617SOL     OW20749   2.999   6.096   3.175
 6617SOL    HW120750   2.997   6.042   3.259
 6617SOL    HW220751   2.916   6.080   3.122
 6618SOL     OW20752   1.399   3.330   3.209
 6618SOL    HW120753   1.386   3.409   3.149
 6618SOL    HW220754   1.360   3.349   3.299
 6619SOL     OW20755   6.872   6.760   4.501
 6619SOL    HW120756   6.863   6.745   4.402
 6619SOL    HW220757   6.968   6.756   4.526
 6620SOL     OW20758   2.459   2.741   5.243
 6620SOL    HW120759   2.474   2.839   5.230
 6620SOL    HW220760   2.438   2.699   5.155
 6621SOL     OW20761   2.284   3.222   6.823
 6621SOL    HW120762   2.365   3.187   6.775
 6621SOL    HW220763   2.232   3.145   6.860
 6622SOL     OW20764   5.892   6.148   1.489
 6622SOL    HW120765   5.815   6.185   1.438
 6622SOL    HW220766   5.966   6.215   1.493
 6623SOL     OW20767   2.885   3.600   1.043
 6623SOL    HW120768   2.968   3.586   1.097
 6623SOL    HW220769   2.805   3.584   1.101
 6624SOL     OW20770   1.698   0.530   4.201
 6624SOL    HW120771   1.607   0.502   4.233
 6624SOL    HW220772   1.690   0.609   4.141
 6625SOL     OW20773   5.062   1.919   6.055
 6625SOL    HW120774   5.114   1.967   5.984
 6625SOL    HW220775   5.004   1.850   6.012
 6626SOL     OW20776   3.973   4.822   5.030
 6626SOL    HW120777   3.944   4.849   5.122
 6626SOL    HW220778   3.893   4.817   4.970
 6627SOL     OW20779   2.173   0.961   5.837
 6627SOL    HW120780   2.233   0.919   5.905
 6627SOL    HW220781   2.100   0.897   5.812
 6628SOL     OW20782   4.562   4.947   4.276
 6628SOL    HW120783   4.590   5.008   4.350
 6628SOL    HW220784   4.573   4.993   4.188
 6629SOL     OW20785   2.690   5.444   6.834
 6629SOL    HW120786   2.742   5.473   6.914
 6629SOL    HW220787   2.750   5.395   6.771
 6630SOL     OW20788   3.295   1.482   1.472
 6630SOL    HW120789   3.289   1.384   1.492
 6630SOL    HW220790   3.235   1.504   1.395
 6631SOL     OW20791   4.136   0.172   2.300
 6631SOL    HW120792   4.037   0.169   2.296
 6631SOL    HW220793   4.173   0.204   2.213
 6632SOL     OW20794   0.491   0.471   1.868
 6632SOL    HW120795   0.559   0.414   1.914
 6632SOL    HW220796   0.538   0.534   1.806
 6633SOL     OW20797   1.198   4.537   5.543
 6633SOL    HW120798   1.228   4.442   5.543
 6633SOL    HW220799   1.213   4.576   5.452
 6634SOL     OW20800   5.964   2.831   5.024
 6634SOL    HW120801   6.040   2.771   5.050
 6634SOL    HW220802   5.996   2.925   5.016
 6635SOL     OW20803   3.991   5.127   3.581
 6635SOL    HW120804   4.084   5.158   3.563
 6635SOL    HW220805   3.986   5.028   3.569
 6636SOL     OW20806   3.227   1.991   5.951
 6636SOL    HW120807   3.164   1.924   5.910
 6636SOL    HW220808   3.207   1.999   6.049
 6637SOL     OW20809   1.933   0.103   6.289
 6637SOL    HW120810   1.933   0.049   6.373
 6637SOL    HW220811   1.845   0.150   6.280
 6638SOL     OW20812   3.811   4.401   5.403
 6638SOL    HW120813   3.723   4.368   5.436
 6638SOL    HW220814   3.802   4.495   5.370
 6639SOL     OW20815   5.481   5.500   0.272
 6639SOL    HW120816   5.403   5.438   0.283
 6639SOL    HW220817   5.454   5.578   0.215
 6640SOL     OW20818   0.086   2.166   5.120
 6640SOL    HW120819   0.123   2.159   5.027
 6640SOL    HW220820   7.020   2.213   5.117
 6641SOL     OW20821   2.277   2.504   6.916
 6641SOL    HW120822   2.340   2.513   6.994
 6641SOL    HW220823   2.188   2.473   6.948
 6642SOL     OW20824   2.487   5.639   0.313
 6642SOL    HW120825   2.524   5.724   0.350
 6642SOL    HW220826   2.498   5.565   0.379
 6643SOL     OW20827   6.524   5.033   6.660
 6643SOL    HW120828   6.479   5.109   6.706
 6643SOL    HW220829   6.475   4.948   6.679
 6644SOL     OW20830   2.748   4.725   1.697
 6644SOL    HW120831   2.768   4.656   1.627
 6644SOL    HW220832   2.804   4.706   1.778
 6645SOL     OW20833   7.011   4.985   0.169
 6645SOL    HW120834   0.064   4.962   0.107
 6645SOL    HW220835   6.999   5.084   0.172
 6646SOL     OW20836   3.573   0.025   4.425
 6646SOL    HW120837   3.621   0.016   4.513
 6646SOL    HW220838   3.547   6.958   4.392
 6647SOL     OW20839   3.935   0.994   2.115
 6647SOL    HW120840   3.918   0.930   2.040
 6647SOL    HW220841   3.990   1.071   2.081
 6648SOL     OW20842   3.569   5.634   2.300
 6648SOL    HW120843   3.588   5.619   2.203
 6648SOL    HW220844   3.474   5.660   2.312
 6649SOL     OW20845   4.898   1.515   0.183
 6649SOL    HW120846   4.956   1.530   0.263
 6649SOL    HW220847   4.877   1.418   0.175
 6650SOL     OW20848   3.904   1.146   5.269
 6650SOL    HW120849   4.000   1.128   5.294
 6650SOL    HW220850   3.854   1.175   5.350
 6651SOL     OW20851   2.026   1.720   6.888
 6651SOL    HW120852   2.108   1.684   6.933
 6651SOL    HW220853   2.029   1.820   6.887
 6652SOL     OW20854   6.468   5.276   0.466
 6652SOL    HW120855   6.482   5.277   0.367
 6652SOL    HW220856   6.495   5.364   0.504
 6653SOL     OW20857   3.304   3.305   2.557
 6653SOL    HW120858   3.321   3.219   2.508
 6653SOL    HW220859   3.316   3.382   2.494
 6654SOL     OW20860   1.811   3.241   1.095
 6654SOL    HW120861   1.864   3.156   1.105
 6654SOL    HW220862   1.735   3.226   1.032
 6655SOL     OW20863   3.135   6.826   1.527
 6655SOL    HW120864   3.231   6.830   1.499
 6655SOL    HW220865   3.098   6.736   1.504
 6656SOL     OW20866   6.158   1.883   2.309
 6656SOL    HW120867   6.197   1.973   2.291
 6656SOL    HW220868   6.080   1.892   2.371
 6657SOL     OW20869   4.921   6.213   6.685
 6657SOL    HW120870   5.020   6.226   6.687
 6657SOL    HW220871   4.891   6.198   6.590
 6658SOL     OW20872   5.811   1.652   4.820
 6658SOL    HW120873   5.813   1.712   4.740
 6658SOL    HW220874   5.901   1.610   4.832
 6659SOL     OW20875   2.281   2.378   0.820
 6659SOL    HW120876   2.377   2.351   0.828
 6659SOL    HW220877   2.248   2.354   0.729
 6660SOL     OW20878   0.718   6.048   1.075
 6660SOL    HW120879   0.748   5.953   1.087
 6660SOL    HW220880   0.717   6.071   0.978
 6661SOL     OW20881   0.571   6.074   3.481
 6661SOL    HW120882   0.516   5.992   3.464
 6661SOL    HW220883   0.583   6.124   3.395
 6662SOL     OW20884   1.325   0.735   6.893
 6662SOL    HW120885   1.419   0.732   6.925
 6662SOL    HW220886   1.275   0.807   6.943
 6663SOL     OW20887   6.847   5.132   2.677
 6663SOL    HW120888   6.828   5.167   2.585
 6663SOL    HW220889   6.762   5.100   2.719
 6664SOL     OW20890   1.660   6.800   0.730
 6664SOL    HW120891   1.731   6.867   0.747
 6664SOL    HW220892   1.622   6.769   0.818
 6665SOL     OW20893   1.892   0.200   3.588
 6665SOL    HW120894   1.876   0.223   3.492
 6665SOL    HW220895   1.988   0.177   3.601
 6666SOL     OW20896   5.474   1.015   6.372
 6666SOL    HW120897   5.460   1.011   6.470
 6666SOL    HW220898   5.519   1.101   6.348
 6667SOL     OW20899   0.220   4.997   5.563
 6667SOL    HW120900   0.166   4.924   5.522
 6667SOL    HW220901   0.174   5.085   5.548
 6668SOL     OW20902   6.071   5.850   1.872
 6668SOL    HW120903   6.001   5.857   1.943
 6668SOL    HW220904   6.038   5.893   1.789
 6669SOL     OW20905   2.293   2.951   3.680
 6669SOL    HW120906   2.296   2.938   3.779
 6669SOL    HW220907   2.319   3.045   3.657
 6670SOL     OW20908   3.612   2.540   5.710
 6670SOL    HW120909   3.552   2.464   5.737
 6670SOL    HW220910   3.633   2.532   5.613
 6671SOL     OW20911   4.789   5.760   1.361
 6671SOL    HW120912   4.886   5.765   1.385
 6671SOL    HW220913   4.769   5.829   1.292
 6672SOL     OW20914   0.865   1.935   5.508
 6672SOL    HW120915   0.828   1.871   5.441
 6672SOL    HW220916   0.965   1.930   5.508
 6673SOL     OW20917   5.409   6.421   3.092
 6673SOL    HW120918   5.500   6.402   3.129
 6673SOL    HW220919   5.351   6.340   3.103
 6674SOL     OW20920   0.860   5.064   6.066
 6674SOL    HW120921   0.949   5.075   6.023
 6674SOL    HW220922   0.789   5.097   6.004
 6675SOL     OW20923   4.290   4.053   1.671
 6675SOL    HW120924   4.195   4.058   1.700
 6675SOL    HW220925   4.343   4.124   1.717
 6676SOL     OW20926   0.553   4.216   5.372
 6676SOL    HW120927   0.480   4.205   5.439
 6676SOL    HW220928   0.547   4.308   5.331
 6677SOL     OW20929   0.779   2.131   6.830
 6677SOL    HW120930   0.859   2.110   6.886
 6677SOL    HW220931   0.744   2.221   6.855
 6678SOL     OW20932   2.243   2.506   0.469
 6678SOL    HW120933   2.300   2.426   0.484
 6678SOL    HW220934   2.238   2.561   0.553
 6679SOL     OW20935   2.624   1.571   4.070
 6679SOL    HW120936   2.682   1.622   4.134
 6679SOL    HW220937   2.573   1.501   4.120
 6680SOL     OW20938   4.432   6.556   6.564
 6680SOL    HW120939   4.472   6.591   6.480
 6680SOL    HW220940   4.361   6.489   6.542
 6681SOL     OW20941   4.882   4.897   0.360
 6681SOL    HW120942   4.872   4.995   0.373
 6681SOL    HW220943   4.971   4.867   0.393
 6682SOL     OW20944   1.404   4.496   2.469
 6682SOL    HW120945   1.453   4.446   2.398
 6682SOL    HW220946   1.432   4.463   2.559
 6683SOL     OW20947   4.745   2.646   5.712
 6683SOL    HW120948   4.693   2.730   5.699
 6683SOL    HW220949   4.763   2.604   5.623
 6684SOL     OW20950   2.198   6.722   0.781
 6684SOL    HW120951   2.135   6.645   0.764
 6684SOL    HW220952   2.186   6.791   0.709
 6685SOL     OW20953   5.656   3.237   4.941
 6685SOL    HW120954   5.719   3.205   4.870
 6685SOL    HW220955   5.703   3.301   5.001
 6686SOL     OW20956   5.192   5.886   3.807
 6686SOL    HW120957   5.251   5.807   3.791
 6686SOL    HW220958   5.143   5.874   3.893
 6687SOL     OW20959   0.269   2.270   1.143
 6687SOL    HW120960   0.343   2.203   1.148
 6687SOL    HW220961   0.216   2.256   1.059
 6688SOL     OW20962   6.457   3.935   1.699
 6688SOL    HW120963   6.471   3.839   1.675
 6688SOL    HW220964   6.391   3.942   1.773
 6689SOL     OW20965   4.108   3.043   0.342
 6689SOL    HW120966   4.165   2.961   0.332
 6689SOL    HW220967   4.119   3.079   0.435
 6690SOL     OW20968   1.896   1.049   2.086
 6690SOL    HW120969   1.987   1.085   2.107
 6690SOL    HW220970   1.861   0.999   2.166
 6691SOL     OW20971   3.167   6.204   1.820
 6691SOL    HW120972   3.105   6.263   1.873
 6691SOL    HW220973   3.261   6.223   1.846
 6692SOL     OW20974   2.817   4.694   5.364
 6692SOL    HW120975   2.857   4.688   5.273
 6692SOL    HW220976   2.891   4.703   5.432
 6693SOL     OW20977   4.000   3.407   5.972
 6693SOL    HW120978   3.902   3.424   5.981
 6693SOL    HW220979   4.048   3.495   5.972
 6694SOL     OW20980   4.946   6.273   0.298
 6694SOL    HW120981   4.858   6.316   0.281
 6694SOL    HW220982   5.020   6.339   0.280
 6695SOL     OW20983   2.076   2.275   5.704
 6695SOL    HW120984   2.164   2.303   5.743
 6695SOL    HW220985   2.042   2.195   5.753
 6696SOL     OW20986   1.714   2.237   0.124
 6696SOL    HW120987   1.772   2.315   0.151
 6696SOL    HW220988   1.619   2.257   0.149
 6697SOL     OW20989   4.941   2.684   3.281
 6697SOL    HW120990   4.994   2.737   3.348
 6697SOL    HW220991   4.907   2.600   3.323
 6698SOL     OW20992   3.120   2.821   0.528
 6698SOL    HW120993   3.197   2.763   0.500
 6698SOL    HW220994   3.133   2.913   0.492
 6699SOL     OW20995   3.289   4.869   6.611
 6699SOL    HW120996   3.317   4.873   6.515
 6699SOL    HW220997   3.244   4.955   6.636
 6700SOL     OW20998   0.253   6.159   1.118
 6700SOL    HW120999   0.293   6.240   1.161
 6700SOL    HW221000   0.226   6.181   1.025
 6701SOL     OW21001   5.235   2.981   1.337
 6701SOL    HW121002   5.206   2.958   1.430
 6701SOL    HW221003   5.330   2.954   1.324
 6702SOL     OW21004   2.491   2.926   0.343
 6702SOL    HW121005   2.490   2.854   0.412
 6702SOL    HW221006   2.585   2.956   0.327
 6703SOL     OW21007   6.331   1.364   6.811
 6703SOL    HW121008   6.272   1.406   6.742
 6703SOL    HW221009   6.419   1.411   6.813
 6704SOL     OW21010   4.122   2.177   2.475
 6704SOL    HW121011   4.106   2.187   2.573
 6704SOL    HW221012   4.181   2.251   2.444
 6705SOL     OW21013   0.157   2.220   1.922
 6705SOL    HW121014   0.122   2.217   2.016
 6705SOL    HW221015   0.244   2.171   1.918
 6706SOL     OW21016   1.051   3.768   1.144
 6706SOL    HW121017   1.080   3.820   1.224
 6706SOL    HW221018   1.114   3.787   1.068
 6707SOL     OW21019   0.138   5.462   4.685
 6707SOL    HW121020   0.080   5.404   4.627
 6707SOL    HW221021   0.091   5.482   4.770
 6708SOL     OW21022   1.672   5.332   2.435
 6708SOL    HW121023   1.597   5.390   2.401
 6708SOL    HW221024   1.677   5.249   2.379
 6709SOL     OW21025   3.037   5.467   2.004
 6709SOL    HW121026   3.040   5.445   2.102
 6709SOL    HW221027   3.123   5.441   1.962
 6710SOL     OW21028   2.848   1.728   5.981
 6710SOL    HW121029   2.910   1.730   5.902
 6710SOL    HW221030   2.861   1.812   6.035
 6711SOL     OW21031   5.534   4.609   6.785
 6711SOL    HW121032   5.574   4.691   6.743
 6711SOL    HW221033   5.475   4.636   6.861
 6712SOL     OW21034   4.570   5.173   0.210
 6712SOL    HW121035   4.561   5.115   0.129
 6712SOL    HW221036   4.596   5.266   0.182
 6713SOL     OW21037   1.626   2.132   1.566
 6713SOL    HW121038   1.724   2.124   1.583
 6713SOL    HW221039   1.605   2.097   1.475
 6714SOL     OW21040   5.287   0.540   6.184
 6714SOL    HW121041   5.220   0.582   6.122
 6714SOL    HW221042   5.266   0.567   6.278
 6715SOL     OW21043   0.111   0.590   6.937
 6715SOL    HW121044   0.096   0.564   6.842
 6715SOL    HW221045   0.099   0.689   6.947
 6716SOL     OW21046   0.987   5.620   2.266
 6716SOL    HW121047   0.899   5.666   2.282
 6716SOL    HW221048   0.990   5.586   2.172
 6717SOL     OW21049   4.373   2.988   0.808
 6717SOL    HW121050   4.473   2.987   0.800
 6717SOL    HW221051   4.346   2.932   0.887
 6718SOL     OW21052   3.907   6.307   6.281
 6718SOL    HW121053   3.841   6.320   6.207
 6718SOL    HW221054   3.887   6.222   6.329
 6719SOL     OW21055   0.428   0.173   5.902
 6719SOL    HW121056   0.519   0.137   5.925
 6719SOL    HW221057   0.434   0.234   5.823
 6720SOL     OW21058   1.522   6.420   2.033
 6720SOL    HW121059   1.433   6.403   2.074
 6720SOL    HW221060   1.539   6.353   1.960
 6721SOL     OW21061   5.639   6.674   4.654
 6721SOL    HW121062   5.632   6.709   4.747
 6721SOL    HW221063   5.704   6.729   4.602
 6722SOL     OW21064   5.526   2.974   1.276
 6722SOL    HW121065   5.521   3.038   1.352
 6722SOL    HW221066   5.620   2.970   1.241
 6723SOL     OW21067   2.199   6.594   3.189
 6723SOL    HW121068   2.165   6.548   3.271
 6723SOL    HW221069   2.139   6.671   3.166
 6724SOL     OW21070   1.223   3.608   6.039
 6724SOL    HW121071   1.315   3.614   6.002
 6724SOL    HW221072   1.200   3.693   6.086
 6725SOL     OW21073   0.685   4.341   1.862
 6725SOL    HW121074   0.772   4.309   1.824
 6725SOL    HW221075   0.611   4.309   1.803
 6726SOL     OW21076   0.526   1.762   4.508
 6726SOL    HW121077   0.444   1.720   4.546
 6726SOL    HW221078   0.506   1.857   4.482
 6727SOL     OW21079   6.362   3.838   5.866
 6727SOL    HW121080   6.349   3.903   5.792
 6727SOL    HW221081   6.438   3.776   5.844
 6728SOL     OW21082   4.669   1.667   4.618
 6728SOL    HW121083   4.705   1.707   4.533
 6728SOL    HW221084   4.602   1.597   4.596
 6729SOL     OW21085   6.600   1.447   2.375
 6729SOL    HW121086   6.506   1.413   2.370
 6729SOL    HW221087   6.614   1.515   2.303
 6730SOL     OW21088   2.022   6.179   6.493
 6730SOL    HW121089   1.951   6.119   6.529
 6730SOL    HW221090   2.070   6.224   6.569
 6731SOL     OW21091   1.790   4.592   1.322
 6731SOL    HW121092   1.773   4.649   1.242
 6731SOL    HW221093   1.780   4.648   1.405
 6732SOL     OW21094   4.077   5.366   6.122
 6732SOL    HW121095   4.103   5.359   6.026
 6732SOL    HW221096   4.158   5.355   6.180
 6733SOL     OW21097   4.328   5.122   6.619
 6733SOL    HW121098   4.242   5.162   6.652
 6733SOL    HW221099   4.396   5.195   6.605
 6734SOL     OW21100   0.661   3.197   5.551
 6734SOL    HW121101   0.673   3.103   5.518
 6734SOL    HW221102   0.667   3.261   5.474
 6735SOL     OW21103   0.749   5.715   4.834
 6735SOL    HW121104   0.724   5.620   4.854
 6735SOL    HW221105   0.718   5.738   4.741
 6736SOL     OW21106   1.928   3.454   0.492
 6736SOL    HW121107   1.950   3.547   0.465
 6736SOL    HW221108   1.958   3.391   0.420
 6737SOL     OW21109   2.053   2.750   0.828
 6737SOL    HW121110   1.984   2.821   0.813
 6737SOL    HW221111   2.009   2.671   0.872
 6738SOL     OW21112   2.006   3.085   2.096
 6738SOL    HW121113   2.074   3.050   2.161
 6738SOL    HW221114   1.963   3.009   2.048
 6739SOL     OW21115   2.900   5.243   5.815
 6739SOL    HW121116   2.962   5.168   5.838
 6739SOL    HW221117   2.873   5.236   5.719
 6740SOL     OW21118   2.090   1.516   4.603
 6740SOL    HW121119   2.080   1.569   4.687
 6740SOL    HW221120   2.185   1.486   4.593
 6741SOL     OW21121   4.228   1.510   6.055
 6741SOL    HW121122   4.225   1.515   6.154
 6741SOL    HW221123   4.261   1.597   6.018
 6742SOL     OW21124   0.446   5.874   2.862
 6742SOL    HW121125   0.390   5.793   2.881
 6742SOL    HW221126   0.455   5.885   2.763
 6743SOL     OW21127   4.009   4.458   6.786
 6743SOL    HW121128   3.994   4.375   6.840
 6743SOL    HW221129   4.088   4.507   6.823
 6744SOL     OW21130   4.173   5.298   5.855
 6744SOL    HW121131   4.176   5.204   5.887
 6744SOL    HW221132   4.264   5.325   5.823
 6745SOL     OW21133   1.250   6.315   2.413
 6745SOL    HW121134   1.299   6.365   2.484
 6745SOL    HW221135   1.166   6.276   2.451
 6746SOL     OW21136   0.451   1.060   3.043
 6746SOL    HW121137   0.353   1.046   3.036
 6746SOL    HW221138   0.496   1.025   2.960
 6747SOL     OW21139   5.326   6.393   4.586
 6747SOL    HW121140   5.334   6.316   4.523
 6747SOL    HW221141   5.259   6.458   4.551
 6748SOL     OW21142   1.455   0.453   2.843
 6748SOL    HW121143   1.428   0.497   2.758
 6748SOL    HW221144   1.448   0.354   2.834
 6749SOL     OW21145   3.031   6.563   6.623
 6749SOL    HW121146   3.062   6.604   6.708
 6749SOL    HW221147   2.994   6.633   6.563
 6750SOL     OW21148   4.020   1.607   4.671
 6750SOL    HW121149   3.978   1.592   4.582
 6750SOL    HW221150   4.117   1.630   4.660
 6751SOL     OW21151   3.577   1.850   3.784
 6751SOL    HW121152   3.600   1.865   3.687
 6751SOL    HW221153   3.601   1.756   3.809
 6752SOL     OW21154   6.227   2.872   2.537
 6752SOL    HW121155   6.279   2.838   2.459
 6752SOL    HW221156   6.283   2.869   2.619
 6753SOL     OW21157   4.686   1.561   6.656
 6753SOL    HW121158   4.743   1.642   6.673
 6753SOL    HW221159   4.634   1.538   6.739
 6754SOL     OW21160   6.389   2.088   5.295
 6754SOL    HW121161   6.444   2.147   5.236
 6754SOL    HW221162   6.334   2.144   5.357
 6755SOL     OW21163   5.171   1.696   4.086
 6755SOL    HW121164   5.088   1.654   4.049
 6755SOL    HW221165   5.146   1.749   4.167
 6756SOL     OW21166   4.579   4.454   4.164
 6756SOL    HW121167   4.557   4.491   4.255
 6756SOL    HW221168   4.675   4.474   4.142
 6757SOL     OW21169   4.733   6.240   0.586
 6757SOL    HW121170   4.649   6.207   0.629
 6757SOL    HW221171   4.788   6.291   0.652
 6758SOL     OW21172   5.448   4.055   2.046
 6758SOL    HW121173   5.349   4.039   2.045
 6758SOL    HW221174   5.494   3.971   2.074
 6759SOL     OW21175   1.100   3.711   4.288
 6759SOL    HW121176   1.143   3.715   4.198
 6759SOL    HW221177   1.020   3.771   4.290
 6760SOL     OW21178   6.457   5.218   4.584
 6760SOL    HW121179   6.384   5.287   4.582
 6760SOL    HW221180   6.423   5.135   4.628
 6761SOL     OW21181   5.477   2.360   5.959
 6761SOL    HW121182   5.400   2.342   5.897
 6761SOL    HW221183   5.468   2.452   5.997
 6762SOL     OW21184   6.756   5.494   3.041
 6762SOL    HW121185   6.855   5.493   3.023
 6762SOL    HW221186   6.738   5.454   3.131
 6763SOL     OW21187   6.416   6.161   4.221
 6763SOL    HW121188   6.496   6.215   4.195
 6763SOL    HW221189   6.352   6.218   4.273
 6764SOL     OW21190   2.925   4.134   6.593
 6764SOL    HW121191   2.841   4.096   6.556
 6764SOL    HW221192   2.974   4.064   6.645
 6765SOL     OW21193   6.008   4.947   3.646
 6765SOL    HW121194   5.954   4.937   3.562
 6765SOL    HW221195   6.074   5.021   3.634
 6766SOL     OW21196   2.618   6.902   6.280
 6766SOL    HW121197   2.665   6.817   6.258
 6766SOL    HW221198   2.598   6.953   6.196
 6767SOL     OW21199   0.573   2.955   0.786
 6767SOL    HW121200   0.619   2.925   0.870
 6767SOL    HW221201   0.640   2.962   0.713
 6768SOL     OW21202   0.942   0.569   3.597
 6768SOL    HW121203   0.951   0.556   3.695
 6768SOL    HW221204   0.846   0.557   3.570
 6769SOL     OW21205   3.231   1.592   5.374
 6769SOL    HW121206   3.293   1.585   5.296
 6769SOL    HW221207   3.137   1.584   5.343
 6770SOL     OW21208   0.113   2.313   4.498
 6770SOL    HW121209   0.058   2.273   4.425
 6770SOL    HW221210   0.069   2.294   4.587
 6771SOL     OW21211   3.578   2.083   3.575
 6771SOL    HW121212   3.585   1.994   3.530
 6771SOL    HW221213   3.485   2.095   3.610
 6772SOL     OW21214   5.293   2.041   2.594
 6772SOL    HW121215   5.306   2.133   2.557
 6772SOL    HW221216   5.343   2.033   2.681
 6773SOL     OW21217   6.594   6.799   1.254
 6773SOL    HW121218   6.612   6.889   1.294
 6773SOL    HW221219   6.638   6.793   1.165
 6774SOL     OW21220   2.082   1.673   5.565
 6774SOL    HW121221   2.109   1.653   5.470
 6774SOL    HW221222   2.073   1.587   5.615
 6775SOL     OW21223   1.280   1.918   3.528
 6775SOL    HW121224   1.313   1.878   3.614
 6775SOL    HW221225   1.287   1.851   3.455
 6776SOL     OW21226   3.689   3.802   1.503
 6776SOL    HW121227   3.725   3.886   1.542
 6776SOL    HW221228   3.627   3.759   1.568
 6777SOL     OW21229   4.178   5.297   1.322
 6777SOL    HW121230   4.156   5.341   1.234
 6777SOL    HW221231   4.275   5.312   1.343
 6778SOL     OW21232   5.565   3.741   2.306
 6778SOL    HW121233   5.491   3.806   2.321
 6778SOL    HW221234   5.532   3.666   2.247
 6779SOL     OW21235   6.330   4.282   6.438
 6779SOL    HW121236   6.293   4.204   6.489
 6779SOL    HW221237   6.264   4.312   6.370
 6780SOL     OW21238   2.325   2.834   2.782
 6780SOL    HW121239   2.297   2.913   2.728
 6780SOL    HW221240   2.345   2.863   2.875
 6781SOL     OW21241   6.508   0.780   3.869
 6781SOL    HW121242   6.565   0.787   3.951
 6781SOL    HW221243   6.444   0.703   3.881
 6782SOL     OW21244   6.934   1.327   3.592
 6782SOL    HW121245   6.867   1.256   3.613
 6782SOL    HW221246   0.002   1.286   3.588
 6783SOL     OW21247   1.279   4.368   4.996
 6783SOL    HW121248   1.319   4.359   5.087
 6783SOL    HW221249   1.187   4.331   4.995
 6784SOL     OW21250   2.185   3.208   1.852
 6784SOL    HW121251   2.163   3.173   1.943
 6784SOL    HW221252   2.241   3.291   1.860
 6785SOL     OW21253   5.658   4.505   4.998
 6785SOL    HW121254   5.665   4.598   4.962
 6785SOL    HW221255   5.571   4.495   5.047
 6786SOL     OW21256   6.453   3.179   0.579
 6786SOL    HW121257   6.436   3.211   0.672
 6786SOL    HW221258   6.366   3.168   0.531
 6787SOL     OW21259   3.687   2.485   0.598
 6787SOL    HW121260   3.649   2.508   0.508
 6787SOL    HW221261   3.613   2.479   0.665
 6788SOL     OW21262   0.867   3.817   2.802
 6788SOL    HW121263   0.775   3.779   2.816
 6788SOL    HW221264   0.865   3.915   2.823
 6789SOL     OW21265   6.467   4.357   4.306
 6789SOL    HW121266   6.428   4.427   4.245
 6789SOL    HW221267   6.393   4.313   4.357
 6790SOL     OW21268   0.761   4.930   5.734
 6790SOL    HW121269   0.854   4.956   5.709
 6790SOL    HW221270   0.761   4.838   5.772
 6791SOL     OW21271   4.533   1.407   3.774
 6791SOL    HW121272   4.551   1.320   3.820
 6791SOL    HW221273   4.574   1.482   3.827
 6792SOL     OW21274   4.150   6.808   5.188
 6792SOL    HW121275   4.055   6.781   5.203
 6792SOL    HW221276   4.177   6.782   5.095
 6793SOL     OW21277   2.911   2.615   6.923
 6793SOL    HW121278   2.960   2.544   6.974
 6793SOL    HW221279   2.813   2.608   6.944
 6794SOL     OW21280   4.698   1.391   6.033
 6794SOL    HW121281   4.653   1.428   5.952
 6794SOL    HW221282   4.649   1.421   6.115
 6795SOL     OW21283   1.434   0.585   1.400
 6795SOL    HW121284   1.467   0.548   1.487
 6795SOL    HW221285   1.338   0.612   1.410
 6796SOL     OW21286   6.304   0.739   1.918
 6796SOL    HW121287   6.235   0.768   1.852
 6796SOL    HW221288   6.286   0.645   1.946
 6797SOL     OW21289   6.826   2.519   1.822
 6797SOL    HW121290   6.912   2.468   1.813
 6797SOL    HW221291   6.804   2.528   1.919
 6798SOL     OW21292   5.315   0.353   1.398
 6798SOL    HW121293   5.390   0.287   1.406
 6798SOL    HW221294   5.269   0.361   1.486
 6799SOL     OW21295   5.803   6.717   3.558
 6799SOL    HW121296   5.806   6.817   3.558
 6799SOL    HW221297   5.743   6.687   3.483
 6800SOL     OW21298   0.967   1.209   1.279
 6800SOL    HW121299   1.046   1.149   1.279
 6800SOL    HW221300   0.905   1.184   1.354
 6801SOL     OW21301   1.253   6.490   4.632
 6801SOL    HW121302   1.177   6.522   4.576
 6801SOL    HW221303   1.220   6.466   4.724
 6802SOL     OW21304   2.962   6.227   1.293
 6802SOL    HW121305   3.010   6.263   1.373
 6802SOL    HW221306   3.019   6.157   1.250
 6803SOL     OW21307   4.986   4.504   0.215
 6803SOL    HW121308   4.927   4.448   0.156
 6803SOL    HW221309   5.062   4.449   0.248
 6804SOL     OW21310   2.702   4.779   2.568
 6804SOL    HW121311   2.679   4.682   2.561
 6804SOL    HW221312   2.683   4.811   2.661
 6805SOL     OW21313   0.351   5.138   5.802
 6805SOL    HW121314   0.275   5.203   5.809
 6805SOL    HW221315   0.359   5.107   5.707
 6806SOL     OW21316   6.921   0.777   3.870
 6806SOL    HW121317   6.966   0.687   3.869
 6806SOL    HW221318   6.832   0.769   3.916
 6807SOL     OW21319   3.688   3.965   3.846
 6807SOL    HW121320   3.694   3.920   3.936
 6807SOL    HW221321   3.626   4.043   3.852
 6808SOL     OW21322   4.773   0.979   5.315
 6808SOL    HW121323   4.707   0.993   5.242
 6808SOL    HW221324   4.781   1.063   5.369
 6809SOL     OW21325   5.884   4.832   2.002
 6809SOL    HW121326   5.981   4.854   2.007
 6809SOL    HW221327   5.872   4.732   2.005
 6810SOL     OW21328   3.482   1.216   3.424
 6810SOL    HW121329   3.555   1.155   3.395
 6810SOL    HW221330   3.408   1.215   3.356
 6811SOL     OW21331   6.480   1.778   2.402
 6811SOL    HW121332   6.531   1.719   2.465
 6811SOL    HW221333   6.391   1.800   2.442
 6812SOL     OW21334   3.538   3.744   5.195
 6812SOL    HW121335   3.553   3.645   5.186
 6812SOL    HW221336   3.458   3.770   5.140
 6813SOL     OW21337   5.149   3.285   1.177
 6813SOL    HW121338   5.094   3.240   1.248
 6813SOL    HW221339   5.112   3.263   1.087
 6814SOL     OW21340   4.272   1.510   6.329
 6814SOL    HW121341   4.266   1.420   6.374
 6814SOL    HW221342   4.274   1.582   6.398
 6815SOL     OW21343   1.746   4.914   6.720
 6815SOL    HW121344   1.736   4.962   6.807
 6815SOL    HW221345   1.834   4.937   6.679
 6816SOL     OW21346   6.648   1.635   4.682
 6816SOL    HW121347   6.712   1.636   4.606
 6816SOL    HW221348   6.572   1.573   4.662
 6817SOL     OW21349   2.642   2.370   3.113
 6817SOL    HW121350   2.588   2.451   3.138
 6817SOL    HW221351   2.728   2.370   3.164
 6818SOL     OW21352   2.104   6.037   5.927
 6818SOL    HW121353   2.190   6.045   5.979
 6818SOL    HW221354   2.057   6.126   5.928
 6819SOL     OW21355   5.114   5.123   2.839
 6819SOL    HW121356   5.090   5.037   2.793
 6819SOL    HW221357   5.212   5.123   2.862
 6820SOL     OW21358   1.701   6.672   1.325
 6820SOL    HW121359   1.647   6.742   1.278
 6820SOL    HW221360   1.784   6.715   1.363
 6821SOL     OW21361   4.233   2.436   5.487
 6821SOL    HW121362   4.306   2.500   5.467
 6821SOL    HW221363   4.196   2.455   5.578
 6822SOL     OW21364   0.037   2.983   5.846
 6822SOL    HW121365   0.024   2.968   5.748
 6822SOL    HW221366   0.056   3.080   5.863
 6823SOL     OW21367   5.564   3.518   0.069
 6823SOL    HW121368   5.662   3.499   0.056
 6823SOL    HW221369   5.550   3.617   0.068
 6824SOL     OW21370   1.697   1.515   6.818
 6824SOL    HW121371   1.703   1.614   6.810
 6824SOL    HW221372   1.778   1.479   6.865
 6825SOL     OW21373   6.864   6.159   1.032
 6825SOL    HW121374   6.932   6.095   1.067
 6825SOL    HW221375   6.900   6.208   0.953
 6826SOL     OW21376   0.838   3.456   3.032
 6826SOL    HW121377   0.781   3.539   3.040
 6826SOL    HW221378   0.890   3.444   3.117
 6827SOL     OW21379   4.608   5.362   5.397
 6827SOL    HW121380   4.615   5.342   5.495
 6827SOL    HW221381   4.670   5.302   5.347
 6828SOL     OW21382   3.946   1.351   2.950
 6828SOL    HW121383   3.868   1.318   3.004
 6828SOL    HW221384   4.006   1.405   3.008
 6829SOL     OW21385   5.490   0.085   4.860
 6829SOL    HW121386   5.566   0.022   4.879
 6829SOL    HW221387   5.404   0.040   4.884
 6830SOL     OW21388   5.954   1.171   3.079
 6830SOL    HW121389   6.035   1.204   3.031
 6830SOL    HW221390   5.981   1.108   3.152
 6831SOL     OW21391   1.457   1.647   5.397
 6831SOL    HW121392   1.540   1.625   5.448
 6831SOL    HW221393   1.406   1.563   5.378
 6832SOL     OW21394   2.767   2.242   0.702
 6832SOL    HW121395   2.705   2.307   0.745
 6832SOL    HW221396   2.797   2.278   0.614
 6833SOL     OW21397   3.405   5.392   6.046
 6833SOL    HW121398   3.328   5.329   6.035
 6833SOL    HW221399   3.371   5.486   6.042
 6834SOL     OW21400   5.317   0.042   0.577
 6834SOL    HW121401   5.389   0.043   0.508
 6834SOL    HW221402   5.230   0.018   0.534
 6835SOL     OW21403   3.273   2.051   4.068
 6835SOL    HW121404   3.316   1.971   4.027
 6835SOL    HW221405   3.340   2.126   4.075
 6836SOL     OW21406   1.906   4.460   6.212
 6836SOL    HW121407   1.963   4.481   6.291
 6836SOL    HW221408   1.810   4.480   6.233
 6837SOL     OW21409   1.387   0.690   1.993
 6837SOL    HW121410   1.369   0.788   1.990
 6837SOL    HW221411   1.462   0.668   1.931
 6838SOL     OW21412   2.557   4.560   5.135
 6838SOL    HW121413   2.643   4.596   5.099
 6838SOL    HW221414   2.560   4.460   5.136
 6839SOL     OW21415   5.181   1.791   4.343
 6839SOL    HW121416   5.206   1.748   4.430
 6839SOL    HW221417   5.255   1.851   4.313
 6840SOL     OW21418   2.649   6.891   5.056
 6840SOL    HW121419   2.554   6.860   5.049
 6840SOL    HW221420   2.670   6.950   4.977
 6841SOL     OW21421   3.898   5.280   1.698
 6841SOL    HW121422   3.943   5.346   1.637
 6841SOL    HW221423   3.835   5.329   1.758
 6842SOL     OW21424   0.426   3.017   6.805
 6842SOL    HW121425   0.450   3.110   6.833
 6842SOL    HW221426   0.507   2.958   6.809
 6843SOL     OW21427   4.593   1.901   1.899
 6843SOL    HW121428   4.616   1.997   1.916
 6843SOL    HW221429   4.569   1.857   1.986
 6844SOL     OW21430   4.386   5.583   4.661
 6844SOL    HW121431   4.394   5.549   4.755
 6844SOL    HW221432   4.438   5.668   4.652
 6845SOL     OW21433   4.626   4.729   2.937
 6845SOL    HW121434   4.633   4.668   3.016
 6845SOL    HW221435   4.543   4.707   2.885
 6846SOL     OW21436   3.654   3.417   1.531
 6846SOL    HW121437   3.607   3.375   1.609
 6846SOL    HW221438   3.751   3.393   1.534
 6847SOL     OW21439   4.930   3.353   1.945
 6847SOL    HW121440   4.858   3.347   1.875
 6847SOL    HW221441   4.960   3.261   1.970
 6848SOL     OW21442   0.669   4.823   4.410
 6848SOL    HW121443   0.725   4.829   4.328
 6848SOL    HW221444   0.612   4.741   4.406
 6849SOL     OW21445   3.904   5.623   4.134
 6849SOL    HW121446   3.818   5.580   4.164
 6849SOL    HW221447   3.954   5.558   4.075
 6850SOL     OW21448   5.923   2.059   3.584
 6850SOL    HW121449   5.853   2.027   3.520
 6850SOL    HW221450   5.988   2.117   3.535
 6851SOL     OW21451   0.814   4.937   5.418
 6851SOL    HW121452   0.758   4.912   5.497
 6851SOL    HW221453   0.853   4.854   5.377
 6852SOL     OW21454   0.806   3.959   1.773
 6852SOL    HW121455   0.810   4.059   1.769
 6852SOL    HW221456   0.898   3.921   1.770
 6853SOL     OW21457   0.355   5.586   6.021
 6853SOL    HW121458   0.371   5.497   6.064
 6853SOL    HW221459   0.443   5.625   5.994
 6854SOL     OW21460   6.418   1.873   6.119
 6854SOL    HW121461   6.514   1.870   6.146
 6854SOL    HW221462   6.363   1.909   6.195
 6855SOL     OW21463   3.730   6.870   2.602
 6855SOL    HW121464   3.799   6.807   2.636
 6855SOL    HW221465   3.743   6.884   2.504
 6856SOL     OW21466   6.356   4.368   5.012
 6856SOL    HW121467   6.322   4.358   5.105
 6856SOL    HW221468   6.452   4.338   5.008
 6857SOL     OW21469   3.210   1.573   6.355
 6857SOL    HW121470   3.268   1.507   6.307
 6857SOL    HW221471   3.120   1.533   6.372
 6858SOL     OW21472   4.063   3.163   3.921
 6858SOL    HW121473   3.991   3.103   3.887
 6858SOL    HW221474   4.069   3.156   4.021
 6859SOL     OW21475   2.423   6.998   0.606
 6859SOL    HW121476   2.501   0.035   0.586
 6859SOL    HW221477   2.442   6.907   0.570
 6860SOL     OW21478   5.744   4.955   1.776
 6860SOL    HW121479   5.774   4.888   1.708
 6860SOL    HW221480   5.779   4.929   1.866
 6861SOL     OW21481   5.702   5.051   0.681
 6861SOL    HW121482   5.767   4.986   0.720
 6861SOL    HW221483   5.746   5.101   0.606
 6862SOL     OW21484   2.348   4.812   4.716
 6862SOL    HW121485   2.251   4.827   4.733
 6862SOL    HW221486   2.381   4.740   4.777
 6863SOL     OW21487   6.366   1.135   4.510
 6863SOL    HW121488   6.280   1.133   4.459
 6863SOL    HW221489   6.427   1.202   4.469
 6864SOL     OW21490   3.497   5.579   3.703
 6864SOL    HW121491   3.499   5.655   3.638
 6864SOL    HW221492   3.422   5.592   3.768
 6865SOL     OW21493   6.377   4.564   4.179
 6865SOL    HW121494   6.337   4.650   4.210
 6865SOL    HW221495   6.358   4.551   4.082
 6866SOL     OW21496   6.617   3.883   2.181
 6866SOL    HW121497   6.613   3.982   2.167
 6866SOL    HW221498   6.539   3.840   2.135
 6867SOL     OW21499   1.570   3.997   1.584
 6867SOL    HW121500   1.634   3.979   1.659
 6867SOL    HW221501   1.621   4.024   1.503
 6868SOL     OW21502   1.735   6.234   4.671
 6868SOL    HW121503   1.705   6.139   4.659
 6868SOL    HW221504   1.655   6.294   4.669
 6869SOL     OW21505   5.959   3.186   4.855
 6869SOL    HW121506   5.930   3.123   4.783
 6869SOL    HW221507   6.048   3.226   4.830
 6870SOL     OW21508   5.443   3.803   3.043
 6870SOL    HW121509   5.396   3.868   2.983
 6870SOL    HW221510   5.452   3.842   3.134
 6871SOL     OW21511   6.139   4.786   1.698
 6871SOL    HW121512   6.132   4.815   1.603
 6871SOL    HW221513   6.201   4.708   1.705
 6872SOL     OW21514   1.948   3.444   0.963
 6872SOL    HW121515   1.870   3.386   0.987
 6872SOL    HW221516   1.915   3.536   0.940
 6873SOL     OW21517   6.105   2.903   6.004
 6873SOL    HW121518   6.010   2.899   6.033
 6873SOL    HW221519   6.109   2.921   5.905
 6874SOL     OW21520   0.261   3.931   3.815
 6874SOL    HW121521   0.271   3.881   3.729
 6874SOL    HW221522   0.225   3.869   3.885
 6875SOL     OW21523   1.574   1.695   3.252
 6875SOL    HW121524   1.573   1.738   3.343
 6875SOL    HW221525   1.590   1.764   3.182
 6876SOL     OW21526   3.637   5.751   6.517
 6876SOL    HW121527   3.695   5.777   6.440
 6876SOL    HW221528   3.643   5.652   6.531
 6877SOL     OW21529   2.464   4.342   7.014
 6877SOL    HW121530   2.369   4.349   0.020
 6877SOL    HW221531   2.512   4.428   0.010
 6878SOL     OW21532   2.260   1.943   6.281
 6878SOL    HW121533   2.343   1.889   6.293
 6878SOL    HW221534   2.276   2.012   6.211
 6879SOL     OW21535   0.264   1.908   0.483
 6879SOL    HW121536   0.362   1.892   0.473
 6879SOL    HW221537   0.225   1.839   0.544
 6880SOL     OW21538   2.073   3.609   5.021
 6880SOL    HW121539   2.056   3.681   4.954
 6880SOL    HW221540   2.134   3.644   5.092
 6881SOL     OW21541   6.775   4.428   1.928
 6881SOL    HW121542   6.686   4.392   1.899
 6881SOL    HW221543   6.826   4.462   1.849
 6882SOL     OW21544   2.282   0.407   5.329
 6882SOL    HW121545   2.289   0.326   5.272
 6882SOL    HW221546   2.209   0.394   5.397
 6883SOL     OW21547   3.407   0.356   0.911
 6883SOL    HW121548   3.420   0.453   0.935
 6883SOL    HW221549   3.495   0.317   0.882
 6884SOL     OW21550   2.366   4.322   4.009
 6884SOL    HW121551   2.459   4.288   3.989
 6884SOL    HW221552   2.328   4.269   4.084
 6885SOL     OW21553   2.857   5.668   3.293
 6885SOL    HW121554   2.859   5.571   3.269
 6885SOL    HW221555   2.948   5.696   3.324
 6886SOL     OW21556   5.558   1.550   2.142
 6886SOL    HW121557   5.561   1.600   2.228
 6886SOL    HW221558   5.551   1.614   2.065
 6887SOL     OW21559   5.437   0.675   5.065
 6887SOL    HW121560   5.470   0.597   5.118
 6887SOL    HW221561   5.477   0.760   5.100
 6888SOL     OW21562   5.935   0.061   5.700
 6888SOL    HW121563   5.985   0.142   5.731
 6888SOL    HW221564   5.890   0.018   5.778
 6889SOL     OW21565   0.907   2.882   5.593
 6889SOL    HW121566   0.947   2.930   5.671
 6889SOL    HW221567   0.973   2.816   5.557
 6890SOL     OW21568   2.203   0.431   0.757
 6890SOL    HW121569   2.118   0.426   0.705
 6890SOL    HW221570   2.268   0.489   0.709
 6891SOL     OW21571   2.143   3.305   4.564
 6891SOL    HW121572   2.153   3.335   4.659
 6891SOL    HW221573   2.114   3.382   4.507
 6892SOL     OW21574   4.233   0.204   3.889
 6892SOL    HW121575   4.231   0.211   3.989
 6892SOL    HW221576   4.175   0.128   3.859
 6893SOL     OW21577   5.551   6.128   2.207
 6893SOL    HW121578   5.494   6.209   2.191
 6893SOL    HW221579   5.533   6.091   2.298
 6894SOL     OW21580   6.435   5.454   0.807
 6894SOL    HW121581   6.435   5.554   0.796
 6894SOL    HW221582   6.370   5.414   0.743
 6895SOL     OW21583   2.867   4.558   6.853
 6895SOL    HW121584   2.843   4.465   6.823
 6895SOL    HW221585   2.817   4.625   6.797
 6896SOL     OW21586   4.028   0.167   3.534
 6896SOL    HW121587   3.974   0.224   3.473
 6896SOL    HW221588   3.999   0.183   3.628
 6897SOL     OW21589   2.573   3.466   0.093
 6897SOL    HW121590   2.613   3.547   0.136
 6897SOL    HW221591   2.625   3.385   0.119
 6898SOL     OW21592   4.649   1.489   1.995
 6898SOL    HW121593   4.701   1.546   1.931
 6898SOL    HW221594   4.588   1.428   1.945
 6899SOL     OW21595   5.394   7.015   6.448
 6899SOL    HW121596   5.370   0.067   6.509
 6899SOL    HW221597   5.490   6.990   6.461
 6900SOL     OW21598   5.945   0.644   6.262
 6900SOL    HW121599   5.967   0.738   6.237
 6900SOL    HW221600   5.848   0.626   6.245
 6901SOL     OW21601   0.156   0.139   6.313
 6901SOL    HW121602   0.179   0.185   6.399
 6901SOL    HW221603   0.210   0.179   6.239
 6902SOL     OW21604   0.824   6.688   0.318
 6902SOL    HW121605   0.788   6.770   0.363
 6902SOL    HW221606   0.854   6.622   0.388
 6903SOL     OW21607   3.750   3.797   0.233
 6903SOL    HW121608   3.819   3.781   0.304
 6903SOL    HW221609   3.706   3.885   0.248
 6904SOL     OW21610   6.574   1.386   3.700
 6904SOL    HW121611   6.626   1.310   3.740
 6904SOL    HW221612   6.477   1.360   3.692
 6905SOL     OW21613   5.929   6.540   0.243
 6905SOL    HW121614   5.862   6.488   0.190
 6905SOL    HW221615   5.956   6.487   0.324
 6906SOL     OW21616   3.414   1.143   4.593
 6906SOL    HW121617   3.497   1.090   4.579
 6906SOL    HW221618   3.340   1.104   4.538
 6907SOL     OW21619   3.956   2.012   0.748
 6907SOL    HW121620   3.869   2.059   0.730
 6907SOL    HW221621   4.029   2.055   0.694
 6908SOL     OW21622   1.551   0.123   5.485
 6908SOL    HW121623   1.637   0.102   5.530
 6908SOL    HW221624   1.475   0.113   5.550
 6909SOL     OW21625   4.380   4.643   1.016
 6909SOL    HW121626   4.429   4.646   0.929
 6909SOL    HW221627   4.386   4.733   1.060
 6910SOL     OW21628   6.217   1.698   2.908
 6910SOL    HW121629   6.309   1.664   2.926
 6910SOL    HW221630   6.179   1.737   2.992
 6911SOL     OW21631   4.323   0.282   3.536
 6911SOL    HW121632   4.226   0.275   3.560
 6911SOL    HW221633   4.360   0.190   3.523
 6912SOL     OW21634   5.077   4.940   1.038
 6912SOL    HW121635   4.981   4.969   1.029
 6912SOL    HW221636   5.084   4.875   1.113
 6913SOL     OW21637   5.495   4.310   5.428
 6913SOL    HW121638   5.525   4.235   5.369
 6913SOL    HW221639   5.413   4.284   5.477
 6914SOL     OW21640   5.498   5.548   6.868
 6914SOL    HW121641   5.399   5.536   6.876
 6914SOL    HW221642   5.518   5.609   6.791
 6915SOL     OW21643   0.335   4.858   2.024
 6915SOL    HW121644   0.280   4.785   1.983
 6915SOL    HW221645   0.419   4.819   2.063
 6916SOL     OW21646   6.406   4.037   6.779
 6916SOL    HW121647   6.351   4.117   6.755
 6916SOL    HW221648   6.370   3.996   6.863
 6917SOL     OW21649   4.579   4.957   6.615
 6917SOL    HW121650   4.493   5.007   6.622
 6917SOL    HW221651   4.596   4.907   6.700
 6918SOL     OW21652   0.487   4.089   4.264
 6918SOL    HW121653   0.564   4.044   4.309
 6918SOL    HW221654   0.520   4.142   4.186
 6919SOL     OW21655   1.936   5.425   2.395
 6919SOL    HW121656   1.909   5.331   2.374
 6919SOL    HW221657   1.878   5.489   2.345
 6920SOL     OW21658   5.189   5.195   6.029
 6920SOL    HW121659   5.100   5.240   6.036
 6920SOL    HW221660   5.234   5.197   6.118
 6921SOL     OW21661   5.878   5.874   3.340
 6921SOL    HW121662   5.859   5.957   3.393
 6921SOL    HW221663   5.932   5.898   3.259
 6922SOL     OW21664   1.887   5.968   0.058
 6922SOL    HW121665   1.792   5.968   0.087
 6922SOL    HW221666   1.946   5.954   0.137
 6923SOL     OW21667   5.010   6.847   4.000
 6923SOL    HW121668   5.071   6.878   3.927
 6923SOL    HW221669   5.050   6.871   4.089
 6924SOL     OW21670   0.682   3.735   0.426
 6924SOL    HW121671   0.690   3.652   0.482
 6924SOL    HW221672   0.636   3.712   0.340
 6925SOL     OW21673   3.890   6.102   3.848
 6925SOL    HW121674   3.899   6.175   3.781
 6925SOL    HW221675   3.798   6.103   3.887
 6926SOL     OW21676   3.795   3.753   2.917
 6926SOL    HW121677   3.702   3.786   2.932
 6926SOL    HW221678   3.828   3.784   2.827
 6927SOL     OW21679   5.284   3.391   5.595
 6927SOL    HW121680   5.199   3.445   5.599
 6927SOL    HW221681   5.262   3.294   5.585
 6928SOL     OW21682   4.626   7.005   6.566
 6928SOL    HW121683   4.554   0.005   6.501
 6928SOL    HW221684   4.594   6.935   6.629
 6929SOL     OW21685   4.271   5.979   0.226
 6929SOL    HW121686   4.302   5.935   0.142
 6929SOL    HW221687   4.350   6.006   0.281
 6930SOL     OW21688   7.022   6.782   1.724
 6930SOL    HW121689   0.050   6.854   1.772
 6930SOL    HW221690   7.005   6.811   1.630
 6931SOL     OW21691   1.197   0.550   1.615
 6931SOL    HW121692   1.179   0.523   1.520
 6931SOL    HW221693   1.149   0.488   1.677
 6932SOL     OW21694   3.039   1.002   0.284
 6932SOL    HW121695   3.126   0.958   0.263
 6932SOL    HW221696   3.029   1.084   0.228
 6933SOL     OW21697   3.405   5.623   4.957
 6933SOL    HW121698   3.483   5.685   4.944
 6933SOL    HW221699   3.365   5.639   5.047
 6934SOL     OW21700   5.596   3.623   6.512
 6934SOL    HW121701   5.612   3.534   6.555
 6934SOL    HW221702   5.677   3.649   6.460
 6935SOL     OW21703   4.395   6.134   2.943
 6935SOL    HW121704   4.473   6.197   2.946
 6935SOL    HW221705   4.351   6.132   3.033
 6936SOL     OW21706   6.797   2.068   2.911
 6936SOL    HW121707   6.871   2.129   2.880
 6936SOL    HW221708   6.776   2.003   2.838
 6937SOL     OW21709   5.251   6.759   6.835
 6937SOL    HW121710   5.190   6.694   6.790
 6937SOL    HW221711   5.339   6.762   6.787
 6938SOL     OW21712   5.186   3.859   5.126
 6938SOL    HW121713   5.132   3.943   5.135
 6938SOL    HW221714   5.132   3.781   5.155
 6939SOL     OW21715   0.006   5.126   2.906
 6939SOL    HW121716   0.029   5.029   2.905
 6939SOL    HW221717   6.967   5.146   2.830
 6940SOL     OW21718   4.143   0.976   0.844
 6940SOL    HW121719   4.090   1.050   0.801
 6940SOL    HW221720   4.240   0.993   0.830
 6941SOL     OW21721   4.084   3.235   1.950
 6941SOL    HW121722   4.007   3.185   1.909
 6941SOL    HW221723   4.096   3.206   2.045
 6942SOL     OW21724   0.201   2.931   1.047
 6942SOL    HW121725   0.295   2.960   1.067
 6942SOL    HW221726   0.191   2.834   1.069
 6943SOL     OW21727   5.278   6.785   6.436
 6943SOL    HW121728   5.183   6.806   6.411
 6943SOL    HW221729   5.332   6.869   6.438
 6944SOL     OW21730   1.278   5.414   5.146
 6944SOL    HW121731   1.343   5.338   5.135
 6944SOL    HW221732   1.313   5.494   5.097
 6945SOL     OW21733   6.200   3.010   6.936
 6945SOL    HW121734   6.125   3.074   6.924
 6945SOL    HW221735   6.278   3.057   6.979
 6946SOL     OW21736   6.186   5.338   2.408
 6946SOL    HW121737   6.196   5.248   2.367
 6946SOL    HW221738   6.129   5.396   2.350
 6947SOL     OW21739   3.942   0.120   4.298
 6947SOL    HW121740   3.919   0.127   4.395
 6947SOL    HW221741   3.943   0.024   4.270
 6948SOL     OW21742   5.535   0.299   0.551
 6948SOL    HW121743   5.632   0.305   0.577
 6948SOL    HW221744   5.481   0.275   0.632
 6949SOL     OW21745   5.028   6.129   2.959
 6949SOL    HW121746   5.034   6.092   2.866
 6949SOL    HW221747   4.959   6.078   3.010
 6950SOL     OW21748   2.488   0.373   3.098
 6950SOL    HW121749   2.509   0.459   3.144
 6950SOL    HW221750   2.517   0.377   3.003
 6951SOL     OW21751   6.295   6.761   6.022
 6951SOL    HW121752   6.385   6.794   6.050
 6951SOL    HW221753   6.305   6.675   5.973
 6952SOL     OW21754   0.028   5.138   3.348
 6952SOL    HW121755   0.008   5.100   3.438
 6952SOL    HW221756   0.012   5.237   3.349
 6953SOL     OW21757   5.226   0.678   5.918
 6953SOL    HW121758   5.296   0.628   5.868
 6953SOL    HW221759   5.138   0.669   5.870
 6954SOL     OW21760   1.210   3.781   4.027
 6954SOL    HW121761   1.306   3.753   4.032
 6954SOL    HW221762   1.205   3.873   3.988
 6955SOL     OW21763   6.777   0.464   1.891
 6955SOL    HW121764   6.845   0.412   1.943
 6955SOL    HW221765   6.766   0.423   1.801
 6956SOL     OW21766   4.109   5.940   2.658
 6956SOL    HW121767   4.116   6.022   2.600
 6956SOL    HW221768   4.032   5.884   2.627
 6957SOL     OW21769   0.081   4.747   1.451
 6957SOL    HW121770   0.111   4.802   1.373
 6957SOL    HW221771   0.115   4.654   1.442
 6958SOL     OW21772   2.528   3.023   5.895
 6958SOL    HW121773   2.520   2.928   5.925
 6958SOL    HW221774   2.624   3.043   5.873
 6959SOL     OW21775   1.904   1.056   5.075
 6959SOL    HW121776   1.810   1.084   5.094
 6959SOL    HW221777   1.967   1.119   5.121
 6960SOL     OW21778   0.735   5.315   0.203
 6960SOL    HW121779   0.754   5.412   0.218
 6960SOL    HW221780   0.694   5.276   0.285
 6961SOL     OW21781   0.540   2.300   4.040
 6961SOL    HW121782   0.573   2.328   3.950
 6961SOL    HW221783   0.507   2.379   4.090
 6962SOL     OW21784   5.579   5.522   2.905
 6962SOL    HW121785   5.574   5.613   2.946
 6962SOL    HW221786   5.495   5.504   2.855
 6963SOL     OW21787   0.083   5.753   1.270
 6963SOL    HW121788   7.019   5.737   1.316
 6963SOL    HW221789   0.158   5.725   1.330
 6964SOL     OW21790   4.888   4.832   5.087
 6964SOL    HW121791   4.861   4.800   5.177
 6964SOL    HW221792   4.862   4.765   5.018
 6965SOL     OW21793   0.225   3.648   6.329
 6965SOL    HW121794   0.224   3.701   6.414
 6965SOL    HW221795   0.312   3.599   6.322
 6966SOL     OW21796   5.500   2.615   2.890
 6966SOL    HW121797   5.550   2.669   2.958
 6966SOL    HW221798   5.504   2.661   2.801
 6967SOL     OW21799   1.531   1.978   5.240
 6967SOL    HW121800   1.616   2.030   5.252
 6967SOL    HW221801   1.552   1.888   5.203
 6968SOL     OW21802   3.625   6.334   1.348
 6968SOL    HW121803   3.526   6.330   1.360
 6968SOL    HW221804   3.648   6.308   1.254
 6969SOL     OW21805   4.086   1.776   1.798
 6969SOL    HW121806   3.992   1.751   1.822
 6969SOL    HW221807   4.092   1.795   1.700
 6970SOL     OW21808   4.110   4.353   0.742
 6970SOL    HW121809   4.065   4.295   0.674
 6970SOL    HW221810   4.067   4.443   0.744
 6971SOL     OW21811   6.496   3.369   2.372
 6971SOL    HW121812   6.563   3.386   2.300
 6971SOL    HW221813   6.505   3.438   2.443
 6972SOL     OW21814   5.961   4.906   4.424
 6972SOL    HW121815   5.892   4.911   4.352
 6972SOL    HW221816   6.050   4.931   4.386
 6973SOL     OW21817   1.364   4.571   4.546
 6973SOL    HW121818   1.345   4.582   4.644
 6973SOL    HW221819   1.453   4.526   4.534
 6974SOL     OW21820   3.820   3.009   3.540
 6974SOL    HW121821   3.905   3.057   3.564
 6974SOL    HW221822   3.755   3.074   3.500
 6975SOL     OW21823   3.171   6.047   5.532
 6975SOL    HW121824   3.189   6.019   5.626
 6975SOL    HW221825   3.073   6.036   5.512
 6976SOL     OW21826   3.929   4.242   6.168
 6976SOL    HW121827   3.845   4.215   6.214
 6976SOL    HW221828   3.980   4.307   6.225
 6977SOL     OW21829   5.463   2.066   1.573
 6977SOL    HW121830   5.462   2.134   1.646
 6977SOL    HW221831   5.495   2.109   1.489
 6978SOL     OW21832   6.368   1.026   1.754
 6978SOL    HW121833   6.300   1.018   1.681
 6978SOL    HW221834   6.443   1.084   1.724
 6979SOL     OW21835   1.861   5.012   1.896
 6979SOL    HW121836   1.762   5.020   1.904
 6979SOL    HW221837   1.905   5.089   1.943
 6980SOL     OW21838   1.964   0.786   3.964
 6980SOL    HW121839   1.898   0.764   3.891
 6980SOL    HW221840   2.053   0.805   3.923
 6981SOL     OW21841   2.712   3.657   6.633
 6981SOL    HW121842   2.733   3.574   6.581
 6981SOL    HW221843   2.792   3.718   6.632
 6982SOL     OW21844   1.369   1.770   3.746
 6982SOL    HW121845   1.395   1.700   3.679
 6982SOL    HW221846   1.451   1.801   3.795
 6983SOL     OW21847   0.125   1.816   3.744
 6983SOL    HW121848   0.094   1.905   3.712
 6983SOL    HW221849   0.085   1.744   3.687
 6984SOL     OW21850   2.966   1.546   5.310
 6984SOL    HW121851   2.919   1.631   5.334
 6984SOL    HW221852   2.915   1.499   5.238
 6985SOL     OW21853   3.419   5.187   2.640
 6985SOL    HW121854   3.333   5.225   2.676
 6985SOL    HW221855   3.416   5.087   2.644
 6986SOL     OW21856   2.055   5.823   5.772
 6986SOL    HW121857   2.074   5.885   5.848
 6986SOL    HW221858   2.012   5.873   5.697
 6987SOL     OW21859   0.714   1.699   6.398
 6987SOL    HW121860   0.754   1.787   6.423
 6987SOL    HW221861   0.649   1.671   6.468
 6988SOL     OW21862   6.379   0.754   4.981
 6988SOL    HW121863   6.461   0.797   4.944
 6988SOL    HW221864   6.370   0.776   5.078
 6989SOL     OW21865   1.070   2.304   3.136
 6989SOL    HW121866   1.076   2.385   3.078
 6989SOL    HW221867   1.144   2.240   3.111
 6990SOL     OW21868   5.400   1.991   0.322
 6990SOL    HW121869   5.311   1.953   0.298
 6990SOL    HW221870   5.472   1.930   0.288
 6991SOL     OW21871   2.574   4.665   4.857
 6991SOL    HW121872   2.514   4.587   4.872
 6991SOL    HW221873   2.666   4.644   4.891
 6992SOL     OW21874   5.578   6.010   5.182
 6992SOL    HW121875   5.607   6.059   5.264
 6992SOL    HW221876   5.641   6.031   5.107
 6993SOL     OW21877   5.943   6.529   2.868
 6993SOL    HW121878   5.985   6.619   2.878
 6993SOL    HW221879   5.993   6.463   2.926
 6994SOL     OW21880   0.371   3.254   4.853
 6994SOL    HW121881   0.394   3.207   4.938
 6994SOL    HW221882   0.453   3.261   4.795
 6995SOL     OW21883   6.269   5.404   4.595
 6995SOL    HW121884   6.336   5.471   4.627
 6995SOL    HW221885   6.180   5.424   4.636
 6996SOL     OW21886   2.302   1.101   5.198
 6996SOL    HW121887   2.287   1.003   5.203
 6996SOL    HW221888   2.383   1.120   5.142
 6997SOL     OW21889   4.993   6.065   5.542
 6997SOL    HW121890   4.998   5.972   5.579
 6997SOL    HW221891   5.067   6.120   5.581
 6998SOL     OW21892   1.693   2.582   1.344
 6998SOL    HW121893   1.722   2.664   1.393
 6998SOL    HW221894   1.771   2.520   1.333
 6999SOL     OW21895   2.513   1.951   0.007
 6999SOL    HW121896   2.495   1.862   6.989
 6999SOL    HW221897   2.610   1.974   7.020
 7000SOL     OW21898   0.339   6.353   2.691
 7000SOL    HW121899   0.392   6.342   2.775
 7000SOL    HW221900   0.278   6.275   2.678
 7001SOL     OW21901   2.657   2.609   5.467
 7001SOL    HW121902   2.614   2.542   5.527
 7001SOL    HW221903   2.691   2.563   5.385
 7002SOL     OW21904   2.363   4.711   2.865
 7002SOL    HW121905   2.370   4.612   2.871
 7002SOL    HW221906   2.288   4.736   2.803
 7003SOL     OW21907   3.354   6.864   6.929
 7003SOL    HW121908   3.342   6.963   6.920
 7003SOL    HW221909   3.437   6.836   6.881
 7004SOL     OW21910   2.118   5.282   1.846
 7004SOL    HW121911   2.183   5.358   1.843
 7004SOL    HW221912   2.031   5.310   1.806
 7005SOL     OW21913   0.280   6.076   5.330
 7005SOL    HW121914   0.291   6.172   5.303
 7005SOL    HW221915   0.195   6.066   5.383
 7006SOL     OW21916   5.292   5.020   4.856
 7006SOL    HW121917   5.250   5.108   4.832
 7006SOL    HW221918   5.239   4.977   4.929
 7007SOL     OW21919   5.268   6.552   3.298
 7007SOL    HW121920   5.288   6.479   3.232
 7007SOL    HW221921   5.340   6.554   3.368
 7008SOL     OW21922   2.549   4.933   4.077
 7008SOL    HW121923   2.533   4.906   4.172
 7008SOL    HW221924   2.492   5.012   4.054
 7009SOL     OW21925   6.430   5.276   2.102
 7009SOL    HW121926   6.463   5.363   2.138
 7009SOL    HW221927   6.426   5.209   2.176
 7010SOL     OW21928   4.809   4.074   6.023
 7010SOL    HW121929   4.852   4.164   6.029
 7010SOL    HW221930   4.846   4.015   6.095
 7011SOL     OW21931   1.680   0.427   6.299
 7011SOL    HW121932   1.769   0.426   6.345
 7011SOL    HW221933   1.609   0.394   6.362
 7012SOL     OW21934   1.709   0.764   2.114
 7012SOL    HW121935   1.790   0.750   2.171
 7012SOL    HW221936   1.645   0.825   2.162
 7013SOL     OW21937   0.412   6.578   0.283
 7013SOL    HW121938   0.363   6.608   0.365
 7013SOL    HW221939   0.466   6.653   0.247
 7014SOL     OW21940   4.849   4.017   1.244
 7014SOL    HW121941   4.805   3.974   1.165
 7014SOL    HW221942   4.780   4.037   1.313
 7015SOL     OW21943   5.408   4.325   1.969
 7015SOL    HW121944   5.413   4.246   2.030
 7015SOL    HW221945   5.480   4.390   1.994
 7016SOL     OW21946   3.511   4.889   2.172
 7016SOL    HW121947   3.427   4.858   2.217
 7016SOL    HW221948   3.528   4.833   2.091
 7017SOL     OW21949   2.368   0.593   2.053
 7017SOL    HW121950   2.319   0.533   1.990
 7017SOL    HW221951   2.448   0.631   2.007
 7018SOL     OW21952   6.529   4.720   4.712
 7018SOL    HW121953   6.589   4.745   4.788
 7018SOL    HW221954   6.582   4.673   4.641
 7019SOL     OW21955   2.895   4.525   6.150
 7019SOL    HW121956   2.827   4.453   6.165
 7019SOL    HW221957   2.851   4.615   6.158
 7020SOL     OW21958   5.909   6.566   6.872
 7020SOL    HW121959   5.958   6.611   6.948
 7020SOL    HW221960   5.882   6.474   6.901
 7021SOL     OW21961   2.716   0.957   5.638
 7021SOL    HW121962   2.619   0.969   5.616
 7021SOL    HW221963   2.771   0.975   5.557
 7022SOL     OW21964   4.938   4.379   0.631
 7022SOL    HW121965   4.843   4.408   0.644
 7022SOL    HW221966   4.940   4.283   0.604
 7023SOL     OW21967   0.359   2.098   3.404
 7023SOL    HW121968   0.367   2.083   3.306
 7023SOL    HW221969   0.357   2.011   3.452
 7024SOL     OW21970   1.277   5.969   6.022
 7024SOL    HW121971   1.249   5.956   5.927
 7024SOL    HW221972   1.377   5.977   6.027
 7025SOL     OW21973   3.621   1.552   0.161
 7025SOL    HW121974   3.529   1.514   0.159
 7025SOL    HW221975   3.668   1.523   0.244
 7026SOL     OW21976   2.852   1.470   1.915
 7026SOL    HW121977   2.787   1.412   1.867
 7026SOL    HW221978   2.918   1.507   1.849
 7027SOL     OW21979   3.189   5.524   2.440
 7027SOL    HW121980   3.198   5.523   2.540
 7027SOL    HW221981   3.099   5.489   2.414
 7028SOL     OW21982   5.652   6.095   4.635
 7028SOL    HW121983   5.661   6.192   4.611
 7028SOL    HW221984   5.652   6.040   4.551
 7029SOL     OW21985   3.599   6.780   6.848
 7029SOL    HW121986   3.673   6.801   6.913
 7029SOL    HW221987   3.579   6.683   6.852
 7030SOL     OW21988   0.188   2.726   5.517
 7030SOL    HW121989   0.149   2.814   5.547
 7030SOL    HW221990   0.135   2.690   5.441
 7031SOL     OW21991   2.139   6.077   3.558
 7031SOL    HW121992   2.205   6.019   3.606
 7031SOL    HW221993   2.052   6.076   3.607
 7032SOL     OW21994   3.629   6.738   3.843
 7032SOL    HW121995   3.535   6.706   3.856
 7032SOL    HW221996   3.653   6.802   3.916
 7033SOL     OW21997   6.570   1.639   4.367
 7033SOL    HW121998   6.502   1.700   4.409
 7033SOL    HW221999   6.536   1.609   4.278
 7034SOL     OW22000   6.000   0.779   3.187
 7034SOL    HW122001   5.909   0.746   3.163
 7034SOL    HW222002   5.993   0.865   3.237
 7035SOL     OW22003   0.803   6.667   1.835
 7035SOL    HW122004   0.794   6.597   1.907
 7035SOL    HW222005   0.725   6.661   1.773
 7036SOL     OW22006   6.447   6.539   1.851
 7036SOL    HW122007   6.369   6.594   1.879
 7036SOL    HW222008   6.458   6.462   1.913
 7037SOL     OW22009   0.159   6.903   6.442
 7037SOL    HW122010   0.239   6.852   6.474
 7037SOL    HW222011   0.188   6.986   6.396
 7038SOL     OW22012   2.051   3.677   4.640
 7038SOL    HW122013   2.094   3.675   4.731
 7038SOL    HW222014   1.955   3.704   4.649
 7039SOL     OW22015   2.883   6.473   0.111
 7039SOL    HW122016   2.846   6.532   0.183
 7039SOL    HW222017   2.982   6.463   0.122
 7040SOL     OW22018   4.499   2.651   5.493
 7040SOL    HW122019   4.485   2.647   5.592
 7040SOL    HW222020   4.594   2.627   5.472
 7041SOL     OW22021   0.851   1.867   3.413
 7041SOL    HW122022   0.760   1.840   3.445
 7041SOL    HW222023   0.858   1.847   3.316
 7042SOL     OW22024   4.948   5.001   6.795
 7042SOL    HW122025   4.915   4.963   6.881
 7042SOL    HW222026   4.961   4.928   6.728
 7043SOL     OW22027   2.183   2.631   2.807
 7043SOL    HW122028   2.251   2.701   2.786
 7043SOL    HW222029   2.149   2.592   2.721
 7044SOL     OW22030   4.632   4.339   3.114
 7044SOL    HW122031   4.630   4.432   3.151
 7044SOL    HW222032   4.683   4.279   3.176
 7045SOL     OW22033   4.638   6.432   1.810
 7045SOL    HW122034   4.619   6.478   1.896
 7045SOL    HW222035   4.635   6.498   1.735
 7046SOL     OW22036   3.320   2.101   3.719
 7046SOL    HW122037   3.237   2.149   3.750
 7046SOL    HW222038   3.295   2.031   3.652
 7047SOL     OW22039   0.989   2.518   2.894
 7047SOL    HW122040   1.016   2.541   2.800
 7047SOL    HW222041   0.985   2.601   2.949
 7048SOL     OW22042   0.534   6.225   1.343
 7048SOL    HW122043   0.630   6.198   1.334
 7048SOL    HW222044   0.491   6.172   1.417
 7049SOL     OW22045   2.370   0.992   0.653
 7049SOL    HW122046   2.309   1.049   0.598
 7049SOL    HW222047   2.401   1.043   0.733
 7050SOL     OW22048   3.898   3.972   4.265
 7050SOL    HW122049   3.995   3.977   4.241
 7050SOL    HW222050   3.877   4.043   4.332
 7051SOL     OW22051   0.541   0.578   0.888
 7051SOL    HW122052   0.536   0.512   0.813
 7051SOL    HW222053   0.631   0.572   0.931
 7052SOL     OW22054   6.255   2.783   4.369
 7052SOL    HW122055   6.157   2.799   4.357
 7052SOL    HW222056   6.286   2.827   4.453
 7053SOL     OW22057   0.513   2.958   5.261
 7053SOL    HW122058   0.455   2.879   5.243
 7053SOL    HW222059   0.603   2.928   5.292
 7054SOL     OW22060   1.135   6.476   1.553
 7054SOL    HW122061   1.059   6.411   1.549
 7054SOL    HW222062   1.114   6.546   1.622
 7055SOL     OW22063   3.657   6.398   5.009
 7055SOL    HW122064   3.693   6.339   4.937
 7055SOL    HW222065   3.695   6.370   5.097
 7056SOL     OW22066   5.494   5.087   3.647
 7056SOL    HW122067   5.489   4.988   3.643
 7056SOL    HW222068   5.586   5.115   3.675
 7057SOL     OW22069   1.118   4.071   4.354
 7057SOL    HW122070   1.179   4.141   4.393
 7057SOL    HW222071   1.163   3.982   4.359
 7058SOL     OW22072   6.812   5.657   5.637
 7058SOL    HW122073   6.771   5.736   5.592
 7058SOL    HW222074   6.776   5.573   5.596
 7059SOL     OW22075   0.354   0.150   2.887
 7059SOL    HW122076   0.357   0.058   2.847
 7059SOL    HW222077   0.423   0.157   2.959
 7060SOL     OW22078   3.185   0.298   1.435
 7060SOL    HW122079   3.263   0.342   1.391
 7060SOL    HW222080   3.214   0.209   1.472
 7061SOL     OW22081   0.381   1.854   3.830
 7061SOL    HW122082   0.281   1.847   3.833
 7061SOL    HW222083   0.407   1.951   3.826
 7062SOL     OW22084   5.585   1.397   5.970
 7062SOL    HW122085   5.560   1.480   5.920
 7062SOL    HW222086   5.523   1.385   6.047
 7063SOL     OW22087   1.148   6.939   0.580
 7063SOL    HW122088   1.088   7.001   0.529
 7063SOL    HW222089   1.201   6.990   0.647
 7064SOL     OW22090   4.157   2.135   1.849
 7064SOL    HW122091   4.208   2.112   1.932
 7064SOL    HW222092   4.059   2.128   1.866
 7065SOL     OW22093   4.397   3.778   1.179
 7065SOL    HW122094   4.375   3.778   1.276
 7065SOL    HW222095   4.405   3.683   1.147
 7066SOL     OW22096   4.010   0.525   0.746
 7066SOL    HW122097   4.015   0.589   0.823
 7066SOL    HW222098   4.044   0.436   0.774
 7067SOL     OW22099   1.316   2.105   5.055
 7067SOL    HW122100   1.366   2.163   5.119
 7067SOL    HW222101   1.239   2.156   5.017
 7068SOL     OW22102   0.503   4.283   3.291
 7068SOL    HW122103   0.547   4.371   3.271
 7068SOL    HW222104   0.545   4.243   3.373
 7069SOL     OW22105   6.419   2.516   4.505
 7069SOL    HW122106   6.352   2.507   4.431
 7069SOL    HW222107   6.459   2.608   4.503
 7070SOL     OW22108   6.737   6.206   5.054
 7070SOL    HW122109   6.796   6.286   5.040
 7070SOL    HW222110   6.644   6.236   5.073
 7071SOL     OW22111   0.367   6.610   5.698
 7071SOL    HW122112   0.432   6.535   5.713
 7071SOL    HW222113   0.283   6.592   5.750
 7072SOL     OW22114   6.589   6.854   6.040
 7072SOL    HW122115   6.563   6.949   6.023
 7072SOL    HW222116   6.629   6.846   6.131
 7073SOL     OW22117   6.227   0.612   4.370
 7073SOL    HW122118   6.147   0.608   4.311
 7073SOL    HW222119   6.199   0.602   4.466
 7074SOL     OW22120   3.834   3.083   1.678
 7074SOL    HW122121   3.810   3.072   1.581
 7074SOL    HW222122   3.829   2.995   1.724
 7075SOL     OW22123   0.901   6.803   4.850
 7075SOL    HW122124   0.972   6.780   4.784
 7075SOL    HW222125   0.888   6.725   4.912
 7076SOL     OW22126   4.323   2.679   6.910
 7076SOL    HW122127   4.423   2.687   6.903
 7076SOL    HW222128   4.282   2.770   6.908
 7077SOL     OW22129   1.919   4.974   5.358
 7077SOL    HW122130   1.833   5.024   5.367
 7077SOL    HW222131   1.909   4.901   5.291
 7078SOL     OW22132   6.206   0.335   1.657
 7078SOL    HW122133   6.207   0.315   1.559
 7078SOL    HW222134   6.186   0.250   1.707
 7079SOL     OW22135   6.855   6.245   5.522
 7079SOL    HW122136   6.844   6.185   5.443
 7079SOL    HW222137   6.778   6.309   5.526
 7080SOL     OW22138   3.991   2.163   3.943
 7080SOL    HW122139   3.915   2.212   3.985
 7080SOL    HW222140   4.077   2.206   3.969
 7081SOL     OW22141   3.276   0.513   5.925
 7081SOL    HW122142   3.191   0.466   5.900
 7081SOL    HW222143   3.271   0.544   6.019
 7082SOL     OW22144   5.586   6.363   6.813
 7082SOL    HW122145   5.526   6.428   6.860
 7082SOL    HW222146   5.531   6.289   6.774
 7083SOL     OW22147   3.052   1.521   6.846
 7083SOL    HW122148   3.014   1.518   6.938
 7083SOL    HW222149   3.022   1.440   6.795
 7084SOL     OW22150   0.115   6.926   5.513
 7084SOL    HW122151   0.165   6.962   5.592
 7084SOL    HW222152   0.017   6.944   5.523
 7085SOL     OW22153   2.313   0.731   3.124
 7085SOL    HW122154   2.382   0.668   3.161
 7085SOL    HW222155   2.327   0.822   3.163
 7086SOL     OW22156   4.995   1.451   6.217
 7086SOL    HW122157   4.957   1.359   6.216
 7086SOL    HW222158   5.025   1.475   6.124
 7087SOL     OW22159   6.145   4.144   3.535
 7087SOL    HW122160   6.146   4.171   3.631
 7087SOL    HW222161   6.208   4.067   3.521
 7088SOL     OW22162   4.868   2.964   3.939
 7088SOL    HW122163   4.956   2.942   3.981
 7088SOL    HW222164   4.794   2.927   3.996
 7089SOL     OW22165   2.950   2.270   6.159
 7089SOL    HW122166   2.855   2.286   6.186
 7089SOL    HW222167   2.994   2.357   6.136
 7090SOL     OW22168   2.903   1.507   6.458
 7090SOL    HW122169   2.894   1.407   6.460
 7090SOL    HW222170   2.862   1.542   6.373
 7091SOL     OW22171   0.157   2.318   6.881
 7091SOL    HW122172   0.169   2.377   6.960
 7091SOL    HW222173   0.088   2.356   6.820
 7092SOL     OW22174   4.437   2.872   6.223
 7092SOL    HW122175   4.418   2.778   6.195
 7092SOL    HW222176   4.513   2.908   6.169
 7093SOL     OW22177   3.044   3.960   4.087
 7093SOL    HW122178   3.067   3.939   3.992
 7093SOL    HW222179   3.038   3.875   4.140
 7094SOL     OW22180   0.932   5.944   5.849
 7094SOL    HW122181   0.878   5.874   5.804
 7094SOL    HW222182   0.896   5.960   5.941
 7095SOL     OW22183   2.803   2.950   0.403
 7095SOL    HW122184   2.784   3.046   0.421
 7095SOL    HW222185   2.902   2.935   0.401
 7096SOL     OW22186   5.975   1.020   3.671
 7096SOL    HW122187   5.963   1.118   3.690
 7096SOL    HW222188   6.050   1.007   3.606
 7097SOL     OW22189   6.456   0.251   2.008
 7097SOL    HW122190   6.467   0.183   1.936
 7097SOL    HW222191   6.461   0.207   2.098
 7098SOL     OW22192   1.033   6.528   4.453
 7098SOL    HW122193   0.944   6.484   4.461
 7098SOL    HW222194   1.079   6.495   4.370
 7099SOL     OW22195   2.149   0.572   4.674
 7099SOL    HW122196   2.106   0.630   4.604
 7099SOL    HW222197   2.090   0.570   4.755
 7100SOL     OW22198   5.354   3.071   0.988
 7100SOL    HW122199   5.357   3.027   1.078
 7100SOL    HW222200   5.261   3.101   0.969
 7101SOL     OW22201   1.963   6.860   4.675
 7101SOL    HW122202   1.936   6.956   4.681
 7101SOL    HW222203   1.980   6.825   4.768
 7102SOL     OW22204   4.496   0.614   0.966
 7102SOL    HW122205   4.523   0.708   0.942
 7102SOL    HW222206   4.399   0.602   0.947
 7103SOL     OW22207   3.923   5.407   0.510
 7103SOL    HW122208   3.898   5.433   0.416
 7103SOL    HW222209   3.974   5.482   0.552
 7104SOL     OW22210   1.094   2.861   4.213
 7104SOL    HW122211   1.174   2.859   4.152
 7104SOL    HW222212   1.013   2.887   4.160
 7105SOL     OW22213   3.126   2.532   5.550
 7105SOL    HW122214   3.196   2.563   5.615
 7105SOL    HW222215   3.036   2.546   5.590
 7106SOL     OW22216   3.509   2.930   3.296
 7106SOL    HW122217   3.521   2.897   3.203
 7106SOL    HW222218   3.412   2.940   3.316
 7107SOL     OW22219   2.850   0.903   0.989
 7107SOL    HW122220   2.783   0.886   0.917
 7107SOL    HW222221   2.922   0.834   0.984
 7108SOL     OW22222   3.917   6.010   1.533
 7108SOL    HW122223   4.014   6.029   1.520
 7108SOL    HW222224   3.868   6.096   1.548
 7109SOL     OW22225   3.411   0.009   6.586
 7109SOL    HW122226   3.508   0.005   6.610
 7109SOL    HW222227   3.401   0.050   6.496
 7110SOL     OW22228   4.888   5.457   3.872
 7110SOL    HW122229   4.892   5.528   3.943
 7110SOL    HW222230   4.981   5.436   3.843
 7111SOL     OW22231   1.791   2.351   4.539
 7111SOL    HW122232   1.802   2.448   4.517
 7111SOL    HW222233   1.850   2.296   4.480
 7112SOL     OW22234   2.239   5.807   3.639
 7112SOL    HW122235   2.212   5.711   3.642
 7112SOL    HW222236   2.338   5.814   3.655
 7113SOL     OW22237   2.984   4.109   5.153
 7113SOL    HW122238   2.952   4.018   5.181
 7113SOL    HW222239   2.916   4.177   5.176
 7114SOL     OW22240   4.071   6.886   2.212
 7114SOL    HW122241   4.042   6.909   2.120
 7114SOL    HW222242   4.164   6.920   2.228
 7115SOL     OW22243   5.195   2.862   1.860
 7115SOL    HW122244   5.119   2.924   1.875
 7115SOL    HW222245   5.249   2.854   1.944
 7116SOL     OW22246   5.600   3.198   3.455
 7116SOL    HW122247   5.639   3.264   3.391
 7116SOL    HW222248   5.590   3.240   3.545
 7117SOL     OW22249   0.297   0.148   4.457
 7117SOL    HW122250   0.371   0.211   4.481
 7117SOL    HW222251   0.334   0.055   4.452
 7118SOL     OW22252   3.755   3.591   0.843
 7118SOL    HW122253   3.672   3.573   0.789
 7118SOL    HW222254   3.801   3.671   0.806
 7119SOL     OW22255   5.017   1.648   3.366
 7119SOL    HW122256   5.004   1.644   3.465
 7119SOL    HW222257   5.002   1.742   3.334
 7120SOL     OW22258   4.097   1.757   2.967
 7120SOL    HW122259   4.181   1.744   2.915
 7120SOL    HW222260   4.019   1.724   2.913
 7121SOL     OW22261   2.978   0.104   2.598
 7121SOL    HW122262   2.895   0.050   2.584
 7121SOL    HW222263   3.001   0.154   2.514
 7122SOL     OW22264   6.550   1.358   6.374
 7122SOL    HW122265   6.563   1.447   6.417
 7122SOL    HW222266   6.614   1.292   6.414
 7123SOL     OW22267   2.802   4.813   1.428
 7123SOL    HW122268   2.733   4.857   1.485
 7123SOL    HW222269   2.891   4.821   1.472
 7124SOL     OW22270   0.771   3.396   0.384
 7124SOL    HW122271   0.786   3.308   0.429
 7124SOL    HW222272   0.719   3.456   0.445
 7125SOL     OW22273   6.701   6.639   1.505
 7125SOL    HW122274   6.677   6.561   1.447
 7125SOL    HW222275   6.689   6.724   1.454
 7126SOL     OW22276   3.061   4.829   6.412
 7126SOL    HW122277   3.092   4.734   6.423
 7126SOL    HW222278   3.097   4.866   6.327
 7127SOL     OW22279   2.800   5.868   4.199
 7127SOL    HW122280   2.852   5.895   4.280
 7127SOL    HW222281   2.760   5.948   4.156
 7128SOL     OW22282   2.460   5.334   6.989
 7128SOL    HW122283   2.459   5.235   7.003
 7128SOL    HW222284   2.521   5.356   6.913
 7129SOL     OW22285   3.400   0.435   0.396
 7129SOL    HW122286   3.300   0.442   0.394
 7129SOL    HW222287   3.436   0.450   0.304
 7130SOL     OW22288   3.090   4.877   4.849
 7130SOL    HW122289   3.003   4.871   4.801
 7130SOL    HW222290   3.162   4.902   4.785
 7131SOL     OW22291   2.936   1.557   0.661
 7131SOL    HW122292   2.931   1.616   0.742
 7131SOL    HW222293   2.860   1.578   0.600
 7132SOL     OW22294   3.139   4.186   1.008
 7132SOL    HW122295   3.053   4.236   1.012
 7132SOL    HW222296   3.158   4.146   1.098
 7133SOL     OW22297   4.934   5.118   4.062
 7133SOL    HW122298   4.944   5.218   4.063
 7133SOL    HW222299   4.992   5.080   3.990
 7134SOL     OW22300   6.507   5.820   2.476
 7134SOL    HW122301   6.431   5.782   2.423
 7134SOL    HW222302   6.506   5.782   2.568
 7135SOL     OW22303   1.820   1.598   3.193
 7135SOL    HW122304   1.825   1.615   3.095
 7135SOL    HW222305   1.727   1.619   3.226
 7136SOL     OW22306   1.666   2.745   0.884
 7136SOL    HW122307   1.584   2.801   0.869
 7136SOL    HW222308   1.695   2.706   0.797
 7137SOL     OW22309   5.079   0.781   6.137
 7137SOL    HW122310   4.996   0.819   6.095
 7137SOL    HW222311   5.152   0.778   6.069
 7138SOL     OW22312   2.499   2.744   0.539
 7138SOL    HW122313   2.575   2.752   0.604
 7138SOL    HW222314   2.426   2.689   0.581
 7139SOL     OW22315   4.903   3.640   2.638
 7139SOL    HW122316   4.922   3.550   2.677
 7139SOL    HW222317   4.929   3.641   2.541
 7140SOL     OW22318   6.592   3.341   4.518
 7140SOL    HW122319   6.651   3.295   4.584
 7140SOL    HW222320   6.508   3.288   4.506
 7141SOL     OW22321   3.304   6.318   0.578
 7141SOL    HW122322   3.217   6.276   0.603
 7141SOL    HW222323   3.330   6.288   0.486
 7142SOL     OW22324   4.657   6.386   3.194
 7142SOL    HW122325   4.750   6.417   3.213
 7142SOL    HW222326   4.592   6.451   3.233
 7143SOL     OW22327   1.482   2.575   6.175
 7143SOL    HW122328   1.567   2.627   6.179
 7143SOL    HW222329   1.405   2.637   6.172
 7144SOL     OW22330   1.969   1.384   3.545
 7144SOL    HW122331   1.916   1.469   3.540
 7144SOL    HW222332   2.011   1.366   3.456
 7145SOL     OW22333   4.314   6.287   5.747
 7145SOL    HW122334   4.341   6.378   5.780
 7145SOL    HW222335   4.392   6.225   5.754
 7146SOL     OW22336   1.945   0.153   6.962
 7146SOL    HW122337   1.986   0.168   6.872
 7146SOL    HW222338   2.009   0.182   0.010
 7147SOL     OW22339   6.353   6.336   3.001
 7147SOL    HW122340   6.255   6.317   3.009
 7147SOL    HW222341   6.394   6.273   2.936
 7148SOL     OW22342   6.693   6.264   1.571
 7148SOL    HW122343   6.723   6.313   1.653
 7148SOL    HW222344   6.631   6.190   1.596
 7149SOL     OW22345   6.632   6.925   3.200
 7149SOL    HW122346   6.724   6.913   3.237
 7149SOL    HW222347   6.636   6.981   3.118
 7150SOL     OW22348   4.710   2.513   1.655
 7150SOL    HW122349   4.709   2.465   1.742
 7150SOL    HW222350   4.640   2.474   1.595
 7151SOL     OW22351   0.864   5.643   0.847
 7151SOL    HW122352   0.807   5.561   0.852
 7151SOL    HW222353   0.853   5.697   0.930
 7152SOL     OW22354   0.817   2.656   5.232
 7152SOL    HW122355   0.726   2.691   5.255
 7152SOL    HW222356   0.832   2.662   5.134
 7153SOL     OW22357   3.693   6.051   3.449
 7153SOL    HW122358   3.665   6.090   3.537
 7153SOL    HW222359   3.617   6.002   3.408
 7154SOL     OW22360   3.892   6.818   4.752
 7154SOL    HW122361   3.901   6.766   4.667
 7154SOL    HW222362   3.855   6.759   4.824
 7155SOL     OW22363   2.430   5.745   1.760
 7155SOL    HW122364   2.479   5.808   1.699
 7155SOL    HW222365   2.423   5.655   1.716
 7156SOL     OW22366   0.513   4.508   4.724
 7156SOL    HW122367   0.487   4.604   4.710
 7156SOL    HW222368   0.523   4.463   4.635
 7157SOL     OW22369   6.518   4.255   0.840
 7157SOL    HW122370   6.437   4.216   0.884
 7157SOL    HW222371   6.601   4.223   0.887
 7158SOL     OW22372   0.925   0.145   2.989
 7158SOL    HW122373   0.915   0.054   2.948
 7158SOL    HW222374   0.969   0.207   2.923
 7159SOL     OW22375   0.291   4.457   2.636
 7159SOL    HW122376   0.263   4.380   2.579
 7159SOL    HW222377   0.310   4.426   2.729
 7160SOL     OW22378   6.377   0.072   3.090
 7160SOL    HW122379   6.378   0.020   3.175
 7160SOL    HW222380   6.470   0.105   3.070
 7161SOL     OW22381   3.353   4.276   5.255
 7161SOL    HW122382   3.273   4.281   5.195
 7161SOL    HW222383   3.402   4.191   5.237
 7162SOL     OW22384   2.884   6.121   5.986
 7162SOL    HW122385   2.884   6.173   6.072
 7162SOL    HW222386   2.970   6.137   5.938
 7163SOL     OW22387   2.944   6.607   3.751
 7163SOL    HW122388   2.866   6.669   3.748
 7163SOL    HW222389   2.960   6.569   3.660
 7164SOL     OW22390   1.975   1.719   3.358
 7164SOL    HW122391   2.064   1.743   3.320
 7164SOL    HW222392   1.919   1.676   3.287
 7165SOL     OW22393   6.702   1.204   1.383
 7165SOL    HW122394   6.696   1.120   1.437
 7165SOL    HW222395   6.746   1.276   1.436
 7166SOL     OW22396   5.231   3.150   0.493
 7166SOL    HW122397   5.167   3.097   0.548
 7166SOL    HW222398   5.204   3.246   0.493
 7167SOL     OW22399   5.326   3.731   4.847
 7167SOL    HW122400   5.414   3.778   4.854
 7167SOL    HW222401   5.341   3.633   4.837
 7168SOL     OW22402   1.140   2.420   3.752
 7168SOL    HW122403   1.120   2.479   3.830
 7168SOL    HW222404   1.071   2.348   3.746
 7169SOL     OW22405   0.625   3.376   5.079
 7169SOL    HW122406   0.613   3.455   5.138
 7169SOL    HW222407   0.685   3.400   5.002
 7170SOL     OW22408   4.870   5.970   4.150
 7170SOL    HW122409   4.785   5.998   4.105
 7170SOL    HW222410   4.908   6.048   4.199
 7171SOL     OW22411   5.761   4.071   6.221
 7171SOL    HW122412   5.768   4.124   6.306
 7171SOL    HW222413   5.780   4.131   6.143
 7172SOL     OW22414   1.401   0.167   5.741
 7172SOL    HW122415   1.349   0.237   5.790
 7172SOL    HW222416   1.498   0.179   5.759
 7173SOL     OW22417   0.002   4.847   5.422
 7173SOL    HW122418   6.955   4.806   5.481
 7173SOL    HW222419   7.008   4.946   5.415
 7174SOL     OW22420   0.913   5.117   6.535
 7174SOL    HW122421   0.861   5.184   6.588
 7174SOL    HW222422   0.868   5.028   6.539
 7175SOL     OW22423   5.736   3.699   0.560
 7175SOL    HW122424   5.783   3.692   0.472
 7175SOL    HW222425   5.708   3.608   0.590
 7176SOL     OW22426   0.424   5.390   3.138
 7176SOL    HW122427   0.501   5.327   3.145
 7176SOL    HW222428   0.371   5.368   3.057
 7177SOL     OW22429   2.384   0.098   4.076
 7177SOL    HW122430   2.444   0.069   4.150
 7177SOL    HW222431   2.415   0.185   4.039
 7178SOL     OW22432   2.518   2.898   5.578
 7178SOL    HW122433   2.563   2.886   5.489
 7178SOL    HW222434   2.528   2.993   5.608
 7179SOL     OW22435   1.470   3.111   4.789
 7179SOL    HW122436   1.549   3.170   4.802
 7179SOL    HW222437   1.485   3.024   4.836
 7180SOL     OW22438   1.265   5.014   6.203
 7180SOL    HW122439   1.256   5.109   6.172
 7180SOL    HW222440   1.361   4.987   6.200
 7181SOL     OW22441   2.718   6.388   0.576
 7181SOL    HW122442   2.777   6.311   0.552
 7181SOL    HW222443   2.769   6.452   0.633
 7182SOL     OW22444   2.116   3.233   5.231
 7182SOL    HW122445   2.090   3.225   5.135
 7182SOL    HW222446   2.216   3.230   5.239
 7183SOL     OW22447   1.599   5.351   1.193
 7183SOL    HW122448   1.572   5.424   1.256
 7183SOL    HW222449   1.658   5.286   1.240
 7184SOL     OW22450   0.901   0.306   3.194
 7184SOL    HW122451   0.976   0.372   3.190
 7184SOL    HW222452   0.907   0.245   3.116
 7185SOL     OW22453   5.099   1.642   5.527
 7185SOL    HW122454   5.128   1.547   5.518
 7185SOL    HW222455   5.119   1.675   5.619
 7186SOL     OW22456   6.941   0.136   6.154
 7186SOL    HW122457   6.925   0.038   6.138
 7186SOL    HW222458   0.011   0.149   6.190
 7187SOL     OW22459   2.404   4.967   0.952
 7187SOL    HW122460   2.380   4.901   1.023
 7187SOL    HW222461   2.349   5.049   0.963
 7188SOL     OW22462   5.254   6.726   0.324
 7188SOL    HW122463   5.273   6.823   0.333
 7188SOL    HW222464   5.331   6.680   0.279
 7189SOL     OW22465   6.222   1.264   6.400
 7189SOL    HW122466   6.272   1.254   6.486
 7189SOL    HW222467   6.280   1.233   6.324
 7190SOL     OW22468   5.432   3.778   3.548
 7190SOL    HW122469   5.495   3.807   3.620
 7190SOL    HW222470   5.471   3.799   3.458
 7191SOL     OW22471   0.169   4.688   2.613
 7191SOL    HW122472   0.205   4.743   2.538
 7191SOL    HW222473   0.226   4.607   2.626
 7192SOL     OW22474   2.192   5.363   4.825
 7192SOL    HW122475   2.184   5.361   4.925
 7192SOL    HW222476   2.158   5.450   4.791
 7193SOL     OW22477   2.784   1.668   3.119
 7193SOL    HW122478   2.792   1.699   3.024
 7193SOL    HW222479   2.704   1.710   3.162
 7194SOL     OW22480   2.485   2.520   1.048
 7194SOL    HW122481   2.554   2.498   1.117
 7194SOL    HW222482   2.458   2.616   1.056
 7195SOL     OW22483   0.788   5.197   6.292
 7195SOL    HW122484   0.851   5.176   6.367
 7195SOL    HW222485   0.797   5.128   6.221
 7196SOL     OW22486   3.289   4.028   2.306
 7196SOL    HW122487   3.294   4.126   2.288
 7196SOL    HW222488   3.216   3.988   2.251
 7197SOL     OW22489   0.146   2.530   6.090
 7197SOL    HW122490   0.154   2.628   6.108
 7197SOL    HW222491   0.131   2.515   5.992
 7198SOL     OW22492   1.146   1.033   5.883
 7198SOL    HW122493   1.144   1.041   5.783
 7198SOL    HW222494   1.194   1.111   5.922
 7199SOL     OW22495   2.153   0.719   2.137
 7199SOL    HW122496   2.164   0.817   2.122
 7199SOL    HW222497   2.236   0.671   2.112
 7200SOL     OW22498   2.448   1.391   0.430
 7200SOL    HW122499   2.518   1.415   0.362
 7200SOL    HW222500   2.470   1.435   0.517
 7201SOL     OW22501   1.774   5.572   3.603
 7201SOL    HW122502   1.703   5.519   3.649
 7201SOL    HW222503   1.762   5.669   3.624
 7202SOL     OW22504   3.749   0.104   5.790
 7202SOL    HW122505   3.684   0.179   5.774
 7202SOL    HW222506   3.714   0.044   5.862
 7203SOL     OW22507   6.895   1.227   0.832
 7203SOL    HW122508   6.861   1.285   0.906
 7203SOL    HW222509   6.992   1.209   0.846
 7204SOL     OW22510   6.196   6.869   5.043
 7204SOL    HW122511   6.207   6.809   4.963
 7204SOL    HW222512   6.205   6.964   5.014
 7205SOL     OW22513   1.895   5.906   3.389
 7205SOL    HW122514   1.988   5.871   3.384
 7205SOL    HW222515   1.897   6.006   3.385
 7206SOL     OW22516   1.986   0.469   1.750
 7206SOL    HW122517   1.990   0.569   1.749
 7206SOL    HW222518   1.991   0.437   1.845
 7207SOL     OW22519   3.571   6.598   1.484
 7207SOL    HW122520   3.524   6.664   1.425
 7207SOL    HW222521   3.644   6.553   1.432
 7208SOL     OW22522   4.342   6.475   4.549
 7208SOL    HW122523   4.370   6.418   4.472
 7208SOL    HW222524   4.416   6.537   4.573
 7209SOL     OW22525   3.072   3.786   2.936
 7209SOL    HW122526   3.143   3.792   3.006
 7209SOL    HW222527   3.108   3.823   2.850
 7210SOL     OW22528   4.736   6.804   3.907
 7210SOL    HW122529   4.814   6.834   3.962
 7210SOL    HW222530   4.769   6.772   3.818
 7211SOL     OW22531   2.496   5.830   3.697
 7211SOL    HW122532   2.480   5.819   3.795
 7211SOL    HW222533   2.563   5.902   3.682
 7212SOL     OW22534   1.016   6.097   3.225
 7212SOL    HW122535   1.007   6.061   3.318
 7212SOL    HW222536   1.073   6.179   3.227
 7213SOL     OW22537   5.631   0.654   6.677
 7213SOL    HW122538   5.588   0.634   6.766
 7213SOL    HW222539   5.730   0.646   6.686
 7214SOL     OW22540   2.106   5.434   4.181
 7214SOL    HW122541   2.025   5.439   4.239
 7214SOL    HW222542   2.120   5.339   4.152
 7215SOL     OW22543   0.569   3.354   3.956
 7215SOL    HW122544   0.660   3.383   3.988
 7215SOL    HW222545   0.550   3.263   3.991
 7216SOL     OW22546   2.360   5.843   6.757
 7216SOL    HW122547   2.346   5.764   6.697
 7216SOL    HW222548   2.445   5.830   6.809
 7217SOL     OW22549   2.322   4.177   1.963
 7217SOL    HW122550   2.399   4.173   1.899
 7217SOL    HW222551   2.253   4.241   1.928
 7218SOL     OW22552   4.500   2.857   5.321
 7218SOL    HW122553   4.505   2.806   5.407
 7218SOL    HW222554   4.509   2.955   5.339
 7219SOL     OW22555   5.317   5.647   3.754
 7219SOL    HW122556   5.331   5.640   3.655
 7219SOL    HW222557   5.252   5.577   3.784
 7220SOL     OW22558   0.221   5.286   3.960
 7220SOL    HW122559   0.135   5.327   3.992
 7220SOL    HW222560   0.295   5.353   3.971
 7221SOL     OW22561   5.215   4.918   5.350
 7221SOL    HW122562   5.302   4.893   5.393
 7221SOL    HW222563   5.146   4.935   5.421
 7222SOL     OW22564   6.214   6.830   1.073
 7222SOL    HW122565   6.200   6.833   0.974
 7222SOL    HW222566   6.131   6.797   1.117
 7223SOL     OW22567   2.754   1.877   1.532
 7223SOL    HW122568   2.753   1.964   1.583
 7223SOL    HW222569   2.767   1.802   1.596
 7224SOL     OW22570   5.851   2.069   4.436
 7224SOL    HW122571   5.951   2.063   4.436
 7224SOL    HW222572   5.812   1.977   4.440
 7225SOL     OW22573   1.428   6.280   6.256
 7225SOL    HW122574   1.366   6.355   6.277
 7225SOL    HW222575   1.455   6.285   6.159
 7226SOL     OW22576   1.175   0.351   0.394
 7226SOL    HW122577   1.270   0.341   0.367
 7226SOL    HW222578   1.152   0.449   0.399
 7227SOL     OW22579   0.810   2.447   1.056
 7227SOL    HW122580   0.786   2.350   1.052
 7227SOL    HW222581   0.784   2.484   1.145
 7228SOL     OW22582   0.022   1.098   2.251
 7228SOL    HW122583   0.118   1.111   2.226
 7228SOL    HW222584   7.006   1.024   2.196
 7229SOL     OW22585   1.171   0.907   3.855
 7229SOL    HW122586   1.183   0.816   3.896
 7229SOL    HW222587   1.077   0.917   3.824
 7230SOL     OW22588   4.574   5.834   4.853
 7230SOL    HW122589   4.627   5.749   4.860
 7230SOL    HW222590   4.607   5.899   4.922
 7231SOL     OW22591   4.634   0.149   6.957
 7231SOL    HW122592   4.726   0.179   6.982
 7231SOL    HW222593   4.628   0.050   6.969
 7232SOL     OW22594   3.761   4.929   3.353
 7232SOL    HW122595   3.689   4.952   3.419
 7232SOL    HW222596   3.721   4.886   3.273
 7233SOL     OW22597   0.411   2.713   4.611
 7233SOL    HW122598   0.427   2.674   4.701
 7233SOL    HW222599   0.446   2.651   4.541
 7234SOL     OW22600   5.947   2.737   2.851
 7234SOL    HW122601   6.014   2.811   2.856
 7234SOL    HW222602   5.898   2.743   2.764
 7235SOL     OW22603   6.445   4.388   3.006
 7235SOL    HW122604   6.523   4.393   3.068
 7235SOL    HW222605   6.371   4.444   3.042
 7236SOL     OW22606   2.789   1.709   2.847
 7236SOL    HW122607   2.786   1.615   2.813
 7236SOL    HW222608   2.708   1.758   2.815
 7237SOL     OW22609   6.567   6.604   5.171
 7237SOL    HW122610   6.552   6.703   5.166
 7237SOL    HW222611   6.542   6.562   5.084
 7238SOL     OW22612   2.334   2.126   1.101
 7238SOL    HW122613   2.267   2.084   1.162
 7238SOL    HW222614   2.300   2.121   1.007
 7239SOL     OW22615   2.719   1.782   3.805
 7239SOL    HW122616   2.685   1.824   3.889
 7239SOL    HW222617   2.793   1.839   3.767
 7240SOL     OW22618   2.546   4.373   6.587
 7240SOL    HW122619   2.531   4.326   6.675
 7240SOL    HW222620   2.484   4.335   6.519
 7241SOL     OW22621   2.789   0.678   6.614
 7241SOL    HW122622   2.864   0.613   6.629
 7241SOL    HW222623   2.808   0.762   6.665
 7242SOL     OW22624   6.392   4.848   6.807
 7242SOL    HW122625   6.441   4.763   6.827
 7242SOL    HW222626   6.378   4.899   6.892
 7243SOL     OW22627   0.623   4.648   6.909
 7243SOL    HW122628   0.625   4.732   6.854
 7243SOL    HW222629   0.713   4.605   6.906
 7244SOL     OW22630   4.277   0.471   1.291
 7244SOL    HW122631   4.296   0.512   1.202
 7244SOL    HW222632   4.180   0.445   1.295
 7245SOL     OW22633   0.682   2.416   4.907
 7245SOL    HW122634   0.637   2.394   4.994
 7245SOL    HW222635   0.667   2.512   4.885
 7246SOL     OW22636   6.714   6.970   4.431
 7246SOL    HW122637   6.742   7.006   4.342
 7246SOL    HW222638   6.777   6.897   4.459
 7247SOL     OW22639   2.698   6.744   2.926
 7247SOL    HW122640   2.694   6.656   2.972
 7247SOL    HW222641   2.656   6.814   2.984
 7248SOL     OW22642   3.543   1.316   3.685
 7248SOL    HW122643   3.520   1.279   3.595
 7248SOL    HW222644   3.628   1.369   3.679
 7249SOL     OW22645   6.038   5.171   2.067
 7249SOL    HW122646   6.054   5.106   1.992
 7249SOL    HW222647   5.978   5.129   2.135
 7250SOL     OW22648   2.856   4.980   6.093
 7250SOL    HW122649   2.896   4.997   6.004
 7250SOL    HW222650   2.818   4.888   6.096
 7251SOL     OW22651   6.972   6.575   5.505
 7251SOL    HW122652   6.906   6.537   5.440
 7251SOL    HW222653   6.937   6.662   5.541
 7252SOL     OW22654   3.402   3.181   4.398
 7252SOL    HW122655   3.395   3.159   4.301
 7252SOL    HW222656   3.487   3.145   4.435
 7253SOL     OW22657   1.531   6.365   0.392
 7253SOL    HW122658   1.491   6.310   0.319
 7253SOL    HW222659   1.595   6.310   0.445
 7254SOL     OW22660   3.957   5.466   5.085
 7254SOL    HW122661   3.967   5.517   5.000
 7254SOL    HW222662   3.949   5.529   5.162
 7255SOL     OW22663   3.487   3.542   2.135
 7255SOL    HW122664   3.528   3.464   2.087
 7255SOL    HW222665   3.408   3.511   2.187
 7256SOL     OW22666   4.953   5.127   4.714
 7256SOL    HW122667   4.892   5.124   4.793
 7256SOL    HW222668   5.015   5.205   4.722
 7257SOL     OW22669   5.956   3.334   3.304
 7257SOL    HW122670   6.013   3.399   3.253
 7257SOL    HW222671   5.868   3.377   3.326
 7258SOL     OW22672   4.419   0.148   4.330
 7258SOL    HW122673   4.452   0.179   4.418
 7258SOL    HW222674   4.486   0.170   4.259
 7259SOL     OW22675   3.154   3.996   1.267
 7259SOL    HW122676   3.217   3.918   1.264
 7259SOL    HW222677   3.062   3.965   1.243
 7260SOL     OW22678   3.793   1.896   3.013
 7260SOL    HW122679   3.813   1.840   2.932
 7260SOL    HW222680   3.878   1.932   3.051
 7261SOL     OW22681   3.119   2.758   1.777
 7261SOL    HW122682   3.099   2.716   1.688
 7261SOL    HW222683   3.141   2.687   1.843
 7262SOL     OW22684   5.990   2.213   3.963
 7262SOL    HW122685   5.961   2.290   4.019
 7262SOL    HW222686   6.082   2.230   3.928
 7263SOL     OW22687   0.812   5.512   1.775
 7263SOL    HW122688   0.889   5.520   1.838
 7263SOL    HW222689   0.733   5.562   1.812
 7264SOL     OW22690   6.930   1.787   6.950
 7264SOL    HW122691   6.870   1.867   6.944
 7264SOL    HW222692   6.940   1.747   6.858
 7265SOL     OW22693   5.551   5.099   6.289
 7265SOL    HW122694   5.574   5.044   6.209
 7265SOL    HW222695   5.605   5.183   6.289
 7266SOL     OW22696   4.025   0.408   1.003
 7266SOL    HW122697   3.936   0.450   1.021
 7266SOL    HW222698   4.052   0.350   1.080
 7267SOL     OW22699   6.430   4.778   5.317
 7267SOL    HW122700   6.469   4.737   5.235
 7267SOL    HW222701   6.450   4.719   5.396
 7268SOL     OW22702   4.099   5.056   2.937
 7268SOL    HW122703   4.014   5.007   2.956
 7268SOL    HW222704   4.160   5.048   3.016
 7269SOL     OW22705   0.465   6.063   1.805
 7269SOL    HW122706   0.547   6.113   1.778
 7269SOL    HW222707   0.427   6.104   1.888
 7270SOL     OW22708   2.206   1.819   3.235
 7270SOL    HW122709   2.245   1.875   3.161
 7270SOL    HW222710   2.239   1.853   3.323
 7271SOL     OW22711   0.810   4.355   2.997
 7271SOL    HW122712   0.835   4.452   2.999
 7271SOL    HW222713   0.786   4.328   2.904
 7272SOL     OW22714   5.553   3.164   3.022
 7272SOL    HW122715   5.479   3.229   3.003
 7272SOL    HW222716   5.604   3.145   2.939
 7273SOL     OW22717   5.784   4.310   1.536
 7273SOL    HW122718   5.859   4.337   1.475
 7273SOL    HW222719   5.697   4.318   1.487
 7274SOL     OW22720   0.158   5.526   6.250
 7274SOL    HW122721   0.115   5.555   6.165
 7274SOL    HW222722   0.165   5.604   6.312
 7275SOL     OW22723   6.180   0.604   0.521
 7275SOL    HW122724   6.179   0.626   0.618
 7275SOL    HW222725   6.208   0.686   0.469
 7276SOL     OW22726   2.875   1.576   3.460
 7276SOL    HW122727   2.915   1.497   3.413
 7276SOL    HW222728   2.930   1.657   3.442
 7277SOL     OW22729   4.813   1.296   5.744
 7277SOL    HW122730   4.740   1.318   5.809
 7277SOL    HW222731   4.899   1.285   5.794
 7278SOL     OW22732   3.955   2.086   3.159
 7278SOL    HW122733   3.876   2.084   3.221
 7278SOL    HW222734   4.030   2.137   3.202
 7279SOL     OW22735   4.273   4.195   1.004
 7279SOL    HW122736   4.366   4.232   1.008
 7279SOL    HW222737   4.228   4.228   0.921
 7280SOL     OW22738   5.383   2.552   5.345
 7280SOL    HW122739   5.319   2.607   5.398
 7280SOL    HW222740   5.429   2.610   5.278
 7281SOL     OW22741   3.187   6.904   1.055
 7281SOL    HW122742   3.136   6.907   1.141
 7281SOL    HW222743   3.270   6.959   1.064
 7282SOL     OW22744   6.636   5.895   1.561
 7282SOL    HW122745   6.717   5.939   1.522
 7282SOL    HW222746   6.614   5.938   1.649
 7283SOL     OW22747   3.307   6.526   2.004
 7283SOL    HW122748   3.276   6.485   2.090
 7283SOL    HW222749   3.403   6.503   1.989
 7284SOL     OW22750   6.679   2.693   3.790
 7284SOL    HW122751   6.615   2.753   3.741
 7284SOL    HW222752   6.767   2.738   3.800
 7285SOL     OW22753   5.143   2.648   1.348
 7285SOL    HW122754   5.086   2.632   1.428
 7285SOL    HW222755   5.229   2.691   1.376
 7286SOL     OW22756   1.022   1.215   0.558
 7286SOL    HW122757   0.933   1.256   0.536
 7286SOL    HW222758   1.011   1.148   0.631
 7287SOL     OW22759   0.043   2.652   3.759
 7287SOL    HW122760   0.052   2.680   3.664
 7287SOL    HW222761   0.007   2.729   3.813
 7288SOL     OW22762   2.503   2.583   2.773
 7288SOL    HW122763   2.457   2.666   2.805
 7288SOL    HW222764   2.547   2.537   2.850
 7289SOL     OW22765   5.556   2.781   1.870
 7289SOL    HW122766   5.487   2.710   1.887
 7289SOL    HW222767   5.616   2.752   1.796
 7290SOL     OW22768   3.934   0.709   5.747
 7290SOL    HW122769   3.889   0.760   5.674
 7290SOL    HW222770   3.970   0.773   5.815
 7291SOL     OW22771   3.287   0.129   6.885
 7291SOL    HW122772   3.359   0.190   6.918
 7291SOL    HW222773   3.201   0.152   6.930
 7292SOL     OW22774   1.778   6.929   3.698
 7292SOL    HW122775   1.832   6.935   3.615
 7292SOL    HW222776   1.832   6.889   3.771
 7293SOL     OW22777   1.039   1.341   5.662
 7293SOL    HW122778   1.097   1.391   5.727
 7293SOL    HW222779   1.076   1.250   5.646
 7294SOL     OW22780   3.063   4.593   1.671
 7294SOL    HW122781   3.004   4.548   1.738
 7294SOL    HW222782   3.078   4.531   1.594
 7295SOL     OW22783   6.151   4.910   1.453
 7295SOL    HW122784   6.055   4.912   1.427
 7295SOL    HW222785   6.204   4.966   1.390
 7296SOL     OW22786   3.452   4.926   2.701
 7296SOL    HW122787   3.484   4.920   2.606
 7296SOL    HW222788   3.519   4.883   2.761
 7297SOL     OW22789   3.422   6.260   1.907
 7297SOL    HW122790   3.454   6.325   1.838
 7297SOL    HW222791   3.446   6.167   1.878
 7298SOL     OW22792   4.534   6.207   6.849
 7298SOL    HW122793   4.461   6.157   6.804
 7298SOL    HW222794   4.623   6.171   6.821
 7299SOL     OW22795   1.172   2.692   0.183
 7299SOL    HW122796   1.142   2.745   0.104
 7299SOL    HW222797   1.131   2.601   0.180
 7300SOL     OW22798   0.813   5.067   1.965
 7300SOL    HW122799   0.815   5.105   2.057
 7300SOL    HW222800   0.886   5.000   1.955
 7301SOL     OW22801   6.951   0.727   5.966
 7301SOL    HW122802   6.936   0.666   6.045
 7301SOL    HW222803   6.917   0.683   5.883
 7302SOL     OW22804   5.875   2.801   6.092
 7302SOL    HW122805   5.805   2.850   6.145
 7302SOL    HW222806   5.851   2.704   6.087
 7303SOL     OW22807   3.172   1.739   0.539
 7303SOL    HW122808   3.253   1.698   0.496
 7303SOL    HW222809   3.146   1.684   0.618
 7304SOL     OW22810   2.501   5.338   2.044
 7304SOL    HW122811   2.546   5.268   2.100
 7304SOL    HW222812   2.451   5.401   2.104
 7305SOL     OW22813   5.516   2.581   0.330
 7305SOL    HW122814   5.491   2.662   0.277
 7305SOL    HW222815   5.434   2.533   0.360
 7306SOL     OW22816   3.476   1.937   1.055
 7306SOL    HW122817   3.550   1.995   1.088
 7306SOL    HW222818   3.431   1.894   1.133
 7307SOL     OW22819   4.013   6.310   1.716
 7307SOL    HW122820   3.945   6.325   1.645
 7307SOL    HW222821   3.969   6.277   1.800
 7308SOL     OW22822   6.212   0.919   2.204
 7308SOL    HW122823   6.237   0.901   2.300
 7308SOL    HW222824   6.280   0.980   2.163
 7309SOL     OW22825   2.576   5.964   3.047
 7309SOL    HW122826   2.537   6.007   3.128
 7309SOL    HW222827   2.519   5.983   2.967
 7310SOL     OW22828   1.520   3.226   0.338
 7310SOL    HW122829   1.464   3.199   0.260
 7310SOL    HW222830   1.470   3.293   0.393
 7311SOL     OW22831   1.116   0.624   0.356
 7311SOL    HW122832   1.068   0.663   0.277
 7311SOL    HW222833   1.072   0.656   0.440
 7312SOL     OW22834   0.333   1.951   5.251
 7312SOL    HW122835   0.272   1.932   5.328
 7312SOL    HW222836   0.358   2.048   5.251
 7313SOL     OW22837   2.689   0.895   1.317
 7313SOL    HW122838   2.694   0.798   1.342
 7313SOL    HW222839   2.764   0.918   1.255
 7314SOL     OW22840   0.126   3.983   6.957
 7314SOL    HW122841   0.047   3.929   6.986
 7314SOL    HW222842   0.210   3.933   6.976
 7315SOL     OW22843   6.474   5.415   2.357
 7315SOL    HW122844   6.407   5.412   2.432
 7315SOL    HW222845   6.446   5.483   2.289
 7316SOL     OW22846   3.156   2.263   6.348
 7316SOL    HW122847   3.070   2.260   6.297
 7316SOL    HW222848   3.141   2.225   6.440
 7317SOL     OW22849   3.393   1.883   1.959
 7317SOL    HW122850   3.441   1.795   1.956
 7317SOL    HW222851   3.402   1.923   2.050
 7318SOL     OW22852   4.012   6.652   2.315
 7318SOL    HW122853   4.023   6.746   2.281
 7318SOL    HW222854   4.000   6.654   2.414
 7319SOL     OW22855   6.906   3.510   6.647
 7319SOL    HW122856   6.926   3.422   6.604
 7319SOL    HW222857   6.984   3.572   6.634
 7320SOL     OW22858   6.890   3.860   1.161
 7320SOL    HW122859   6.909   3.765   1.137
 7320SOL    HW222860   6.808   3.892   1.112
 7321SOL     OW22861   1.857   6.159   6.269
 7321SOL    HW122862   1.880   6.171   6.173
 7321SOL    HW222863   1.941   6.159   6.324
 7322SOL     OW22864   1.017   1.620   3.256
 7322SOL    HW122865   0.995   1.593   3.350
 7322SOL    HW222866   1.107   1.664   3.255
 7323SOL     OW22867   2.447   1.354   1.945
 7323SOL    HW122868   2.485   1.414   2.015
 7323SOL    HW222869   2.372   1.401   1.898
 7324SOL     OW22870   5.865   4.550   2.018
 7324SOL    HW122871   5.848   4.486   1.944
 7324SOL    HW222872   5.928   4.508   2.084
 7325SOL     OW22873   3.513   0.619   5.874
 7325SOL    HW122874   3.582   0.560   5.832
 7325SOL    HW222875   3.422   0.587   5.849
 7326SOL     OW22876   3.267   1.000   6.348
 7326SOL    HW122877   3.227   1.020   6.259
 7326SOL    HW222878   3.365   1.018   6.345
 7327SOL     OW22879   5.710   3.736   2.929
 7327SOL    HW122880   5.647   3.783   2.991
 7327SOL    HW222881   5.703   3.638   2.941
 7328SOL     OW22882   3.927   5.176   5.738
 7328SOL    HW122883   3.928   5.076   5.729
 7328SOL    HW222884   4.021   5.209   5.743
 7329SOL     OW22885   1.455   2.838   6.934
 7329SOL    HW122886   1.490   2.765   6.877
 7329SOL    HW222887   1.453   2.808   0.007
 7330SOL     OW22888   2.807   3.010   1.191
 7330SOL    HW122889   2.835   3.095   1.236
 7330SOL    HW222890   2.828   3.016   1.093
 7331SOL     OW22891   4.840   0.264   1.721
 7331SOL    HW122892   4.754   0.308   1.747
 7331SOL    HW222893   4.843   0.172   1.761
 7332SOL     OW22894   4.078   4.155   0.235
 7332SOL    HW122895   4.135   4.106   0.170
 7332SOL    HW222896   4.067   4.250   0.205
 7333SOL     OW22897   6.188   3.510   3.132
 7333SOL    HW122898   6.225   3.603   3.134
 7333SOL    HW222899   6.117   3.504   3.062
 7334SOL     OW22900   2.886   6.418   6.282
 7334SOL    HW122901   2.943   6.476   6.224
 7334SOL    HW222902   2.830   6.476   6.342
 7335SOL     OW22903   6.714   3.743   2.736
 7335SOL    HW122904   6.661   3.687   2.672
 7335SOL    HW222905   6.771   3.807   2.685
 7336SOL     OW22906   1.501   6.061   0.975
 7336SOL    HW122907   1.569   6.026   0.911
 7336SOL    HW222908   1.546   6.118   1.044
 7337SOL     OW22909   3.533   2.527   1.731
 7337SOL    HW122910   3.558   2.585   1.809
 7337SOL    HW222911   3.589   2.445   1.732
 7338SOL     OW22912   5.755   2.565   1.353
 7338SOL    HW122913   5.830   2.544   1.416
 7338SOL    HW222914   5.669   2.535   1.393
 7339SOL     OW22915   0.008   6.113   4.990
 7339SOL    HW122916   0.038   6.143   4.900
 7339SOL    HW222917   0.007   6.013   4.994
 7340SOL     OW22918   3.578   1.159   0.238
 7340SOL    HW122919   3.579   1.060   0.255
 7340SOL    HW222920   3.494   1.198   0.275
 7341SOL     OW22921   0.660   5.071   3.918
 7341SOL    HW122922   0.639   4.998   3.852
 7341SOL    HW222923   0.758   5.070   3.938
 7342SOL     OW22924   6.578   0.648   0.656
 7342SOL    HW122925   6.543   0.632   0.748
 7342SOL    HW222926   6.535   0.729   0.616
 7343SOL     OW22927   5.790   3.493   1.793
 7343SOL    HW122928   5.859   3.552   1.753
 7343SOL    HW222929   5.811   3.398   1.773
 7344SOL     OW22930   1.464   6.691   6.677
 7344SOL    HW122931   1.551   6.683   6.725
 7344SOL    HW222932   1.460   6.624   6.603
 7345SOL     OW22933   4.467   4.664   5.610
 7345SOL    HW122934   4.501   4.606   5.684
 7345SOL    HW222935   4.376   4.634   5.584
 7346SOL     OW22936   3.517   4.099   1.214
 7346SOL    HW122937   3.491   4.177   1.157
 7346SOL    HW222938   3.541   4.131   1.305
 7347SOL     OW22939   6.134   2.469   2.284
 7347SOL    HW122940   6.140   2.550   2.226
 7347SOL    HW222941   6.129   2.496   2.380
 7348SOL     OW22942   1.369   3.282   3.909
 7348SOL    HW122943   1.425   3.209   3.947
 7348SOL    HW222944   1.275   3.273   3.941
 7349SOL     OW22945   3.507   2.027   1.371
 7349SOL    HW122946   3.595   2.009   1.415
 7349SOL    HW222947   3.516   2.106   1.311
 7350SOL     OW22948   0.372   2.781   3.537
 7350SOL    HW122949   0.407   2.864   3.494
 7350SOL    HW222950   0.273   2.787   3.545
 7351SOL     OW22951   4.255   4.558   6.910
 7351SOL    HW122952   4.326   4.611   6.863
 7351SOL    HW222953   4.293   4.470   6.939
 7352SOL     OW22954   1.518   1.499   3.064
 7352SOL    HW122955   1.564   1.546   3.139
 7352SOL    HW222956   1.450   1.436   3.101
 7353SOL     OW22957   6.948   2.077   5.340
 7353SOL    HW122958   7.003   2.090   5.258
 7353SOL    HW222959   6.998   2.021   5.406
 7354SOL     OW22960   6.325   1.225   5.786
 7354SOL    HW122961   6.414   1.246   5.746
 7354SOL    HW222962   6.301   1.295   5.854
 7355SOL     OW22963   1.695   5.633   1.601
 7355SOL    HW122964   1.791   5.623   1.576
 7355SOL    HW222965   1.687   5.697   1.678
 7356SOL     OW22966   5.359   2.497   6.464
 7356SOL    HW122967   5.327   2.539   6.549
 7356SOL    HW222968   5.438   2.548   6.430
 7357SOL     OW22969   4.926   1.006   1.296
 7357SOL    HW122970   4.829   0.994   1.318
 7357SOL    HW222971   4.946   0.968   1.206
 7358SOL     OW22972   3.130   1.793   2.958
 7358SOL    HW122973   3.229   1.805   2.957
 7358SOL    HW222974   3.089   1.860   3.020
 7359SOL     OW22975   3.399   2.627   1.504
 7359SOL    HW122976   3.430   2.560   1.436
 7359SOL    HW222977   3.427   2.597   1.595
 7360SOL     OW22978   1.287   2.383   4.954
 7360SOL    HW122979   1.258   2.477   4.974
 7360SOL    HW222980   1.356   2.384   4.882
 7361SOL     OW22981   5.045   0.156   0.788
 7361SOL    HW122982   5.082   0.249   0.791
 7361SOL    HW222983   4.953   0.158   0.748
 7362SOL     OW22984   0.837   0.152   5.282
 7362SOL    HW122985   0.892   0.235   5.274
 7362SOL    HW222986   0.740   0.176   5.289
 7363SOL     OW22987   5.418   2.295   0.499
 7363SOL    HW122988   5.507   2.254   0.523
 7363SOL    HW222989   5.354   2.281   0.575
 7364SOL     OW22990   4.241   6.392   1.304
 7364SOL    HW122991   4.148   6.368   1.332
 7364SOL    HW222992   4.303   6.380   1.382
 7365SOL     OW22993   3.420   6.509   2.593
 7365SOL    HW122994   3.410   6.441   2.666
 7365SOL    HW222995   3.418   6.601   2.632
 7366SOL     OW22996   0.877   5.383   6.992
 7366SOL    HW122997   0.812   5.360   0.041
 7366SOL    HW222998   0.925   5.467   7.016
 7367SOL     OW22999   4.388   4.101   1.424
 7367SOL    HW123000   4.351   4.085   1.516
 7367SOL    HW223001   4.332   4.052   1.357
 7368SOL     OW23002   3.131   3.043   4.458
 7368SOL    HW123003   3.107   3.081   4.548
 7368SOL    HW223004   3.228   3.063   4.439
 7369SOL     OW23005   4.804   3.268   0.963
 7369SOL    HW123006   4.752   3.306   0.887
 7369SOL    HW223007   4.779   3.318   1.047
 7370SOL     OW23008   1.600   0.480   6.715
 7370SOL    HW123009   1.617   0.579   6.722
 7370SOL    HW223010   1.621   0.437   6.802
 7371SOL     OW23011   2.695   5.321   3.967
 7371SOL    HW123012   2.724   5.359   3.879
 7371SOL    HW223013   2.742   5.368   4.041
 7372SOL     OW23014   3.399   7.004   5.421
 7372SOL    HW123015   3.307   0.003   5.388
 7372SOL    HW223016   3.402   6.908   5.450
 7373SOL     OW23017   4.909   1.115   3.420
 7373SOL    HW123018   4.949   1.054   3.489
 7373SOL    HW223019   4.974   1.128   3.346
 7374SOL     OW23020   1.939   2.547   5.342
 7374SOL    HW123021   1.862   2.523   5.402
 7374SOL    HW223022   1.973   2.638   5.367
 7375SOL     OW23023   1.592   1.828   3.878
 7375SOL    HW123024   1.623   1.855   3.969
 7375SOL    HW223025   1.644   1.748   3.847
 7376SOL     OW23026   3.007   2.739   6.698
 7376SOL    HW123027   3.083   2.674   6.687
 7376SOL    HW223028   2.967   2.727   6.789
 7377SOL     OW23029   4.646   5.500   1.969
 7377SOL    HW123030   4.734   5.547   1.969
 7377SOL    HW223031   4.661   5.401   1.971
 7378SOL     OW23032   6.366   1.813   4.473
 7378SOL    HW123033   6.320   1.779   4.556
 7378SOL    HW223034   6.300   1.821   4.399
 7379SOL     OW23035   4.458   1.150   2.552
 7379SOL    HW123036   4.463   1.249   2.561
 7379SOL    HW223037   4.407   1.111   2.629
 7380SOL     OW23038   6.783   3.281   6.153
 7380SOL    HW123039   6.780   3.188   6.118
 7380SOL    HW223040   6.721   3.339   6.100
 7381SOL     OW23041   4.826   2.717   2.867
 7381SOL    HW123042   4.851   2.633   2.915
 7381SOL    HW223043   4.749   2.699   2.806
 7382SOL     OW23044   0.375   4.775   4.797
 7382SOL    HW123045   0.361   4.865   4.837
 7382SOL    HW223046   0.297   4.716   4.819
 7383SOL     OW23047   6.585   6.790   2.535
 7383SOL    HW123048   6.681   6.791   2.562
 7383SOL    HW223049   6.533   6.851   2.596
 7384SOL     OW23050   5.419   1.117   1.814
 7384SOL    HW123051   5.445   1.038   1.758
 7384SOL    HW223052   5.452   1.200   1.771
 7385SOL     OW23053   4.161   5.393   2.252
 7385SOL    HW123054   4.170   5.359   2.346
 7385SOL    HW223055   4.069   5.431   2.239
 7386SOL     OW23056   0.749   2.930   5.367
 7386SOL    HW123057   0.800   2.949   5.283
 7386SOL    HW223058   0.813   2.922   5.444
 7387SOL     OW23059   4.167   6.242   4.480
 7387SOL    HW123060   4.213   6.305   4.543
 7387SOL    HW223061   4.206   6.150   4.491
 7388SOL     OW23062   6.691   5.970   4.172
 7388SOL    HW123063   6.708   5.956   4.074
 7388SOL    HW223064   6.613   6.031   4.185
 7389SOL     OW23065   1.344   4.483   6.761
 7389SOL    HW123066   1.250   4.487   6.729
 7389SOL    HW223067   1.365   4.564   6.815
 7390SOL     OW23068   1.376   1.845   6.425
 7390SOL    HW123069   1.466   1.882   6.404
 7390SOL    HW223070   1.341   1.795   6.345
 7391SOL     OW23071   4.612   4.165   5.289
 7391SOL    HW123072   4.587   4.069   5.293
 7391SOL    HW223073   4.711   4.175   5.294
 7392SOL     OW23074   2.064   5.637   5.960
 7392SOL    HW123075   2.053   5.720   5.905
 7392SOL    HW223076   2.061   5.557   5.901
 7393SOL     OW23077   5.617   5.469   1.428
 7393SOL    HW123078   5.616   5.566   1.453
 7393SOL    HW223079   5.670   5.456   1.344
 7394SOL     OW23080   3.573   2.963   5.970
 7394SOL    HW123081   3.556   2.906   5.890
 7394SOL    HW223082   3.591   3.057   5.942
 7395SOL     OW23083   0.756   0.719   6.992
 7395SOL    HW123084   0.661   0.749   6.982
 7395SOL    HW223085   0.784   0.670   6.909
 7396SOL     OW23086   1.660   1.090   6.386
 7396SOL    HW123087   1.686   1.152   6.312
 7396SOL    HW223088   1.637   1.143   6.468
 7397SOL     OW23089   6.504   5.111   4.148
 7397SOL    HW123090   6.522   5.094   4.245
 7397SOL    HW223091   6.451   5.036   4.110
 7398SOL     OW23092   3.761   5.196   4.321
 7398SOL    HW123093   3.699   5.219   4.396
 7398SOL    HW223094   3.854   5.218   4.347
 7399SOL     OW23095   0.287   4.209   5.452
 7399SOL    HW123096   0.232   4.140   5.406
 7399SOL    HW223097   0.261   4.300   5.420
 7400SOL     OW23098   3.337   4.290   0.056
 7400SOL    HW123099   3.301   4.242   0.136
 7400SOL    HW223100   3.429   4.254   0.035
 7401SOL     OW23101   0.609   1.150   3.673
 7401SOL    HW123102   0.591   1.136   3.770
 7401SOL    HW223103   0.620   1.247   3.653
 7402SOL     OW23104   1.842   0.027   4.028
 7402SOL    HW123105   1.931   7.007   4.022
 7402SOL    HW223106   1.853   0.122   4.059
 7403SOL     OW23107   2.328   2.779   3.112
 7403SOL    HW123108   2.327   2.877   3.128
 7403SOL    HW223109   2.235   2.743   3.114
 7404SOL     OW23110   2.159   0.414   1.146
 7404SOL    HW123111   2.189   0.502   1.107
 7404SOL    HW223112   2.141   0.349   1.072
 7405SOL     OW23113   1.183   4.518   4.231
 7405SOL    HW123114   1.282   4.533   4.230
 7405SOL    HW223115   1.139   4.592   4.281
 7406SOL     OW23116   1.547   3.816   2.772
 7406SOL    HW123117   1.600   3.744   2.727
 7406SOL    HW223118   1.530   3.791   2.867
 7407SOL     OW23119   0.199   6.438   4.608
 7407SOL    HW123120   0.100   6.435   4.600
 7407SOL    HW223121   0.227   6.407   4.699
 7408SOL     OW23122   1.529   4.283   5.258
 7408SOL    HW123123   1.584   4.268   5.175
 7408SOL    HW223124   1.507   4.380   5.266
 7409SOL     OW23125   0.806   1.010   4.652
 7409SOL    HW123126   0.752   1.082   4.608
 7409SOL    HW223127   0.857   1.048   4.729
 7410SOL     OW23128   6.766   4.852   1.136
 7410SOL    HW123129   6.704   4.854   1.214
 7410SOL    HW223130   6.713   4.847   1.051
 7411SOL     OW23131   2.604   0.195   4.553
 7411SOL    HW123132   2.580   0.259   4.480
 7411SOL    HW223133   2.689   0.225   4.597
 7412SOL     OW23134   3.295   1.195   1.277
 7412SOL    HW123135   3.265   1.139   1.199
 7412SOL    HW223136   3.390   1.221   1.264
 7413SOL     OW23137   0.426   4.483   3.554
 7413SOL    HW123138   0.364   4.530   3.617
 7413SOL    HW223139   0.482   4.551   3.507
 7414SOL     OW23140   0.007   0.477   2.607
 7414SOL    HW123141   0.023   0.393   2.658
 7414SOL    HW223142   0.060   0.551   2.649
 7415SOL     OW23143   0.593   3.666   3.352
 7415SOL    HW123144   0.626   3.741   3.409
 7415SOL    HW223145   0.510   3.694   3.304
 7416SOL     OW23146   3.575   1.075   4.043
 7416SOL    HW123147   3.519   1.028   3.975
 7416SOL    HW223148   3.590   1.170   4.015
 7417SOL     OW23149   1.296   6.966   5.828
 7417SOL    HW123150   1.351   0.016   5.788
 7417SOL    HW223151   1.349   6.881   5.829
 7418SOL     OW23152   3.505   4.513   0.809
 7418SOL    HW123153   3.433   4.485   0.872
 7418SOL    HW223154   3.505   4.613   0.800
 7419SOL     OW23155   6.003   2.096   5.160
 7419SOL    HW123156   5.923   2.058   5.113
 7419SOL    HW223157   6.021   2.188   5.127
 7420SOL     OW23158   6.162   6.481   2.430
 7420SOL    HW123159   6.241   6.497   2.489
 7420SOL    HW223160   6.081   6.467   2.488
 7421SOL     OW23161   2.628   2.818   1.237
 7421SOL    HW123162   2.686   2.899   1.236
 7421SOL    HW223163   2.658   2.756   1.310
 7422SOL     OW23164   6.866   3.244   2.256
 7422SOL    HW123165   6.844   3.147   2.263
 7422SOL    HW223166   6.888   3.281   2.346
 7423SOL     OW23167   0.426   4.436   6.262
 7423SOL    HW123168   0.437   4.346   6.304
 7423SOL    HW223169   0.516   4.481   6.257
 7424SOL     OW23170   5.908   1.395   4.082
 7424SOL    HW123171   5.907   1.457   4.004
 7424SOL    HW223172   5.998   1.397   4.125
 7425SOL     OW23173   3.969   4.874   6.774
 7425SOL    HW123174   4.019   4.813   6.835
 7425SOL    HW223175   3.897   4.921   6.826
 7426SOL     OW23176   0.600   2.009   6.644
 7426SOL    HW123177   0.652   2.013   6.559
 7426SOL    HW223178   0.662   2.016   6.722
 7427SOL     OW23179   3.040   5.748   4.661
 7427SOL    HW123180   2.978   5.686   4.614
 7427SOL    HW223181   3.052   5.718   4.756
 7428SOL     OW23182   3.751   1.705   5.643
 7428SOL    HW123183   3.748   1.780   5.577
 7428SOL    HW223184   3.780   1.740   5.732
 7429SOL     OW23185   6.243   0.247   2.868
 7429SOL    HW123186   6.214   0.169   2.923
 7429SOL    HW223187   6.323   0.290   2.910
 7430SOL     OW23188   0.179   4.471   5.538
 7430SOL    HW123189   0.268   4.513   5.557
 7430SOL    HW223190   0.106   4.531   5.570
 7431SOL     OW23191   0.845   3.900   2.157
 7431SOL    HW123192   0.865   3.992   2.124
 7431SOL    HW223193   0.921   3.839   2.135
 7432SOL     OW23194   0.220   6.509   3.824
 7432SOL    HW123195   0.239   6.520   3.922
 7432SOL    HW223196   0.298   6.466   3.779
 7433SOL     OW23197   6.640   5.292   0.878
 7433SOL    HW123198   6.609   5.200   0.901
 7433SOL    HW223199   6.568   5.341   0.830
 7434SOL     OW23200   3.420   0.949   6.909
 7434SOL    HW123201   3.409   0.866   6.963
 7434SOL    HW223202   3.493   0.935   6.842
 7435SOL     OW23203   3.397   6.408   6.668
 7435SOL    HW123204   3.436   6.317   6.655
 7435SOL    HW223205   3.326   6.424   6.600
 7436SOL     OW23206   6.534   2.760   6.416
 7436SOL    HW123207   6.578   2.671   6.400
 7436SOL    HW223208   6.551   2.820   6.339
 7437SOL     OW23209   6.886   5.427   6.967
 7437SOL    HW123210   6.902   5.378   6.881
 7437SOL    HW223211   6.788   5.442   6.978
 7438SOL     OW23212   1.401   3.773   1.367
 7438SOL    HW123213   1.404   3.711   1.288
 7438SOL    HW223214   1.404   3.868   1.336
 7439SOL     OW23215   2.713   6.804   4.153
 7439SOL    HW123216   2.667   6.814   4.241
 7439SOL    HW223217   2.809   6.829   4.161
 7440SOL     OW23218   0.878   3.209   4.626
 7440SOL    HW123219   0.944   3.141   4.658
 7440SOL    HW223220   0.920   3.300   4.629
 7441SOL     OW23221   5.707   6.346   4.376
 7441SOL    HW123222   5.763   6.426   4.401
 7441SOL    HW223223   5.764   6.264   4.379
 7442SOL     OW23224   1.281   0.571   6.466
 7442SOL    HW123225   1.330   0.658   6.473
 7442SOL    HW223226   1.234   0.567   6.378
 7443SOL     OW23227   0.193   1.451   0.773
 7443SOL    HW123228   0.247   1.377   0.734
 7443SOL    HW223229   0.231   1.479   0.861
 7444SOL     OW23230   0.407   3.289   6.059
 7444SOL    HW123231   0.479   3.275   5.992
 7444SOL    HW223232   0.404   3.212   6.122
 7445SOL     OW23233   4.117   1.435   1.478
 7445SOL    HW123234   4.181   1.419   1.553
 7445SOL    HW223235   4.080   1.348   1.446
 7446SOL     OW23236   5.821   4.732   0.285
 7446SOL    HW123237   5.741   4.687   0.325
 7446SOL    HW223238   5.887   4.754   0.357
 7447SOL     OW23239   2.787   4.009   6.192
 7447SOL    HW123240   2.737   4.059   6.262
 7447SOL    HW223241   2.734   3.930   6.163
 7448SOL     OW23242   5.482   6.689   5.920
 7448SOL    HW123243   5.532   6.725   5.842
 7448SOL    HW223244   5.417   6.757   5.953
 7449SOL     OW23245   4.822   2.498   2.558
 7449SOL    HW123246   4.920   2.519   2.552
 7449SOL    HW223247   4.785   2.488   2.466
 7450SOL     OW23248   5.049   2.905   4.707
 7450SOL    HW123249   5.102   2.990   4.706
 7450SOL    HW223250   5.061   2.860   4.795
 7451SOL     OW23251   1.433   0.793   3.636
 7451SOL    HW123252   1.464   0.698   3.626
 7451SOL    HW223253   1.472   0.848   3.563
 7452SOL     OW23254   1.456   0.261   4.734
 7452SOL    HW123255   1.538   0.304   4.773
 7452SOL    HW223256   1.374   0.299   4.777
 7453SOL     OW23257   5.218   5.803   5.349
 7453SOL    HW123258   5.315   5.782   5.356
 7453SOL    HW223259   5.202   5.859   5.268
 7454SOL     OW23260   1.044   3.084   2.003
 7454SOL    HW123261   0.981   3.009   1.984
 7454SOL    HW223262   1.129   3.046   2.041
 7455SOL     OW23263   0.066   1.251   1.498
 7455SOL    HW123264   0.096   1.178   1.437
 7455SOL    HW223265   0.002   1.214   1.566
 7456SOL     OW23266   1.473   1.954   4.503
 7456SOL    HW123267   1.374   1.943   4.510
 7456SOL    HW223268   1.518   1.879   4.553
 7457SOL     OW23269   4.452   0.507   6.263
 7457SOL    HW123270   4.417   0.499   6.356
 7457SOL    HW223271   4.410   0.436   6.206
 7458SOL     OW23272   1.830   6.944   6.773
 7458SOL    HW123273   1.792   7.017   6.830
 7458SOL    HW223274   1.923   6.924   6.803
 7459SOL     OW23275   4.476   0.035   0.176
 7459SOL    HW123276   4.403   0.090   0.134
 7459SOL    HW223277   4.471   6.965   0.140
 7460SOL     OW23278   1.800   4.976   0.002
 7460SOL    HW123279   1.831   4.953   0.095
 7460SOL    HW223280   1.877   5.017   6.974
 7461SOL     OW23281   5.202   1.410   5.516
 7461SOL    HW123282   5.176   1.314   5.530
 7461SOL    HW223283   5.301   1.420   5.531
 7462SOL     OW23284   1.606   2.604   2.280
 7462SOL    HW123285   1.671   2.542   2.324
 7462SOL    HW223286   1.580   2.677   2.343
 7463SOL     OW23287   3.684   3.540   1.107
 7463SOL    HW123288   3.742   3.600   1.162
 7463SOL    HW223289   3.718   3.539   1.013
 7464SOL     OW23290   4.101   6.169   6.710
 7464SOL    HW123291   4.022   6.227   6.729
 7464SOL    HW223292   4.070   6.077   6.688
 7465SOL     OW23293   1.828   6.843   0.980
 7465SOL    HW123294   1.750   6.862   1.039
 7465SOL    HW223295   1.840   6.744   0.970
 7466SOL     OW23296   0.576   0.610   6.669
 7466SOL    HW123297   0.544   0.529   6.620
 7466SOL    HW223298   0.498   0.665   6.696
 7467SOL     OW23299   6.033   2.210   1.008
 7467SOL    HW123300   5.980   2.291   1.033
 7467SOL    HW223301   6.104   2.194   1.077
 7468SOL     OW23302   4.870   2.329   2.172
 7468SOL    HW123303   4.809   2.402   2.205
 7468SOL    HW223304   4.916   2.287   2.250
 7469SOL     OW23305   1.387   6.981   0.097
 7469SOL    HW123306   1.402   6.942   0.006
 7469SOL    HW223307   1.473   7.017   0.133
 7470SOL     OW23308   0.183   2.969   3.466
 7470SOL    HW123309   0.102   3.006   3.510
 7470SOL    HW223310   0.221   3.037   3.403
 7471SOL     OW23311   6.110   6.917   4.404
 7471SOL    HW123312   6.088   6.923   4.307
 7471SOL    HW223313   6.153   7.002   4.435
 7472SOL     OW23314   5.310   6.581   4.258
 7472SOL    HW123315   5.351   6.543   4.174
 7472SOL    HW223316   5.380   6.631   4.309
 7473SOL     OW23317   0.097   4.514   2.936
 7473SOL    HW123318   0.058   4.579   3.001
 7473SOL    HW223319   0.197   4.522   2.937
 7474SOL     OW23320   2.751   0.739   4.905
 7474SOL    HW123321   2.787   0.656   4.949
 7474SOL    HW223322   2.827   0.791   4.865
 7475SOL     OW23323   4.556   1.636   2.804
 7475SOL    HW123324   4.597   1.713   2.755
 7475SOL    HW223325   4.602   1.624   2.891
 7476SOL     OW23326   3.946   6.599   4.271
 7476SOL    HW123327   3.933   6.599   4.172
 7476SOL    HW223328   3.967   6.506   4.302
 7477SOL     OW23329   4.853   0.885   4.005
 7477SOL    HW123330   4.923   0.942   4.046
 7477SOL    HW223331   4.840   0.911   3.909
 7478SOL     OW23332   3.716   3.895   6.298
 7478SOL    HW123333   3.651   3.871   6.370
 7478SOL    HW223334   3.723   3.820   6.232
 7479SOL     OW23335   3.548   1.748   0.861
 7479SOL    HW123336   3.526   1.815   0.933
 7479SOL    HW223337   3.647   1.745   0.847
 7480SOL     OW23338   6.217   5.410   1.297
 7480SOL    HW123339   6.233   5.495   1.347
 7480SOL    HW223340   6.241   5.424   1.201
 7481SOL     OW23341   5.521   5.742   1.485
 7481SOL    HW123342   5.438   5.688   1.499
 7481SOL    HW223343   5.520   5.822   1.545
 7482SOL     OW23344   4.596   1.556   2.264
 7482SOL    HW123345   4.608   1.543   2.166
 7482SOL    HW223346   4.508   1.518   2.293
 7483SOL     OW23347   3.958   2.118   4.732
 7483SOL    HW123348   3.884   2.162   4.681
 7483SOL    HW223349   3.936   2.021   4.744
 7484SOL     OW23350   6.740   0.075   1.940
 7484SOL    HW123351   6.738   7.006   1.978
 7484SOL    HW223352   6.746   0.142   2.015
 7485SOL     OW23353   2.638   6.170   5.044
 7485SOL    HW123354   2.591   6.125   4.968
 7485SOL    HW223355   2.572   6.225   5.095
 7486SOL     OW23356   1.901   6.483   5.683
 7486SOL    HW123357   1.850   6.485   5.597
 7486SOL    HW223358   1.850   6.532   5.753
 7487SOL     OW23359   2.497   6.659   2.741
 7487SOL    HW123360   2.583   6.678   2.790
 7487SOL    HW223361   2.438   6.739   2.746
 7488SOL     OW23362   1.900   6.518   5.198
 7488SOL    HW123363   1.902   6.607   5.244
 7488SOL    HW223364   1.863   6.529   5.106
 7489SOL     OW23365   4.885   2.697   4.976
 7489SOL    HW123366   4.893   2.694   4.877
 7489SOL    HW223367   4.865   2.790   5.005
 7490SOL     OW23368   0.991   1.442   1.116
 7490SOL    HW123369   1.013   1.392   1.200
 7490SOL    HW223370   0.893   1.463   1.115
 7491SOL     OW23371   0.543   5.118   6.757
 7491SOL    HW123372   0.503   5.179   6.825
 7491SOL    HW223373   0.539   5.162   6.667
 7492SOL     OW23374   2.538   1.499   5.004
 7492SOL    HW123375   2.576   1.520   5.094
 7492SOL    HW223376   2.612   1.492   4.937
 7493SOL     OW23377   6.044   4.462   6.441
 7493SOL    HW123378   6.008   4.484   6.531
 7493SOL    HW223379   6.059   4.547   6.389
 7494SOL     OW23380   5.999   1.197   2.625
 7494SOL    HW123381   5.940   1.210   2.706
 7494SOL    HW223382   5.972   1.114   2.577
 7495SOL     OW23383   2.434   1.213   1.583
 7495SOL    HW123384   2.398   1.290   1.530
 7495SOL    HW223385   2.522   1.185   1.546
 7496SOL     OW23386   0.692   3.827   6.189
 7496SOL    HW123387   0.734   3.912   6.157
 7496SOL    HW223388   0.762   3.757   6.198
 7497SOL     OW23389   2.867   4.889   1.104
 7497SOL    HW123390   2.866   4.989   1.109
 7497SOL    HW223391   2.812   4.852   1.179
 7498SOL     OW23392   2.551   1.164   4.039
 7498SOL    HW123393   2.650   1.154   4.022
 7498SOL    HW223394   2.537   1.219   4.121
 7499SOL     OW23395   6.255   0.845   3.075
 7499SOL    HW123396   6.295   0.877   3.161
 7499SOL    HW223397   6.166   0.804   3.093
 7500SOL     OW23398   4.141   6.048   2.895
 7500SOL    HW123399   4.127   5.987   2.816
 7500SOL    HW223400   4.238   6.072   2.901
 7501SOL     OW23401   6.149   4.533   4.381
 7501SOL    HW123402   6.184   4.556   4.472
 7501SOL    HW223403   6.158   4.612   4.321
 7502SOL     OW23404   1.242   1.502   5.078
 7502SOL    HW123405   1.288   1.524   4.992
 7502SOL    HW223406   1.212   1.587   5.122
 7503SOL     OW23407   2.539   1.168   7.019
 7503SOL    HW123408   2.613   1.170   0.063
 7503SOL    HW223409   2.503   1.075   7.012
 7504SOL     OW23410   3.417   6.968   3.528
 7504SOL    HW123411   3.378   6.989   3.438
 7504SOL    HW223412   3.352   6.996   3.599
 7505SOL     OW23413   2.541   0.799   5.322
 7505SOL    HW123414   2.585   0.712   5.343
 7505SOL    HW223415   2.474   0.820   5.394
 7506SOL     OW23416   4.099   0.335   2.846
 7506SOL    HW123417   4.058   0.406   2.789
 7506SOL    HW223418   4.165   0.283   2.791
 7507SOL     OW23419   0.113   6.831   0.584
 7507SOL    HW123420   0.110   6.906   0.518
 7507SOL    HW223421   0.035   6.839   0.646
 7508SOL     OW23422   5.366   6.769   2.565
 7508SOL    HW123423   5.366   6.670   2.577
 7508SOL    HW223424   5.272   6.804   2.569
 7509SOL     OW23425   5.122   4.577   0.543
 7509SOL    HW123426   5.057   4.507   0.574
 7509SOL    HW223427   5.148   4.558   0.449
 7510SOL     OW23428   2.881   3.867   5.232
 7510SOL    HW123429   2.837   3.779   5.218
 7510SOL    HW223430   2.812   3.938   5.244
 7511SOL     OW23431   1.899   0.664   2.866
 7511SOL    HW123432   1.993   0.690   2.890
 7511SOL    HW223433   1.886   0.672   2.768
 7512SOL     OW23434   3.124   4.174   1.461
 7512SOL    HW123435   3.033   4.131   1.467
 7512SOL    HW223436   3.183   4.117   1.404
 7513SOL     OW23437   1.795   2.162   0.572
 7513SOL    HW123438   1.854   2.100   0.624
 7513SOL    HW223439   1.850   2.237   0.535
 7514SOL     OW23440   3.020   6.204   2.422
 7514SOL    HW123441   3.076   6.132   2.463
 7514SOL    HW223442   2.933   6.165   2.390
 7515SOL     OW23443   1.286   6.696   2.445
 7515SOL    HW123444   1.195   6.697   2.405
 7515SOL    HW223445   1.349   6.746   2.386
 7516SOL     OW23446   6.890   5.754   4.516
 7516SOL    HW123447   6.962   5.701   4.471
 7516SOL    HW223448   6.882   5.725   4.611
 7517SOL     OW23449   6.670   3.290   1.877
 7517SOL    HW123450   6.612   3.307   1.797
 7517SOL    HW223451   6.734   3.216   1.856
 7518SOL     OW23452   3.956   5.524   3.776
 7518SOL    HW123453   4.043   5.568   3.798
 7518SOL    HW223454   3.966   5.425   3.789
 7519SOL     OW23455   0.068   6.905   3.624
 7519SOL    HW123456   0.035   6.895   3.718
 7519SOL    HW223457   0.167   6.894   3.623
 7520SOL     OW23458   2.922   0.392   1.881
 7520SOL    HW123459   2.997   0.372   1.944
 7520SOL    HW223460   2.958   0.426   1.795
 7521SOL     OW23461   4.636   4.708   5.244
 7521SOL    HW123462   4.623   4.805   5.225
 7521SOL    HW223463   4.662   4.695   5.340
 7522SOL     OW23464   2.597   0.909   6.317
 7522SOL    HW123465   2.648   0.961   6.385
 7522SOL    HW223466   2.631   0.932   6.225
 7523SOL     OW23467   5.276   1.299   5.811
 7523SOL    HW123468   5.259   1.385   5.859
 7523SOL    HW223469   5.196   1.240   5.819
 7524SOL     OW23470   0.445   2.235   5.875
 7524SOL    HW123471   0.422   2.320   5.922
 7524SOL    HW223472   0.453   2.161   5.943
 7525SOL     OW23473   2.735   6.669   6.238
 7525SOL    HW123474   2.803   6.661   6.165
 7525SOL    HW223475   2.660   6.605   6.222
 7526SOL     OW23476   3.822   3.094   2.478
 7526SOL    HW123477   3.887   3.097   2.554
 7526SOL    HW223478   3.868   3.061   2.396
 7527SOL     OW23479   4.738   5.193   3.098
 7527SOL    HW123480   4.780   5.102   3.100
 7527SOL    HW223481   4.684   5.206   3.181
 7528SOL     OW23482   4.637   2.626   0.310
 7528SOL    HW123483   4.686   2.575   0.239
 7528SOL    HW223484   4.546   2.649   0.277
 7529SOL     OW23485   5.224   1.395   4.508
 7529SOL    HW123486   5.217   1.452   4.426
 7529SOL    HW223487   5.317   1.358   4.514
 7530SOL     OW23488   6.227   3.252   2.534
 7530SOL    HW123489   6.219   3.191   2.455
 7530SOL    HW223490   6.289   3.327   2.513
 7531SOL     OW23491   4.237   2.302   3.961
 7531SOL    HW123492   4.252   2.220   4.017
 7531SOL    HW223493   4.324   2.332   3.922
 7532SOL     OW23494   5.399   5.645   1.828
 7532SOL    HW123495   5.336   5.666   1.902
 7532SOL    HW223496   5.347   5.622   1.745
 7533SOL     OW23497   2.439   0.965   3.276
 7533SOL    HW123498   2.387   1.042   3.312
 7533SOL    HW223499   2.521   0.998   3.231
 7534SOL     OW23500   3.547   6.716   4.666
 7534SOL    HW123501   3.452   6.724   4.697
 7534SOL    HW223502   3.566   6.787   4.597
 7535SOL     OW23503   3.071   0.932   5.550
 7535SOL    HW123504   3.143   0.898   5.488
 7535SOL    HW223505   2.990   0.955   5.497
 7536SOL     OW23506   5.440   5.047   4.645
 7536SOL    HW123507   5.386   5.023   4.726
 7536SOL    HW223508   5.467   4.963   4.597
 7537SOL     OW23509   1.857   4.442   5.018
 7537SOL    HW123510   1.942   4.427   4.966
 7537SOL    HW223511   1.876   4.499   5.097
 7538SOL     OW23512   3.093   3.675   2.309
 7538SOL    HW123513   3.041   3.643   2.230
 7538SOL    HW223514   3.147   3.754   2.284
 7539SOL     OW23515   2.571   2.325   4.725
 7539SOL    HW123516   2.611   2.358   4.811
 7539SOL    HW223517   2.629   2.253   4.686
 7540SOL     OW23518   3.417   1.033   5.742
 7540SOL    HW123519   3.342   1.016   5.807
 7540SOL    HW223520   3.386   1.095   5.670
 7541SOL     OW23521   6.650   3.575   4.823
 7541SOL    HW123522   6.708   3.657   4.825
 7541SOL    HW223523   6.577   3.586   4.756
 7542SOL     OW23524   0.207   6.581   6.661
 7542SOL    HW123525   0.253   6.656   6.613
 7542SOL    HW223526   0.184   6.508   6.595
 7543SOL     OW23527   4.293   2.091   0.884
 7543SOL    HW123528   4.322   2.080   0.790
 7543SOL    HW223529   4.219   2.158   0.888
 7544SOL     OW23530   0.551   2.231   3.561
 7544SOL    HW123531   0.624   2.260   3.500
 7544SOL    HW223532   0.465   2.224   3.509
 7545SOL     OW23533   5.063   6.732   2.829
 7545SOL    HW123534   5.097   6.654   2.881
 7545SOL    HW223535   5.096   6.726   2.734
 7546SOL     OW23536   4.225   0.594   0.975
 7546SOL    HW123537   4.162   0.670   0.957
 7546SOL    HW223538   4.175   0.508   0.972
 7547SOL     OW23539   3.842   6.122   0.381
 7547SOL    HW123540   3.809   6.192   0.444
 7547SOL    HW223541   3.817   6.147   0.287
 7548SOL     OW23542   2.563   2.088   0.575
 7548SOL    HW123543   2.597   1.995   0.586
 7548SOL    HW223544   2.634   2.152   0.605
 7549SOL     OW23545   5.828   1.965   1.595
 7549SOL    HW123546   5.836   2.052   1.644
 7549SOL    HW223547   5.851   1.979   1.499
 7550SOL     OW23548   2.817   5.035   1.982
 7550SOL    HW123549   2.797   4.963   2.048
 7550SOL    HW223550   2.803   5.125   2.024
 7551SOL     OW23551   4.623   4.071   0.112
 7551SOL    HW123552   4.648   3.986   0.158
 7551SOL    HW223553   4.562   4.050   0.036
 7552SOL     OW23554   1.733   5.698   4.023
 7552SOL    HW123555   1.814   5.733   4.070
 7552SOL    HW223556   1.759   5.666   3.931
 7553SOL     OW23557   3.738   4.694   5.760
 7553SOL    HW123558   3.639   4.688   5.778
 7553SOL    HW223559   3.788   4.676   5.845
 7554SOL     OW23560   5.225   0.989   0.731
 7554SOL    HW123561   5.324   0.989   0.747
 7554SOL    HW223562   5.183   1.060   0.787
 7555SOL     OW23563   1.289   5.238   4.738
 7555SOL    HW123564   1.341   5.322   4.725
 7555SOL    HW223565   1.299   5.206   4.832
 7556SOL     OW23566   0.404   2.018   6.042
 7556SOL    HW123567   0.393   1.927   6.001
 7556SOL    HW223568   0.372   2.015   6.137
 7557SOL     OW23569   5.595   3.232   6.186
 7557SOL    HW123570   5.622   3.278   6.271
 7557SOL    HW223571   5.495   3.232   6.179
 7558SOL     OW23572   2.405   2.683   3.669
 7558SOL    HW123573   2.457   2.681   3.755
 7558SOL    HW223574   2.350   2.767   3.666
 7559SOL     OW23575   6.542   5.620   1.217
 7559SOL    HW123576   6.527   5.523   1.202
 7559SOL    HW223577   6.608   5.654   1.149
 7560SOL     OW23578   5.376   6.479   6.973
 7560SOL    HW123579   5.429   6.550   7.018
 7560SOL    HW223580   5.279   6.503   6.976
 7561SOL     OW23581   0.835   3.229   0.138
 7561SOL    HW123582   0.800   3.281   0.215
 7561SOL    HW223583   0.775   3.151   0.120
 7562SOL     OW23584   4.429   6.409   4.865
 7562SOL    HW123585   4.499   6.426   4.935
 7562SOL    HW223586   4.368   6.488   4.861
 7563SOL     OW23587   2.715   0.249   0.322
 7563SOL    HW123588   2.720   0.282   0.228
 7563SOL    HW223589   2.762   0.160   0.328
 7564SOL     OW23590   4.660   0.905   2.827
 7564SOL    HW123591   4.566   0.939   2.832
 7564SOL    HW223592   4.719   0.976   2.789
 7565SOL     OW23593   4.787   4.072   6.505
 7565SOL    HW123594   4.835   4.014   6.439
 7565SOL    HW223595   4.705   4.025   6.538
 7566SOL     OW23596   0.749   5.024   3.612
 7566SOL    HW123597   0.807   5.101   3.638
 7566SOL    HW223598   0.798   4.938   3.630
 7567SOL     OW23599   1.591   2.488   5.321
 7567SOL    HW123600   1.610   2.576   5.277
 7567SOL    HW223601   1.545   2.504   5.409
 7568SOL     OW23602   5.715   5.943   4.142
 7568SOL    HW123603   5.683   6.009   4.073
 7568SOL    HW223604   5.811   5.961   4.163
 7569SOL     OW23605   4.176   4.668   6.289
 7569SOL    HW123606   4.194   4.637   6.195
 7569SOL    HW223607   4.105   4.611   6.330
 7570SOL     OW23608   5.392   4.829   5.534
 7570SOL    HW123609   5.381   4.804   5.630
 7570SOL    HW223610   5.469   4.779   5.495
 7571SOL     OW23611   5.302   4.820   2.079
 7571SOL    HW123612   5.244   4.791   2.155
 7571SOL    HW223613   5.275   4.772   1.996
 7572SOL     OW23614   5.016   0.761   3.769
 7572SOL    HW123615   5.022   0.860   3.759
 7572SOL    HW223616   5.076   0.731   3.843
 7573SOL     OW23617   5.654   5.747   4.595
 7573SOL    HW123618   5.611   5.768   4.507
 7573SOL    HW223619   5.740   5.699   4.579
 7574SOL     OW23620   6.357   1.090   4.778
 7574SOL    HW123621   6.363   1.095   4.678
 7574SOL    HW223622   6.375   1.180   4.817
 7575SOL     OW23623   4.382   0.591   5.769
 7575SOL    HW123624   4.342   0.632   5.851
 7575SOL    HW223625   4.481   0.598   5.772
 7576SOL     OW23626   6.391   5.657   0.243
 7576SOL    HW123627   6.487   5.629   0.245
 7576SOL    HW223628   6.335   5.587   0.287
 7577SOL     OW23629   6.858   6.897   5.385
 7577SOL    HW123630   6.881   6.948   5.302
 7577SOL    HW223631   6.790   6.948   5.438
 7578SOL     OW23632   1.887   6.400   3.900
 7578SOL    HW123633   1.848   6.406   3.808
 7578SOL    HW223634   1.985   6.382   3.893
 7579SOL     OW23635   4.357   1.395   2.312
 7579SOL    HW123636   4.378   1.307   2.269
 7579SOL    HW223637   4.277   1.385   2.371
 7580SOL     OW23638   1.567   3.856   4.195
 7580SOL    HW123639   1.512   3.938   4.213
 7580SOL    HW223640   1.572   3.840   4.097
 7581SOL     OW23641   4.665   0.944   1.154
 7581SOL    HW123642   4.702   1.019   1.100
 7581SOL    HW223643   4.567   0.938   1.140
 7582SOL     OW23644   3.619   0.838   0.275
 7582SOL    HW123645   3.537   0.858   0.327
 7582SOL    HW223646   3.627   0.739   0.262
 7583SOL     OW23647   5.973   3.642   1.691
 7583SOL    HW123648   6.034   3.675   1.763
 7583SOL    HW223649   5.972   3.708   1.616
 7584SOL     OW23650   3.591   6.561   1.118
 7584SOL    HW123651   3.605   6.466   1.146
 7584SOL    HW223652   3.556   6.563   1.024
 7585SOL     OW23653   1.564   2.810   5.748
 7585SOL    HW123654   1.521   2.833   5.660
 7585SOL    HW223655   1.660   2.785   5.733
 7586SOL     OW23656   3.716   0.590   3.254
 7586SOL    HW123657   3.740   0.550   3.342
 7586SOL    HW223658   3.799   0.606   3.200
 7587SOL     OW23659   3.220   1.834   6.474
 7587SOL    HW123660   3.155   1.842   6.550
 7587SOL    HW223661   3.230   1.737   6.450
 7588SOL     OW23662   0.388   3.186   2.231
 7588SOL    HW123663   0.477   3.232   2.235
 7588SOL    HW223664   0.344   3.208   2.144
 7589SOL     OW23665   6.176   6.879   0.526
 7589SOL    HW123666   6.123   6.824   0.461
 7589SOL    HW223667   6.177   6.975   0.495
 7590SOL     OW23668   2.794   1.832   6.389
 7590SOL    HW123669   2.792   1.794   6.481
 7590SOL    HW223670   2.791   1.757   6.322
 7591SOL     OW23671   0.398   5.231   0.654
 7591SOL    HW123672   0.360   5.253   0.743
 7591SOL    HW223673   0.405   5.131   0.645
 7592SOL     OW23674   0.554   4.779   6.389
 7592SOL    HW123675   0.572   4.693   6.341
 7592SOL    HW223676   0.462   4.776   6.429
 7593SOL     OW23677   5.740   2.419   0.261
 7593SOL    HW123678   5.670   2.481   0.296
 7593SOL    HW223679   5.750   2.432   0.163
 7594SOL     OW23680   6.910   4.145   1.992
 7594SOL    HW123681   6.871   4.145   2.084
 7594SOL    HW223682   6.936   4.238   1.966
 7595SOL     OW23683   0.342   2.419   5.705
 7595SOL    HW123684   0.354   2.333   5.755
 7595SOL    HW223685   0.410   2.424   5.632
 7596SOL     OW23686   4.505   5.217   2.866
 7596SOL    HW123687   4.445   5.138   2.856
 7596SOL    HW223688   4.591   5.189   2.908
 7597SOL     OW23689   2.995   5.568   1.750
 7597SOL    HW123690   2.906   5.603   1.721
 7597SOL    HW223691   2.983   5.509   1.830
 7598SOL     OW23692   6.677   1.038   2.992
 7598SOL    HW123693   6.747   1.019   2.923
 7598SOL    HW223694   6.662   1.137   2.998
 7599SOL     OW23695   5.263   0.749   3.355
 7599SOL    HW123696   5.308   0.681   3.297
 7599SOL    HW223697   5.212   0.702   3.427
 7600SOL     OW23698   2.107   0.387   2.501
 7600SOL    HW123699   2.121   0.307   2.559
 7600SOL    HW223700   2.009   0.410   2.500
 7601SOL     OW23701   1.921   5.592   2.794
 7601SOL    HW123702   1.846   5.565   2.733
 7601SOL    HW223703   1.901   5.563   2.887
 7602SOL     OW23704   2.243   3.544   5.685
 7602SOL    HW123705   2.256   3.529   5.783
 7602SOL    HW223706   2.211   3.460   5.642
 7603SOL     OW23707   1.213   5.896   6.491
 7603SOL    HW123708   1.286   5.963   6.508
 7603SOL    HW223709   1.135   5.917   6.550
 7604SOL     OW23710   2.184   5.201   4.078
 7604SOL    HW123711   2.239   5.158   4.006
 7604SOL    HW223712   2.232   5.192   4.165
 7605SOL     OW23713   1.601   6.098   0.633
 7605SOL    HW123714   1.627   6.045   0.714
 7605SOL    HW223715   1.672   6.090   0.564
 7606SOL     OW23716   6.821   2.600   2.808
 7606SOL    HW123717   6.894   2.568   2.868
 7606SOL    HW223718   6.783   2.522   2.758
 7607SOL     OW23719   4.099   6.077   0.464
 7607SOL    HW123720   4.005   6.090   0.433
 7607SOL    HW223721   4.160   6.075   0.385
 7608SOL     OW23722   3.416   3.814   3.443
 7608SOL    HW123723   3.399   3.911   3.427
 7608SOL    HW223724   3.466   3.802   3.528
 7609SOL     OW23725   0.080   4.514   3.422
 7609SOL    HW123726   0.146   4.462   3.367
 7609SOL    HW223727   7.015   4.468   3.420
 7610SOL     OW23728   6.223   0.166   0.078
 7610SOL    HW123729   6.191   0.156   7.007
 7610SOL    HW223730   6.148   0.196   0.136
 7611SOL     OW23731   1.019   2.114   6.992
 7611SOL    HW123732   1.116   2.129   7.006
 7611SOL    HW223733   0.982   2.058   0.043
 7612SOL     OW23734   4.312   2.386   4.539
 7612SOL    HW123735   4.288   2.340   4.625
 7612SOL    HW223736   4.393   2.443   4.554
 7613SOL     OW23737   5.237   2.123   1.894
 7613SOL    HW123738   5.312   2.178   1.930
 7613SOL    HW223739   5.217   2.048   1.957
 7614SOL     OW23740   4.843   2.788   1.452
 7614SOL    HW123741   4.830   2.699   1.409
 7614SOL    HW223742   4.770   2.805   1.518
 7615SOL     OW23743   5.283   3.958   6.031
 7615SOL    HW123744   5.300   3.968   5.933
 7615SOL    HW223745   5.343   3.888   6.068
 7616SOL     OW23746   7.022   4.259   4.494
 7616SOL    HW123747   0.086   4.267   4.542
 7616SOL    HW223748   6.958   4.207   4.550
 7617SOL     OW23749   3.170   5.754   2.685
 7617SOL    HW123750   3.189   5.813   2.608
 7617SOL    HW223751   3.079   5.773   2.721
 7618SOL     OW23752   0.797   2.842   0.163
 7618SOL    HW123753   0.737   2.922   0.151
 7618SOL    HW223754   0.857   2.857   0.241
 7619SOL     OW23755   6.015   3.521   4.435
 7619SOL    HW123756   6.039   3.586   4.507
 7619SOL    HW223757   6.019   3.566   4.346
 7620SOL     OW23758   3.786   5.227   0.024
 7620SOL    HW123759   3.776   5.130   0.000
 7620SOL    HW223760   3.730   5.248   0.104
 7621SOL     OW23761   0.800   1.364   0.783
 7621SOL    HW123762   0.752   1.434   0.836
 7621SOL    HW223763   0.814   1.398   0.690
 7622SOL     OW23764   4.968   4.794   1.459
 7622SOL    HW123765   4.959   4.885   1.500
 7622SOL    HW223766   5.031   4.739   1.514
 7623SOL     OW23767   4.626   4.312   6.449
 7623SOL    HW123768   4.717   4.314   6.407
 7623SOL    HW223769   4.616   4.390   6.512
 7624SOL     OW23770   0.109   2.918   4.402
 7624SOL    HW123771   0.206   2.893   4.401
 7624SOL    HW223772   0.098   3.009   4.442
 7625SOL     OW23773   4.171   0.534   1.778
 7625SOL    HW123774   4.108   0.581   1.840
 7625SOL    HW223775   4.232   0.601   1.735
 7626SOL     OW23776   6.922   6.416   5.082
 7626SOL    HW123777   6.967   6.348   5.139
 7626SOL    HW223778   6.947   6.508   5.112
 7627SOL     OW23779   5.790   3.325   0.081
 7627SOL    HW123780   5.866   3.314   0.016
 7627SOL    HW223781   5.714   3.266   0.054
 7628SOL     OW23782   3.147   0.830   1.354
 7628SOL    HW123783   3.103   0.741   1.348
 7628SOL    HW223784   3.122   0.874   1.441
 7629SOL     OW23785   6.334   6.531   2.793
 7629SOL    HW123786   6.370   6.624   2.800
 7629SOL    HW223787   6.351   6.482   2.879
 7630SOL     OW23788   5.405   6.374   2.175
 7630SOL    HW123789   5.455   6.455   2.146
 7630SOL    HW223790   5.353   6.395   2.258
 7631SOL     OW23791   0.627   1.381   5.361
 7631SOL    HW123792   0.657   1.362   5.455
 7631SOL    HW223793   0.705   1.404   5.305
 7632SOL     OW23794   3.655   2.288   1.573
 7632SOL    HW123795   3.751   2.275   1.550
 7632SOL    HW223796   3.644   2.287   1.673
 7633SOL     OW23797   4.830   2.848   0.184
 7633SOL    HW123798   4.733   2.860   0.209
 7633SOL    HW223799   4.878   2.935   0.196
 7634SOL     OW23800   1.416   1.238   2.352
 7634SOL    HW123801   1.481   1.298   2.305
 7634SOL    HW223802   1.460   1.199   2.433
 7635SOL     OW23803   2.727   5.427   5.259
 7635SOL    HW123804   2.647   5.450   5.315
 7635SOL    HW223805   2.700   5.365   5.186
 7636SOL     OW23806   1.395   1.128   3.097
 7636SOL    HW123807   1.367   1.199   3.162
 7636SOL    HW223808   1.373   1.038   3.135
 7637SOL     OW23809   3.080   6.606   2.624
 7637SOL    HW123810   3.063   6.699   2.659
 7637SOL    HW223811   3.109   6.612   2.528
 7638SOL     OW23812   4.413   5.983   1.932
 7638SOL    HW123813   4.318   6.007   1.912
 7638SOL    HW223814   4.425   5.884   1.922
 7639SOL     OW23815   1.269   2.310   0.655
 7639SOL    HW123816   1.222   2.291   0.741
 7639SOL    HW223817   1.358   2.266   0.654
 7640SOL     OW23818   3.339   2.181   0.458
 7640SOL    HW123819   3.297   2.201   0.369
 7640SOL    HW223820   3.426   2.134   0.444
 7641SOL     OW23821   0.424   4.520   1.613
 7641SOL    HW123822   0.517   4.556   1.623
 7641SOL    HW223823   0.386   4.549   1.525
 7642SOL     OW23824   2.639   1.461   2.820
 7642SOL    HW123825   2.590   1.535   2.866
 7642SOL    HW223826   2.701   1.417   2.885
 7643SOL     OW23827   5.028   2.679   4.289
 7643SOL    HW123828   5.030   2.583   4.262
 7643SOL    HW223829   5.111   2.700   4.341
 7644SOL     OW23830   6.218   2.478   2.743
 7644SOL    HW123831   6.276   2.416   2.691
 7644SOL    HW223832   6.246   2.478   2.839
 7645SOL     OW23833   4.555   3.900   5.323
 7645SOL    HW123834   4.493   3.822   5.308
 7645SOL    HW223835   4.619   3.878   5.396
 7646SOL     OW23836   1.915   2.410   2.295
 7646SOL    HW123837   1.978   2.344   2.334
 7646SOL    HW223838   1.844   2.433   2.362
 7647SOL     OW23839   0.700   2.808   1.444
 7647SOL    HW123840   0.619   2.857   1.479
 7647SOL    HW223841   0.782   2.844   1.487
 7648SOL     OW23842   3.916   2.020   3.712
 7648SOL    HW123843   3.961   2.079   3.779
 7648SOL    HW223844   3.835   2.067   3.675
 7649SOL     OW23845   1.080   0.959   2.902
 7649SOL    HW123846   1.099   0.981   2.998
 7649SOL    HW223847   1.150   1.002   2.844
 7650SOL     OW23848   5.431   2.898   1.627
 7650SOL    HW123849   5.348   2.929   1.674
 7650SOL    HW223850   5.406   2.851   1.543
 7651SOL     OW23851   2.575   6.758   4.684
 7651SOL    HW123852   2.576   6.798   4.592
 7651SOL    HW223853   2.481   6.731   4.707
 7652SOL     OW23854   0.368   4.421   3.984
 7652SOL    HW123855   0.329   4.339   3.942
 7652SOL    HW223856   0.295   4.488   3.998
 7653SOL     OW23857   2.516   1.903   0.922
 7653SOL    HW123858   2.577   1.919   0.999
 7653SOL    HW223859   2.570   1.885   0.840
 7654SOL     OW23860   4.991   3.533   3.937
 7654SOL    HW123861   5.090   3.517   3.937
 7654SOL    HW223862   4.951   3.494   3.855
 7655SOL     OW23863   3.721   0.172   3.369
 7655SOL    HW123864   3.629   0.212   3.367
 7655SOL    HW223865   3.789   0.246   3.376
 7656SOL     OW23866   1.523   5.181   6.248
 7656SOL    HW123867   1.622   5.190   6.256
 7656SOL    HW223868   1.491   5.234   6.169
 7657SOL     OW23869   2.488   2.571   3.181
 7657SOL    HW123870   2.486   2.667   3.151
 7657SOL    HW223871   2.451   2.565   3.274
 7658SOL     OW23872   4.200   6.020   5.882
 7658SOL    HW123873   4.222   5.957   5.807
 7658SOL    HW223874   4.244   6.108   5.866
 7659SOL     OW23875   5.241   5.547   6.665
 7659SOL    HW123876   5.259   5.640   6.635
 7659SOL    HW223877   5.231   5.545   6.764
 7660SOL     OW23878   6.196   6.286   4.307
 7660SOL    HW123879   6.239   6.346   4.375
 7660SOL    HW223880   6.100   6.311   4.297
 7661SOL     OW23881   5.762   2.259   4.645
 7661SOL    HW123882   5.742   2.209   4.561
 7661SOL    HW223883   5.688   2.245   4.711
 7662SOL     OW23884   0.719   2.261   2.601
 7662SOL    HW123885   0.637   2.215   2.567
 7662SOL    HW223886   0.789   2.193   2.625
 7663SOL     OW23887   6.558   7.009   6.544
 7663SOL    HW123888   6.561   6.912   6.569
 7663SOL    HW223889   6.589   7.020   6.450
 7664SOL     OW23890   3.749   1.306   2.401
 7664SOL    HW123891   3.685   1.289   2.326
 7664SOL    HW223892   3.843   1.297   2.368
 7665SOL     OW23893   4.298   6.916   4.275
 7665SOL    HW123894   4.208   6.953   4.251
 7665SOL    HW223895   4.368   6.984   4.257
 7666SOL     OW23896   0.653   6.620   1.299
 7666SOL    HW123897   0.662   6.658   1.207
 7666SOL    HW223898   0.717   6.667   1.361
 7667SOL     OW23899   4.579   6.050   1.684
 7667SOL    HW123900   4.596   5.960   1.645
 7667SOL    HW223901   4.489   6.052   1.728
 7668SOL     OW23902   2.866   4.250   1.086
 7668SOL    HW123903   2.770   4.223   1.084
 7668SOL    HW223904   2.875   4.337   1.134
 7669SOL     OW23905   5.300   2.075   5.586
 7669SOL    HW123906   5.313   2.157   5.530
 7669SOL    HW223907   5.383   2.058   5.640
 7670SOL     OW23908   1.509   5.354   6.042
 7670SOL    HW123909   1.518   5.317   5.949
 7670SOL    HW223910   1.505   5.453   6.038
 7671SOL     OW23911   4.284   0.897   5.159
 7671SOL    HW123912   4.380   0.876   5.173
 7671SOL    HW223913   4.265   0.902   5.060
 7672SOL     OW23914   5.841   6.377   3.947
 7672SOL    HW123915   5.912   6.318   3.986
 7672SOL    HW223916   5.764   6.381   4.010
 7673SOL     OW23917   2.046   5.213   0.201
 7673SOL    HW123918   2.035   5.312   0.200
 7673SOL    HW223919   2.023   5.176   0.111
 7674SOL     OW23920   6.593   2.535   4.002
 7674SOL    HW123921   6.659   2.592   3.954
 7674SOL    HW223922   6.613   2.438   3.983
 7675SOL     OW23923   4.672   1.118   3.051
 7675SOL    HW123924   4.581   1.123   3.093
 7675SOL    HW223925   4.674   1.044   2.985
 7676SOL     OW23926   1.635   2.565   0.208
 7676SOL    HW123927   1.726   2.551   0.170
 7676SOL    HW223928   1.632   2.527   0.301
 7677SOL     OW23929   0.157   3.979   2.070
 7677SOL    HW123930   0.169   4.063   2.017
 7677SOL    HW223931   0.235   3.918   2.054
 7678SOL     OW23932   1.869   1.354   5.718
 7678SOL    HW123933   1.858   1.283   5.787
 7678SOL    HW223934   1.789   1.414   5.719
 7679SOL     OW23935   1.767   6.005   5.331
 7679SOL    HW123936   1.837   6.076   5.342
 7679SOL    HW223937   1.810   5.919   5.307
 7680SOL     OW23938   2.022   2.715   0.037
 7680SOL    HW123939   1.949   2.764   0.084
 7680SOL    HW223940   1.999   2.704   6.963
 7681SOL     OW23941   2.881   0.006   0.323
 7681SOL    HW123942   2.789   6.993   0.309
 7681SOL    HW223943   2.910   7.010   0.417
 7682SOL     OW23944   3.372   0.516   1.679
 7682SOL    HW123945   3.280   0.554   1.686
 7682SOL    HW223946   3.385   0.446   1.749
 7683SOL     OW23947   6.890   1.934   4.421
 7683SOL    HW123948   6.896   1.894   4.330
 7683SOL    HW223949   6.845   1.868   4.483
 7684SOL     OW23950   4.695   1.970   0.705
 7684SOL    HW123951   4.792   1.994   0.700
 7684SOL    HW223952   4.654   1.978   0.614
 7685SOL     OW23953   3.531   3.228   0.232
 7685SOL    HW123954   3.477   3.144   0.237
 7685SOL    HW223955   3.595   3.221   0.155
 7686SOL     OW23956   4.940   0.360   3.331
 7686SOL    HW123957   5.036   0.379   3.310
 7686SOL    HW223958   4.882   0.432   3.294
 7687SOL     OW23959   6.032   5.292   5.416
 7687SOL    HW123960   6.036   5.216   5.481
 7687SOL    HW223961   5.936   5.311   5.393
 7688SOL     OW23962   0.461   0.400   5.719
 7688SOL    HW123963   0.558   0.396   5.744
 7688SOL    HW223964   0.451   0.373   5.624
 7689SOL     OW23965   5.185   5.825   3.351
 7689SOL    HW123966   5.218   5.801   3.260
 7689SOL    HW223967   5.199   5.747   3.413
 7690SOL     OW23968   6.222   4.993   0.994
 7690SOL    HW123969   6.266   4.909   1.027
 7690SOL    HW223970   6.128   4.997   1.027
 7691SOL     OW23971   5.444   3.016   4.275
 7691SOL    HW123972   5.354   3.041   4.311
 7691SOL    HW223973   5.481   3.092   4.222
 7692SOL     OW23974   0.956   6.917   1.505
 7692SOL    HW123975   0.882   6.925   1.571
 7692SOL    HW223976   0.948   6.830   1.456
 7693SOL     OW23977   4.119   6.837   0.878
 7693SOL    HW123978   4.094   6.793   0.965
 7693SOL    HW223979   4.218   6.843   0.872
 7694SOL     OW23980   6.733   4.332   4.222
 7694SOL    HW123981   6.634   4.326   4.232
 7694SOL    HW223982   6.772   4.240   4.221
 7695SOL     OW23983   3.595   6.733   0.352
 7695SOL    HW123984   3.612   6.831   0.338
 7695SOL    HW223985   3.547   6.696   0.272
 7696SOL     OW23986   6.732   1.234   4.853
 7696SOL    HW123987   6.731   1.245   4.753
 7696SOL    HW223988   6.638   1.232   4.887
 7697SOL     OW23989   3.302   0.673   2.688
 7697SOL    HW123990   3.337   0.693   2.597
 7697SOL    HW223991   3.377   0.644   2.748
 7698SOL     OW23992   6.985   2.764   4.599
 7698SOL    HW123993   6.927   2.707   4.541
 7698SOL    HW223994   7.023   2.839   4.544
 7699SOL     OW23995   4.113   5.388   6.682
 7699SOL    HW123996   4.208   5.414   6.701
 7699SOL    HW223997   4.096   5.296   6.717
 7700SOL     OW23998   4.672   6.400   5.427
 7700SOL    HW123999   4.657   6.489   5.470
 7700SOL    HW224000   4.592   6.376   5.372
 7701SOL     OW24001   6.834   1.899   6.456
 7701SOL    HW124002   6.912   1.956   6.430
 7701SOL    HW224003   6.772   1.952   6.514
 7702SOL     OW24004   3.110   6.205   5.853
 7702SOL    HW124005   3.126   6.113   5.818
 7702SOL    HW224006   3.056   6.257   5.786
 7703SOL     OW24007   6.739   1.247   4.576
 7703SOL    HW124008   6.672   1.276   4.507
 7703SOL    HW224009   6.765   1.152   4.559
 7704SOL     OW24010   5.109   4.656   5.384
 7704SOL    HW124011   5.104   4.752   5.413
 7704SOL    HW224012   5.196   4.639   5.338
 7705SOL     OW24013   3.841   5.147   6.184
 7705SOL    HW124014   3.921   5.206   6.174
 7705SOL    HW224015   3.760   5.195   6.149
 7706SOL     OW24016   4.687   1.615   5.792
 7706SOL    HW124017   4.752   1.616   5.717
 7706SOL    HW224018   4.593   1.618   5.756
 7707SOL     OW24019   1.168   6.210   6.106
 7707SOL    HW124020   1.224   6.129   6.092
 7707SOL    HW224021   1.086   6.185   6.159
 7708SOL     OW24022   5.068   6.097   5.294
 7708SOL    HW124023   5.166   6.117   5.288
 7708SOL    HW224024   5.043   6.084   5.390
 7709SOL     OW24025   5.514   4.156   1.495
 7709SOL    HW124026   5.484   4.140   1.589
 7709SOL    HW224027   5.517   4.069   1.446
 7710SOL     OW24028   3.346   0.906   0.925
 7710SOL    HW124029   3.290   0.970   0.872
 7710SOL    HW224030   3.405   0.957   0.988
 7711SOL     OW24031   6.076   6.414   5.259
 7711SOL    HW124032   6.024   6.457   5.333
 7711SOL    HW224033   6.120   6.331   5.292
 7712SOL     OW24034   6.008   4.052   1.407
 7712SOL    HW124035   6.019   4.143   1.368
 7712SOL    HW224036   5.919   4.046   1.452
 7713SOL     OW24037   1.576   4.419   0.183
 7713SOL    HW124038   1.635   4.496   0.208
 7713SOL    HW224039   1.631   4.346   0.144
 7714SOL     OW24040   6.096   5.644   5.361
 7714SOL    HW124041   6.009   5.682   5.330
 7714SOL    HW224042   6.120   5.684   5.450
 7715SOL     OW24043   4.895   1.376   1.005
 7715SOL    HW124044   4.875   1.419   0.917
 7715SOL    HW224045   4.944   1.441   1.064
 7716SOL     OW24046   6.352   3.938   3.628
 7716SOL    HW124047   6.381   3.861   3.571
 7716SOL    HW224048   6.425   4.005   3.632
 7717SOL     OW24049   2.285   1.007   4.889
 7717SOL    HW124050   2.287   0.979   4.985
 7717SOL    HW224051   2.361   0.964   4.840
 7718SOL     OW24052   1.896   1.841   2.703
 7718SOL    HW124053   1.856   1.802   2.786
 7718SOL    HW224054   1.994   1.851   2.714
 7719SOL     OW24055   7.004   4.213   3.948
 7719SOL    HW124056   0.062   4.155   3.950
 7719SOL    HW224057   6.941   4.186   4.021
 7720SOL     OW24058   0.119   0.006   0.399
 7720SOL    HW124059   0.095   7.002   0.306
 7720SOL    HW224060   0.065   0.086   0.425
 7721SOL     OW24061   1.185   4.766   2.370
 7721SOL    HW124062   1.175   4.729   2.462
 7721SOL    HW224063   1.144   4.857   2.366
 7722SOL     OW24064   0.337   5.485   2.317
 7722SOL    HW124065   0.388   5.498   2.232
 7722SOL    HW224066   0.355   5.393   2.352
 7723SOL     OW24067   6.968   3.772   0.015
 7723SOL    HW124068   6.903   3.708   6.997
 7723SOL    HW224069   0.032   3.726   0.029
 7724SOL     OW24070   2.308   4.248   2.265
 7724SOL    HW124071   2.383   4.229   2.202
 7724SOL    HW224072   2.260   4.163   2.287
 7725SOL     OW24073   5.233   2.723   3.411
 7725SOL    HW124074   5.254   2.695   3.318
 7725SOL    HW224075   5.291   2.801   3.437
 7726SOL     OW24076   0.410   5.576   4.332
 7726SOL    HW124077   0.394   5.493   4.279
 7726SOL    HW224078   0.508   5.598   4.331
 7727SOL     OW24079   6.705   1.302   3.015
 7727SOL    HW124080   6.739   1.347   3.098
 7727SOL    HW224081   6.710   1.365   2.938
 7728SOL     OW24082   0.905   4.499   3.299
 7728SOL    HW124083   0.915   4.488   3.398
 7728SOL    HW224084   0.990   4.473   3.253
 7729SOL     OW24085   6.022   3.107   1.489
 7729SOL    HW124086   5.973   3.026   1.520
 7729SOL    HW224087   5.963   3.187   1.499
 7730SOL     OW24088   5.746   5.650   1.628
 7730SOL    HW124089   5.758   5.695   1.716
 7730SOL    HW224090   5.785   5.707   1.555
 7731SOL     OW24091   6.539   0.971   0.759
 7731SOL    HW124092   6.583   0.911   0.825
 7731SOL    HW224093   6.532   1.063   0.797
 7732SOL     OW24094   4.515   6.041   1.177
 7732SOL    HW124095   4.561   6.130   1.179
 7732SOL    HW224096   4.465   6.028   1.262
 7733SOL     OW24097   4.298   6.641   2.270
 7733SOL    HW124098   4.203   6.669   2.281
 7733SOL    HW224099   4.336   6.682   2.187
 7734SOL     OW24100   2.270   4.083   3.564
 7734SOL    HW124101   2.272   4.108   3.661
 7734SOL    HW224102   2.338   4.136   3.514
 7735SOL     OW24103   4.172   5.978   6.363
 7735SOL    HW124104   4.251   6.015   6.413
 7735SOL    HW224105   4.155   5.884   6.392
 7736SOL     OW24106   4.780   4.144   6.770
 7736SOL    HW124107   4.790   4.116   6.674
 7736SOL    HW224108   4.869   4.171   6.806
 7737SOL     OW24109   4.036   0.684   1.518
 7737SOL    HW124110   4.094   0.707   1.596
 7737SOL    HW224111   3.976   0.761   1.497
 7738SOL     OW24112   1.953   5.766   6.558
 7738SOL    HW124113   1.972   5.793   6.652
 7738SOL    HW224114   1.892   5.687   6.558
 7739SOL     OW24115   0.508   1.558   1.800
 7739SOL    HW124116   0.587   1.550   1.860
 7739SOL    HW224117   0.466   1.468   1.787
 7740SOL     OW24118   1.443   0.667   3.081
 7740SOL    HW124119   1.531   0.702   3.051
 7740SOL    HW224120   1.456   0.579   3.127
 7741SOL     OW24121   1.507   6.072   4.383
 7741SOL    HW124122   1.434   6.013   4.349
 7741SOL    HW224123   1.468   6.145   4.439
 7742SOL     OW24124   6.239   1.996   3.311
 7742SOL    HW124125   6.183   2.077   3.295
 7742SOL    HW224126   6.329   2.023   3.344
 7743SOL     OW24127   4.692   2.419   6.406
 7743SOL    HW124128   4.777   2.472   6.405
 7743SOL    HW224129   4.671   2.392   6.499
 7744SOL     OW24130   0.521   6.056   4.114
 7744SOL    HW124131   0.471   6.130   4.158
 7744SOL    HW224132   0.522   6.071   4.015
 7745SOL     OW24133   3.619   1.356   5.981
 7745SOL    HW124134   3.552   1.310   6.039
 7745SOL    HW224135   3.711   1.329   6.009
 7746SOL     OW24136   2.361   6.631   6.863
 7746SOL    HW124137   2.420   6.562   6.906
 7746SOL    HW224138   2.411   6.677   6.790
 7747SOL     OW24139   4.125   5.847   1.247
 7747SOL    HW124140   4.118   5.944   1.268
 7747SOL    HW224141   4.061   5.824   1.174
 7748SOL     OW24142   3.358   4.283   5.717
 7748SOL    HW124143   3.456   4.305   5.719
 7748SOL    HW224144   3.345   4.191   5.681
 7749SOL     OW24145   3.297   3.433   5.695
 7749SOL    HW124146   3.213   3.381   5.677
 7749SOL    HW224147   3.338   3.402   5.781
 7750SOL     OW24148   0.194   6.025   1.631
 7750SOL    HW124149   0.193   6.117   1.592
 7750SOL    HW224150   0.282   6.008   1.676
 7751SOL     OW24151   1.514   1.166   2.588
 7751SOL    HW124152   1.502   1.141   2.684
 7751SOL    HW224153   1.603   1.133   2.557
 7752SOL     OW24154   5.189   0.417   5.746
 7752SOL    HW124155   5.279   0.454   5.723
 7752SOL    HW224156   5.199   0.342   5.811
 7753SOL     OW24157   2.217   1.811   4.628
 7753SOL    HW124158   2.145   1.754   4.668
 7753SOL    HW224159   2.203   1.906   4.657
 7754SOL     OW24160   3.898   5.818   1.728
 7754SOL    HW124161   3.905   5.864   1.639
 7754SOL    HW224162   3.899   5.886   1.801
 7755SOL     OW24163   1.316   3.027   6.044
 7755SOL    HW124164   1.260   2.944   6.043
 7755SOL    HW224165   1.320   3.062   6.137
 7756SOL     OW24166   3.347   6.184   1.556
 7756SOL    HW124167   3.371   6.161   1.462
 7756SOL    HW224168   3.287   6.113   1.594
 7757SOL     OW24169   6.815   4.735   1.447
 7757SOL    HW124170   6.782   4.830   1.451
 7757SOL    HW224171   6.911   4.732   1.478
 7758SOL     OW24172   1.640   6.350   6.495
 7758SOL    HW124173   1.626   6.255   6.467
 7758SOL    HW224174   1.580   6.410   6.442
 7759SOL     OW24175   3.041   1.862   5.840
 7759SOL    HW124176   2.987   1.945   5.843
 7759SOL    HW224177   3.006   1.801   5.768
 7760SOL     OW24178   5.030   2.310   1.759
 7760SOL    HW124179   5.101   2.364   1.713
 7760SOL    HW224180   5.072   2.229   1.801
 7761SOL     OW24181   5.925   6.086   4.863
 7761SOL    HW124182   5.905   6.176   4.902
 7761SOL    HW224183   5.842   6.031   4.864
 7762SOL     OW24184   1.790   0.676   3.787
 7762SOL    HW124185   1.793   0.724   3.699
 7762SOL    HW224186   1.753   0.584   3.773
 7763SOL     OW24187   2.064   6.832   5.784
 7763SOL    HW124188   2.108   6.917   5.812
 7763SOL    HW224189   2.083   6.760   5.851
 7764SOL     OW24190   2.853   4.616   5.724
 7764SOL    HW124191   2.947   4.643   5.706
 7764SOL    HW224192   2.813   4.676   5.793
 7765SOL     OW24193   6.762   3.423   4.334
 7765SOL    HW124194   6.671   3.401   4.371
 7765SOL    HW224195   6.791   3.349   4.272
 7766SOL     OW24196   0.251   4.074   0.337
 7766SOL    HW124197   0.199   4.135   0.278
 7766SOL    HW224198   0.346   4.071   0.306
 7767SOL     OW24199   4.524   6.833   2.477
 7767SOL    HW124200   4.578   6.756   2.511
 7767SOL    HW224201   4.524   6.906   2.544
 7768SOL     OW24202   4.839   4.478   3.369
 7768SOL    HW124203   4.923   4.529   3.350
 7768SOL    HW224204   4.854   4.381   3.354
 7769SOL     OW24205   3.881   1.698   5.127
 7769SOL    HW124206   3.896   1.666   5.033
 7769SOL    HW224207   3.968   1.715   5.171
 7770SOL     OW24208   6.983   3.618   4.717
 7770SOL    HW124209   6.958   3.698   4.772
 7770SOL    HW224210   0.041   3.575   4.757
 7771SOL     OW24211   2.486   1.836   5.985
 7771SOL    HW124212   2.433   1.771   5.931
 7771SOL    HW224213   2.476   1.814   6.082
 7772SOL     OW24214   5.021   1.123   0.878
 7772SOL    HW124215   4.939   1.121   0.821
 7772SOL    HW224216   5.030   1.212   0.921
 7773SOL     OW24217   2.544   5.490   5.875
 7773SOL    HW124218   2.533   5.488   5.975
 7773SOL    HW224219   2.641   5.500   5.852
 7774SOL     OW24220   4.602   2.243   4.733
 7774SOL    HW124221   4.539   2.192   4.791
 7774SOL    HW224222   4.564   2.333   4.713
 7775SOL     OW24223   3.815   0.079   0.057
 7775SOL    HW124224   3.752   0.062   0.132
 7775SOL    HW224225   3.840   0.176   0.055
 7776SOL     OW24226   0.283   6.472   6.006
 7776SOL    HW124227   0.341   6.539   6.052
 7776SOL    HW224228   0.234   6.516   5.931
 7777SOL     OW24229   6.425   5.599   4.697
 7777SOL    HW124230   6.352   5.611   4.764
 7777SOL    HW224231   6.454   5.688   4.663
 7778SOL     OW24232   5.576   4.561   2.028
 7778SOL    HW124233   5.669   4.571   2.065
 7778SOL    HW224234   5.565   4.621   1.949
 7779SOL     OW24235   3.478   0.460   2.801
 7779SOL    HW124236   3.539   0.402   2.747
 7779SOL    HW224237   3.504   0.457   2.897
 7780SOL     OW24238   6.906   6.287   5.797
 7780SOL    HW124239   6.874   6.364   5.852
 7780SOL    HW224240   6.882   6.303   5.701
 7781SOL     OW24241   1.279   4.136   0.528
 7781SOL    HW124242   1.215   4.073   0.486
 7781SOL    HW224243   1.356   4.153   0.466
 7782SOL     OW24244   5.862   5.028   3.305
 7782SOL    HW124245   5.778   5.015   3.251
 7782SOL    HW224246   5.879   4.946   3.359
 7783SOL     OW24247   0.712   0.129   5.920
 7783SOL    HW124248   0.745   0.223   5.907
 7783SOL    HW224249   0.783   0.065   5.892
 7784SOL     OW24250   3.049   2.420   1.622
 7784SOL    HW124251   3.067   2.323   1.608
 7784SOL    HW224252   2.999   2.433   1.708
 7785SOL     OW24253   1.412   6.482   3.410
 7785SOL    HW124254   1.426   6.397   3.460
 7785SOL    HW224255   1.320   6.485   3.373
 7786SOL     OW24256   4.413   0.879   0.125
 7786SOL    HW124257   4.446   0.787   0.142
 7786SOL    HW224258   4.342   0.902   0.193
 7787SOL     OW24259   2.479   3.029   0.921
 7787SOL    HW124260   2.379   3.031   0.916
 7787SOL    HW224261   2.517   3.041   0.829
 7788SOL     OW24262   1.558   6.746   1.965
 7788SOL    HW124263   1.564   6.662   2.019
 7788SOL    HW224264   1.630   6.747   1.896
 7789SOL     OW24265   3.047   0.156   6.424
 7789SOL    HW124266   3.085   0.212   6.350
 7789SOL    HW224267   3.097   0.174   6.509
 7790SOL     OW24268   6.359   5.101   2.585
 7790SOL    HW124269   6.415   5.072   2.507
 7790SOL    HW224270   6.358   5.201   2.589
 7791SOL     OW24271   2.374   5.771   2.007
 7791SOL    HW124272   2.373   5.868   2.032
 7791SOL    HW224273   2.424   5.759   1.921
 7792SOL     OW24274   0.555   0.906   2.822
 7792SOL    HW124275   0.637   0.872   2.776
 7792SOL    HW224276   0.474   0.881   2.769
 7793SOL     OW24277   4.782   0.693   6.513
 7793SOL    HW124278   4.793   0.647   6.601
 7793SOL    HW224279   4.821   0.635   6.441
 7794SOL     OW24280   0.409   5.727   2.003
 7794SOL    HW124281   0.392   5.797   2.073
 7794SOL    HW224282   0.337   5.731   1.934
 7795SOL     OW24283   3.193   5.387   5.483
 7795SOL    HW124284   3.168   5.478   5.518
 7795SOL    HW224285   3.281   5.393   5.435
 7796SOL     OW24286   3.752   3.240   5.511
 7796SOL    HW124287   3.751   3.144   5.539
 7796SOL    HW224288   3.658   3.273   5.503
 7797SOL     OW24289   1.353   5.156   1.191
 7797SOL    HW124290   1.377   5.245   1.153
 7797SOL    HW224291   1.271   5.121   1.145
 7798SOL     OW24292   1.281   1.535   2.434
 7798SOL    HW124293   1.376   1.521   2.407
 7798SOL    HW224294   1.227   1.456   2.405
 7799SOL     OW24295   2.790   6.137   3.014
 7799SOL    HW124296   2.719   6.067   3.014
 7799SOL    HW224297   2.774   6.201   2.939
 7800SOL     OW24298   0.831   5.933   2.144
 7800SOL    HW124299   0.748   5.985   2.124
 7800SOL    HW224300   0.901   5.995   2.181
 7801SOL     OW24301   1.800   1.672   2.921
 7801SOL    HW124302   1.859   1.623   2.857
 7801SOL    HW224303   1.704   1.659   2.895
 7802SOL     OW24304   6.924   4.319   6.760
 7802SOL    HW124305   7.011   4.348   6.720
 7802SOL    HW224306   6.889   4.239   6.711
 7803SOL     OW24307   5.330   2.240   6.968
 7803SOL    HW124308   5.298   2.239   0.040
 7803SOL    HW224309   5.264   2.193   6.910
 7804SOL     OW24310   3.275   1.625   4.051
 7804SOL    HW124311   3.332   1.566   3.994
 7804SOL    HW224312   3.308   1.720   4.044
 7805SOL     OW24313   4.875   3.157   2.502
 7805SOL    HW124314   4.818   3.151   2.420
 7805SOL    HW224315   4.855   3.080   2.562
 7806SOL     OW24316   6.497   2.216   6.338
 7806SOL    HW124317   6.421   2.222   6.273
 7806SOL    HW224318   6.584   2.218   6.288
 7807SOL     OW24319   1.528   4.267   5.545
 7807SOL    HW124320   1.619   4.265   5.587
 7807SOL    HW224321   1.537   4.281   5.447
 7808SOL     OW24322   4.783   4.127   2.372
 7808SOL    HW124323   4.710   4.083   2.423
 7808SOL    HW224324   4.859   4.063   2.360
 7809SOL     OW24325   5.135   5.314   4.743
 7809SOL    HW124326   5.166   5.390   4.685
 7809SOL    HW224327   5.159   5.332   4.838
 7810SOL     OW24328   3.672   6.980   4.717
 7810SOL    HW124329   3.734   6.907   4.745
 7810SOL    HW224330   3.661   0.022   4.792
 7811SOL     OW24331   1.398   5.544   3.092
 7811SOL    HW124332   1.436   5.601   3.020
 7811SOL    HW224333   1.463   5.472   3.117
 7812SOL     OW24334   2.375   3.087   5.425
 7812SOL    HW124335   2.441   3.101   5.499
 7812SOL    HW224336   2.424   3.056   5.343
 7813SOL     OW24337   4.489   2.858   1.447
 7813SOL    HW124338   4.552   2.823   1.516
 7813SOL    HW224339   4.500   2.957   1.439
 7814SOL     OW24340   6.738   3.386   2.760
 7814SOL    HW124341   6.724   3.299   2.712
 7814SOL    HW224342   6.834   3.393   2.789
 7815SOL     OW24343   5.681   2.184   5.428
 7815SOL    HW124344   5.645   2.164   5.520
 7815SOL    HW224345   5.605   2.185   5.363
 7816SOL     OW24346   0.390   1.744   5.975
 7816SOL    HW124347   0.420   1.667   5.919
 7816SOL    HW224348   0.456   1.761   6.048
 7817SOL     OW24349   4.111   3.901   5.823
 7817SOL    HW124350   4.112   3.922   5.725
 7817SOL    HW224351   4.066   3.976   5.872
 7818SOL     OW24352   4.963   1.317   2.315
 7818SOL    HW124353   4.880   1.331   2.369
 7818SOL    HW224354   4.939   1.317   2.218
 7819SOL     OW24355   0.325   3.758   4.368
 7819SOL    HW124356   0.269   3.840   4.382
 7819SOL    HW224357   0.338   3.743   4.271
 7820SOL     OW24358   1.790   1.277   5.473
 7820SOL    HW124359   1.803   1.348   5.404
 7820SOL    HW224360   1.807   1.315   5.564
 7821SOL     OW24361   5.961   5.539   0.349
 7821SOL    HW124362   5.899   5.473   0.307
 7821SOL    HW224363   5.932   5.632   0.325
 7822SOL     OW24364   1.066   1.466   6.127
 7822SOL    HW124365   1.061   1.549   6.072
 7822SOL    HW224366   0.990   1.465   6.193
 7823SOL     OW24367   1.040   4.198   6.300
 7823SOL    HW124368   1.120   4.142   6.278
 7823SOL    HW224369   1.035   4.209   6.399
 7824SOL     OW24370   5.995   0.588   4.232
 7824SOL    HW124371   5.992   0.637   4.144
 7824SOL    HW224372   5.966   0.494   4.219
 7825SOL     OW24373   2.173   2.642   1.779
 7825SOL    HW124374   2.267   2.653   1.747
 7825SOL    HW224375   2.118   2.720   1.750
 7826SOL     OW24376   5.561   2.143   0.056
 7826SOL    HW124377   5.545   2.045   0.054
 7826SOL    HW224378   5.495   2.189   7.020
 7827SOL     OW24379   3.715   4.756   1.158
 7827SOL    HW124380   3.696   4.717   1.247
 7827SOL    HW224381   3.650   4.830   1.139
 7828SOL     OW24382   0.691   5.415   0.723
 7828SOL    HW124383   0.638   5.482   0.775
 7828SOL    HW224384   0.639   5.388   0.642
 7829SOL     OW24385   2.587   3.163   1.542
 7829SOL    HW124386   2.608   3.219   1.462
 7829SOL    HW224387   2.519   3.094   1.517
 7830SOL     OW24388   5.760   4.204   5.993
 7830SOL    HW124389   5.807   4.287   6.022
 7830SOL    HW224390   5.691   4.226   5.924
 7831SOL     OW24391   0.912   4.618   6.885
 7831SOL    HW124392   0.923   4.715   6.906
 7831SOL    HW224393   0.985   4.566   6.929
 7832SOL     OW24394   3.372   1.171   5.080
 7832SOL    HW124395   3.451   1.228   5.102
 7832SOL    HW224396   3.338   1.194   4.989
 7833SOL     OW24397   0.905   0.774   0.489
 7833SOL    HW124398   0.862   0.852   0.443
 7833SOL    HW224399   0.849   0.692   0.473
 7834SOL     OW24400   0.162   1.542   2.026
 7834SOL    HW124401   0.216   1.471   1.982
 7834SOL    HW224402   0.068   1.510   2.037
 7835SOL     OW24403   2.303   2.645   4.590
 7835SOL    HW124404   2.207   2.623   4.609
 7835SOL    HW224405   2.318   2.645   4.492
 7836SOL     OW24406   2.970   1.010   6.809
 7836SOL    HW124407   2.987   0.923   6.855
 7836SOL    HW224408   2.968   0.995   6.710
 7837SOL     OW24409   5.821   6.384   1.630
 7837SOL    HW124410   5.918   6.400   1.616
 7837SOL    HW224411   5.770   6.467   1.606
 7838SOL     OW24412   4.748   6.289   6.052
 7838SOL    HW124413   4.816   6.253   5.987
 7838SOL    HW224414   4.724   6.382   6.026
 7839SOL     OW24415   6.448   4.219   4.769
 7839SOL    HW124416   6.403   4.295   4.817
 7839SOL    HW224417   6.393   4.136   4.780
 7840SOL     OW24418   5.074   2.877   4.090
 7840SOL    HW124419   5.054   2.813   4.165
 7840SOL    HW224420   5.138   2.834   4.027
 7841SOL     OW24421   5.312   2.047   6.381
 7841SOL    HW124422   5.338   1.996   6.300
 7841SOL    HW224423   5.220   2.084   6.369
 7842SOL     OW24424   1.209   1.074   3.396
 7842SOL    HW124425   1.152   1.000   3.434
 7842SOL    HW224426   1.286   1.091   3.457
 7843SOL     OW24427   5.997   4.341   1.358
 7843SOL    HW124428   5.967   4.361   1.264
 7843SOL    HW224429   6.091   4.373   1.371
 7844SOL     OW24430   4.248   0.797   4.035
 7844SOL    HW124431   4.150   0.791   4.013
 7844SOL    HW224432   4.295   0.716   3.998
 7845SOL     OW24433   0.551   0.797   3.897
 7845SOL    HW124434   0.547   0.789   3.797
 7845SOL    HW224435   0.615   0.870   3.922
 7846SOL     OW24436   2.239   1.048   1.457
 7846SOL    HW124437   2.151   1.093   1.474
 7846SOL    HW224438   2.307   1.081   1.522
 7847SOL     OW24439   0.703   1.465   1.186
 7847SOL    HW124440   0.677   1.379   1.143
 7847SOL    HW224441   0.660   1.471   1.276
 7848SOL     OW24442   3.228   4.490   0.927
 7848SOL    HW124443   3.171   4.419   0.889
 7848SOL    HW224444   3.172   4.569   0.952
 7849SOL     OW24445   5.296   3.907   3.975
 7849SOL    HW124446   5.275   3.841   3.903
 7849SOL    HW224447   5.247   3.992   3.957
 7850SOL     OW24448   0.060   0.948   4.016
 7850SOL    HW124449   7.016   0.885   3.977
 7850SOL    HW224450   0.132   0.897   4.062
 7851SOL     OW24451   6.058   6.513   0.668
 7851SOL    HW124452   5.968   6.523   0.626
 7851SOL    HW224453   6.120   6.467   0.604
 7852SOL     OW24454   2.846   6.766   6.487
 7852SOL    HW124455   2.831   6.861   6.511
 7852SOL    HW224456   2.798   6.745   6.401
 7853SOL     OW24457   3.753   1.521   0.389
 7853SOL    HW124458   3.807   1.591   0.436
 7853SOL    HW224459   3.714   1.459   0.457
 7854SOL     OW24460   3.631   4.287   0.957
 7854SOL    HW124461   3.569   4.331   0.893
 7854SOL    HW224462   3.726   4.309   0.932
 7855SOL     OW24463   4.756   5.723   6.439
 7855SOL    HW124464   4.753   5.792   6.367
 7855SOL    HW224465   4.836   5.738   6.496
 7856SOL     OW24466   6.183   4.754   4.234
 7856SOL    HW124467   6.110   4.754   4.165
 7856SOL    HW224468   6.223   4.845   4.240
 7857SOL     OW24469   6.844   2.590   5.782
 7857SOL    HW124470   6.748   2.562   5.796
 7857SOL    HW224471   6.868   2.578   5.686
 7858SOL     OW24472   5.403   4.760   3.157
 7858SOL    HW124473   5.475   4.786   3.093
 7858SOL    HW224474   5.352   4.841   3.185
 7859SOL     OW24475   0.273   3.974   6.202
 7859SOL    HW124476   0.291   3.918   6.122
 7859SOL    HW224477   0.353   3.974   6.262
 7860SOL     OW24478   3.984   6.433   2.752
 7860SOL    HW124479   4.045   6.461   2.678
 7860SOL    HW224480   4.006   6.339   2.780
 7861SOL     OW24481   4.340   5.591   1.817
 7861SOL    HW124482   4.377   5.643   1.893
 7861SOL    HW224483   4.413   5.542   1.770
 7862SOL     OW24484   3.063   4.167   1.786
 7862SOL    HW124485   3.031   4.257   1.815
 7862SOL    HW224486   2.997   4.126   1.723
 7863SOL     OW24487   6.620   5.853   3.037
 7863SOL    HW124488   6.564   5.882   3.114
 7863SOL    HW224489   6.602   5.757   3.016
 7864SOL     OW24490   6.933   6.020   5.756
 7864SOL    HW124491   6.850   5.965   5.751
 7864SOL    HW224492   6.909   6.116   5.771
 7865SOL     OW24493   4.354   6.633   4.279
 7865SOL    HW124494   4.318   6.590   4.196
 7865SOL    HW224495   4.319   6.727   4.285
 7866SOL     OW24496   2.600   1.567   2.048
 7866SOL    HW124497   2.562   1.632   1.982
 7866SOL    HW224498   2.700   1.570   2.042
 7867SOL     OW24499   5.569   5.108   2.525
 7867SOL    HW124500   5.476   5.075   2.538
 7867SOL    HW224501   5.574   5.162   2.441
 7868SOL     OW24502   4.836   7.016   2.296
 7868SOL    HW124503   4.893   6.939   2.327
 7868SOL    HW224504   4.890   0.051   2.235
 7869SOL     OW24505   6.232   3.766   0.892
 7869SOL    HW124506   6.292   3.759   0.972
 7869SOL    HW224507   6.179   3.681   0.884
 7870SOL     OW24508   5.933   5.479   3.542
 7870SOL    HW124509   5.871   5.409   3.507
 7870SOL    HW224510   5.947   5.465   3.640
 7871SOL     OW24511   5.740   4.056   3.329
 7871SOL    HW124512   5.772   4.096   3.243
 7871SOL    HW224513   5.708   4.130   3.389
 7872SOL     OW24514   0.733   4.522   2.055
 7872SOL    HW124515   0.711   4.453   1.986
 7872SOL    HW224516   0.791   4.592   2.013
 7873SOL     OW24517   6.570   0.838   5.427
 7873SOL    HW124518   6.485   0.841   5.479
 7873SOL    HW224519   6.642   0.888   5.476
 7874SOL     OW24520   6.521   1.676   6.411
 7874SOL    HW124521   6.509   1.749   6.479
 7874SOL    HW224522   6.431   1.649   6.376
 7875SOL     OW24523   4.488   4.023   6.921
 7875SOL    HW124524   4.443   3.973   6.847
 7875SOL    HW224525   4.580   4.050   6.893
 7876SOL     OW24526   6.902   0.123   4.860
 7876SOL    HW124527   6.978   0.105   4.798
 7876SOL    HW224528   6.817   0.092   4.818
 7877SOL     OW24529   0.172   2.757   2.601
 7877SOL    HW124530   0.219   2.706   2.673
 7877SOL    HW224531   0.209   2.850   2.597
 7878SOL     OW24532   5.223   4.954   3.209
 7878SOL    HW124533   5.161   4.937   3.132
 7878SOL    HW224534   5.180   4.925   3.294
 7879SOL     OW24535   4.514   5.898   3.176
 7879SOL    HW124536   4.556   5.978   3.219
 7879SOL    HW224537   4.539   5.896   3.079
 7880SOL     OW24538   0.582   6.398   0.900
 7880SOL    HW124539   0.529   6.399   0.984
 7880SOL    HW224540   0.561   6.315   0.848
 7881SOL     OW24541   7.006   3.961   4.644
 7881SOL    HW124542   6.927   3.960   4.705
 7881SOL    HW224543   0.067   3.972   4.698
 7882SOL     OW24544   1.941   2.239   2.761
 7882SOL    HW124545   1.842   2.243   2.753
 7882SOL    HW224546   1.969   2.282   2.847
 7883SOL     OW24547   1.664   0.954   1.609
 7883SOL    HW124548   1.664   0.856   1.628
 7883SOL    HW224549   1.570   0.987   1.600
 7884SOL     OW24550   1.420   4.176   3.129
 7884SOL    HW124551   1.463   4.101   3.178
 7884SOL    HW224552   1.438   4.165   3.031
 7885SOL     OW24553   5.940   5.622   3.036
 7885SOL    HW124554   5.934   5.722   3.031
 7885SOL    HW224555   5.856   5.585   3.075
 7886SOL     OW24556   5.895   3.872   1.216
 7886SOL    HW124557   5.850   3.923   1.143
 7886SOL    HW224558   5.923   3.935   1.288
 7887SOL     OW24559   3.348   2.736   5.259
 7887SOL    HW124560   3.446   2.747   5.276
 7887SOL    HW224561   3.321   2.642   5.280
 7888SOL     OW24562   6.941   0.852   4.256
 7888SOL    HW124563   6.984   0.906   4.184
 7888SOL    HW224564   6.966   0.755   4.245
 7889SOL     OW24565   0.524   5.422   6.627
 7889SOL    HW124566   0.437   5.472   6.627
 7889SOL    HW224567   0.599   5.485   6.608
 7890SOL     OW24568   1.313   2.576   4.006
 7890SOL    HW124569   1.380   2.611   4.071
 7890SOL    HW224570   1.223   2.569   4.051
 7891SOL     OW24571   0.933   3.102   4.230
 7891SOL    HW124572   1.000   3.035   4.261
 7891SOL    HW224573   0.889   3.144   4.310
 7892SOL     OW24574   1.093   2.030   3.839
 7892SOL    HW124575   1.087   2.044   3.740
 7892SOL    HW224576   1.049   2.106   3.886
 7893SOL     OW24577   6.058   6.505   1.917
 7893SOL    HW124578   6.135   6.563   1.942
 7893SOL    HW224579   5.983   6.562   1.883
 7894SOL     OW24580   2.861   1.327   0.782
 7894SOL    HW124581   2.908   1.410   0.752
 7894SOL    HW224582   2.921   1.275   0.843
 7895SOL     OW24583   3.652   6.196   4.450
 7895SOL    HW124584   3.613   6.114   4.490
 7895SOL    HW224585   3.751   6.193   4.458
 7896SOL     OW24586   5.129   2.971   1.585
 7896SOL    HW124587   5.089   3.063   1.593
 7896SOL    HW224588   5.092   2.912   1.657
 7897SOL     OW24589   3.590   3.779   6.511
 7897SOL    HW124590   3.515   3.809   6.452
 7897SOL    HW224591   3.603   3.846   6.584
 7898SOL     OW24592   4.793   0.010   4.129
 7898SOL    HW124593   4.793   6.944   4.175
 7898SOL    HW224594   4.885   0.032   4.099
 7899SOL     OW24595   5.279   6.444   1.778
 7899SOL    HW124596   5.362   6.427   1.727
 7899SOL    HW224597   5.282   6.536   1.817
 7900SOL     OW24598   1.029   3.546   0.704
 7900SOL    HW124599   0.959   3.616   0.698
 7900SOL    HW224600   1.028   3.490   0.621
 7901SOL     OW24601   5.192   1.785   6.286
 7901SOL    HW124602   5.171   1.839   6.204
 7901SOL    HW224603   5.108   1.748   6.325
 7902SOL     OW24604   6.788   6.457   3.317
 7902SOL    HW124605   6.751   6.364   3.314
 7902SOL    HW224606   6.723   6.518   3.363
 7903SOL     OW24607   4.349   1.773   3.783
 7903SOL    HW124608   4.266   1.824   3.804
 7903SOL    HW224609   4.363   1.701   3.852
 7904SOL     OW24610   6.154   6.815   3.288
 7904SOL    HW124611   6.238   6.858   3.322
 7904SOL    HW224612   6.075   6.870   3.314
 7905SOL     OW24613   5.488   1.075   0.556
 7905SOL    HW124614   5.426   1.096   0.481
 7905SOL    HW224615   5.549   1.153   0.571
 7906SOL     OW24616   1.124   5.191   0.566
 7906SOL    HW124617   1.146   5.270   0.623
 7906SOL    HW224618   1.099   5.223   0.474
 7907SOL     OW24619   6.200   1.220   2.943
 7907SOL    HW124620   6.173   1.304   2.895
 7907SOL    HW224621   6.215   1.147   2.877
 7908SOL     OW24622   1.132   1.992   6.543
 7908SOL    HW124623   1.169   1.938   6.618
 7908SOL    HW224624   1.207   2.031   6.489
 7909SOL     OW24625   5.148   4.467   3.448
 7909SOL    HW124626   5.180   4.460   3.354
 7909SOL    HW224627   5.118   4.377   3.480
 7910SOL     OW24628   1.462   2.792   1.231
 7910SOL    HW124629   1.432   2.739   1.151
 7910SOL    HW224630   1.426   2.750   1.314
 7911SOL     OW24631   0.766   3.773   1.400
 7911SOL    HW124632   0.841   3.826   1.439
 7911SOL    HW224633   0.755   3.796   1.303
 7912SOL     OW24634   5.129   4.838   0.497
 7912SOL    HW124635   5.112   4.748   0.536
 7912SOL    HW224636   5.185   4.892   0.560
 7913SOL     OW24637   1.746   4.582   0.857
 7913SOL    HW124638   1.657   4.537   0.854
 7913SOL    HW224639   1.798   4.560   0.774
 7914SOL     OW24640   0.185   4.393   6.662
 7914SOL    HW124641   0.197   4.297   6.685
 7914SOL    HW224642   0.205   4.449   6.742
 7915SOL     OW24643   4.488   1.420   2.653
 7915SOL    HW124644   4.494   1.503   2.708
 7915SOL    HW224645   4.422   1.434   2.579
 7916SOL     OW24646   0.872   0.920   4.963
 7916SOL    HW124647   0.935   0.987   5.002
 7916SOL    HW224648   0.783   0.928   5.009
 7917SOL     OW24649   3.844   2.471   5.818
 7917SOL    HW124650   3.855   2.390   5.760
 7917SOL    HW224651   3.760   2.519   5.793
 7918SOL     OW24652   0.894   1.462   5.241
 7918SOL    HW124653   0.925   1.415   5.158
 7918SOL    HW224654   0.969   1.466   5.307
 7919SOL     OW24655   1.050   4.999   2.375
 7919SOL    HW124656   0.986   5.031   2.446
 7919SOL    HW224657   1.104   5.076   2.341
 7920SOL     OW24658   4.723   1.047   1.957
 7920SOL    HW124659   4.770   1.046   1.869
 7920SOL    HW224660   4.735   0.958   2.002
 7921SOL     OW24661   5.756   0.708   1.448
 7921SOL    HW124662   5.702   0.784   1.484
 7921SOL    HW224663   5.694   0.634   1.422
 7922SOL     OW24664   0.597   6.401   6.602
 7922SOL    HW124665   0.515   6.359   6.563
 7922SOL    HW224666   0.649   6.332   6.652
 7923SOL     OW24667   3.131   2.075   6.934
 7923SOL    HW124668   3.060   2.017   6.896
 7923SOL    HW224669   3.216   2.062   6.883
 7924SOL     OW24670   5.050   6.673   1.020
 7924SOL    HW124671   5.091   6.629   1.100
 7924SOL    HW224672   5.075   6.770   1.019
 7925SOL     OW24673   1.790   6.562   0.645
 7925SOL    HW124674   1.742   6.487   0.691
 7925SOL    HW224675   1.754   6.649   0.679
 7926SOL     OW24676   5.476   1.466   6.868
 7926SOL    HW124677   5.527   1.439   6.786
 7926SOL    HW224678   5.527   1.437   6.950
 7927SOL     OW24679   5.273   0.084   1.679
 7927SOL    HW124680   5.222   0.168   1.699
 7927SOL    HW224681   5.214   0.019   1.632
 7928SOL     OW24682   6.835   1.200   3.291
 7928SOL    HW124683   6.867   1.192   3.385
 7928SOL    HW224684   6.914   1.214   3.231
 7929SOL     OW24685   4.520   3.541   6.120
 7929SOL    HW124686   4.444   3.579   6.066
 7929SOL    HW224687   4.499   3.550   6.217
 7930SOL     OW24688   3.716   5.452   6.067
 7930SOL    HW124689   3.717   5.398   5.983
 7930SOL    HW224690   3.623   5.485   6.084
 7931SOL     OW24691   3.839   2.919   0.684
 7931SOL    HW124692   3.908   2.846   0.685
 7931SOL    HW224693   3.839   2.963   0.594
 7932SOL     OW24694   0.563   4.880   1.523
 7932SOL    HW124695   0.481   4.823   1.522
 7932SOL    HW224696   0.537   4.976   1.526
 7933SOL     OW24697   6.851   0.985   5.873
 7933SOL    HW124698   6.808   1.009   5.960
 7933SOL    HW224699   6.909   0.905   5.885
 7934SOL     OW24700   1.402   4.687   0.317
 7934SOL    HW124701   1.487   4.708   0.268
 7934SOL    HW224702   1.361   4.604   0.278
 7935SOL     OW24703   5.040   4.861   2.679
 7935SOL    HW124704   4.942   4.840   2.689
 7935SOL    HW224705   5.056   4.901   2.589
 7936SOL     OW24706   3.138   5.728   3.305
 7936SOL    HW124707   3.140   5.746   3.403
 7936SOL    HW224708   3.231   5.712   3.272
 7937SOL     OW24709   2.302   5.367   3.521
 7937SOL    HW124710   2.337   5.432   3.454
 7937SOL    HW224711   2.377   5.339   3.581
 7938SOL     OW24712   5.331   6.483   5.367
 7938SOL    HW124713   5.259   6.492   5.437
 7938SOL    HW224714   5.292   6.502   5.277
 7939SOL     OW24715   0.180   2.057   5.869
 7939SOL    HW124716   0.224   2.054   5.958
 7939SOL    HW224717   0.247   2.082   5.799
 7940SOL     OW24718   3.395   1.824   2.474
 7940SOL    HW124719   3.342   1.820   2.389
 7940SOL    HW224720   3.333   1.830   2.552
 7941SOL     OW24721   4.917   6.567   3.194
 7941SOL    HW124722   4.993   6.632   3.185
 7941SOL    HW224723   4.919   6.528   3.286
 7942SOL     OW24724   0.441   2.578   3.010
 7942SOL    HW124725   0.495   2.544   3.087
 7942SOL    HW224726   0.434   2.678   3.017
 7943SOL     OW24727   0.860   4.424   5.474
 7943SOL    HW124728   0.940   4.410   5.415
 7943SOL    HW224729   0.842   4.341   5.526
 7944SOL     OW24730   0.524   2.246   1.718
 7944SOL    HW124731   0.607   2.300   1.733
 7944SOL    HW224732   0.492   2.210   1.805
 7945SOL     OW24733   6.207   5.154   2.837
 7945SOL    HW124734   6.237   5.156   2.741
 7945SOL    HW224735   6.225   5.063   2.875
 7946SOL     OW24736   3.692   6.777   5.891
 7946SOL    HW124737   3.673   6.866   5.933
 7946SOL    HW224738   3.688   6.785   5.792
 7947SOL     OW24739   2.359   1.796   5.194
 7947SOL    HW124740   2.373   1.839   5.105
 7947SOL    HW224741   2.337   1.867   5.261
 7948SOL     OW24742   1.073   4.730   1.211
 7948SOL    HW124743   1.076   4.797   1.137
 7948SOL    HW224744   1.146   4.663   1.198
 7949SOL     OW24745   4.275   4.012   6.015
 7949SOL    HW124746   4.363   3.967   6.027
 7949SOL    HW224747   4.215   3.954   5.959
 7950SOL     OW24748   4.969   6.485   4.820
 7950SOL    HW124749   4.927   6.401   4.787
 7950SOL    HW224750   5.068   6.477   4.817
 7951SOL     OW24751   2.100   5.294   2.555
 7951SOL    HW124752   2.025   5.344   2.512
 7951SOL    HW224753   2.157   5.253   2.485
 7952SOL     OW24754   6.637   3.251   6.958
 7952SOL    HW124755   6.659   3.235   6.861
 7952SOL    HW224756   6.582   3.175   6.992
 7953SOL     OW24757   4.466   1.940   1.662
 7953SOL    HW124758   4.455   2.037   1.685
 7953SOL    HW224759   4.501   1.891   1.742
 7954SOL     OW24760   4.095   3.632   6.448
 7954SOL    HW124761   4.097   3.695   6.370
 7954SOL    HW224762   4.073   3.540   6.415
 7955SOL     OW24763   2.593   1.558   6.488
 7955SOL    HW124764   2.509   1.585   6.536
 7955SOL    HW224765   2.571   1.535   6.393
 7956SOL     OW24766   5.707   1.515   1.719
 7956SOL    HW124767   5.718   1.536   1.817
 7956SOL    HW224768   5.742   1.591   1.665
 7957SOL     OW24769   2.866   0.766   5.837
 7957SOL    HW124770   2.960   0.795   5.858
 7957SOL    HW224771   2.827   0.828   5.768
 7958SOL     OW24772   5.496   4.224   5.921
 7958SOL    HW124773   5.510   4.188   6.014
 7958SOL    HW224774   5.417   4.179   5.880
 7959SOL     OW24775   5.175   0.612   6.712
 7959SOL    HW124776   5.153   0.707   6.734
 7959SOL    HW224777   5.137   0.552   6.782
 7960SOL     OW24778   0.847   1.452   6.297
 7960SOL    HW124779   0.817   1.544   6.322
 7960SOL    HW224780   0.806   1.385   6.359
 7961SOL     OW24781   6.608   0.088   0.694
 7961SOL    HW124782   6.526   0.121   0.741
 7961SOL    HW224783   6.681   0.074   0.761
 7962SOL     OW24784   0.112   1.774   5.929
 7962SOL    HW124785   0.146   1.859   5.887
 7962SOL    HW224786   0.183   1.735   5.987
 7963SOL     OW24787   6.960   5.516   3.898
 7963SOL    HW124788   6.910   5.474   3.974
 7963SOL    HW224789   6.986   5.445   3.833
 7964SOL     OW24790   6.343   2.818   2.306
 7964SOL    HW124791   6.378   2.909   2.283
 7964SOL    HW224792   6.307   2.774   2.224
 7965SOL     OW24793   3.877   2.440   6.392
 7965SOL    HW124794   3.971   2.460   6.366
 7965SOL    HW224795   3.862   2.464   6.488
 7966SOL     OW24796   3.781   3.411   5.729
 7966SOL    HW124797   3.749   3.327   5.686
 7966SOL    HW224798   3.840   3.461   5.666
 7967SOL     OW24799   2.275   4.998   2.057
 7967SOL    HW124800   2.367   5.034   2.068
 7967SOL    HW224801   2.279   4.900   2.037
 7968SOL     OW24802   6.045   2.436   5.301
 7968SOL    HW124803   5.973   2.505   5.304
 7968SOL    HW224804   6.066   2.414   5.206
 7969SOL     OW24805   5.096   6.040   0.431
 7969SOL    HW124806   5.117   6.123   0.483
 7969SOL    HW224807   5.168   5.973   0.445
 7970SOL     OW24808   5.688   3.072   2.769
 7970SOL    HW124809   5.708   2.997   2.706
 7970SOL    HW224810   5.773   3.099   2.816
 7971SOL     OW24811   3.027   0.676   1.715
 7971SOL    HW124812   3.003   0.593   1.664
 7971SOL    HW224813   3.017   0.756   1.656
 7972SOL     OW24814   3.547   3.662   1.891
 7972SOL    HW124815   3.502   3.751   1.879
 7972SOL    HW224816   3.540   3.634   1.987
 7973SOL     OW24817   5.702   4.431   4.689
 7973SOL    HW124818   5.791   4.411   4.647
 7973SOL    HW224819   5.711   4.429   4.788
 7974SOL     OW24820   6.078   0.891   5.616
 7974SOL    HW124821   6.086   0.966   5.682
 7974SOL    HW224822   6.002   0.832   5.642
 7975SOL     OW24823   4.860   0.632   0.627
 7975SOL    HW124824   4.855   0.535   0.603
 7975SOL    HW224825   4.779   0.679   0.591
 7976SOL     OW24826   0.866   6.853   5.719
 7976SOL    HW124827   0.847   6.924   5.652
 7976SOL    HW224828   0.942   6.882   5.777
 7977SOL     OW24829   5.174   6.300   2.029
 7977SOL    HW124830   5.193   6.370   1.960
 7977SOL    HW224831   5.246   6.301   2.098
 7978SOL     OW24832   0.405   3.028   6.181
 7978SOL    HW124833   0.419   3.023   6.280
 7978SOL    HW224834   0.492   3.051   6.137
 7979SOL     OW24835   1.954   4.308   5.465
 7979SOL    HW124836   2.008   4.304   5.549
 7979SOL    HW224837   1.871   4.253   5.476
 7980SOL     OW24838   3.199   5.843   6.704
 7980SOL    HW124839   3.193   5.766   6.639
 7980SOL    HW224840   3.121   5.904   6.691
 7981SOL     OW24841   1.073   5.151   1.708
 7981SOL    HW124842   1.015   5.232   1.697
 7981SOL    HW224843   1.034   5.074   1.659
 7982SOL     OW24844   1.337   1.723   5.738
 7982SOL    HW124845   1.329   1.773   5.824
 7982SOL    HW224846   1.343   1.788   5.662
 7983SOL     OW24847   6.514   1.348   1.642
 7983SOL    HW124848   6.472   1.359   1.552
 7983SOL    HW224849   6.450   1.378   1.713
 7984SOL     OW24850   0.657   1.658   0.624
 7984SOL    HW124851   0.734   1.643   0.563
 7984SOL    HW224852   0.688   1.659   0.719
 7985SOL     OW24853   2.349   2.325   4.399
 7985SOL    HW124854   2.382   2.371   4.482
 7985SOL    HW224855   2.425   2.278   4.355
 7986SOL     OW24856   3.439   0.789   5.603
 7986SOL    HW124857   3.449   0.878   5.648
 7986SOL    HW224858   3.367   0.794   5.534
 7987SOL     OW24859   2.208   3.193   0.590
 7987SOL    HW124860   2.122   3.191   0.642
 7987SOL    HW224861   2.227   3.286   0.559
 7988SOL     OW24862   1.302   1.076   2.177
 7988SOL    HW124863   1.338   1.132   2.252
 7988SOL    HW224864   1.254   0.997   2.216
 7989SOL     OW24865   2.191   4.014   0.398
 7989SOL    HW124866   2.167   4.105   0.433
 7989SOL    HW224867   2.206   4.020   0.299
 7990SOL     OW24868   2.604   5.155   4.587
 7990SOL    HW124869   2.516   5.162   4.635
 7990SOL    HW224870   2.593   5.183   4.492
 7991SOL     OW24871   5.800   1.184   4.461
 7991SOL    HW124872   5.777   1.257   4.397
 7991SOL    HW224873   5.827   1.102   4.410
 7992SOL     OW24874   1.801   0.298   0.213
 7992SOL    HW124875   1.815   0.230   0.285
 7992SOL    HW224876   1.887   0.344   0.194
 7993SOL     OW24877   0.594   0.126   1.177
 7993SOL    HW124878   0.559   0.173   1.096
 7993SOL    HW224879   0.595   0.190   1.254
 7994SOL     OW24880   5.298   0.544   2.845
 7994SOL    HW124881   5.321   0.591   2.930
 7994SOL    HW224882   5.199   0.529   2.841
 7995SOL     OW24883   5.632   5.057   3.165
 7995SOL    HW124884   5.655   5.135   3.106
 7995SOL    HW224885   5.611   4.977   3.108
 7996SOL     OW24886   4.232   6.460   4.112
 7996SOL    HW124887   4.150   6.443   4.166
 7996SOL    HW224888   4.307   6.402   4.146
 7997SOL     OW24889   0.523   1.827   0.468
 7997SOL    HW124890   0.566   1.784   0.547
 7997SOL    HW224891   0.570   1.799   0.385
 7998SOL     OW24892   3.065   6.656   6.885
 7998SOL    HW124893   3.134   6.583   6.879
 7998SOL    HW224894   3.085   6.715   6.964
 7999SOL     OW24895   1.266   1.449   5.796
 7999SOL    HW124896   1.296   1.543   5.783
 7999SOL    HW224897   1.334   1.386   5.758
 8000SOL     OW24898   6.030   0.118   6.130
 8000SOL    HW124899   6.066   0.038   6.082
 8000SOL    HW224900   5.998   0.091   6.221
 8001SOL     OW24901   4.418   6.084   1.433
 8001SOL    HW124902   4.442   6.176   1.465
 8001SOL    HW224903   4.480   6.017   1.475
 8002SOL     OW24904   0.705   1.244   5.595
 8002SOL    HW124905   0.805   1.237   5.593
 8002SOL    HW224906   0.667   1.157   5.628
 8003SOL     OW24907   2.066   5.775   1.390
 8003SOL    HW124908   2.145   5.792   1.449
 8003SOL    HW224909   2.002   5.715   1.437
 8004SOL     OW24910   1.840   3.194   3.493
 8004SOL    HW124911   1.747   3.210   3.528
 8004SOL    HW224912   1.840   3.112   3.437
 8005SOL     OW24913   2.854   0.478   3.421
 8005SOL    HW124914   2.824   0.554   3.363
 8005SOL    HW224915   2.777   0.417   3.439
 8006SOL     OW24916   2.535   5.662   5.641
 8006SOL    HW124917   2.534   5.607   5.557
 8006SOL    HW224918   2.517   5.603   5.720
 8007SOL     OW24919   5.884   2.256   6.338
 8007SOL    HW124920   5.936   2.336   6.309
 8007SOL    HW224921   5.862   2.200   6.258
 8008SOL     OW24922   3.461   5.538   6.751
 8008SOL    HW124923   3.551   5.495   6.755
 8008SOL    HW224924   3.470   5.637   6.763
 8009SOL     OW24925   4.300   1.230   0.305
 8009SOL    HW124926   4.380   1.289   0.289
 8009SOL    HW224927   4.241   1.232   0.224
 8010SOL     OW24928   3.002   2.154   5.225
 8010SOL    HW124929   3.067   2.222   5.192
 8010SOL    HW224930   3.025   2.129   5.319
 8011SOL     OW24931   3.717   1.992   1.572
 8011SOL    HW124932   3.658   2.022   1.647
 8011SOL    HW224933   3.785   2.063   1.553
 8012SOL     OW24934   1.125   2.781   5.990
 8012SOL    HW124935   1.042   2.726   5.995
 8012SOL    HW224936   1.112   2.856   5.926
 8013SOL     OW24937   1.450   3.554   3.809
 8013SOL    HW124938   1.414   3.486   3.872
 8013SOL    HW224939   1.376   3.588   3.751
 8014SOL     OW24940   1.848   0.427   4.409
 8014SOL    HW124941   1.812   0.450   4.499
 8014SOL    HW224942   1.791   0.471   4.339
 8015SOL     OW24943   1.995   0.229   5.913
 8015SOL    HW124944   2.068   0.258   5.851
 8015SOL    HW224945   2.017   0.140   5.952
 8016SOL     OW24946   4.044   1.429   5.298
 8016SOL    HW124947   3.985   1.496   5.253
 8016SOL    HW224948   4.035   1.340   5.253
 8017SOL     OW24949   6.385   0.060   6.737
 8017SOL    HW124950   6.458   0.063   6.669
 8017SOL    HW224951   6.425   0.061   6.829
 8018SOL     OW24952   3.509   2.426   6.608
 8018SOL    HW124953   3.609   2.422   6.606
 8018SOL    HW224954   3.473   2.420   6.515
 8019SOL     OW24955   1.723   3.993   1.353
 8019SOL    HW124956   1.708   4.031   1.262
 8019SOL    HW224957   1.814   4.018   1.385
 8020SOL     OW24958   6.338   0.777   6.167
 8020SOL    HW124959   6.311   0.850   6.229
 8020SOL    HW224960   6.426   0.739   6.195
 8021SOL     OW24961   1.703   2.903   1.267
 8021SOL    HW124962   1.615   2.865   1.240
 8021SOL    HW224963   1.740   2.852   1.345
 8022SOL     OW24964   5.836   0.363   1.700
 8022SOL    HW124965   5.737   0.357   1.689
 8022SOL    HW224966   5.859   0.361   1.797
 8023SOL     OW24967   6.071   4.911   2.408
 8023SOL    HW124968   6.050   4.826   2.359
 8023SOL    HW224969   6.078   4.893   2.506
 8024SOL     OW24970   1.420   5.625   6.005
 8024SOL    HW124971   1.326   5.595   6.018
 8024SOL    HW224972   1.444   5.618   5.908
 8025SOL     OW24973   1.629   5.414   0.911
 8025SOL    HW124974   1.625   5.377   1.004
 8025SOL    HW224975   1.652   5.511   0.916
 8026SOL     OW24976   0.068   4.116   1.002
 8026SOL    HW124977   0.099   4.179   0.930
 8026SOL    HW224978   0.031   4.169   1.079
 8027SOL     OW24979   3.325   6.244   5.418
 8027SOL    HW124980   3.417   6.213   5.443
 8027SOL    HW224981   3.257   6.181   5.456
 8028SOL     OW24982   3.131   5.332   4.935
 8028SOL    HW124983   3.068   5.257   4.951
 8028SOL    HW224984   3.144   5.383   5.020
 8029SOL     OW24985   4.956   2.641   2.113
 8029SOL    HW124986   5.030   2.673   2.053
 8029SOL    HW224987   4.869   2.675   2.079
 8030SOL     OW24988   6.217   5.419   0.620
 8030SOL    HW124989   6.119   5.433   0.625
 8030SOL    HW224990   6.249   5.434   0.526
 8031SOL     OW24991   6.578   6.318   2.709
 8031SOL    HW124992   6.520   6.237   2.708
 8031SOL    HW224993   6.555   6.377   2.632
 8032SOL     OW24994   5.206   3.694   1.822
 8032SOL    HW124995   5.271   3.687   1.745
 8032SOL    HW224996   5.121   3.647   1.798
 8033SOL     OW24997   4.830   3.527   0.487
 8033SOL    HW124998   4.804   3.504   0.394
 8033SOL    HW224999   4.749   3.553   0.540
 8034SOL     OW25000   5.770   6.895   5.871
 8034SOL    HW125001   5.865   6.866   5.884
 8034SOL    HW225002   5.720   6.885   5.957
 8035SOL     OW25003   4.990   1.689   2.046
 8035SOL    HW125004   5.044   1.613   2.083
 8035SOL    HW225005   4.925   1.654   1.978
 8036SOL     OW25006   0.061   3.642   3.639
 8036SOL    HW125007   0.002   3.604   3.568
 8036SOL    HW225008   0.010   3.648   3.725
 8037SOL     OW25009   1.843   3.579   6.739
 8037SOL    HW125010   1.894   3.493   6.734
 8037SOL    HW225011   1.815   3.596   6.834
 8038SOL     OW25012   4.820   6.467   2.343
 8038SOL    HW125013   4.721   6.470   2.352
 8038SOL    HW225014   4.846   6.488   2.249
 8039SOL     OW25015   7.011   2.235   4.741
 8039SOL    HW125016   0.054   2.269   4.808
 8039SOL    HW225017   6.988   2.140   4.763
 8040SOL     OW25018   2.040   6.217   0.105
 8040SOL    HW125019   1.971   6.290   0.107
 8040SOL    HW225020   1.994   6.128   0.107
 8041SOL     OW25021   3.356   0.987   3.186
 8041SOL    HW125022   3.416   0.932   3.244
 8041SOL    HW225023   3.355   0.949   3.093
 8042SOL     OW25024   4.554   4.326   5.490
 8042SOL    HW125025   4.579   4.274   5.409
 8042SOL    HW225026   4.536   4.264   5.566
 8043SOL     OW25027   3.736   4.285   0.244
 8043SOL    HW125028   3.773   4.239   0.163
 8043SOL    HW225029   3.728   4.383   0.226
 8044SOL     OW25030   3.738   3.517   0.436
 8044SOL    HW125031   3.753   3.429   0.481
 8044SOL    HW225032   3.818   3.575   0.448
 8045SOL     OW25033   6.599   2.278   2.820
 8045SOL    HW125034   6.640   2.212   2.883
 8045SOL    HW225035   6.521   2.322   2.864
 8046SOL     OW25036   0.371   4.516   1.958
 8046SOL    HW125037   0.361   4.542   1.862
 8046SOL    HW225038   0.468   4.509   1.980
 8047SOL     OW25039   3.954   6.401   6.556
 8047SOL    HW125040   3.932   6.339   6.631
 8047SOL    HW225041   3.911   6.368   6.472
 8048SOL     OW25042   3.237   2.574   6.613
 8048SOL    HW125043   3.228   2.580   6.513
 8048SOL    HW225044   3.281   2.488   6.637
 8049SOL     OW25045   0.586   6.753   6.706
 8049SOL    HW125046   0.592   6.653   6.709
 8049SOL    HW225047   0.678   6.791   6.704
 8050SOL     OW25048   2.191   3.240   4.282
 8050SOL    HW125049   2.099   3.275   4.265
 8050SOL    HW225050   2.216   3.256   4.377
 8051SOL     OW25051   4.510   6.216   4.691
 8051SOL    HW125052   4.474   6.299   4.733
 8051SOL    HW225053   4.512   6.227   4.592
 8052SOL     OW25054   2.290   2.111   1.542
 8052SOL    HW125055   2.310   2.029   1.489
 8052SOL    HW225056   2.354   2.117   1.619
 8053SOL     OW25057   3.022   2.796   5.430
 8053SOL    HW125058   3.099   2.732   5.427
 8053SOL    HW225059   3.025   2.853   5.348
 8054SOL     OW25060   6.342   4.183   4.475
 8054SOL    HW125061   6.434   4.170   4.438
 8054SOL    HW225062   6.348   4.209   4.571
 8055SOL     OW25063   0.138   0.822   5.695
 8055SOL    HW125064   0.179   0.912   5.680
 8055SOL    HW225065   0.099   0.789   5.609
 8056SOL     OW25066   3.176   0.248   4.031
 8056SOL    HW125067   3.129   0.209   4.110
 8056SOL    HW225068   3.113   0.255   3.954
 8057SOL     OW25069   2.556   2.176   2.901
 8057SOL    HW125070   2.644   2.164   2.946
 8057SOL    HW225071   2.530   2.273   2.904
 8058SOL     OW25072   3.345   6.257   3.051
 8058SOL    HW125073   3.255   6.253   3.010
 8058SOL    HW225074   3.370   6.167   3.087
 8059SOL     OW25075   3.078   0.467   5.713
 8059SOL    HW125076   3.150   0.530   5.740
 8059SOL    HW225077   3.026   0.506   5.637
 8060SOL     OW25078   0.378   1.992   6.305
 8060SOL    HW125079   0.302   1.945   6.350
 8060SOL    HW225080   0.390   2.082   6.346
 8061SOL     OW25081   0.590   0.511   2.442
 8061SOL    HW125082   0.618   0.529   2.347
 8061SOL    HW225083   0.522   0.438   2.443
 8062SOL     OW25084   4.078   5.109   4.878
 8062SOL    HW125085   4.005   5.103   4.946
 8062SOL    HW225086   4.167   5.110   4.924
 8063SOL     OW25087   2.788   1.072   3.344
 8063SOL    HW125088   2.746   1.094   3.256
 8063SOL    HW225089   2.726   1.097   3.418
 8064SOL     OW25090   6.277   2.610   0.292
 8064SOL    HW125091   6.190   2.592   0.246
 8064SOL    HW225092   6.264   2.605   0.391
 8065SOL     OW25093   3.038   6.545   4.241
 8065SOL    HW125094   2.955   6.538   4.296
 8065SOL    HW225095   3.115   6.569   4.299
 8066SOL     OW25096   6.473   0.232   4.804
 8066SOL    HW125097   6.540   0.281   4.860
 8066SOL    HW225098   6.520   0.187   4.728
 8067SOL     OW25099   4.826   2.451   3.369
 8067SOL    HW125100   4.739   2.462   3.417
 8067SOL    HW225101   4.858   2.357   3.380
 8068SOL     OW25102   0.471   4.528   1.106
 8068SOL    HW125103   0.457   4.460   1.178
 8068SOL    HW225104   0.460   4.484   1.017
 8069SOL     OW25105   2.257   4.727   1.992
 8069SOL    HW125106   2.162   4.698   1.982
 8069SOL    HW225107   2.314   4.650   2.018
 8070SOL     OW25108   4.120   2.781   0.262
 8070SOL    HW125109   4.115   2.828   0.174
 8070SOL    HW225110   4.215   2.781   0.295
 8071SOL     OW25111   3.061   6.315   5.151
 8071SOL    HW125112   2.992   6.338   5.083
 8071SOL    HW225113   3.069   6.216   5.159
 8072SOL     OW25114   3.195   2.035   0.642
 8072SOL    HW125115   3.103   2.014   0.609
 8072SOL    HW225116   3.245   2.085   0.572
 8073SOL     OW25117   2.826   5.687   5.180
 8073SOL    HW125118   2.741   5.638   5.165
 8073SOL    HW225119   2.827   5.771   5.125
 8074SOL     OW25120   2.658   1.092   1.499
 8074SOL    HW125121   2.636   1.022   1.431
 8074SOL    HW225122   2.741   1.141   1.470
 8075SOL     OW25123   0.290   0.589   0.202
 8075SOL    HW125124   0.342   0.604   0.117
 8075SOL    HW225125   0.215   0.525   0.184
 8076SOL     OW25126   6.443   0.200   5.161
 8076SOL    HW125127   6.448   0.258   5.242
 8076SOL    HW225128   6.393   0.247   5.088
 8077SOL     OW25129   3.747   6.270   2.497
 8077SOL    HW125130   3.728   6.207   2.422
 8077SOL    HW225131   3.729   6.364   2.468
 8078SOL     OW25132   0.697   1.729   1.610
 8078SOL    HW125133   0.609   1.682   1.618
 8078SOL    HW225134   0.687   1.823   1.644
 8079SOL     OW25135   6.608   1.558   3.900
 8079SOL    HW125136   6.670   1.518   3.967
 8079SOL    HW225137   6.600   1.497   3.821
 8080SOL     OW25138   0.977   2.460   2.569
 8080SOL    HW125139   0.895   2.497   2.526
 8080SOL    HW225140   0.970   2.361   2.574
 8081SOL     OW25141   6.201   5.614   6.085
 8081SOL    HW125142   6.205   5.559   6.168
 8081SOL    HW225143   6.198   5.554   6.005
 8082SOL     OW25144   3.767   1.066   2.557
 8082SOL    HW125145   3.678   1.022   2.569
 8082SOL    HW225146   3.753   1.163   2.534
 8083SOL     OW25147   5.322   2.473   4.011
 8083SOL    HW125148   5.238   2.510   3.973
 8083SOL    HW225149   5.352   2.528   4.088
 8084SOL     OW25150   2.367   0.659   6.931
 8084SOL    HW125151   2.392   0.652   6.834
 8084SOL    HW225152   2.334   0.570   6.963
 8085SOL     OW25153   6.127   5.739   2.616
 8085SOL    HW125154   6.160   5.710   2.527
 8085SOL    HW225155   6.204   5.773   2.670
 8086SOL     OW25156   0.348   0.984   1.158
 8086SOL    HW125157   0.390   0.893   1.159
 8086SOL    HW225158   0.269   0.984   1.098
 8087SOL     OW25159   1.864   0.958   6.627
 8087SOL    HW125160   1.856   1.033   6.693
 8087SOL    HW225161   1.871   0.996   6.535
 8088SOL     OW25162   5.681   0.467   0.087
 8088SOL    HW125163   5.711   0.526   0.012
 8088SOL    HW225164   5.759   0.415   0.122
 8089SOL     OW25165   5.817   3.127   6.739
 8089SOL    HW125166   5.864   3.136   6.651
 8089SOL    HW225167   5.760   3.045   6.739
 8090SOL     OW25168   3.557   1.105   6.368
 8090SOL    HW125169   3.579   1.191   6.412
 8090SOL    HW225170   3.629   1.038   6.387
 8091SOL     OW25171   1.166   3.903   5.213
 8091SOL    HW125172   1.104   3.853   5.273
 8091SOL    HW225173   1.234   3.951   5.267
 8092SOL     OW25174   4.548   2.060   5.522
 8092SOL    HW125175   4.617   2.020   5.580
 8092SOL    HW225176   4.589   2.087   5.434
 8093SOL     OW25177   2.837   5.386   3.272
 8093SOL    HW125178   2.808   5.381   3.176
 8093SOL    HW225179   2.757   5.373   3.331
 8094SOL     OW25180   0.599   2.825   4.856
 8094SOL    HW125181   0.648   2.878   4.926
 8094SOL    HW225182   0.503   2.855   4.854
 8095SOL     OW25183   0.682   4.050   5.003
 8095SOL    HW125184   0.758   4.051   4.938
 8095SOL    HW225185   0.656   4.144   5.025
 8096SOL     OW25186   2.524   0.771   2.267
 8096SOL    HW125187   2.548   0.778   2.364
 8096SOL    HW225188   2.455   0.700   2.254
 8097SOL     OW25189   4.182   6.785   4.518
 8097SOL    HW125190   4.230   6.697   4.513
 8097SOL    HW225191   4.204   6.839   4.437
 8098SOL     OW25192   2.450   6.507   3.956
 8098SOL    HW125193   2.466   6.491   3.859
 8098SOL    HW225194   2.532   6.483   4.008
 8099SOL     OW25195   4.761   6.464   4.492
 8099SOL    HW125196   4.676   6.516   4.505
 8099SOL    HW225197   4.837   6.527   4.478
 8100SOL     OW25198   6.730   1.271   6.793
 8100SOL    HW125199   6.688   1.356   6.824
 8100SOL    HW225200   6.829   1.283   6.784
 8101SOL     OW25201   1.412   5.756   0.638
 8101SOL    HW125202   1.509   5.732   0.640
 8101SOL    HW225203   1.400   5.844   0.592
 8102SOL     OW25204   0.900   4.148   3.146
 8102SOL    HW125205   0.921   4.083   3.074
 8102SOL    HW225206   0.853   4.228   3.106
 8103SOL     OW25207   3.936   0.219   1.838
 8103SOL    HW125208   3.986   0.151   1.890
 8103SOL    HW225209   3.991   0.249   1.760
 8104SOL     OW25210   1.502   0.651   6.274
 8104SOL    HW125211   1.565   0.574   6.274
 8104SOL    HW225212   1.535   0.722   6.336
 8105SOL     OW25213   6.862   2.786   2.494
 8105SOL    HW125214   6.930   2.722   2.458
 8105SOL    HW225215   6.822   2.748   2.577
 8106SOL     OW25216   2.673   6.239   3.250
 8106SOL    HW125217   2.723   6.163   3.209
 8106SOL    HW225218   2.592   6.259   3.196
 8107SOL     OW25219   1.147   5.607   4.055
 8107SOL    HW125220   1.210   5.677   4.022
 8107SOL    HW225221   1.139   5.534   3.987
 8108SOL     OW25222   6.852   2.514   6.375
 8108SOL    HW125223   6.826   2.601   6.334
 8108SOL    HW225224   6.774   2.476   6.426
 8109SOL     OW25225   0.281   3.255   6.357
 8109SOL    HW125226   0.221   3.239   6.278
 8109SOL    HW225227   0.229   3.297   6.430
 8110SOL     OW25228   3.835   5.201   2.260
 8110SOL    HW125229   3.855   5.107   2.232
 8110SOL    HW225230   3.855   5.264   2.185
 8111SOL     OW25231   4.883   1.183   4.555
 8111SOL    HW125232   4.965   1.184   4.497
 8111SOL    HW225233   4.873   1.271   4.600
 8112SOL     OW25234   2.536   2.531   4.235
 8112SOL    HW125235   2.458   2.563   4.181
 8112SOL    HW225236   2.511   2.526   4.331
 8113SOL     OW25237   0.287   3.314   0.379
 8113SOL    HW125238   0.333   3.248   0.439
 8113SOL    HW225239   0.193   3.284   0.362
 8114SOL     OW25240   1.890   3.683   2.493
 8114SOL    HW125241   1.987   3.681   2.465
 8114SOL    HW225242   1.868   3.773   2.531
 8115SOL     OW25243   3.303   6.621   6.258
 8115SOL    HW125244   3.286   6.709   6.302
 8115SOL    HW225245   3.293   6.631   6.159
 8116SOL     OW25246   4.048   4.471   0.194
 8116SOL    HW125247   4.048   4.528   0.112
 8116SOL    HW225248   3.955   4.467   0.232
 8117SOL     OW25249   1.891   0.237   3.326
 8117SOL    HW125250   1.990   0.242   3.319
 8117SOL    HW225251   1.849   0.284   3.249
 8118SOL     OW25252   5.535   4.010   5.650
 8118SOL    HW125253   5.459   4.065   5.685
 8118SOL    HW225254   5.503   3.918   5.631
 8119SOL     OW25255   5.562   6.660   6.444
 8119SOL    HW125256   5.469   6.689   6.420
 8119SOL    HW225257   5.617   6.653   6.361
 8120SOL     OW25258   3.077   4.691   1.024
 8120SOL    HW125259   3.128   4.773   1.000
 8120SOL    HW225260   2.980   4.714   1.036
 8121SOL     OW25261   0.783   4.692   1.144
 8121SOL    HW125262   0.746   4.654   1.059
 8121SOL    HW225263   0.877   4.660   1.156
 8122SOL     OW25264   0.089   4.844   2.825
 8122SOL    HW125265   0.187   4.861   2.828
 8122SOL    HW225266   0.069   4.778   2.752
 8123SOL     OW25267   0.309   2.099   6.975
 8123SOL    HW125268   0.260   2.173   6.929
 8123SOL    HW225269   0.296   2.106   0.051
 8124SOL     OW25270   5.629   5.842   2.709
 8124SOL    HW125271   5.551   5.901   2.730
 8124SOL    HW225272   5.625   5.761   2.766
 8125SOL     OW25273   1.613   1.108   3.286
 8125SOL    HW125274   1.582   1.122   3.192
 8125SOL    HW225275   1.707   1.142   3.296
 8126SOL     OW25276   5.554   5.198   3.386
 8126SOL    HW125277   5.546   5.163   3.479
 8126SOL    HW225278   5.586   5.125   3.326
 8127SOL     OW25279   3.228   3.329   6.285
 8127SOL    HW125280   3.184   3.248   6.246
 8127SOL    HW225281   3.218   3.327   6.385
 8128SOL     OW25282   2.960   2.143   2.252
 8128SOL    HW125283   2.891   2.145   2.325
 8128SOL    HW225284   2.936   2.210   2.182
 8129SOL     OW25285   3.441   1.748   6.283
 8129SOL    HW125286   3.393   1.835   6.295
 8129SOL    HW225287   3.374   1.674   6.279
 8130SOL     OW25288   0.803   5.348   6.710
 8130SOL    HW125289   0.822   5.355   6.808
 8130SOL    HW225290   0.710   5.314   6.697
 8131SOL     OW25291   3.030   1.712   1.842
 8131SOL    HW125292   2.973   1.734   1.921
 8131SOL    HW225293   3.090   1.790   1.822
 8132SOL     OW25294   5.705   6.810   5.228
 8132SOL    HW125295   5.640   6.739   5.199
 8132SOL    HW225296   5.659   6.899   5.228
 8133SOL     OW25297   3.019   5.213   2.477
 8133SOL    HW125298   2.972   5.128   2.500
 8133SOL    HW225299   3.079   5.199   2.398
 8134SOL     OW25300   0.011   1.736   6.611
 8134SOL    HW125301   0.099   1.755   6.566
 8134SOL    HW225302   0.025   1.666   6.681
 8135SOL     OW25303   2.411   0.801   1.679
 8135SOL    HW125304   2.468   0.821   1.759
 8135SOL    HW225305   2.366   0.885   1.648
 8136SOL     OW25306   4.802   5.247   2.600
 8136SOL    HW125307   4.873   5.303   2.556
 8136SOL    HW225308   4.812   5.253   2.699
 8137SOL     OW25309   3.163   0.749   4.929
 8137SOL    HW125310   3.207   0.753   4.839
 8137SOL    HW225311   3.096   0.823   4.937
 8138SOL     OW25312   5.302   1.785   1.830
 8138SOL    HW125313   5.248   1.830   1.900
 8138SOL    HW225314   5.291   1.833   1.743
 8139SOL     OW25315   0.400   0.966   1.700
 8139SOL    HW125316   0.391   0.905   1.778
 8139SOL    HW225317   0.451   0.919   1.627
 8140SOL     OW25318   5.761   0.462   5.999
 8140SOL    HW125319   5.749   0.363   5.988
 8140SOL    HW225320   5.842   0.492   5.949
 8141SOL     OW25321   4.391   5.448   5.762
 8141SOL    HW125322   4.482   5.413   5.788
 8141SOL    HW225323   4.368   5.526   5.820
 8142SOL     OW25324   6.645   5.529   0.496
 8142SOL    HW125325   6.706   5.479   0.558
 8142SOL    HW225326   6.624   5.618   0.535
 8143SOL     OW25327   6.546   4.505   0.459
 8143SOL    HW125328   6.522   4.414   0.492
 8143SOL    HW225329   6.493   4.574   0.509
 8144SOL     OW25330   5.670   6.028   6.809
 8144SOL    HW125331   5.759   5.983   6.813
 8144SOL    HW225332   5.676   6.111   6.754
 8145SOL     OW25333   5.257   6.006   1.360
 8145SOL    HW125334   5.353   6.034   1.368
 8145SOL    HW225335   5.250   5.907   1.368
 8146SOL     OW25336   3.583   0.991   5.005
 8146SOL    HW125337   3.625   0.947   5.084
 8146SOL    HW225338   3.509   1.051   5.035
 8147SOL     OW25339   5.697   2.804   3.032
 8147SOL    HW125340   5.789   2.802   2.992
 8147SOL    HW225341   5.702   2.844   3.124
 8148SOL     OW25342   5.418   4.404   1.689
 8148SOL    HW125343   5.377   4.373   1.775
 8148SOL    HW225344   5.517   4.387   1.691
 8149SOL     OW25345   2.641   6.167   2.026
 8149SOL    HW125346   2.664   6.261   2.052
 8149SOL    HW225347   2.717   6.106   2.049
 8150SOL     OW25348   0.164   5.015   6.847
 8150SOL    HW125349   0.173   4.980   6.753
 8150SOL    HW225350   0.150   5.114   6.844
 8151SOL     OW25351   6.468   2.328   2.227
 8151SOL    HW125352   6.478   2.427   2.234
 8151SOL    HW225353   6.502   2.285   2.311
 8152SOL     OW25354   0.609   2.476   2.793
 8152SOL    HW125355   0.666   2.418   2.851
 8152SOL    HW225356   0.545   2.527   2.850
 8153SOL     OW25357   3.772   0.388   2.904
 8153SOL    HW125358   3.799   0.373   2.999
 8153SOL    HW225359   3.741   0.301   2.865
 8154SOL     OW25360   2.917   5.934   3.725
 8154SOL    HW125361   2.965   5.898   3.645
 8154SOL    HW225362   2.951   5.888   3.807
 8155SOL     OW25363   2.590   3.344   1.747
 8155SOL    HW125364   2.497   3.363   1.777
 8155SOL    HW225365   2.588   3.276   1.673
 8156SOL     OW25366   5.307   6.896   6.031
 8156SOL    HW125367   5.248   6.923   5.955
 8156SOL    HW225368   5.272   6.935   6.116
 8157SOL     OW25369   5.925   5.432   6.227
 8157SOL    HW125370   5.951   5.398   6.318
 8157SOL    HW225371   5.932   5.532   6.226
 8158SOL     OW25372   0.598   5.502   1.192
 8158SOL    HW125373   0.648   5.437   1.249
 8158SOL    HW225374   0.549   5.567   1.250
 8159SOL     OW25375   2.733   6.285   2.805
 8159SOL    HW125376   2.800   6.326   2.744
 8159SOL    HW225377   2.641   6.313   2.776
 8160SOL     OW25378   4.383   1.622   1.464
 8160SOL    HW125379   4.335   1.570   1.533
 8160SOL    HW225380   4.446   1.562   1.414
 8161SOL     OW25381   5.151   1.289   0.549
 8161SOL    HW125382   5.220   1.306   0.479
 8161SOL    HW225383   5.124   1.375   0.591
 8162SOL     OW25384   6.404   0.125   6.234
 8162SOL    HW125385   6.462   0.082   6.304
 8162SOL    HW225386   6.360   0.206   6.273
 8163SOL     OW25387   2.246   4.081   5.566
 8163SOL    HW125388   2.304   4.142   5.619
 8163SOL    HW225389   2.253   3.988   5.602
 8164SOL     OW25390   5.931   3.920   0.618
 8164SOL    HW125391   5.895   3.839   0.664
 8164SOL    HW225392   5.999   3.893   0.550
 8165SOL     OW25393   1.104   4.450   0.006
 8165SOL    HW125394   1.157   4.441   0.091
 8165SOL    HW225395   1.146   4.394   6.958
 8166SOL     OW25396   2.385   1.020   2.217
 8166SOL    HW125397   2.400   1.102   2.272
 8166SOL    HW225398   2.455   0.952   2.238
 8167SOL     OW25399   5.489   1.331   4.145
 8167SOL    HW125400   5.570   1.350   4.201
 8167SOL    HW225401   5.515   1.333   4.048
 8168SOL     OW25402   3.199   0.918   2.663
 8168SOL    HW125403   3.236   0.826   2.648
 8168SOL    HW225404   3.132   0.939   2.591
 8169SOL     OW25405   5.023   3.258   1.590
 8169SOL    HW125406   5.089   3.265   1.665
 8169SOL    HW225407   4.938   3.218   1.624
 8170SOL     OW25408   1.584   6.006   3.116
 8170SOL    HW125409   1.499   5.960   3.143
 8170SOL    HW225410   1.568   6.060   3.033
 8171SOL     OW25411   0.991   1.784   6.359
 8171SOL    HW125412   1.085   1.754   6.340
 8171SOL    HW225413   0.990   1.849   6.434
 8172SOL     OW25414   0.636   0.570   1.391
 8172SOL    HW125415   0.714   0.548   1.333
 8172SOL    HW225416   0.601   0.487   1.434
 8173SOL     OW25417   3.578   1.737   0.592
 8173SOL    HW125418   3.530   1.670   0.537
 8173SOL    HW225419   3.549   1.729   0.688
 8174SOL     OW25420   5.122   1.552   1.410
 8174SOL    HW125421   5.175   1.467   1.411
 8174SOL    HW225422   5.136   1.601   1.497
 8175SOL     OW25423   0.317   2.755   6.062
 8175SOL    HW125424   0.371   2.814   6.122
 8175SOL    HW225425   0.319   2.792   5.969
 8176SOL     OW25426   2.867   5.827   1.865
 8176SOL    HW125427   2.962   5.805   1.888
 8176SOL    HW225428   2.822   5.745   1.830
 8177SOL     OW25429   1.722   6.062   4.050
 8177SOL    HW125430   1.699   5.965   4.054
 8177SOL    HW225431   1.781   6.085   4.127
 8178SOL     OW25432   1.423   0.152   6.589
 8178SOL    HW125433   1.444   0.236   6.539
 8178SOL    HW225434   1.446   0.164   6.686
 8179SOL     OW25435   3.505   3.507   0.286
 8179SOL    HW125436   3.599   3.534   0.304
 8179SOL    HW225437   3.502   3.409   0.268
 8180SOL     OW25438   6.289   0.102   3.885
 8180SOL    HW125439   6.379   0.130   3.919
 8180SOL    HW225440   6.234   0.184   3.866
 8181SOL     OW25441   2.076   1.228   2.784
 8181SOL    HW125442   2.039   1.301   2.841
 8181SOL    HW225443   2.127   1.267   2.708
 8182SOL     OW25444   3.802   1.567   6.729
 8182SOL    HW125445   3.751   1.645   6.692
 8182SOL    HW225446   3.888   1.557   6.679
 8183SOL     OW25447   0.745   2.645   4.707
 8183SOL    HW125448   0.682   2.716   4.738
 8183SOL    HW225449   0.726   2.623   4.611
 8184SOL     OW25450   5.767   1.705   5.725
 8184SOL    HW125451   5.860   1.736   5.744
 8184SOL    HW225452   5.710   1.719   5.807
 8185SOL     OW25453   2.961   0.433   0.243
 8185SOL    HW125454   2.932   0.425   0.339
 8185SOL    HW225455   2.886   0.404   0.183
 8186SOL     OW25456   2.933   6.538   6.039
 8186SOL    HW125457   3.004   6.589   5.990
 8186SOL    HW225458   2.873   6.492   5.973
 8187SOL     OW25459   1.581   1.992   4.898
 8187SOL    HW125460   1.512   1.993   4.971
 8187SOL    HW225461   1.667   2.027   4.934
 8188SOL     OW25462   5.253   1.832   2.324
 8188SOL    HW125463   5.294   1.912   2.368
 8188SOL    HW225464   5.204   1.778   2.393
 8189SOL     OW25465   4.985   4.340   2.005
 8189SOL    HW125466   4.898   4.299   1.978
 8189SOL    HW225467   5.043   4.351   1.924
 8190SOL     OW25468   5.056   4.940   4.292
 8190SOL    HW125469   4.975   4.989   4.261
 8190SOL    HW225470   5.095   4.888   4.216
 8191SOL     OW25471   2.148   5.548   3.629
 8191SOL    HW125472   2.199   5.488   3.568
 8191SOL    HW225473   2.081   5.495   3.681
 8192SOL     OW25474   3.033   5.901   0.009
 8192SOL    HW125475   2.954   5.960   0.029
 8192SOL    HW225476   3.117   5.955   0.019
 8193SOL     OW25477   5.635   6.800   4.914
 8193SOL    HW125478   5.636   6.802   5.014
 8193SOL    HW225479   5.722   6.765   4.880
 8194SOL     OW25480   6.311   2.646   6.718
 8194SOL    HW125481   6.223   2.619   6.757
 8194SOL    HW225482   6.351   2.718   6.775
 8195SOL     OW25483   0.385   0.772   0.767
 8195SOL    HW125484   0.435   0.721   0.837
 8195SOL    HW225485   0.449   0.809   0.700
 8196SOL     OW25486   3.654   6.809   5.582
 8196SOL    HW125487   3.571   6.756   5.562
 8196SOL    HW225488   3.677   6.866   5.503
 8197SOL     OW25489   5.653   1.736   5.981
 8197SOL    HW125490   5.623   1.828   6.005
 8197SOL    HW225491   5.690   1.690   6.062
 8198SOL     OW25492   3.577   6.492   1.964
 8198SOL    HW125493   3.637   6.488   2.044
 8198SOL    HW225494   3.569   6.400   1.924
 8199SOL     OW25495   6.814   3.989   0.462
 8199SOL    HW125496   6.738   3.966   0.401
 8199SOL    HW225497   6.875   3.910   0.470
 8200SOL     OW25498   4.384   4.698   1.354
 8200SOL    HW125499   4.430   4.611   1.339
 8200SOL    HW225500   4.285   4.686   1.343
 8201SOL     OW25501   5.152   0.737   4.719
 8201SOL    HW125502   5.165   0.707   4.814
 8201SOL    HW225503   5.057   0.766   4.706
 8202SOL     OW25504   1.370   5.227   4.185
 8202SOL    HW125505   1.291   5.248   4.243
 8202SOL    HW225506   1.386   5.129   4.184
 8203SOL     OW25507   4.980   3.604   1.006
 8203SOL    HW125508   5.011   3.510   0.993
 8203SOL    HW225509   4.949   3.616   1.100
 8204SOL     OW25510   3.523   6.304   0.717
 8204SOL    HW125511   3.434   6.296   0.673
 8204SOL    HW225512   3.595   6.283   0.651
 8205SOL     OW25513   5.642   4.898   1.493
 8205SOL    HW125514   5.546   4.914   1.517
 8205SOL    HW225515   5.647   4.856   1.402
 8206SOL     OW25516   3.090   2.489   5.992
 8206SOL    HW125517   3.149   2.569   5.980
 8206SOL    HW225518   2.999   2.508   5.955
 8207SOL     OW25519   3.341   4.836   5.312
 8207SOL    HW125520   3.251   4.831   5.268
 8207SOL    HW225521   3.412   4.812   5.246
 8208SOL     OW25522   2.740   6.499   1.315
 8208SOL    HW125523   2.830   6.455   1.323
 8208SOL    HW225524   2.715   6.507   1.219
 8209SOL     OW25525   1.641   1.382   5.116
 8209SOL    HW125526   1.561   1.397   5.057
 8209SOL    HW225527   1.628   1.297   5.167
 8210SOL     OW25528   3.041   0.994   0.574
 8210SOL    HW125529   3.055   1.012   0.477
 8210SOL    HW225530   2.963   0.933   0.586
 8211SOL     OW25531   3.653   4.182   4.649
 8211SOL    HW125532   3.580   4.202   4.714
 8211SOL    HW225533   3.740   4.172   4.698
 8212SOL     OW25534   2.744   0.336   0.721
 8212SOL    HW125535   2.781   0.244   0.712
 8212SOL    HW225536   2.781   0.379   0.803
 8213SOL     OW25537   4.563   5.065   3.530
 8213SOL    HW125538   4.626   4.996   3.565
 8213SOL    HW225539   4.472   5.050   3.569
 8214SOL     OW25540   2.442   5.828   3.962
 8214SOL    HW125541   2.509   5.754   3.966
 8214SOL    HW225542   2.357   5.798   4.007
 8215SOL     OW25543   4.560   6.224   0.253
 8215SOL    HW125544   4.619   6.167   0.196
 8215SOL    HW225545   4.513   6.291   0.195
 8216SOL     OW25546   5.079   6.794   2.513
 8216SOL    HW125547   5.031   6.779   2.426
 8216SOL    HW225548   5.069   6.889   2.540
 8217SOL     OW25549   2.185   4.192   2.564
 8217SOL    HW125550   2.152   4.132   2.638
 8217SOL    HW225551   2.163   4.151   2.476
 8218SOL     OW25552   1.895   6.774   5.342
 8218SOL    HW125553   1.850   6.801   5.427
 8218SOL    HW225554   1.867   6.835   5.269
 8219SOL     OW25555   3.172   3.887   1.554
 8219SOL    HW125556   3.256   3.941   1.544
 8219SOL    HW225557   3.145   3.885   1.650
 8220SOL     OW25558   3.547   4.371   5.431
 8220SOL    HW125559   3.507   4.452   5.475
 8220SOL    HW225560   3.476   4.324   5.379
 8221SOL     OW25561   5.917   4.243   3.147
 8221SOL    HW125562   6.002   4.196   3.123
 8221SOL    HW225563   5.912   4.253   3.246
 8222SOL     OW25564   6.218   2.933   1.115
 8222SOL    HW125565   6.202   3.025   1.151
 8222SOL    HW225566   6.135   2.878   1.128
 8223SOL     OW25567   0.010   5.138   5.456
 8223SOL    HW125568   6.958   5.147   5.522
 8223SOL    HW225569   7.018   5.200   5.380
 8224SOL     OW25570   4.804   1.498   0.784
 8224SOL    HW125571   4.720   1.453   0.754
 8224SOL    HW225572   4.780   1.584   0.831
 8225SOL     OW25573   3.565   0.259   0.208
 8225SOL    HW125574   3.490   0.211   0.254
 8225SOL    HW225575   3.644   0.264   0.269
 8226SOL     OW25576   3.642   0.465   0.535
 8226SOL    HW125577   3.639   0.519   0.619
 8226SOL    HW225578   3.551   0.430   0.515
 8227SOL     OW25579   5.582   1.632   2.624
 8227SOL    HW125580   5.677   1.613   2.648
 8227SOL    HW225581   5.524   1.555   2.650
 8228SOL     OW25582   1.162   1.077   5.610
 8228SOL    HW125583   1.078   1.045   5.567
 8228SOL    HW225584   1.240   1.054   5.552
 8229SOL     OW25585   3.892   5.107   0.861
 8229SOL    HW125586   3.851   5.112   0.952
 8229SOL    HW225587   3.980   5.059   0.867
 8230SOL     OW25588   4.311   0.162   5.491
 8230SOL    HW125589   4.308   0.262   5.490
 8230SOL    HW225590   4.236   0.126   5.437
 8231SOL     OW25591   3.502   1.613   2.083
 8231SOL    HW125592   3.545   1.635   2.171
 8231SOL    HW225593   3.415   1.565   2.100
 8232SOL     OW25594   4.828   1.291   2.087
 8232SOL    HW125595   4.802   1.203   2.049
 8232SOL    HW225596   4.759   1.359   2.063
 8233SOL     OW25597   0.490   0.818   5.913
 8233SOL    HW125598   0.469   0.723   5.934
 8233SOL    HW225599   0.462   0.876   5.989
 8234SOL     OW25600   3.040   3.292   0.019
 8234SOL    HW125601   3.073   3.304   0.112
 8234SOL    HW225602   2.997   3.377   7.011
 8235SOL     OW25603   6.742   5.107   6.963
 8235SOL    HW125604   6.712   5.138   6.873
 8235SOL    HW225605   6.789   5.019   6.954
 8236SOL     OW25606   0.304   6.081   5.898
 8236SOL    HW125607   0.259   5.998   5.865
 8236SOL    HW225608   0.323   6.073   5.996
 8237SOL     OW25609   4.392   5.457   6.693
 8237SOL    HW125610   4.443   5.543   6.696
 8237SOL    HW225611   4.393   5.414   6.783
 8238SOL     OW25612   1.867   5.617   0.153
 8238SOL    HW125613   1.932   5.694   0.156
 8238SOL    HW225614   1.834   5.599   0.246
 8239SOL     OW25615   0.365   1.297   4.749
 8239SOL    HW125616   0.284   1.243   4.727
 8239SOL    HW225617   0.380   1.296   4.848
 8240SOL     OW25618   3.272   3.054   3.349
 8240SOL    HW125619   3.219   3.120   3.404
 8240SOL    HW225620   3.238   3.055   3.255
 8241SOL     OW25621   1.691   3.674   6.509
 8241SOL    HW125622   1.747   3.676   6.591
 8241SOL    HW225623   1.748   3.660   6.428
 8242SOL     OW25624   1.166   3.562   4.496
 8242SOL    HW125625   1.155   3.622   4.417
 8242SOL    HW225626   1.254   3.581   4.540
 8243SOL     OW25627   0.624   4.488   5.977
 8243SOL    HW125628   0.704   4.525   5.930
 8243SOL    HW225629   0.543   4.542   5.952
 8244SOL     OW25630   0.736   0.501   3.280
 8244SOL    HW125631   0.641   0.476   3.258
 8244SOL    HW225632   0.798   0.437   3.233
 8245SOL     OW25633   4.920   1.601   3.952
 8245SOL    HW125634   4.911   1.532   3.880
 8245SOL    HW225635   4.871   1.570   4.034
 8246SOL     OW25636   1.068   4.006   6.789
 8246SOL    HW125637   1.070   3.907   6.776
 8246SOL    HW225638   1.155   4.037   6.828
 8247SOL     OW25639   2.928   4.778   3.777
 8247SOL    HW125640   2.872   4.767   3.859
 8247SOL    HW225641   3.021   4.804   3.803
 8248SOL     OW25642   1.165   5.558   3.354
 8248SOL    HW125643   1.112   5.481   3.320
 8248SOL    HW225644   1.254   5.526   3.388
 8249SOL     OW25645   2.437   2.355   5.174
 8249SOL    HW125646   2.438   2.260   5.144
 8249SOL    HW225647   2.343   2.381   5.199
 8250SOL     OW25648   2.710   1.894   0.751
 8250SOL    HW125649   2.742   1.974   0.800
 8250SOL    HW225650   2.783   1.827   0.744
 8251SOL     OW25651   6.697   2.064   4.664
 8251SOL    HW125652   6.753   2.030   4.589
 8251SOL    HW225653   6.671   2.159   4.647
 8252SOL     OW25654   2.443   2.557   6.689
 8252SOL    HW125655   2.369   2.512   6.739
 8252SOL    HW225656   2.404   2.631   6.633
 8253SOL     OW25657   3.697   5.807   6.224
 8253SOL    HW125658   3.699   5.904   6.244
 8253SOL    HW225659   3.621   5.788   6.161
 8254SOL     OW25660   6.022   4.897   6.639
 8254SOL    HW125661   5.942   4.948   6.606
 8254SOL    HW225662   6.081   4.874   6.561
 8255SOL     OW25663   0.513   0.056   6.412
 8255SOL    HW125664   0.534   0.134   6.353
 8255SOL    HW225665   0.518   6.995   6.359
 8256SOL     OW25666   0.850   6.548   2.459
 8256SOL    HW125667   0.940   6.570   2.421
 8256SOL    HW225668   0.822   6.621   2.521
 8257SOL     OW25669   5.807   4.323   4.198
 8257SOL    HW125670   5.747   4.338   4.120
 8257SOL    HW225671   5.870   4.400   4.207
 8258SOL     OW25672   5.720   2.571   1.713
 8258SOL    HW125673   5.708   2.514   1.795
 8258SOL    HW225674   5.814   2.563   1.680
 8259SOL     OW25675   4.201   2.178   4.360
 8259SOL    HW125676   4.128   2.112   4.379
 8259SOL    HW225677   4.200   2.250   4.429
 8260SOL     OW25678   2.430   6.599   0.225
 8260SOL    HW125679   2.377   6.540   0.165
 8260SOL    HW225680   2.487   6.660   0.170
 8261SOL     OW25681   5.687   6.039   3.133
 8261SOL    HW125682   5.630   6.024   3.214
 8261SOL    HW225683   5.628   6.051   3.053
 8262SOL     OW25684   0.237   4.565   0.735
 8262SOL    HW125685   0.165   4.628   0.765
 8262SOL    HW225686   0.210   4.523   0.648
 8263SOL     OW25687   6.721   2.701   6.170
 8263SOL    HW125688   6.683   2.793   6.183
 8263SOL    HW225689   6.646   2.637   6.152
 8264SOL     OW25690   2.207   0.101   1.656
 8264SOL    HW125691   2.304   0.093   1.633
 8264SOL    HW225692   2.173   0.191   1.629
 8265SOL     OW25693   4.062   0.317   1.613
 8265SOL    HW125694   4.015   0.361   1.537
 8265SOL    HW225695   4.108   0.386   1.669
 8266SOL     OW25696   2.880   0.143   4.326
 8266SOL    HW125697   2.884   0.238   4.358
 8266SOL    HW225698   2.894   0.142   4.227
 8267SOL     OW25699   1.452   5.094   2.438
 8267SOL    HW125700   1.396   5.064   2.515
 8267SOL    HW225701   1.547   5.065   2.452
 8268SOL     OW25702   2.941   3.798   6.585
 8268SOL    HW125703   3.009   3.856   6.629
 8268SOL    HW225704   2.940   3.816   6.486
 8269SOL     OW25705   4.337   2.348   3.252
 8269SOL    HW125706   4.332   2.421   3.320
 8269SOL    HW225707   4.274   2.274   3.278
 8270SOL     OW25708   3.134   0.030   5.399
 8270SOL    HW125709   3.050   0.072   5.365
 8270SOL    HW225710   3.133   0.026   5.498
 8271SOL     OW25711   5.229   6.044   4.562
 8271SOL    HW125712   5.248   6.099   4.482
 8271SOL    HW225713   5.265   6.089   4.644
 8272SOL     OW25714   0.689   0.160   2.318
 8272SOL    HW125715   0.598   0.200   2.334
 8272SOL    HW225716   0.686   0.062   2.336
 8273SOL     OW25717   2.793   7.006   6.829
 8273SOL    HW125718   2.827   0.012   6.740
 8273SOL    HW225719   2.804   0.056   6.895
 8274SOL     OW25720   4.658   4.821   6.880
 8274SOL    HW125721   4.714   4.895   6.918
 8274SOL    HW225722   4.653   4.745   6.945
 8275SOL     OW25723   0.024   0.068   4.536
 8275SOL    HW125724   0.032   6.992   4.537
 8275SOL    HW225725   0.113   0.109   4.519
 8276SOL     OW25726   6.846   2.493   5.521
 8276SOL    HW125727   6.752   2.462   5.512
 8276SOL    HW225728   6.908   2.414   5.520
 8277SOL     OW25729   1.246   6.042   5.432
 8277SOL    HW125730   1.344   6.023   5.440
 8277SOL    HW225731   1.232   6.112   5.362
 8278SOL     OW25732   3.395   1.525   5.928
 8278SOL    HW125733   3.365   1.580   5.849
 8278SOL    HW225734   3.491   1.501   5.917
 8279SOL     OW25735   4.650   5.844   6.927
 8279SOL    HW125736   4.669   5.901   6.847
 8279SOL    HW225737   4.551   5.835   6.938
 8280SOL     OW25738   5.113   2.571   0.355
 8280SOL    HW125739   5.101   2.610   0.264
 8280SOL    HW225740   5.039   2.603   0.415
 8281SOL     OW25741   1.514   5.132   0.463
 8281SOL    HW125742   1.439   5.096   0.407
 8281SOL    HW225743   1.477   5.170   0.547
 8282SOL     OW25744   2.100   2.530   1.445
 8282SOL    HW125745   2.182   2.476   1.426
 8282SOL    HW225746   2.101   2.613   1.390
 8283SOL     OW25747   0.534   5.292   3.729
 8283SOL    HW125748   0.615   5.350   3.722
 8283SOL    HW225749   0.498   5.295   3.822
 8284SOL     OW25750   1.990   2.493   2.635
 8284SOL    HW125751   1.911   2.460   2.582
 8284SOL    HW225752   2.069   2.434   2.618
 8285SOL     OW25753   3.023   4.054   5.692
 8285SOL    HW125754   3.103   4.082   5.638
 8285SOL    HW225755   2.955   4.127   5.692
 8286SOL     OW25756   5.499   0.800   4.557
 8286SOL    HW125757   5.461   0.770   4.644
 8286SOL    HW225758   5.535   0.721   4.508
 8287SOL     OW25759   1.209   6.908   3.909
 8287SOL    HW125760   1.264   6.868   3.982
 8287SOL    HW225761   1.203   6.843   3.833
 8288SOL     OW25762   2.220   1.983   2.252
 8288SOL    HW125763   2.285   2.047   2.293
 8288SOL    HW225764   2.173   2.027   2.176
 8289SOL     OW25765   5.829   1.499   5.440
 8289SOL    HW125766   5.798   1.594   5.447
 8289SOL    HW225767   5.876   1.474   5.525
 8290SOL     OW25768   3.703   2.673   1.522
 8290SOL    HW125769   3.788   2.688   1.571
 8290SOL    HW225770   3.661   2.588   1.555
 8291SOL     OW25771   5.677   6.972   6.481
 8291SOL    HW125772   5.728   6.888   6.464
 8291SOL    HW225773   5.736   0.028   6.463
 8292SOL     OW25774   0.984   5.146   5.359
 8292SOL    HW125775   0.922   5.069   5.375
 8292SOL    HW225776   0.933   5.232   5.365
 8293SOL     OW25777   1.728   4.619   2.441
 8293SOL    HW125778   1.790   4.698   2.445
 8293SOL    HW225779   1.760   4.556   2.370
 8294SOL     OW25780   6.758   4.003   5.773
 8294SOL    HW125781   6.751   3.950   5.858
 8294SOL    HW225782   6.687   4.073   5.772
 8295SOL     OW25783   4.924   3.798   3.061
 8295SOL    HW125784   4.859   3.869   3.036
 8295SOL    HW225785   4.920   3.781   3.159
 8296SOL     OW25786   3.324   5.383   6.911
 8296SOL    HW125787   3.391   5.326   6.959
 8296SOL    HW225788   3.370   5.431   6.836
 8297SOL     OW25789   6.674   4.574   2.609
 8297SOL    HW125790   6.731   4.546   2.686
 8297SOL    HW225791   6.587   4.526   2.613
 8298SOL     OW25792   1.169   0.591   6.705
 8298SOL    HW125793   1.214   0.584   6.616
 8298SOL    HW225794   1.238   0.601   6.776
 8299SOL     OW25795   6.915   3.853   2.021
 8299SOL    HW125796   6.990   3.911   2.051
 8299SOL    HW225797   6.868   3.896   1.943
 8300SOL     OW25798   5.527   5.518   4.176
 8300SOL    HW125799   5.450   5.582   4.172
 8300SOL    HW225800   5.608   5.566   4.209
 8301SOL     OW25801   4.131   6.943   7.022
 8301SOL    HW125802   4.073   6.908   6.949
 8301SOL    HW225803   4.222   6.903   7.014
 8302SOL     OW25804   3.410   6.331   4.438
 8302SOL    HW125805   3.493   6.277   4.452
 8302SOL    HW225806   3.335   6.290   4.489
 8303SOL     OW25807   6.438   0.115   2.237
 8303SOL    HW125808   6.476   0.023   2.240
 8303SOL    HW225809   6.475   0.168   2.313
 8304SOL     OW25810   5.850   3.833   3.826
 8304SOL    HW125811   5.765   3.787   3.852
 8304SOL    HW225812   5.880   3.799   3.737
 8305SOL     OW25813   4.692   5.380   4.186
 8305SOL    HW125814   4.645   5.349   4.104
 8305SOL    HW225815   4.684   5.311   4.258
 8306SOL     OW25816   6.448   0.948   2.620
 8306SOL    HW125817   6.380   1.019   2.603
 8306SOL    HW225818   6.462   0.939   2.718
 8307SOL     OW25819   1.469   5.011   1.378
 8307SOL    HW125820   1.437   5.031   1.470
 8307SOL    HW225821   1.433   5.080   1.314
 8308SOL     OW25822   1.271   4.447   0.241
 8308SOL    HW125823   1.361   4.416   0.210
 8308SOL    HW225824   1.218   4.369   0.275
 8309SOL     OW25825   6.388   4.964   4.689
 8309SOL    HW125826   6.423   4.873   4.667
 8309SOL    HW225827   6.335   4.959   4.774
 8310SOL     OW25828   0.327   6.673   0.544
 8310SOL    HW125829   0.396   6.685   0.614
 8310SOL    HW225830   0.249   6.733   0.563
 8311SOL     OW25831   5.248   6.281   3.981
 8311SOL    HW125832   5.271   6.370   3.943
 8311SOL    HW225833   5.175   6.239   3.926
 8312SOL     OW25834   5.383   6.990   0.281
 8312SOL    HW125835   5.476   0.004   0.295
 8312SOL    HW225836   5.380   6.938   0.197
 8313SOL     OW25837   3.644   6.519   5.442
 8313SOL    HW125838   3.737   6.544   5.470
 8313SOL    HW225839   3.636   6.419   5.440
 8314SOL     OW25840   5.178   6.161   6.370
 8314SOL    HW125841   5.258   6.193   6.420
 8314SOL    HW225842   5.145   6.234   6.310
 8315SOL     OW25843   3.574   3.434   4.365
 8315SOL    HW125844   3.635   3.403   4.291
 8315SOL    HW225845   3.535   3.355   4.412
 8316SOL     OW25846   1.135   3.234   6.799
 8316SOL    HW125847   1.183   3.148   6.816
 8316SOL    HW225848   1.202   3.307   6.783
 8317SOL     OW25849   1.802   2.109   5.034
 8317SOL    HW125850   1.801   2.157   5.121
 8317SOL    HW225851   1.818   2.174   4.960
 8318SOL     OW25852   4.024   0.386   6.276
 8318SOL    HW125853   4.070   0.462   6.230
 8318SOL    HW225854   3.932   0.374   6.238
 8319SOL     OW25855   0.978   0.068   6.094
 8319SOL    HW125856   0.923   0.127   6.152
 8319SOL    HW225857   0.933   7.003   6.083
 8320SOL     OW25858   3.080   4.004   4.595
 8320SOL    HW125859   3.179   4.008   4.583
 8320SOL    HW225860   3.057   4.020   4.691
 8321SOL     OW25861   0.022   0.482   6.700
 8321SOL    HW125862   0.087   0.439   6.638
 8321SOL    HW225863   6.953   0.448   6.681
 8322SOL     OW25864   0.195   1.079   0.476
 8322SOL    HW125865   0.216   1.022   0.396
 8322SOL    HW225866   0.129   1.031   0.534
 8323SOL     OW25867   4.960   4.524   1.111
 8323SOL    HW125868   4.899   4.566   1.045
 8323SOL    HW225869   4.915   4.447   1.156
 8324SOL     OW25870   6.044   0.923   6.676
 8324SOL    HW125871   5.944   0.924   6.686
 8324SOL    HW225872   6.077   1.017   6.669
 8325SOL     OW25873   1.563   5.364   4.601
 8325SOL    HW125874   1.586   5.391   4.508
 8325SOL    HW225875   1.576   5.265   4.611
 8326SOL     OW25876   2.697   3.940   0.230
 8326SOL    HW125877   2.626   3.988   0.178
 8326SOL    HW225878   2.787   3.975   0.201
 8327SOL     OW25879   0.766   0.804   5.794
 8327SOL    HW125880   0.745   0.778   5.700
 8327SOL    HW225881   0.698   0.869   5.827
 8328SOL     OW25882   0.588   6.179   5.648
 8328SOL    HW125883   0.505   6.227   5.675
 8328SOL    HW225884   0.646   6.165   5.728
 8329SOL     OW25885   0.871   2.729   4.950
 8329SOL    HW125886   0.855   2.827   4.939
 8329SOL    HW225887   0.843   2.681   4.867
 8330SOL     OW25888   4.032   0.942   6.547
 8330SOL    HW125889   4.023   0.877   6.623
 8330SOL    HW225890   3.951   0.938   6.489
 8331SOL     OW25891   2.184   2.188   0.576
 8331SOL    HW125892   2.206   2.163   0.481
 8331SOL    HW225893   2.266   2.180   0.632
 8332SOL     OW25894   5.153   4.824   1.650
 8332SOL    HW125895   5.215   4.753   1.618
 8332SOL    HW225896   5.113   4.796   1.737
 8333SOL     OW25897   1.865   4.993   1.112
 8333SOL    HW125898   1.829   4.900   1.112
 8333SOL    HW225899   1.830   5.044   1.191
 8334SOL     OW25900   3.318   2.022   6.748
 8334SOL    HW125901   3.373   2.098   6.781
 8334SOL    HW225902   3.360   1.984   6.666
 8335SOL     OW25903   4.577   3.117   6.984
 8335SOL    HW125904   4.569   3.019   6.964
 8335SOL    HW225905   4.569   3.131   0.060
 8336SOL     OW25906   1.357   3.631   2.465
 8336SOL    HW125907   1.354   3.540   2.508
 8336SOL    HW225908   1.437   3.636   2.405
 8337SOL     OW25909   0.996   1.121   5.145
 8337SOL    HW125910   0.983   1.212   5.105
 8337SOL    HW225911   1.053   1.129   5.227
 8338SOL     OW25912   3.784   4.940   1.881
 8338SOL    HW125913   3.839   4.898   1.808
 8338SOL    HW225914   3.707   4.880   1.902
 8339SOL     OW25915   0.458   0.820   0.509
 8339SOL    HW125916   0.390   0.842   0.439
 8339SOL    HW225917   0.523   0.896   0.517
 8340SOL     OW25918   5.090   2.733   1.016
 8340SOL    HW125919   5.090   2.785   1.101
 8340SOL    HW225920   5.016   2.766   0.957
 8341SOL     OW25921   3.437   0.161   6.338
 8341SOL    HW125922   3.447   0.256   6.368
 8341SOL    HW225923   3.526   0.116   6.339
 8342SOL     OW25924   3.478   6.657   0.130
 8342SOL    HW125925   3.486   6.598   0.049
 8342SOL    HW225926   3.463   6.751   0.100
 8343SOL     OW25927   6.338   5.013   3.766
 8343SOL    HW125928   6.438   5.007   3.771
 8343SOL    HW225929   6.313   5.098   3.719
 8344SOL     OW25930   0.559   4.404   4.466
 8344SOL    HW125931   0.626   4.439   4.401
 8344SOL    HW225932   0.473   4.387   4.419
 8345SOL     OW25933   5.108   1.156   3.236
 8345SOL    HW125934   5.070   1.241   3.200
 8345SOL    HW225935   5.124   1.092   3.160
 8346SOL     OW25936   4.647   3.149   6.340
 8346SOL    HW125937   4.613   3.227   6.392
 8346SOL    HW225938   4.630   3.065   6.390
 8347SOL     OW25939   2.270   6.948   6.115
 8347SOL    HW125940   2.203   6.887   6.072
 8347SOL    HW225941   2.321   6.898   6.184
 8348SOL     OW25942   3.579   6.774   1.256
 8348SOL    HW125943   3.606   6.689   1.210
 8348SOL    HW225944   3.635   6.849   1.223
 8349SOL     OW25945   0.212   6.856   2.192
 8349SOL    HW125946   0.211   6.794   2.270
 8349SOL    HW225947   0.122   6.899   2.182
 8350SOL     OW25948   2.910   0.008   6.230
 8350SOL    HW125949   2.810   0.001   6.234
 8350SOL    HW225950   2.945   0.035   6.320
 8351SOL     OW25951   6.122   5.690   4.318
 8351SOL    HW125952   6.215   5.669   4.287
 8351SOL    HW225953   6.086   5.612   4.370
 8352SOL     OW25954   3.038   6.370   2.200
 8352SOL    HW125955   3.135   6.346   2.193
 8352SOL    HW225956   3.006   6.354   2.294
 8353SOL     OW25957   1.049   3.846   1.719
 8353SOL    HW125958   1.052   3.764   1.776
 8353SOL    HW225959   1.105   3.832   1.638
 8354SOL     OW25960   3.460   6.312   4.010
 8354SOL    HW125961   3.395   6.354   4.073
 8354SOL    HW225962   3.462   6.365   3.925
 8355SOL     OW25963   1.426   6.998   6.322
 8355SOL    HW125964   1.374   0.002   6.241
 8355SOL    HW225965   1.431   0.051   6.386
 8356SOL     OW25966   1.203   5.789   2.288
 8356SOL    HW125967   1.119   5.741   2.314
 8356SOL    HW225968   1.249   5.738   2.214
 8357SOL     OW25969   4.054   5.555   5.818
 8357SOL    HW125970   4.095   5.465   5.828
 8357SOL    HW225971   3.995   5.557   5.738
 8358SOL     OW25972   1.534   2.936   5.516
 8358SOL    HW125973   1.550   3.026   5.556
 8358SOL    HW225974   1.440   2.931   5.482
 8359SOL     OW25975   2.413   0.597   4.604
 8359SOL    HW125976   2.315   0.586   4.622
 8359SOL    HW225977   2.442   0.527   4.538
 8360SOL     OW25978   4.668   6.773   0.652
 8360SOL    HW125979   4.763   6.757   0.624
 8360SOL    HW225980   4.616   6.689   0.642
 8361SOL     OW25981   2.215   0.137   6.273
 8361SOL    HW125982   2.115   0.137   6.276
 8361SOL    HW225983   2.246   0.067   6.209
 8362SOL     OW25984   6.525   2.766   0.463
 8362SOL    HW125985   6.573   2.680   0.481
 8362SOL    HW225986   6.485   2.764   0.372
 8363SOL     OW25987   4.062   2.133   0.520
 8363SOL    HW125988   4.056   2.233   0.513
 8363SOL    HW225989   4.024   2.091   0.438
 8364SOL     OW25990   0.398   2.979   3.829
 8364SOL    HW125991   0.390   2.882   3.850
 8364SOL    HW225992   0.436   2.991   3.737
 8365SOL     OW25993   1.931   2.504   2.047
 8365SOL    HW125994   1.927   2.466   2.139
 8365SOL    HW225995   1.863   2.459   1.989
 8366SOL     OW25996   3.774   5.753   1.110
 8366SOL    HW125997   3.840   5.796   1.049
 8366SOL    HW225998   3.796   5.778   1.205
 8367SOL     OW25999   2.903   5.195   4.564
 8367SOL    HW126000   2.810   5.178   4.595
 8367SOL    HW226001   2.936   5.116   4.513
 8368SOL     OW26002   0.501   6.207   6.920
 8368SOL    HW126003   0.562   6.280   6.950
 8368SOL    HW226004   0.553   6.138   6.870
 8369SOL     OW26005   0.815   1.847   1.287
 8369SOL    HW126006   0.728   1.826   1.332
 8369SOL    HW226007   0.863   1.762   1.267
 8370SOL     OW26008   2.722   2.273   6.884
 8370SOL    HW126009   2.653   2.340   6.911
 8370SOL    HW226010   2.688   2.220   6.806
 8371SOL     OW26011   1.588   3.196   5.573
 8371SOL    HW126012   1.684   3.184   5.602
 8371SOL    HW226013   1.548   3.273   5.622
 8372SOL     OW26014   2.927   6.599   2.035
 8372SOL    HW126015   2.997   6.549   2.086
 8372SOL    HW226016   2.971   6.655   1.964
 8373SOL     OW26017   0.751   1.734   4.654
 8373SOL    HW126018   0.775   1.793   4.732
 8373SOL    HW226019   0.667   1.768   4.612
 8374SOL     OW26020   1.363   0.690   3.897
 8374SOL    HW126021   1.459   0.701   3.920
 8374SOL    HW226022   1.347   0.719   3.803
 8375SOL     OW26023   4.098   0.903   5.900
 8375SOL    HW126024   4.195   0.913   5.878
 8375SOL    HW226025   4.087   0.895   5.999
 8376SOL     OW26026   1.427   1.228   3.486
 8376SOL    HW126027   1.500   1.210   3.420
 8376SOL    HW226028   1.467   1.256   3.573
 8377SOL     OW26029   5.172   5.579   0.320
 8377SOL    HW126030   5.204   5.646   0.253
 8377SOL    HW226031   5.183   5.616   0.412
 8378SOL     OW26032   5.233   5.468   3.086
 8378SOL    HW126033   5.135   5.458   3.106
 8378SOL    HW226034   5.281   5.384   3.109
 8379SOL     OW26035   4.733   2.082   1.679
 8379SOL    HW126036   4.702   2.000   1.632
 8379SOL    HW226037   4.710   2.076   1.776
 8380SOL     OW26038   6.812   6.661   6.970
 8380SOL    HW126039   6.735   6.624   7.021
 8380SOL    HW226040   6.898   6.629   7.011
 8381SOL     OW26041   0.252   2.524   2.788
 8381SOL    HW126042   0.307   2.475   2.721
 8381SOL    HW226043   0.303   2.534   2.873
 8382SOL     OW26044   2.385   0.380   0.265
 8382SOL    HW126045   2.461   0.431   0.306
 8382SOL    HW226046   2.379   0.402   0.167
 8383SOL     OW26047   2.504   0.234   4.962
 8383SOL    HW126048   2.458   0.194   5.041
 8383SOL    HW226049   2.580   0.174   4.935
 8384SOL     OW26050   6.943   1.957   1.293
 8384SOL    HW126051   6.933   2.024   1.220
 8384SOL    HW226052   0.017   1.942   1.313
 8385SOL     OW26053   4.404   3.236   0.979
 8385SOL    HW126054   4.435   3.147   1.013
 8385SOL    HW226055   4.313   3.255   1.016
 8386SOL     OW26056   1.999   6.114   1.061
 8386SOL    HW126057   1.952   6.157   1.138
 8386SOL    HW226058   2.022   6.020   1.085
 8387SOL     OW26059   2.298   1.741   1.629
 8387SOL    HW126060   2.248   1.814   1.675
 8387SOL    HW226061   2.307   1.762   1.532
 8388SOL     OW26062   1.636   6.886   0.464
 8388SOL    HW126063   1.654   6.846   0.554
 8388SOL    HW226064   1.538   6.905   0.455
 8389SOL     OW26065   1.959   3.166   4.084
 8389SOL    HW126066   1.937   3.204   4.174
 8389SOL    HW226067   2.016   3.230   4.033
 8390SOL     OW26068   2.948   0.941   6.542
 8390SOL    HW126069   2.929   0.995   6.460
 8390SOL    HW226070   3.026   0.881   6.526
 8391SOL     OW26071   5.299   5.747   1.263
 8391SOL    HW126072   5.377   5.792   1.221
 8391SOL    HW226073   5.266   5.673   1.204
 8392SOL     OW26074   6.260   5.622   4.914
 8392SOL    HW126075   6.216   5.578   4.992
 8392SOL    HW226076   6.217   5.711   4.898
 8393SOL     OW26077   6.937   0.042   3.878
 8393SOL    HW126078   6.866   7.012   3.831
 8393SOL    HW226079   7.019   0.047   3.820
 8394SOL     OW26080   0.923   1.524   2.702
 8394SOL    HW126081   1.010   1.488   2.736
 8394SOL    HW226082   0.875   1.452   2.651
 8395SOL     OW26083   0.472   6.360   4.532
 8395SOL    HW126084   0.387   6.373   4.583
 8395SOL    HW226085   0.548   6.347   4.596
 8396SOL     OW26086   4.369   4.704   2.800
 8396SOL    HW126087   4.390   4.633   2.733
 8396SOL    HW226088   4.270   4.718   2.804
 8397SOL     OW26089   2.232   0.247   2.980
 8397SOL    HW126090   2.247   0.148   2.986
 8397SOL    HW226091   2.293   0.293   3.045
 8398SOL     OW26092   3.779   1.713   0.015
 8398SOL    HW126093   3.876   1.704   0.038
 8398SOL    HW226094   3.724   1.668   0.085
 8399SOL     OW26095   5.976   6.304   0.374
 8399SOL    HW126096   6.055   6.305   0.436
 8399SOL    HW226097   5.894   6.279   0.425
 8400SOL     OW26098   0.698   0.311   2.875
 8400SOL    HW126099   0.741   0.235   2.924
 8400SOL    HW226100   0.759   0.390   2.877
 8401SOL     OW26101   4.314   3.113   5.905
 8401SOL    HW126102   4.338   3.160   5.990
 8401SOL    HW226103   4.253   3.172   5.851
 8402SOL     OW26104   3.190   1.437   5.596
 8402SOL    HW126105   3.205   1.502   5.671
 8402SOL    HW226106   3.235   1.470   5.513
 8403SOL     OW26107   0.365   1.474   3.563
 8403SOL    HW126108   0.331   1.435   3.648
 8403SOL    HW226109   0.465   1.464   3.560
 8404SOL     OW26110   5.892   6.808   6.401
 8404SOL    HW126111   5.933   6.760   6.479
 8404SOL    HW226112   5.960   6.815   6.327
 8405SOL     OW26113   1.950   2.160   0.006
 8405SOL    HW126114   2.040   2.176   0.045
 8405SOL    HW226115   1.880   2.182   0.074
 8406SOL     OW26116   4.542   1.413   0.690
 8406SOL    HW126117   4.467   1.383   0.631
 8406SOL    HW226118   4.510   1.488   0.749
 8407SOL     OW26119   5.678   5.274   4.128
 8407SOL    HW126120   5.757   5.329   4.154
 8407SOL    HW226121   5.611   5.330   4.080
 8408SOL     OW26122   5.471   0.532   3.951
 8408SOL    HW126123   5.504   0.626   3.946
 8408SOL    HW226124   5.531   0.473   3.897
 8409SOL     OW26125   0.456   2.108   3.825
 8409SOL    HW126126   0.485   2.162   3.746
 8409SOL    HW226127   0.462   2.164   3.908
 8410SOL     OW26128   4.220   0.840   1.332
 8410SOL    HW126129   4.187   0.774   1.399
 8410SOL    HW226130   4.219   0.931   1.372
 8411SOL     OW26131   1.585   5.282   3.571
 8411SOL    HW126132   1.659   5.217   3.558
 8411SOL    HW226133   1.597   5.359   3.509
 8412SOL     OW26134   4.358   1.862   1.345
 8412SOL    HW126135   4.381   1.781   1.399
 8412SOL    HW226136   4.412   1.862   1.261
 8413SOL     OW26137   4.070   4.929   0.550
 8413SOL    HW126138   4.094   4.858   0.483
 8413SOL    HW226139   4.069   5.018   0.504
 8414SOL     OW26140   4.043   0.442   2.549
 8414SOL    HW126141   4.119   0.377   2.547
 8414SOL    HW226142   4.061   0.515   2.482
 8415SOL     OW26143   0.382   4.932   3.497
 8415SOL    HW126144   0.369   5.007   3.432
 8415SOL    HW226145   0.367   4.966   3.590
 8416SOL     OW26146   4.917   4.269   2.792
 8416SOL    HW126147   4.947   4.365   2.795
 8416SOL    HW226148   4.817   4.265   2.795
 8417SOL     OW26149   2.009   6.136   5.409
 8417SOL    HW126150   2.046   6.219   5.368
 8417SOL    HW226151   2.068   6.106   5.484
 8418SOL     OW26152   5.400   5.276   1.803
 8418SOL    HW126153   5.400   5.292   1.902
 8418SOL    HW226154   5.335   5.204   1.781
 8419SOL     OW26155   4.367   0.416   1.946
 8419SOL    HW126156   4.414   0.505   1.947
 8419SOL    HW226157   4.277   0.426   1.904
 8420SOL     OW26158   3.911   6.620   0.773
 8420SOL    HW126159   3.855   6.664   0.703
 8420SOL    HW226160   3.976   6.686   0.810
 8421SOL     OW26161   3.006   6.908   1.274
 8421SOL    HW126162   3.033   6.878   1.365
 8421SOL    HW226163   2.909   6.886   1.260
 8422SOL     OW26164   5.531   6.280   1.096
 8422SOL    HW126165   5.598   6.324   1.036
 8422SOL    HW226166   5.575   6.255   1.183
 8423SOL     OW26167   3.984   4.642   6.573
 8423SOL    HW126168   3.974   4.729   6.623
 8423SOL    HW226169   3.967   4.566   6.636
 8424SOL     OW26170   2.733   2.300   2.676
 8424SOL    HW126171   2.686   2.222   2.717
 8424SOL    HW226172   2.831   2.295   2.698
 8425SOL     OW26173   6.796   5.535   1.033
 8425SOL    HW126174   6.790   5.492   1.124
 8425SOL    HW226175   6.767   5.470   0.963
 8426SOL     OW26176   3.846   3.001   3.855
 8426SOL    HW126177   3.821   3.004   3.758
 8426SOL    HW226178   3.765   2.983   3.910
 8427SOL     OW26179   1.684   4.051   5.866
 8427SOL    HW126180   1.704   3.982   5.796
 8427SOL    HW226181   1.738   4.032   5.948
 8428SOL     OW26182   6.606   4.651   2.094
 8428SOL    HW126183   6.618   4.667   2.192
 8428SOL    HW226184   6.622   4.555   2.073
 8429SOL     OW26185   1.980   4.317   4.739
 8429SOL    HW126186   1.999   4.389   4.672
 8429SOL    HW226187   2.066   4.287   4.780
 8430SOL     OW26188   3.987   5.299   2.855
 8430SOL    HW126189   4.040   5.356   2.793
 8430SOL    HW226190   4.037   5.214   2.872
 8431SOL     OW26191   2.220   5.147   1.352
 8431SOL    HW126192   2.176   5.214   1.292
 8431SOL    HW226193   2.314   5.176   1.371
 8432SOL     OW26194   4.221   5.023   5.967
 8432SOL    HW126195   4.188   4.945   5.914
 8432SOL    HW226196   4.316   5.043   5.943
 8433SOL     OW26197   0.894   2.645   6.915
 8433SOL    HW126198   0.964   2.715   6.931
 8433SOL    HW226199   0.937   2.554   6.918
 8434SOL     OW26200   2.986   6.832   5.351
 8434SOL    HW126201   3.024   6.741   5.372
 8434SOL    HW226202   3.052   6.902   5.378
 8435SOL     OW26203   5.123   1.867   1.432
 8435SOL    HW126204   5.209   1.846   1.385
 8435SOL    HW226205   5.143   1.904   1.523
 8436SOL     OW26206   3.912   6.324   3.672
 8436SOL    HW126207   3.934   6.421   3.666
 8436SOL    HW226208   3.821   6.308   3.633
 8437SOL     OW26209   1.605   0.144   1.860
 8437SOL    HW126210   1.524   0.134   1.917
 8437SOL    HW226211   1.636   0.055   1.829
 8438SOL     OW26212   2.997   4.857   2.235
 8438SOL    HW126213   2.986   4.905   2.322
 8438SOL    HW226214   2.911   4.810   2.212
 8439SOL     OW26215   6.865   6.016   1.492
 8439SOL    HW126216   6.878   6.105   1.449
 8439SOL    HW226217   6.952   5.984   1.530
 8440SOL     OW26218   0.124   0.679   2.718
 8440SOL    HW126219   0.191   0.738   2.674
 8440SOL    HW226220   0.137   0.681   2.817
 8441SOL     OW26221   6.017   5.908   0.526
 8441SOL    HW126222   6.008   5.909   0.427
 8441SOL    HW226223   6.110   5.937   0.552
 8442SOL     OW26224   4.200   3.230   6.639
 8442SOL    HW126225   4.102   3.210   6.639
 8442SOL    HW226226   4.250   3.149   6.670
 8443SOL     OW26227   1.671   6.949   3.270
 8443SOL    HW126228   1.620   6.871   3.305
 8443SOL    HW226229   1.630   0.010   3.304
 8444SOL     OW26230   2.907   6.068   3.465
 8444SOL    HW126231   2.909   6.158   3.422
 8444SOL    HW226232   2.915   6.078   3.564
 8445SOL     OW26233   3.071   5.141   2.024
 8445SOL    HW126234   3.095   5.172   2.117
 8445SOL    HW226235   2.974   5.116   2.022
 8446SOL     OW26236   5.013   5.539   1.676
 8446SOL    HW126237   5.045   5.499   1.762
 8446SOL    HW226238   4.917   5.517   1.663
 8447SOL     OW26239   5.783   2.305   2.457
 8447SOL    HW126240   5.701   2.277   2.409
 8447SOL    HW226241   5.785   2.405   2.466
 8448SOL     OW26242   0.050   3.777   5.514
 8448SOL    HW126243   6.981   3.782   5.552
 8448SOL    HW226244   0.117   3.780   5.588
 8449SOL     OW26245   0.313   3.137   4.044
 8449SOL    HW126246   0.345   3.107   3.954
 8449SOL    HW226247   0.371   3.097   4.114
 8450SOL     OW26248   2.236   6.185   2.243
 8450SOL    HW126249   2.136   6.175   2.238
 8450SOL    HW226250   2.260   6.281   2.231
 8451SOL     OW26251   4.312   2.542   0.912
 8451SOL    HW126252   4.392   2.494   0.876
 8451SOL    HW226253   4.256   2.479   0.966
 8452SOL     OW26254   0.310   6.762   1.247
 8452SOL    HW126255   0.337   6.698   1.176
 8452SOL    HW226256   0.213   6.748   1.269
 8453SOL     OW26257   6.837   5.113   6.049
 8453SOL    HW126258   6.872   5.028   6.089
 8453SOL    HW226259   6.745   5.098   6.013
 8454SOL     OW26260   1.812   5.648   1.956
 8454SOL    HW126261   1.771   5.732   1.922
 8454SOL    HW226262   1.910   5.647   1.934
 8455SOL     OW26263   5.045   1.596   1.144
 8455SOL    HW126264   5.124   1.609   1.084
 8455SOL    HW226265   5.075   1.596   1.239
 8456SOL     OW26266   6.064   5.355   3.205
 8456SOL    HW126267   6.061   5.272   3.150
 8456SOL    HW226268   5.972   5.380   3.233
 8457SOL     OW26269   6.744   6.720   5.818
 8457SOL    HW126270   6.698   6.741   5.732
 8457SOL    HW226271   6.682   6.739   5.895
 8458SOL     OW26272   2.025   1.239   6.696
 8458SOL    HW126273   2.067   1.208   6.782
 8458SOL    HW226274   1.926   1.235   6.704
 8459SOL     OW26275   3.943   6.650   1.473
 8459SOL    HW126276   3.870   6.599   1.429
 8459SOL    HW226277   3.904   6.723   1.530
 8460SOL     OW26278   4.062   2.652   6.040
 8460SOL    HW126279   3.972   2.682   6.009
 8460SOL    HW226280   4.130   2.720   6.014
 8461SOL     OW26281   1.236   3.185   1.541
 8461SOL    HW126282   1.267   3.266   1.491
 8461SOL    HW226283   1.156   3.209   1.596
 8462SOL     OW26284   3.420   2.259   6.817
 8462SOL    HW126285   3.418   2.307   6.905
 8462SOL    HW226286   3.461   2.319   6.748
 8463SOL     OW26287   0.044   1.955   0.320
 8463SOL    HW126288   0.075   1.996   0.234
 8463SOL    HW226289   0.124   1.933   0.377
 8464SOL     OW26290   6.987   4.204   5.314
 8464SOL    HW126291   0.034   4.134   5.321
 8464SOL    HW226292   6.955   4.229   5.405
 8465SOL     OW26293   2.824   2.108   0.942
 8465SOL    HW126294   2.822   2.148   0.851
 8465SOL    HW226295   2.746   2.141   0.995
 8466SOL     OW26296   6.583   0.006   5.447
 8466SOL    HW126297   6.553   7.021   5.352
 8466SOL    HW226298   6.598   0.103   5.469
 8467SOL     OW26299   3.706   0.954   0.889
 8467SOL    HW126300   3.781   0.990   0.945
 8467SOL    HW226301   3.741   0.931   0.798
 8468SOL     OW26302   6.326   3.095   6.606
 8468SOL    HW126303   6.377   3.009   6.599
 8468SOL    HW226304   6.368   3.153   6.676
 8469SOL     OW26305   2.657   2.359   5.899
 8469SOL    HW126306   2.744   2.316   5.923
 8469SOL    HW226307   2.651   2.449   5.943
 8470SOL     OW26308   0.885   4.628   0.486
 8470SOL    HW126309   0.902   4.638   0.388
 8470SOL    HW226310   0.906   4.714   0.532
 8471SOL     OW26311   3.576   0.435   5.435
 8471SOL    HW126312   3.629   0.430   5.351
 8471SOL    HW226313   3.490   0.484   5.418
 8472SOL     OW26314   5.451   1.589   5.790
 8472SOL    HW126315   5.493   1.678   5.772
 8472SOL    HW226316   5.446   1.536   5.706
 8473SOL     OW26317   4.934   5.434   0.689
 8473SOL    HW126318   4.963   5.438   0.784
 8473SOL    HW226319   4.989   5.367   0.639
 8474SOL     OW26320   3.334   4.088   2.578
 8474SOL    HW126321   3.313   4.186   2.568
 8474SOL    HW226322   3.317   4.041   2.491
 8475SOL     OW26323   6.948   3.049   2.484
 8475SOL    HW126324   0.002   3.081   2.429
 8475SOL    HW226325   6.947   2.949   2.485
 8476SOL     OW26326   6.992   0.918   2.038
 8476SOL    HW126327   6.914   0.856   2.027
 8476SOL    HW226328   0.054   0.866   2.032
 8477SOL     OW26329   4.529   6.504   2.389
 8477SOL    HW126330   4.525   6.406   2.369
 8477SOL    HW226331   4.447   6.548   2.354
 8478SOL     OW26332   0.673   1.416   5.807
 8478SOL    HW126333   0.694   1.339   5.746
 8478SOL    HW226334   0.689   1.502   5.760
 8479SOL     OW26335   0.889   2.835   1.829
 8479SOL    HW126336   0.984   2.856   1.807
 8479SOL    HW226337   0.864   2.747   1.789
 8480SOL     OW26338   5.128   3.106   7.013
 8480SOL    HW126339   5.157   3.198   6.989
 8480SOL    HW226340   5.052   3.079   6.954
 8481SOL     OW26341   4.532   2.366   5.191
 8481SOL    HW126342   4.579   2.280   5.173
 8481SOL    HW226343   4.482   2.395   5.109
 8482SOL     OW26344   4.607   0.507   1.581
 8482SOL    HW126345   4.568   0.458   1.659
 8482SOL    HW226346   4.707   0.513   1.592
 8483SOL     OW26347   2.233   5.557   2.951
 8483SOL    HW126348   2.172   5.612   3.008
 8483SOL    HW226349   2.206   5.567   2.855
 8484SOL     OW26350   6.812   5.938   4.928
 8484SOL    HW126351   6.788   5.915   5.023
 8484SOL    HW226352   6.855   6.029   4.926
 8485SOL     OW26353   4.236   2.416   0.290
 8485SOL    HW126354   4.220   2.422   0.192
 8485SOL    HW226355   4.152   2.438   0.340
 8486SOL     OW26356   2.093   0.954   2.720
 8486SOL    HW126357   2.099   1.052   2.738
 8486SOL    HW226358   2.151   0.905   2.785
 8487SOL     OW26359   5.422   2.135   6.120
 8487SOL    HW126360   5.492   2.068   6.146
 8487SOL    HW226361   5.465   2.209   6.068
 8488SOL     OW26362   5.502   5.791   3.022
 8488SOL    HW126363   5.409   5.757   3.034
 8488SOL    HW226364   5.499   5.887   2.993
 8489SOL     OW26365   0.015   0.433   1.552
 8489SOL    HW126366   0.070   0.377   1.490
 8489SOL    HW226367   6.974   0.488   1.500
 8490SOL     OW26368   3.166   6.579   5.684
 8490SOL    HW126369   3.149   6.482   5.699
 8490SOL    HW226370   3.139   6.631   5.765
 8491SOL     OW26371   2.172   6.318   2.487
 8491SOL    HW126372   2.155   6.281   2.578
 8491SOL    HW226373   2.233   6.256   2.437
 8492SOL     OW26374   5.987   5.274   3.933
 8492SOL    HW126375   5.894   5.257   3.967
 8492SOL    HW226376   5.999   5.372   3.915
 8493SOL     OW26377   2.553   1.709   0.297
 8493SOL    HW126378   2.459   1.737   0.274
 8493SOL    HW226379   2.595   1.666   0.218
 8494SOL     OW26380   4.701   4.997   2.136
 8494SOL    HW126381   4.678   5.088   2.169
 8494SOL    HW226382   4.758   5.004   2.054
 8495SOL     OW26383   0.291   5.200   0.920
 8495SOL    HW126384   0.260   5.156   1.005
 8495SOL    HW226385   0.281   5.299   0.929
 8496SOL     OW26386   5.812   1.458   2.413
 8496SOL    HW126387   5.798   1.554   2.436
 8496SOL    HW226388   5.902   1.429   2.445
 8497SOL     OW26389   0.955   0.146   3.461
 8497SOL    HW126390   1.008   0.130   3.378
 8497SOL    HW226391   1.014   0.186   3.531
 8498SOL     OW26392   6.212   6.337   3.363
 8498SOL    HW126393   6.221   6.417   3.304
 8498SOL    HW226394   6.276   6.266   3.334
 8499SOL     OW26395   0.529   4.378   0.146
 8499SOL    HW126396   0.581   4.420   0.220
 8499SOL    HW226397   0.581   4.385   0.061
 8500SOL     OW26398   1.639   6.395   5.990
 8500SOL    HW126399   1.689   6.311   5.970
 8500SOL    HW226400   1.684   6.443   6.066
 8501SOL     OW26401   0.966   2.391   6.505
 8501SOL    HW126402   1.045   2.420   6.559
 8501SOL    HW226403   0.938   2.299   6.534
 8502SOL     OW26404   0.455   3.020   1.117
 8502SOL    HW126405   0.500   3.101   1.079
 8502SOL    HW226406   0.447   3.030   1.216
 8503SOL     OW26407   6.671   5.856   5.465
 8503SOL    HW126408   6.665   5.807   5.379
 8503SOL    HW226409   6.597   5.924   5.471
 8504SOL     OW26410   1.592   5.087   2.006
 8504SOL    HW126411   1.502   5.047   2.020
 8504SOL    HW226412   1.651   5.064   2.084
 8505SOL     OW26413   5.548   3.399   2.705
 8505SOL    HW126414   5.471   3.448   2.664
 8505SOL    HW226415   5.540   3.400   2.804
 8506SOL     OW26416   1.266   0.521   0.065
 8506SOL    HW126417   1.263   0.592   7.018
 8506SOL    HW226418   1.213   0.442   0.034
 8507SOL     OW26419   3.971   0.112   4.900
 8507SOL    HW126420   3.948   0.016   4.916
 8507SOL    HW226421   4.021   0.120   4.813
 8508SOL     OW26422   4.078   1.269   5.693
 8508SOL    HW126423   4.137   1.325   5.636
 8508SOL    HW226424   4.134   1.214   5.756
 8509SOL     OW26425   5.848   6.683   4.197
 8509SOL    HW126426   5.894   6.675   4.109
 8509SOL    HW226427   5.751   6.661   4.186
 8510SOL     OW26428   5.122   3.945   3.406
 8510SOL    HW126429   5.118   4.019   3.473
 8510SOL    HW226430   5.136   3.858   3.453
 8511SOL     OW26431   6.733   3.141   2.619
 8511SOL    HW126432   6.825   3.141   2.579
 8511SOL    HW226433   6.665   3.134   2.546
 8512SOL     OW26434   2.555   0.127   2.842
 8512SOL    HW126435   2.643   0.103   2.882
 8512SOL    HW226436   2.486   0.059   2.867
 8513SOL     OW26437   0.041   5.612   1.027
 8513SOL    HW126438   0.068   5.675   1.100
 8513SOL    HW226439   6.965   5.597   1.031
 8514SOL     OW26440   3.204   0.181   3.605
 8514SOL    HW126441   3.161   0.271   3.608
 8514SOL    HW226442   3.175   0.133   3.522
 8515SOL     OW26443   4.881   2.478   0.947
 8515SOL    HW126444   4.860   2.575   0.959
 8515SOL    HW226445   4.976   2.462   0.972
 8516SOL     OW26446   6.862   2.016   2.419
 8516SOL    HW126447   6.928   1.979   2.353
 8516SOL    HW226448   6.769   1.994   2.389
 8517SOL     OW26449   0.620   2.555   5.815
 8517SOL    HW126450   0.644   2.634   5.758
 8517SOL    HW226451   0.683   2.480   5.796
 8518SOL     OW26452   4.120   4.781   0.322
 8518SOL    HW126453   4.101   4.694   0.365
 8518SOL    HW226454   4.081   4.782   0.230
 8519SOL     OW26455   1.986   5.897   2.050
 8519SOL    HW126456   1.982   5.907   1.951
 8519SOL    HW226457   2.044   5.819   2.074
 8520SOL     OW26458   4.056   0.757   0.397
 8520SOL    HW126459   4.084   0.699   0.320
 8520SOL    HW226460   3.972   0.721   0.437
 8521SOL     OW26461   1.494   5.764   5.568
 8521SOL    HW126462   1.503   5.800   5.475
 8521SOL    HW226463   1.582   5.771   5.615
 8522SOL     OW26464   1.784   5.652   2.261
 8522SOL    HW126465   1.690   5.665   2.293
 8522SOL    HW226466   1.783   5.635   2.162
 8523SOL     OW26467   2.388   0.363   6.134
 8523SOL    HW126468   2.399   0.429   6.209
 8523SOL    HW226469   2.333   0.286   6.165
 8524SOL     OW26470   1.249   2.627   4.596
 8524SOL    HW126471   1.334   2.659   4.553
 8524SOL    HW226472   1.206   2.703   4.645
 8525SOL     OW26473   6.263   3.730   2.811
 8525SOL    HW126474   6.165   3.710   2.816
 8525SOL    HW226475   6.278   3.811   2.754
 8526SOL     OW26476   2.860   3.553   1.661
 8526SOL    HW126477   2.760   3.552   1.670
 8526SOL    HW226478   2.893   3.460   1.645
 8527SOL     OW26479   4.043   0.660   4.676
 8527SOL    HW126480   4.064   0.662   4.579
 8527SOL    HW226481   4.096   0.588   4.721
 8528SOL     OW26482   4.779   3.493   6.066
 8528SOL    HW126483   4.683   3.518   6.051
 8528SOL    HW226484   4.787   3.393   6.066
 8529SOL     OW26485   1.256   6.269   0.237
 8529SOL    HW126486   1.173   6.230   0.197
 8529SOL    HW226487   1.336   6.231   0.190
 8530SOL     OW26488   0.855   5.196   4.990
 8530SOL    HW126489   0.930   5.141   5.026
 8530SOL    HW226490   0.773   5.139   4.980
 8531SOL     OW26491   5.537   4.164   3.505
 8531SOL    HW126492   5.508   4.244   3.453
 8531SOL    HW226493   5.479   4.154   3.586
 8532SOL     OW26494   4.187   4.789   4.825
 8532SOL    HW126495   4.120   4.834   4.883
 8532SOL    HW226496   4.201   4.695   4.858
 8533SOL     OW26497   1.816   1.026   5.882
 8533SOL    HW126498   1.770   0.991   5.800
 8533SOL    HW226499   1.781   1.117   5.903
 8534SOL     OW26500   0.372   5.029   2.524
 8534SOL    HW126501   0.278   5.038   2.559
 8534SOL    HW226502   0.376   4.952   2.460
 8535SOL     OW26503   0.590   1.896   4.846
 8535SOL    HW126504   0.490   1.899   4.852
 8535SOL    HW226505   0.629   1.897   4.938
 8536SOL     OW26506   6.164   2.666   5.071
 8536SOL    HW126507   6.228   2.588   5.073
 8536SOL    HW226508   6.198   2.737   5.133
 8537SOL     OW26509   6.147   1.233   1.115
 8537SOL    HW126510   6.118   1.325   1.089
 8537SOL    HW226511   6.241   1.237   1.150
 8538SOL     OW26512   0.456   0.521   5.173
 8538SOL    HW126513   0.496   0.496   5.262
 8538SOL    HW226514   0.456   0.620   5.163
 8539SOL     OW26515   6.535   2.636   2.522
 8539SOL    HW126516   6.438   2.642   2.545
 8539SOL    HW226517   6.587   2.697   2.581
 8540SOL     OW26518   3.499   1.553   1.224
 8540SOL    HW126519   3.405   1.562   1.258
 8540SOL    HW226520   3.544   1.642   1.228
 8541SOL     OW26521   2.867   1.313   5.451
 8541SOL    HW126522   2.796   1.344   5.515
 8541SOL    HW226523   2.938   1.383   5.445
 8542SOL     OW26524   3.122   4.336   6.568
 8542SOL    HW126525   3.031   4.299   6.587
 8542SOL    HW226526   3.161   4.374   6.652
 8543SOL     OW26527   2.681   1.872   5.477
 8543SOL    HW126528   2.586   1.851   5.502
 8543SOL    HW226529   2.709   1.957   5.520
 8544SOL     OW26530   5.184   3.504   5.311
 8544SOL    HW126531   5.163   3.479   5.406
 8544SOL    HW226532   5.213   3.422   5.261
 8545SOL     OW26533   3.029   6.556   4.776
 8545SOL    HW126534   3.023   6.655   4.791
 8545SOL    HW226535   2.952   6.511   4.822
 8546SOL     OW26536   5.211   0.622   0.987
 8546SOL    HW126537   5.126   0.624   0.933
 8546SOL    HW226538   5.210   0.543   1.047
 8547SOL     OW26539   6.897   0.021   5.719
 8547SOL    HW126540   6.798   0.011   5.733
 8547SOL    HW226541   6.916   0.112   5.682
 8548SOL     OW26542   0.423   3.203   5.302
 8548SOL    HW126543   0.325   3.211   5.284
 8548SOL    HW226544   0.452   3.109   5.286
 8549SOL     OW26545   1.031   2.058   3.547
 8549SOL    HW126546   1.124   2.027   3.526
 8549SOL    HW226547   0.966   2.009   3.489
 8550SOL     OW26548   0.471   3.894   6.370
 8550SOL    HW126549   0.532   3.857   6.300
 8550SOL    HW226550   0.488   3.848   6.457
 8551SOL     OW26551   2.164   2.303   6.653
 8551SOL    HW126552   2.146   2.360   6.573
 8551SOL    HW226553   2.143   2.356   6.736
 8552SOL     OW26554   3.292   0.633   2.012
 8552SOL    HW126555   3.260   0.722   1.980
 8552SOL    HW226556   3.392   0.630   2.007
 8553SOL     OW26557   3.949   3.732   0.420
 8553SOL    HW126558   3.983   3.826   0.419
 8553SOL    HW226559   3.997   3.680   0.349
 8554SOL     OW26560   0.946   6.675   1.264
 8554SOL    HW126561   1.028   6.670   1.207
 8554SOL    HW226562   0.868   6.703   1.208
 8555SOL     OW26563   4.306   1.803   3.479
 8555SOL    HW126564   4.397   1.813   3.519
 8555SOL    HW226565   4.245   1.758   3.544
 8556SOL     OW26566   1.365   6.185   5.751
 8556SOL    HW126567   1.344   6.105   5.695
 8556SOL    HW226568   1.282   6.216   5.797
 8557SOL     OW26569   6.921   0.971   0.676
 8557SOL    HW126570   6.992   0.957   0.745
 8557SOL    HW226571   6.877   1.060   0.692
 8558SOL     OW26572   1.900   4.824   3.422
 8558SOL    HW126573   1.958   4.828   3.503
 8558SOL    HW226574   1.920   4.742   3.369
 8559SOL     OW26575   0.642   6.879   3.049
 8559SOL    HW126576   0.646   6.947   2.975
 8559SOL    HW226577   0.734   6.865   3.086
 8560SOL     OW26578   1.237   5.533   1.501
 8560SOL    HW126579   1.248   5.455   1.564
 8560SOL    HW226580   1.157   5.518   1.443
 8561SOL     OW26581   3.921   0.361   3.356
 8561SOL    HW126582   3.932   0.345   3.258
 8561SOL    HW226583   3.999   0.413   3.390
 8562SOL     OW26584   3.978   0.745   6.781
 8562SOL    HW126585   4.049   0.721   6.847
 8562SOL    HW226586   3.891   0.759   6.829
 8563SOL     OW26587   1.400   6.084   2.239
 8563SOL    HW126588   1.396   6.118   2.145
 8563SOL    HW226589   1.308   6.076   2.276
 8564SOL     OW26590   3.920   6.085   6.453
 8564SOL    HW126591   3.888   6.039   6.536
 8564SOL    HW226592   4.019   6.072   6.443
 8565SOL     OW26593   3.635   5.258   1.563
 8565SOL    HW126594   3.654   5.208   1.478
 8565SOL    HW226595   3.715   5.255   1.622
 8566SOL     OW26596   2.893   0.703   2.876
 8566SOL    HW126597   2.962   0.747   2.933
 8566SOL    HW226598   2.927   0.694   2.783
 8567SOL     OW26599   1.593   1.915   1.694
 8567SOL    HW126600   1.690   1.895   1.705
 8567SOL    HW226601   1.583   2.005   1.650
 8568SOL     OW26602   0.066   1.354   0.434
 8568SOL    HW126603   7.015   1.321   0.492
 8568SOL    HW226604   0.145   1.292   0.443
 8569SOL     OW26605   4.736   2.258   6.182
 8569SOL    HW126606   4.773   2.326   6.120
 8569SOL    HW226607   4.731   2.296   6.274
 8570SOL     OW26608   1.648   1.685   4.463
 8570SOL    HW126609   1.699   1.771   4.463
 8570SOL    HW226610   1.587   1.682   4.542
 8571SOL     OW26611   1.408   1.172   4.938
 8571SOL    HW126612   1.432   1.219   4.853
 8571SOL    HW226613   1.415   1.073   4.924
 8572SOL     OW26614   2.424   3.828   5.930
 8572SOL    HW126615   2.498   3.846   5.865
 8572SOL    HW226616   2.339   3.815   5.880
 8573SOL     OW26617   2.658   5.913   6.659
 8573SOL    HW126618   2.653   5.972   6.578
 8573SOL    HW226619   2.573   5.922   6.711
 8574SOL     OW26620   6.239   6.989   6.400
 8574SOL    HW126621   6.189   6.998   6.487
 8574SOL    HW226622   6.246   0.055   6.357
 8575SOL     OW26623   3.213   0.991   2.344
 8575SOL    HW126624   3.120   1.025   2.336
 8575SOL    HW226625   3.271   1.035   2.276
 8576SOL     OW26626   1.253   3.856   4.523
 8576SOL    HW126627   1.322   3.810   4.467
 8576SOL    HW226628   1.297   3.922   4.584
 8577SOL     OW26629   1.674   1.286   5.929
 8577SOL    HW126630   1.652   1.374   5.888
 8577SOL    HW226631   1.611   1.267   6.004
 8578SOL     OW26632   6.229   6.491   5.523
 8578SOL    HW126633   6.279   6.561   5.575
 8578SOL    HW226634   6.151   6.459   5.577
 8579SOL     OW26635   2.284   6.477   2.231
 8579SOL    HW126636   2.289   6.529   2.146
 8579SOL    HW226637   2.213   6.516   2.290
 8580SOL     OW26638   1.092   6.701   0.723
 8580SOL    HW126639   1.177   6.751   0.734
 8580SOL    HW226640   1.081   6.673   0.628
 8581SOL     OW26641   3.807   4.906   1.417
 8581SOL    HW126642   3.765   4.831   1.469
 8581SOL    HW226643   3.906   4.896   1.420
 8582SOL     OW26644   4.789   4.443   5.593
 8582SOL    HW126645   4.861   4.375   5.608
 8582SOL    HW226646   4.709   4.399   5.552
 8583SOL     OW26647   3.942   6.896   3.236
 8583SOL    HW126648   4.007   6.969   3.215
 8583SOL    HW226649   3.956   6.865   3.330
 8584SOL     OW26650   0.148   0.644   4.724
 8584SOL    HW126651   0.081   0.706   4.684
 8584SOL    HW226652   0.128   0.550   4.695
 8585SOL     OW26653   5.855   1.549   1.161
 8585SOL    HW126654   5.792   1.522   1.088
 8585SOL    HW226655   5.808   1.611   1.224
 8586SOL     OW26656   5.183   6.530   1.205
 8586SOL    HW126657   5.250   6.482   1.261
 8586SOL    HW226658   5.098   6.543   1.257
 8587SOL     OW26659   0.856   1.533   4.856
 8587SOL    HW126660   0.784   1.582   4.807
 8587SOL    HW226661   0.889   1.589   4.932
 8588SOL     OW26662   4.282   1.017   6.933
 8588SOL    HW126663   4.231   1.070   7.001
 8588SOL    HW226664   4.335   0.947   6.980
 8589SOL     OW26665   6.495   2.997   4.883
 8589SOL    HW126666   6.517   2.921   4.822
 8589SOL    HW226667   6.574   3.058   4.890
 8590SOL     OW26668   0.129   0.327   3.031
 8590SOL    HW126669   0.222   0.290   3.032
 8590SOL    HW226670   0.117   0.390   3.107
 8591SOL     OW26671   6.568   4.590   0.195
 8591SOL    HW126672   6.560   4.500   0.154
 8591SOL    HW226673   6.572   4.581   0.295
 8592SOL     OW26674   0.171   2.701   0.050
 8592SOL    HW126675   0.183   2.605   0.076
 8592SOL    HW226676   0.237   2.725   7.002
 8593SOL     OW26677   3.190   1.143   6.914
 8593SOL    HW126678   3.268   1.083   6.934
 8593SOL    HW226679   3.116   1.089   6.874
 8594SOL     OW26680   6.328   2.907   5.721
 8594SOL    HW126681   6.349   2.811   5.741
 8594SOL    HW226682   6.342   2.963   5.803
 8595SOL     OW26683   5.719   0.520   3.631
 8595SOL    HW126684   5.638   0.489   3.582
 8595SOL    HW226685   5.784   0.561   3.567
 8596SOL     OW26686   1.144   4.232   3.288
 8596SOL    HW126687   1.090   4.169   3.232
 8596SOL    HW226688   1.153   4.319   3.240
 8597SOL     OW26689   5.973   2.257   0.716
 8597SOL    HW126690   6.019   2.264   0.804
 8597SOL    HW226691   5.884   2.302   0.721
 8598SOL     OW26692   5.563   0.310   5.501
 8598SOL    HW126693   5.527   0.303   5.594
 8598SOL    HW226694   5.662   0.301   5.503
 8599SOL     OW26695   1.243   2.748   3.780
 8599SOL    HW126696   1.333   2.731   3.740
 8599SOL    HW226697   1.225   2.681   3.852
 8600SOL     OW26698   5.129   3.988   1.242
 8600SOL    HW126699   5.140   3.892   1.267
 8600SOL    HW226700   5.055   3.998   1.176
 8601SOL     OW26701   6.879   1.167   4.007
 8601SOL    HW126702   6.904   1.140   4.100
 8601SOL    HW226703   6.939   1.241   3.976
 8602SOL     OW26704   2.689   6.502   3.029
 8602SOL    HW126705   2.753   6.452   2.970
 8602SOL    HW226706   2.631   6.437   3.077
 8603SOL     OW26707   5.690   1.082   6.123
 8603SOL    HW126708   5.635   1.005   6.155
 8603SOL    HW226709   5.635   1.141   6.065
 8604SOL     OW26710   0.663   2.579   6.145
 8604SOL    HW126711   0.597   2.542   6.080
 8604SOL    HW226712   0.623   2.657   6.193
 8605SOL     OW26713   0.973   4.321   4.261
 8605SOL    HW126714   1.015   4.234   4.287
 8605SOL    HW226715   1.043   4.382   4.224
 8606SOL     OW26716   3.263   2.151   0.206
 8606SOL    HW126717   3.227   2.174   0.115
 8606SOL    HW226718   3.247   2.055   0.225
 8607SOL     OW26719   2.125   4.791   6.847
 8607SOL    HW126720   2.177   4.739   6.779
 8607SOL    HW226721   2.138   4.889   6.831
 8608SOL     OW26722   2.016   5.014   2.430
 8608SOL    HW126723   2.050   4.924   2.404
 8608SOL    HW226724   2.077   5.084   2.393
 8609SOL     OW26725   5.089   0.690   4.160
 8609SOL    HW126726   5.110   0.707   4.257
 8609SOL    HW226727   5.005   0.739   4.136
 8610SOL     OW26728   6.920   6.884   3.264
 8610SOL    HW126729   6.976   6.944   3.321
 8610SOL    HW226730   6.905   6.927   3.175
 8611SOL     OW26731   2.675   1.059   4.686
 8611SOL    HW126732   2.680   0.974   4.633
 8611SOL    HW226733   2.579   1.085   4.697
 8612SOL     OW26734   2.782   3.382   1.964
 8612SOL    HW126735   2.716   3.414   2.032
 8612SOL    HW226736   2.740   3.380   1.874
 8613SOL     OW26737   2.485   2.436   1.838
 8613SOL    HW126738   2.418   2.498   1.880
 8613SOL    HW226739   2.472   2.436   1.738
 8614SOL     OW26740   1.253   2.752   2.999
 8614SOL    HW126741   1.154   2.747   3.013
 8614SOL    HW226742   1.298   2.674   3.043
 8615SOL     OW26743   4.355   1.772   5.146
 8615SOL    HW126744   4.366   1.864   5.108
 8615SOL    HW226745   4.413   1.761   5.227
 8616SOL     OW26746   2.290   4.517   1.787
 8616SOL    HW126747   2.266   4.612   1.764
 8616SOL    HW226748   2.389   4.508   1.793
 8617SOL     OW26749   5.738   0.819   4.167
 8617SOL    HW126750   5.811   0.844   4.103
 8617SOL    HW226751   5.649   0.845   4.130
 8618SOL     OW26752   6.842   3.870   0.812
 8618SOL    HW126753   6.910   3.806   0.847
 8618SOL    HW226754   6.888   3.953   0.780
 8619SOL     OW26755   4.494   5.080   3.266
 8619SOL    HW126756   4.404   5.124   3.255
 8619SOL    HW226757   4.521   5.084   3.362
 8620SOL     OW26758   1.572   0.218   4.477
 8620SOL    HW126759   1.541   0.250   4.567
 8620SOL    HW226760   1.557   0.290   4.409
 8621SOL     OW26761   4.834   3.040   2.219
 8621SOL    HW126762   4.762   2.995   2.272
 8621SOL    HW226763   4.798   3.071   2.131
 8622SOL     OW26764   5.923   5.405   1.712
 8622SOL    HW126765   5.952   5.420   1.806
 8622SOL    HW226766   5.994   5.354   1.663
 8623SOL     OW26767   0.184   3.676   5.015
 8623SOL    HW126768   0.177   3.631   4.926
 8623SOL    HW226769   0.253   3.629   5.070
 8624SOL     OW26770   3.624   3.904   5.965
 8624SOL    HW126771   3.560   3.941   6.032
 8624SOL    HW226772   3.573   3.876   5.883
 8625SOL     OW26773   4.276   1.099   6.244
 8625SOL    HW126774   4.225   1.178   6.211
 8625SOL    HW226775   4.373   1.121   6.247
 8626SOL     OW26776   3.800   3.279   6.996
 8626SOL    HW126777   3.773   3.375   6.988
 8626SOL    HW226778   3.886   3.273   0.023
 8627SOL     OW26779   2.203   1.552   2.638
 8627SOL    HW126780   2.245   1.636   2.604
 8627SOL    HW226781   2.234   1.474   2.582
 8628SOL     OW26782   6.508   6.756   0.282
 8628SOL    HW126783   6.441   6.828   0.261
 8628SOL    HW226784   6.599   6.787   0.254
 8629SOL     OW26785   1.220   6.719   5.195
 8629SOL    HW126786   1.301   6.746   5.246
 8629SOL    HW226787   1.162   6.799   5.179
 8630SOL     OW26788   4.880   4.073   3.902
 8630SOL    HW126789   4.843   4.059   3.994
 8630SOL    HW226790   4.846   4.159   3.865
 8631SOL     OW26791   1.650   6.148   5.877
 8631SOL    HW126792   1.592   6.186   5.804
 8631SOL    HW226793   1.593   6.097   5.941
 8632SOL     OW26794   3.904   4.180   5.238
 8632SOL    HW126795   4.004   4.183   5.243
 8632SOL    HW226796   3.864   4.236   5.310
 8633SOL     OW26797   5.574   3.865   5.939
 8633SOL    HW126798   5.563   3.929   5.862
 8633SOL    HW226799   5.670   3.838   5.947
 8634SOL     OW26800   5.443   4.544   0.232
 8634SOL    HW126801   5.503   4.494   0.170
 8634SOL    HW226802   5.498   4.592   0.300
 8635SOL     OW26803   6.259   2.146   6.888
 8635SOL    HW126804   6.307   2.231   6.866
 8635SOL    HW226805   6.187   2.164   6.955
 8636SOL     OW26806   4.430   5.405   0.758
 8636SOL    HW126807   4.461   5.496   0.730
 8636SOL    HW226808   4.436   5.397   0.858
 8637SOL     OW26809   2.312   1.430   6.328
 8637SOL    HW126810   2.351   1.341   6.305
 8637SOL    HW226811   2.257   1.423   6.411
 8638SOL     OW26812   3.892   2.541   5.310
 8638SOL    HW126813   3.984   2.542   5.271
 8638SOL    HW226814   3.870   2.449   5.341
 8639SOL     OW26815   4.842   3.878   0.136
 8639SOL    HW126816   4.920   3.940   0.142
 8639SOL    HW226817   4.815   3.849   0.228
 8640SOL     OW26818   4.128   3.273   1.081
 8640SOL    HW126819   4.055   3.300   1.019
 8640SOL    HW226820   4.112   3.179   1.113
 8641SOL     OW26821   4.221   5.003   4.184
 8641SOL    HW126822   4.155   4.935   4.217
 8641SOL    HW226823   4.314   4.973   4.208
 8642SOL     OW26824   0.284   0.042   3.291
 8642SOL    HW126825   0.244   0.019   3.380
 8642SOL    HW226826   0.211   0.042   3.222
 8643SOL     OW26827   2.115   6.869   0.569
 8643SOL    HW126828   2.095   6.962   0.537
 8643SOL    HW226829   2.196   6.834   0.521
 8644SOL     OW26830   6.630   2.448   6.499
 8644SOL    HW126831   6.569   2.377   6.465
 8644SOL    HW226832   6.591   2.489   6.581
 8645SOL     OW26833   4.773   5.419   1.561
 8645SOL    HW126834   4.763   5.455   1.469
 8645SOL    HW226835   4.850   5.354   1.563
 8646SOL     OW26836   0.186   1.837   6.921
 8646SOL    HW126837   0.226   1.928   6.932
 8646SOL    HW226838   0.106   1.829   6.981
 8647SOL     OW26839   2.502   5.415   0.473
 8647SOL    HW126840   2.583   5.363   0.499
 8647SOL    HW226841   2.428   5.352   0.450
 8648SOL     OW26842   5.667   6.371   0.837
 8648SOL    HW126843   5.681   6.469   0.853
 8648SOL    HW226844   5.752   6.322   0.853
 8649SOL     OW26845   5.132   6.467   0.236
 8649SOL    HW126846   5.104   6.469   0.140
 8649SOL    HW226847   5.150   6.560   0.267
 8650SOL     OW26848   1.583   6.749   4.385
 8650SOL    HW126849   1.485   6.746   4.405
 8650SOL    HW226850   1.634   6.751   4.471
 8651SOL     OW26851   2.987   1.771   0.846
 8651SOL    HW126852   2.937   1.757   0.931
 8651SOL    HW226853   3.078   1.808   0.866
 8652SOL     OW26854   0.937   4.777   3.933
 8652SOL    HW126855   1.003   4.705   3.953
 8652SOL    HW226856   0.930   4.789   3.834
 8653SOL     OW26857   6.741   1.754   5.439
 8653SOL    HW126858   6.742   1.720   5.533
 8653SOL    HW226859   6.737   1.677   5.375
 8654SOL     OW26860   1.048   4.891   0.962
 8654SOL    HW126861   1.094   4.881   0.874
 8654SOL    HW226862   0.949   4.883   0.948
 8655SOL     OW26863   6.512   1.121   5.129
 8655SOL    HW126864   6.595   1.066   5.117
 8655SOL    HW226865   6.511   1.160   5.221
 8656SOL     OW26866   5.308   0.425   2.004
 8656SOL    HW126867   5.329   0.520   2.028
 8656SOL    HW226868   5.384   0.386   1.953
 8657SOL     OW26869   5.704   6.052   0.123
 8657SOL    HW126870   5.714   5.957   0.152
 8657SOL    HW226871   5.793   6.086   0.091
 8658SOL     OW26872   5.887   5.693   0.629
 8658SOL    HW126873   5.948   5.769   0.604
 8658SOL    HW226874   5.809   5.692   0.567
 8659SOL     OW26875   4.334   2.386   2.934
 8659SOL    HW126876   4.249   2.425   2.970
 8659SOL    HW226877   4.377   2.331   3.004
 8660SOL     OW26878   6.880   2.437   2.314
 8660SOL    HW126879   6.949   2.504   2.342
 8660SOL    HW226880   6.806   2.435   2.381
 8661SOL     OW26881   6.009   4.019   2.423
 8661SOL    HW126882   6.046   3.933   2.388
 8661SOL    HW226883   5.912   4.025   2.399
 8662SOL     OW26884   3.836   6.254   1.988
 8662SOL    HW126885   3.906   6.324   1.995
 8662SOL    HW226886   3.779   6.255   2.070
 8663SOL     OW26887   2.522   5.311   2.681
 8663SOL    HW126888   2.490   5.362   2.761
 8663SOL    HW226889   2.488   5.217   2.684
 8664SOL     OW26890   2.630   5.810   2.622
 8664SOL    HW126891   2.634   5.719   2.662
 8664SOL    HW226892   2.581   5.872   2.684
 8665SOL     OW26893   6.611   5.394   4.744
 8665SOL    HW126894   6.549   5.473   4.745
 8665SOL    HW226895   6.560   5.311   4.724
 8666SOL     OW26896   5.836   0.457   4.534
 8666SOL    HW126897   5.826   0.547   4.493
 8666SOL    HW226898   5.834   0.387   4.463
 8667SOL     OW26899   5.199   1.166   4.649
 8667SOL    HW126900   5.177   1.169   4.746
 8667SOL    HW226901   5.180   1.255   4.608
 8668SOL     OW26902   5.226   3.096   4.704
 8668SOL    HW126903   5.301   3.066   4.763
 8668SOL    HW226904   5.196   3.187   4.733
 8669SOL     OW26905   6.696   6.483   6.520
 8669SOL    HW126906   6.720   6.565   6.574
 8669SOL    HW226907   6.652   6.512   6.435
 8670SOL     OW26908   4.948   5.016   5.821
 8670SOL    HW126909   4.921   5.110   5.839
 8670SOL    HW226910   4.916   4.989   5.730
 8671SOL     OW26911   0.840   1.716   2.445
 8671SOL    HW126912   0.815   1.797   2.391
 8671SOL    HW226913   0.778   1.707   2.523
 8672SOL     OW26914   0.554   0.014   3.499
 8672SOL    HW126915   0.541   0.050   3.407
 8672SOL    HW226916   0.652   7.020   3.515
 8673SOL     OW26917   6.969   1.149   0.250
 8673SOL    HW126918   6.980   1.231   0.307
 8673SOL    HW226919   7.002   1.069   0.300
 8674SOL     OW26920   6.677   4.579   2.971
 8674SOL    HW126921   6.709   4.598   3.064
 8674SOL    HW226922   6.577   4.573   2.971
 8675SOL     OW26923   3.860   1.234   6.071
 8675SOL    HW126924   3.958   1.222   6.089
 8675SOL    HW226925   3.813   1.146   6.082
 8676SOL     OW26926   5.061   0.989   1.546
 8676SOL    HW126927   5.156   0.995   1.516
 8676SOL    HW226928   5.000   0.999   1.468
 8677SOL     OW26929   1.708   5.764   5.739
 8677SOL    HW126930   1.782   5.822   5.705
 8677SOL    HW226931   1.701   5.774   5.838
 8678SOL     OW26932   0.758   6.882   0.518
 8678SOL    HW126933   0.663   6.913   0.508
 8678SOL    HW226934   0.815   6.924   0.448
 8679SOL     OW26935   1.908   1.034   4.083
 8679SOL    HW126936   1.831   1.081   4.039
 8679SOL    HW226937   1.924   0.947   4.036
 8680SOL     OW26938   6.264   2.672   6.453
 8680SOL    HW126939   6.351   2.712   6.426
 8680SOL    HW226940   6.260   2.664   6.552
 8681SOL     OW26941   4.492   5.280   1.312
 8681SOL    HW126942   4.577   5.333   1.312
 8681SOL    HW226943   4.504   5.196   1.365
 8682SOL     OW26944   0.026   7.007   0.983
 8682SOL    HW126945   0.122   0.012   0.986
 8682SOL    HW226946   0.019   6.908   1.000
 8683SOL     OW26947   1.586   2.757   4.694
 8683SOL    HW126948   1.681   2.730   4.676
 8683SOL    HW226949   1.539   2.773   4.607
 8684SOL     OW26950   6.799   3.815   4.852
 8684SOL    HW126951   6.850   3.798   4.936
 8684SOL    HW226952   6.713   3.862   4.874
 8685SOL     OW26953   5.470   2.812   6.216
 8685SOL    HW126954   5.396   2.845   6.275
 8685SOL    HW226955   5.520   2.739   6.262
 8686SOL     OW26956   6.006   0.040   2.738
 8686SOL    HW126957   6.073   0.052   2.812
 8686SOL    HW226958   5.940   6.993   2.764
 8687SOL     OW26959   6.234   4.855   3.180
 8687SOL    HW126960   6.144   4.813   3.182
 8687SOL    HW226961   6.259   4.886   3.272
 8688SOL     OW26962   1.521   4.033   6.705
 8688SOL    HW126963   1.521   4.133   6.704
 8688SOL    HW226964   1.536   3.999   6.612
 8689SOL     OW26965   5.071   3.404   0.526
 8689SOL    HW126966   5.125   3.467   0.471
 8689SOL    HW226967   4.975   3.432   0.523
 8690SOL     OW26968   0.451   2.859   3.029
 8690SOL    HW126969   0.360   2.899   3.022
 8690SOL    HW226970   0.478   2.856   3.125
 8691SOL     OW26971   3.636   1.297   5.107
 8691SOL    HW126972   3.636   1.386   5.153
 8691SOL    HW226973   3.727   1.256   5.111
 8692SOL     OW26974   3.497   1.336   5.379
 8692SOL    HW126975   3.549   1.299   5.302
 8692SOL    HW226976   3.547   1.412   5.420
 8693SOL     OW26977   6.850   1.429   6.504
 8693SOL    HW126978   6.815   1.477   6.585
 8693SOL    HW226979   6.910   1.355   6.533
 8694SOL     OW26980   5.782   2.089   4.971
 8694SOL    HW126981   5.828   2.082   4.883
 8694SOL    HW226982   5.692   2.130   4.959
 8695SOL     OW26983   3.872   3.048   5.916
 8695SOL    HW126984   3.865   2.952   5.941
 8695SOL    HW226985   3.948   3.060   5.852
 8696SOL     OW26986   2.672   5.709   4.695
 8696SOL    HW126987   2.715   5.643   4.634
 8696SOL    HW226988   2.583   5.675   4.724
 8697SOL     OW26989   1.134   4.609   5.831
 8697SOL    HW126990   1.188   4.576   5.754
 8697SOL    HW226991   1.152   4.551   5.911
 8698SOL     OW26992   5.286   6.156   5.997
 8698SOL    HW126993   5.309   6.125   5.905
 8698SOL    HW226994   5.370   6.170   6.049
 8699SOL     OW26995   2.046   3.174   6.027
 8699SOL    HW126996   1.954   3.153   5.993
 8699SOL    HW226997   2.113   3.146   5.959
 8700SOL     OW26998   1.416   1.258   5.676
 8700SOL    HW126999   1.515   1.241   5.676
 8700SOL    HW227000   1.367   1.171   5.680
 8701SOL     OW27001   2.062   1.272   6.992
 8701SOL    HW127002   2.003   1.210   0.021
 8701SOL    HW227003   2.149   1.283   0.017
 8702SOL     OW27004   5.039   5.406   1.932
 8702SOL    HW127005   5.081   5.319   1.905
 8702SOL    HW227006   4.983   5.391   2.014
 8703SOL     OW27007   3.155   4.460   6.851
 8703SOL    HW127008   3.061   4.493   6.845
 8703SOL    HW227009   3.157   4.375   6.903
 8704SOL     OW27010   0.079   3.260   3.787
 8704SOL    HW127011   0.121   3.215   3.708
 8704SOL    HW227012   0.143   3.328   3.824
 8705SOL     OW27013   4.319   2.115   6.788
 8705SOL    HW127014   4.333   2.201   6.739
 8705SOL    HW227015   4.358   2.040   6.736
 8706SOL     OW27016   5.796   2.746   6.940
 8706SOL    HW127017   5.765   2.653   6.961
 8706SOL    HW227018   5.880   2.766   6.991
 8707SOL     OW27019   0.806   2.672   3.489
 8707SOL    HW127020   0.764   2.749   3.441
 8707SOL    HW227021   0.905   2.675   3.477
 8708SOL     OW27022   4.293   1.612   4.334
 8708SOL    HW127023   4.294   1.644   4.429
 8708SOL    HW227024   4.380   1.635   4.290
 8709SOL     OW27025   6.879   7.005   6.968
 8709SOL    HW127026   6.859   0.070   6.926
 8709SOL    HW227027   6.813   6.937   6.936
 8710SOL     OW27028   1.857   2.194   3.638
 8710SOL    HW127029   1.882   2.120   3.576
 8710SOL    HW227030   1.939   2.243   3.666
 8711SOL     OW27031   1.493   0.538   1.691
 8711SOL    HW127032   1.396   0.558   1.707
 8711SOL    HW227033   1.509   0.440   1.705
 8712SOL     OW27034   3.021   1.666   4.577
 8712SOL    HW127035   2.999   1.716   4.493
 8712SOL    HW227036   3.114   1.628   4.569
 8713SOL     OW27037   0.272   4.077   1.436
 8713SOL    HW127038   0.189   4.128   1.460
 8713SOL    HW227039   0.302   4.022   1.514
 8714SOL     OW27040   0.661   6.429   0.032
 8714SOL    HW127041   0.676   6.358   0.101
 8714SOL    HW227042   0.747   6.452   7.011
 8715SOL     OW27043   3.331   1.780   6.904
 8715SOL    HW127044   3.431   1.773   6.915
 8715SOL    HW227045   3.310   1.845   6.831
 8716SOL     OW27046   6.871   6.886   0.708
 8716SOL    HW127047   6.864   6.921   0.615
 8716SOL    HW227048   6.858   6.961   0.773
 8717SOL     OW27049   2.443   3.212   6.121
 8717SOL    HW127050   2.457   3.142   6.192
 8717SOL    HW227051   2.424   3.167   6.034
 8718SOL     OW27052   1.700   2.735   6.271
 8718SOL    HW127053   1.791   2.701   6.248
 8718SOL    HW227054   1.689   2.828   6.237
 8719SOL     OW27055   4.153   1.142   0.104
 8719SOL    HW127056   4.096   1.068   0.140
 8719SOL    HW227057   4.099   1.226   0.098
 8720SOL     OW27058   0.130   5.310   5.779
 8720SOL    HW127059   0.034   5.317   5.807
 8720SOL    HW227060   0.181   5.386   5.817
 8721SOL     OW27061   6.318   6.977   0.237
 8721SOL    HW127062   6.373   0.002   0.305
 8721SOL    HW227063   6.275   0.019   0.175
 8722SOL     OW27064   3.375   1.008   0.413
 8722SOL    HW127065   3.405   1.000   0.508
 8722SOL    HW227066   3.371   1.105   0.388
 8723SOL     OW27067   5.653   6.750   2.597
 8723SOL    HW127068   5.704   6.807   2.662
 8723SOL    HW227069   5.559   6.784   2.591
 8724SOL     OW27070   5.493   0.316   4.245
 8724SOL    HW127071   5.528   0.223   4.256
 8724SOL    HW227072   5.432   0.320   4.167
 8725SOL     OW27073   0.670   6.361   4.727
 8725SOL    HW127074   0.683   6.269   4.763
 8725SOL    HW227075   0.652   6.424   4.802
 8726SOL     OW27076   6.859   1.264   0.566
 8726SOL    HW127077   6.775   1.245   0.516
 8726SOL    HW227078   6.840   1.270   0.664
 8727SOL     OW27079   5.619   7.015   6.953
 8727SOL    HW127080   5.660   0.060   7.014
 8727SOL    HW227081   5.691   6.956   6.915
 8728SOL     OW27082   5.339   1.409   2.145
 8728SOL    HW127083   5.422   1.459   2.123
 8728SOL    HW227084   5.314   1.427   2.241
 8729SOL     OW27085   2.900   5.471   5.461
 8729SOL    HW127086   2.855   5.447   5.375
 8729SOL    HW227087   2.989   5.426   5.466
 8730SOL     OW27088   4.894   4.744   3.210
 8730SOL    HW127089   4.829   4.794   3.152
 8730SOL    HW227090   4.908   4.652   3.174
 8731SOL     OW27091   0.796   3.171   2.974
 8731SOL    HW127092   0.788   3.266   3.004
 8731SOL    HW227093   0.799   3.111   3.054
 8732SOL     OW27094   5.274   4.614   1.579
 8732SOL    HW127095   5.188   4.565   1.564
 8732SOL    HW227096   5.347   4.549   1.599
 8733SOL     OW27097   0.852   5.810   1.069
 8733SOL    HW127098   0.919   5.871   1.026
 8733SOL    HW227099   0.895   5.763   1.146
 8734SOL     OW27100   6.984   3.343   2.488
 8734SOL    HW127101   6.971   3.440   2.465
 8734SOL    HW227102   6.992   3.333   2.587
 8735SOL     OW27103   1.232   3.673   5.041
 8735SOL    HW127104   1.174   3.615   5.099
 8735SOL    HW227105   1.230   3.767   5.074
 8736SOL     OW27106   0.596   5.301   1.976
 8736SOL    HW127107   0.611   5.314   1.878
 8736SOL    HW227108   0.520   5.238   1.990
 8737SOL     OW27109   2.714   6.219   6.209
 8737SOL    HW127110   2.683   6.252   6.120
 8737SOL    HW227111   2.785   6.280   6.245
 8738SOL     OW27112   1.809   4.339   3.346
 8738SOL    HW127113   1.753   4.345   3.263
 8738SOL    HW227114   1.755   4.367   3.425
 8739SOL     OW27115   5.364   4.398   5.023
 8739SOL    HW127116   5.325   4.436   4.939
 8739SOL    HW227117   5.425   4.322   5.000
 8740SOL     OW27118   3.807   2.144   2.545
 8740SOL    HW127119   3.876   2.216   2.556
 8740SOL    HW227120   3.774   2.144   2.451
 8741SOL     OW27121   2.733   0.194   2.175
 8741SOL    HW127122   2.791   0.138   2.117
 8741SOL    HW227123   2.693   0.268   2.121
 8742SOL     OW27124   3.932   0.940   2.398
 8742SOL    HW127125   3.952   0.991   2.314
 8742SOL    HW227126   3.846   0.973   2.436
 8743SOL     OW27127   1.850   1.385   2.245
 8743SOL    HW127128   1.921   1.398   2.176
 8743SOL    HW227129   1.769   1.439   2.221
 8744SOL     OW27130   4.327   2.869   0.448
 8744SOL    HW127131   4.356   2.792   0.505
 8744SOL    HW227132   4.293   2.943   0.507
 8745SOL     OW27133   6.978   2.335   6.182
 8745SOL    HW127134   0.036   2.385   6.153
 8745SOL    HW227135   6.934   2.383   6.258
 8746SOL     OW27136   4.889   5.786   4.469
 8746SOL    HW127137   4.876   5.740   4.557
 8746SOL    HW227138   4.875   5.721   4.394
 8747SOL     OW27139   6.916   1.506   2.039
 8747SOL    HW127140   6.892   1.435   2.106
 8747SOL    HW227141   6.838   1.567   2.027
 8748SOL     OW27142   1.025   1.653   4.174
 8748SOL    HW127143   0.935   1.698   4.171
 8748SOL    HW227144   1.062   1.646   4.082
 8749SOL     OW27145   2.174   1.259   5.459
 8749SOL    HW127146   2.218   1.297   5.378
 8749SOL    HW227147   2.152   1.333   5.523
 8750SOL     OW27148   4.101   2.969   5.396
 8750SOL    HW127149   4.149   3.039   5.450
 8750SOL    HW227150   4.159   2.888   5.388
 8751SOL     OW27151   6.825   0.368   0.709
 8751SOL    HW127152   6.775   0.345   0.793
 8751SOL    HW227153   6.849   0.465   0.710
 8752SOL     OW27154   5.245   3.020   6.686
 8752SOL    HW127155   5.333   3.037   6.732
 8752SOL    HW227156   5.258   3.022   6.587
 8753SOL     OW27157   2.259   4.104   6.786
 8753SOL    HW127158   2.204   4.057   6.854
 8753SOL    HW227159   2.257   4.053   6.700
 8754SOL     OW27160   3.048   4.993   5.838
 8754SOL    HW127161   3.123   4.927   5.845
 8754SOL    HW227162   3.027   5.008   5.741
 8755SOL     OW27163   1.371   0.955   1.064
 8755SOL    HW127164   1.317   1.007   1.130
 8755SOL    HW227165   1.358   0.994   0.972
 8756SOL     OW27166   1.878   2.978   3.341
 8756SOL    HW127167   1.971   2.945   3.348
 8756SOL    HW227168   1.814   2.908   3.373
 8757SOL     OW27169   5.004   6.220   5.905
 8757SOL    HW127170   5.080   6.190   5.963
 8757SOL    HW227171   5.009   6.172   5.817
 8758SOL     OW27172   4.388   6.940   3.489
 8758SOL    HW127173   4.411   6.979   3.579
 8758SOL    HW227174   4.460   6.963   3.424
 8759SOL     OW27175   6.067   1.834   0.040
 8759SOL    HW127176   5.984   1.817   7.011
 8759SOL    HW227177   6.054   1.915   0.097
 8760SOL     OW27178   2.301   2.243   3.959
 8760SOL    HW127179   2.283   2.251   3.861
 8760SOL    HW227180   2.400   2.243   3.975
 8761SOL     OW27181   6.132   2.057   1.964
 8761SOL    HW127182   6.210   2.003   1.995
 8761SOL    HW227183   6.138   2.149   2.001
 8762SOL     OW27184   1.816   5.837   3.628
 8762SOL    HW127185   1.828   5.930   3.662
 8762SOL    HW227186   1.821   5.837   3.528
 8763SOL     OW27187   6.802   0.662   4.817
 8763SOL    HW127188   6.728   0.728   4.833
 8763SOL    HW227189   6.819   0.654   4.719
 8764SOL     OW27190   4.706   5.886   6.204
 8764SOL    HW127191   4.697   5.957   6.274
 8764SOL    HW227192   4.616   5.861   6.170
 8765SOL     OW27193   5.346   1.102   5.036
 8765SOL    HW127194   5.367   1.133   5.128
 8765SOL    HW227195   5.431   1.090   4.985
 8766SOL     OW27196   4.302   4.387   5.402
 8766SOL    HW127197   4.317   4.427   5.312
 8766SOL    HW227198   4.389   4.360   5.443
 8767SOL     OW27199   3.436   0.279   3.723
 8767SOL    HW127200   3.343   0.247   3.706
 8767SOL    HW227201   3.488   0.208   3.770
 8768SOL     OW27202   0.990   2.269   0.549
 8768SOL    HW127203   1.035   2.191   0.506
 8768SOL    HW227204   0.896   2.245   0.572
 8769SOL     OW27205   6.878   1.314   2.240
 8769SOL    HW127206   6.786   1.277   2.255
 8769SOL    HW227207   6.944   1.239   2.238
 8770SOL     OW27208   5.483   4.707   1.750
 8770SOL    HW127209   5.492   4.797   1.793
 8770SOL    HW227210   5.402   4.707   1.690
 8771SOL     OW27211   0.675   3.112   6.098
 8771SOL    HW127212   0.659   3.023   6.055
 8771SOL    HW227213   0.771   3.119   6.126
 8772SOL     OW27214   5.022   0.727   5.536
 8772SOL    HW127215   5.103   0.709   5.481
 8772SOL    HW227216   5.017   0.660   5.611
 8773SOL     OW27217   5.941   2.470   3.771
 8773SOL    HW127218   5.894   2.393   3.814
 8773SOL    HW227219   5.890   2.554   3.788
 8774SOL     OW27220   0.555   6.827   6.311
 8774SOL    HW127221   0.650   6.799   6.325
 8774SOL    HW227222   0.536   6.831   6.213
 8775SOL     OW27223   5.492   1.492   5.522
 8775SOL    HW127224   5.497   1.544   5.436
 8775SOL    HW227225   5.556   1.416   5.518
 8776SOL     OW27226   4.898   3.149   1.358
 8776SOL    HW127227   4.943   3.067   1.323
 8776SOL    HW227228   4.955   3.190   1.430
 8777SOL     OW27229   0.499   3.474   3.002
 8777SOL    HW127230   0.556   3.555   3.020
 8777SOL    HW227231   0.537   3.424   2.924
 8778SOL     OW27232   4.509   3.842   6.003
 8778SOL    HW127233   4.515   3.876   6.097
 8778SOL    HW227234   4.591   3.868   5.953
 8779SOL     OW27235   2.583   5.770   2.242
 8779SOL    HW127236   2.568   5.869   2.240
 8779SOL    HW227237   2.654   5.745   2.176
 8780SOL     OW27238   0.616   6.133   2.722
 8780SOL    HW127239   0.522   6.122   2.691
 8780SOL    HW227240   0.664   6.045   2.717
 8781SOL     OW27241   4.171   6.701   3.006
 8781SOL    HW127242   4.072   6.697   2.993
 8781SOL    HW227243   4.205   6.611   3.031
 8782SOL     OW27244   6.004   1.220   2.100
 8782SOL    HW127245   5.942   1.205   2.176
 8782SOL    HW227246   6.012   1.136   2.046
 8783SOL     OW27247   5.947   3.281   4.177
 8783SOL    HW127248   6.019   3.244   4.118
 8783SOL    HW227249   5.959   3.380   4.185
 8784SOL     OW27250   6.213   6.371   0.514
 8784SOL    HW127251   6.285   6.424   0.468
 8784SOL    HW227252   6.254   6.315   0.586
 8785SOL     OW27253   0.761   5.435   6.147
 8785SOL    HW127254   0.701   5.397   6.077
 8785SOL    HW227255   0.778   5.366   6.218
 8786SOL     OW27256   3.903   1.887   2.555
 8786SOL    HW127257   3.819   1.833   2.557
 8786SOL    HW227258   3.882   1.980   2.524
 8787SOL     OW27259   3.601   0.709   1.497
 8787SOL    HW127260   3.592   0.741   1.592
 8787SOL    HW227261   3.562   0.778   1.435
 8788SOL     OW27262   6.749   0.959   5.097
 8788SOL    HW127263   6.786   0.874   5.059
 8788SOL    HW227264   6.794   0.979   5.184
 8789SOL     OW27265   6.644   4.151   5.299
 8789SOL    HW127266   6.706   4.196   5.363
 8789SOL    HW227267   6.694   4.126   5.216
 8790SOL     OW27268   6.276   1.736   0.193
 8790SOL    HW127269   6.329   1.658   0.161
 8790SOL    HW227270   6.204   1.757   0.127
 8791SOL     OW27271   4.606   6.448   5.052
 8791SOL    HW127272   4.681   6.501   5.091
 8791SOL    HW227273   4.636   6.353   5.038
 8792SOL     OW27274   3.122   5.234   2.752
 8792SOL    HW127275   3.084   5.222   2.660
 8792SOL    HW227276   3.166   5.323   2.758
 8793SOL     OW27277   1.116   4.726   4.378
 8793SOL    HW127278   1.036   4.688   4.424
 8793SOL    HW227279   1.097   4.820   4.350
 8794SOL     OW27280   6.321   1.005   3.285
 8794SOL    HW127281   6.413   1.036   3.309
 8794SOL    HW227282   6.260   1.084   3.280
 8795SOL     OW27283   1.307   5.142   4.987
 8795SOL    HW127284   1.370   5.088   5.044
 8795SOL    HW227285   1.213   5.129   5.021
 8796SOL     OW27286   6.117   3.769   3.299
 8796SOL    HW127287   6.196   3.754   3.239
 8796SOL    HW227288   6.100   3.867   3.308
 8797SOL     OW27289   0.231   0.003   4.209
 8797SOL    HW127290   0.167   6.949   4.206
 8797SOL    HW227291   0.198   0.071   4.275
 8798SOL     OW27292   4.636   6.653   5.569
 8798SOL    HW127293   4.663   6.745   5.541
 8798SOL    HW227294   4.551   6.658   5.622
 8799SOL     OW27295   2.347   4.713   2.441
 8799SOL    HW127296   2.399   4.761   2.512
 8799SOL    HW227297   2.348   4.615   2.459
 8800SOL     OW27298   6.136   6.183   5.518
 8800SOL    HW127299   6.231   6.202   5.545
 8800SOL    HW227300   6.136   6.126   5.436
 8801SOL     OW27301   5.867   1.956   5.432
 8801SOL    HW127302   5.841   2.027   5.498
 8801SOL    HW227303   5.897   1.999   5.347
 8802SOL     OW27304   1.192   5.719   5.425
 8802SOL    HW127305   1.235   5.809   5.431
 8802SOL    HW227306   1.260   5.648   5.443
 8803SOL     OW27307   6.700   1.124   0.170
 8803SOL    HW127308   6.797   1.127   0.196
 8803SOL    HW227309   6.660   1.215   0.182
 8804SOL     OW27310   2.129   6.345   1.033
 8804SOL    HW127311   2.085   6.255   1.040
 8804SOL    HW227312   2.124   6.378   0.939
 8805SOL     OW27313   4.219   5.271   3.588
 8805SOL    HW127314   4.269   5.354   3.563
 8805SOL    HW227315   4.248   5.241   3.679
 8806SOL     OW27316   2.185   5.781   0.478
 8806SOL    HW127317   2.095   5.766   0.519
 8806SOL    HW227318   2.231   5.857   0.524
 8807SOL     OW27319   4.447   2.189   7.022
 8807SOL    HW127320   4.402   2.175   0.087
 8807SOL    HW227321   4.393   2.146   6.949
 8808SOL     OW27322   1.042   2.410   6.881
 8808SOL    HW127323   1.096   2.330   6.908
 8808SOL    HW227324   1.088   2.456   6.805
 8809SOL     OW27325   2.163   3.857   2.943
 8809SOL    HW127326   2.105   3.775   2.936
 8809SOL    HW227327   2.235   3.840   3.011
 8810SOL     OW27328   6.017   1.352   5.314
 8810SOL    HW127329   6.040   1.258   5.340
 8810SOL    HW227330   5.958   1.392   5.384
 8811SOL     OW27331   4.461   0.227   2.851
 8811SOL    HW127332   4.458   0.238   2.951
 8811SOL    HW227333   4.474   0.316   2.808
 8812SOL     OW27334   3.159   0.260   6.685
 8812SOL    HW127335   3.207   0.205   6.754
 8812SOL    HW227336   3.221   0.330   6.649
 8813SOL     OW27337   2.332   4.451   2.481
 8813SOL    HW127338   2.233   4.451   2.493
 8813SOL    HW227339   2.359   4.369   2.431
 8814SOL     OW27340   5.547   6.659   0.485
 8814SOL    HW127341   5.504   6.569   0.490
 8814SOL    HW227342   5.560   6.685   0.390
 8815SOL     OW27343   5.479   0.620   1.347
 8815SOL    HW127344   5.500   0.611   1.444
 8815SOL    HW227345   5.380   0.618   1.334
 8816SOL     OW27346   0.158   6.432   6.887
 8816SOL    HW127347   0.235   6.445   6.950
 8816SOL    HW227348   0.157   6.505   6.819
 8817SOL     OW27349   0.825   3.440   3.969
 8817SOL    HW127350   0.858   3.416   4.060
 8817SOL    HW227351   0.885   3.509   3.929
 8818SOL     OW27352   1.523   6.616   3.000
 8818SOL    HW127353   1.613   6.576   2.982
 8818SOL    HW227354   1.517   6.642   3.096
 8819SOL     OW27355   5.955   4.665   5.195
 8819SOL    HW127356   5.858   4.675   5.171
 8819SOL    HW227357   5.971   4.703   5.286
 8820SOL     OW27358   3.043   1.371   4.831
 8820SOL    HW127359   3.027   1.465   4.859
 8820SOL    HW227360   3.134   1.343   4.860
 8821SOL     OW27361   0.881   5.014   0.261
 8821SOL    HW127362   0.950   5.084   0.245
 8821SOL    HW227363   0.838   5.028   0.350
 8822SOL     OW27364   0.113   0.543   3.209
 8822SOL    HW127365   0.065   0.589   3.284
 8822SOL    HW227366   0.198   0.503   3.243
 8823SOL     OW27367   2.286   0.566   2.417
 8823SOL    HW127368   2.216   0.496   2.433
 8823SOL    HW227369   2.354   0.532   2.353
 8824SOL     OW27370   1.780   0.082   1.242
 8824SOL    HW127371   1.716   0.117   1.311
 8824SOL    HW227372   1.801   0.154   1.177
 8825SOL     OW27373   0.508   0.826   1.492
 8825SOL    HW127374   0.513   0.876   1.405
 8825SOL    HW227375   0.553   0.737   1.482
 8826SOL     OW27376   1.107   3.289   0.809
 8826SOL    HW127377   1.071   3.370   0.761
 8826SOL    HW227378   1.159   3.319   0.889
 8827SOL     OW27379   3.995   0.664   2.409
 8827SOL    HW127380   3.955   0.623   2.327
 8827SOL    HW227381   3.955   0.754   2.425
 8828SOL     OW27382   4.027   4.215   6.491
 8828SOL    HW127383   4.088   4.147   6.532
 8828SOL    HW227384   4.081   4.287   6.447
 8829SOL     OW27385   6.174   1.719   2.089
 8829SOL    HW127386   6.240   1.780   2.044
 8829SOL    HW227387   6.146   1.758   2.176
 8830SOL     OW27388   1.558   1.571   2.437
 8830SOL    HW127389   1.576   1.663   2.471
 8830SOL    HW227390   1.610   1.505   2.490
 8831SOL     OW27391   6.534   3.096   2.424
 8831SOL    HW127392   6.521   3.193   2.407
 8831SOL    HW227393   6.599   3.059   2.358
 8832SOL     OW27394   0.112   6.259   4.360
 8832SOL    HW127395   0.137   6.342   4.411
 8832SOL    HW227396   0.077   6.191   4.424
 8833SOL     OW27397   3.855   3.790   0.662
 8833SOL    HW127398   3.882   3.732   0.586
 8833SOL    HW227399   3.780   3.850   0.633
 8834SOL     OW27400   5.825   3.493   4.945
 8834SOL    HW127401   5.766   3.516   5.023
 8834SOL    HW227402   5.852   3.578   4.899
 8835SOL     OW27403   5.720   1.117   5.824
 8835SOL    HW127404   5.775   1.142   5.744
 8835SOL    HW227405   5.777   1.066   5.888
 8836SOL     OW27406   6.100   2.316   0.495
 8836SOL    HW127407   6.052   2.285   0.577
 8836SOL    HW227408   6.171   2.382   0.521
 8837SOL     OW27409   0.051   0.412   1.828
 8837SOL    HW127410   0.042   0.364   1.740
 8837SOL    HW227411   0.074   0.346   1.900
 8838SOL     OW27412   0.553   4.764   2.146
 8838SOL    HW127413   0.639   4.811   2.165
 8838SOL    HW227414   0.559   4.669   2.176
 8839SOL     OW27415   4.864   5.527   2.448
 8839SOL    HW127416   4.905   5.515   2.539
 8839SOL    HW227417   4.819   5.616   2.444
 8840SOL     OW27418   6.084   0.363   1.906
 8840SOL    HW127419   6.134   0.352   1.820
 8840SOL    HW227420   6.115   0.445   1.953
 8841SOL     OW27421   4.460   0.655   2.000
 8841SOL    HW127422   4.455   0.690   2.094
 8841SOL    HW227423   4.461   0.732   1.936
 8842SOL     OW27424   3.154   4.064   4.311
 8842SOL    HW127425   3.094   4.053   4.232
 8842SOL    HW227426   3.105   4.041   4.395
 8843SOL     OW27427   1.725   3.177   4.625
 8843SOL    HW127428   1.769   3.242   4.687
 8843SOL    HW227429   1.789   3.104   4.603
 8844SOL     OW27430   0.031   2.500   5.228
 8844SOL    HW127431   7.008   2.422   5.185
 8844SOL    HW227432   0.068   2.472   5.316
 8845SOL     OW27433   2.245   5.198   0.948
 8845SOL    HW127434   2.299   5.276   0.980
 8845SOL    HW227435   2.199   5.223   0.863
 8846SOL     OW27436   5.526   5.053   4.188
 8846SOL    HW127437   5.431   5.046   4.219
 8846SOL    HW227438   5.540   5.140   4.141
 8847SOL     OW27439   1.610   0.782   2.502
 8847SOL    HW127440   1.624   0.866   2.449
 8847SOL    HW227441   1.699   0.747   2.532
 8848SOL     OW27442   3.199   2.069   2.141
 8848SOL    HW127443   3.123   2.108   2.194
 8848SOL    HW227444   3.201   2.112   2.050
 8849SOL     OW27445   2.878   5.128   4.090
 8849SOL    HW127446   2.915   5.195   4.155
 8849SOL    HW227447   2.795   5.165   4.047
 8850SOL     OW27448   2.970   1.170   0.996
 8850SOL    HW127449   3.000   1.082   1.031
 8850SOL    HW227450   2.941   1.228   1.073
 8851SOL     OW27451   1.032   4.397   2.084
 8851SOL    HW127452   1.000   4.492   2.093
 8851SOL    HW227453   1.095   4.376   2.158
 8852SOL     OW27454   4.964   3.140   6.356
 8852SOL    HW127455   4.977   3.112   6.261
 8852SOL    HW227456   4.923   3.231   6.358
 8853SOL     OW27457   3.983   0.976   4.292
 8853SOL    HW127458   3.917   1.015   4.356
 8853SOL    HW227459   4.017   0.888   4.328
 8854SOL     OW27460   2.416   0.529   6.352
 8854SOL    HW127461   2.513   0.549   6.366
 8854SOL    HW227462   2.364   0.615   6.354
 8855SOL     OW27463   6.595   5.894   0.095
 8855SOL    HW127464   6.562   5.837   0.170
 8855SOL    HW227465   6.695   5.904   0.103
 8856SOL     OW27466   6.678   6.839   5.037
 8856SOL    HW127467   6.599   6.811   4.982
 8856SOL    HW227468   6.666   6.933   5.069
 8857SOL     OW27469   6.406   1.659   3.458
 8857SOL    HW127470   6.391   1.727   3.387
 8857SOL    HW227471   6.477   1.595   3.428
 8858SOL     OW27472   1.849   3.113   5.610
 8858SOL    HW127473   1.888   3.023   5.593
 8858SOL    HW227474   1.894   3.180   5.552
 8859SOL     OW27475   0.760   0.036   5.554
 8859SOL    HW127476   0.794   0.075   5.468
 8859SOL    HW227477   0.666   0.002   5.540
 8860SOL     OW27478   1.781   3.924   2.616
 8860SOL    HW127479   1.837   3.967   2.688
 8860SOL    HW227480   1.684   3.941   2.636
 8861SOL     OW27481   3.219   2.564   6.354
 8861SOL    HW127482   3.180   2.618   6.280
 8861SOL    HW227483   3.188   2.469   6.346
 8862SOL     OW27484   5.883   1.502   3.668
 8862SOL    HW127485   5.941   1.511   3.586
 8862SOL    HW227486   5.897   1.582   3.726
 8863SOL     OW27487   1.907   5.479   4.481
 8863SOL    HW127488   1.876   5.543   4.552
 8863SOL    HW227489   1.864   5.502   4.394
 8864SOL     OW27490   2.561   3.454   6.290
 8864SOL    HW127491   2.515   3.542   6.301
 8864SOL    HW227492   2.528   3.410   6.207
 8865SOL     OW27493   3.141   0.978   4.613
 8865SOL    HW127494   3.132   1.072   4.648
 8865SOL    HW227495   3.164   0.981   4.516
 8866SOL     OW27496   4.353   6.662   3.499
 8866SOL    HW127497   4.348   6.761   3.490
 8866SOL    HW227498   4.289   6.632   3.570
 8867SOL     OW27499   5.329   2.729   3.123
 8867SOL    HW127500   5.385   2.665   3.069
 8867SOL    HW227501   5.260   2.770   3.064
 8868SOL     OW27502   5.591   3.896   0.706
 8868SOL    HW127503   5.573   3.855   0.795
 8868SOL    HW227504   5.628   3.826   0.644
 8869SOL     OW27505   4.207   5.087   3.192
 8869SOL    HW127506   4.234   4.993   3.168
 8869SOL    HW227507   4.110   5.089   3.216
 8870SOL     OW27508   2.890   0.417   0.509
 8870SOL    HW127509   2.825   0.396   0.581
 8870SOL    HW227510   2.944   0.498   0.535
 8871SOL     OW27511   3.285   1.673   3.569
 8871SOL    HW127512   3.236   1.647   3.653
 8871SOL    HW227513   3.298   1.592   3.512
 8872SOL     OW27514   1.728   3.684   4.416
 8872SOL    HW127515   1.736   3.714   4.511
 8872SOL    HW227516   1.687   3.593   4.413
 8873SOL     OW27517   6.215   5.888   2.118
 8873SOL    HW127518   6.182   5.972   2.161
 8873SOL    HW227519   6.159   5.868   2.037
 8874SOL     OW27520   2.329   6.939   1.363
 8874SOL    HW127521   2.378   6.950   1.277
 8874SOL    HW227522   2.351   7.014   1.425
 8875SOL     OW27523   1.008   2.241   4.518
 8875SOL    HW127524   0.956   2.256   4.602
 8875SOL    HW227525   1.101   2.273   4.530
 8876SOL     OW27526   0.660   0.666   4.810
 8876SOL    HW127527   0.756   0.683   4.788
 8876SOL    HW227528   0.603   0.729   4.757
 8877SOL     OW27529   2.726   0.603   4.357
 8877SOL    HW127530   2.823   0.577   4.360
 8877SOL    HW227531   2.710   0.661   4.277
 8878SOL     OW27532   0.784   5.031   1.005
 8878SOL    HW127533   0.699   5.001   0.962
 8878SOL    HW227534   0.777   5.019   1.104
 8879SOL     OW27535   5.772   5.213   1.132
 8879SOL    HW127536   5.689   5.182   1.179
 8879SOL    HW227537   5.837   5.249   1.199
 8880SOL     OW27538   0.443   5.729   4.943
 8880SOL    HW127539   0.426   5.635   4.913
 8880SOL    HW227540   0.534   5.734   4.986
 8881SOL     OW27541   5.949   0.053   3.609
 8881SOL    HW127542   5.994   0.139   3.633
 8881SOL    HW227543   5.973   7.006   3.677
 8882SOL     OW27544   5.108   1.022   0.491
 8882SOL    HW127545   5.098   1.121   0.493
 8882SOL    HW227546   5.162   0.993   0.571
 8883SOL     OW27547   0.410   1.403   6.159
 8883SOL    HW127548   0.494   1.356   6.187
 8883SOL    HW227549   0.366   1.443   6.239
 8884SOL     OW27550   5.848   6.421   6.423
 8884SOL    HW127551   5.809   6.474   6.498
 8884SOL    HW227552   5.930   6.466   6.388
 8885SOL     OW27553   6.384   3.690   1.097
 8885SOL    HW127554   6.352   3.717   1.188
 8885SOL    HW227555   6.369   3.591   1.085
 8886SOL     OW27556   3.244   5.961   5.773
 8886SOL    HW127557   3.165   5.900   5.782
 8886SOL    HW227558   3.279   5.983   5.864
 8887SOL     OW27559   3.194   1.564   1.231
 8887SOL    HW127560   3.129   1.638   1.244
 8887SOL    HW227561   3.209   1.549   1.133
 8888SOL     OW27562   1.194   2.137   1.332
 8888SOL    HW127563   1.115   2.110   1.277
 8888SOL    HW227564   1.199   2.078   1.413
 8889SOL     OW27565   5.002   6.523   5.858
 8889SOL    HW127566   4.986   6.424   5.860
 8889SOL    HW227567   5.097   6.541   5.833
 8890SOL     OW27568   6.348   6.043   4.882
 8890SOL    HW127569   6.426   5.983   4.862
 8890SOL    HW227570   6.263   5.992   4.869
 8891SOL     OW27571   6.385   3.250   6.133
 8891SOL    HW127572   6.465   3.296   6.095
 8891SOL    HW227573   6.310   3.315   6.141
 8892SOL     OW27574   2.872   6.286   3.621
 8892SOL    HW127575   2.793   6.292   3.560
 8892SOL    HW227576   2.877   6.368   3.678
 8893SOL     OW27577   0.797   0.700   1.982
 8893SOL    HW127578   0.789   0.658   1.891
 8893SOL    HW227579   0.873   0.658   2.031
 8894SOL     OW27580   3.664   3.231   5.921
 8894SOL    HW127581   3.683   3.317   5.873
 8894SOL    HW227582   3.746   3.174   5.921
 8895SOL     OW27583   6.962   0.662   1.718
 8895SOL    HW127584   6.959   0.696   1.812
 8895SOL    HW227585   7.009   0.574   1.716
 8896SOL     OW27586   1.282   3.047   4.614
 8896SOL    HW127587   1.193   3.011   4.642
 8896SOL    HW227588   1.338   3.064   4.695
 8897SOL     OW27589   1.219   1.754   2.629
 8897SOL    HW127590   1.165   1.801   2.559
 8897SOL    HW227591   1.232   1.658   2.602
 8898SOL     OW27592   6.152   3.140   4.428
 8898SOL    HW127593   6.066   3.187   4.446
 8898SOL    HW227594   6.134   3.054   4.381
 8899SOL     OW27595   1.739   4.191   0.029
 8899SOL    HW127596   1.803   4.217   6.981
 8899SOL    HW227597   1.708   4.097   0.014
 8900SOL     OW27598   5.671   3.781   2.657
 8900SOL    HW127599   5.575   3.790   2.631
 8900SOL    HW227600   5.677   3.769   2.757
 8901SOL     OW27601   2.882   0.788   4.022
 8901SOL    HW127602   2.938   0.828   4.095
 8901SOL    HW227603   2.786   0.797   4.046
 8902SOL     OW27604   3.319   5.975   6.431
 8902SOL    HW127605   3.325   5.877   6.414
 8902SOL    HW227606   3.228   5.997   6.467
 8903SOL     OW27607   2.368   0.945   4.052
 8903SOL    HW127608   2.427   1.025   4.056
 8903SOL    HW227609   2.312   0.941   4.135
 8904SOL     OW27610   6.994   5.036   3.588
 8904SOL    HW127611   6.921   5.058   3.652
 8904SOL    HW227612   7.021   4.940   3.599
 8905SOL     OW27613   1.891   3.916   4.368
 8905SOL    HW127614   1.825   3.990   4.379
 8905SOL    HW227615   1.843   3.828   4.369
 8906SOL     OW27616   6.693   6.808   6.795
 8906SOL    HW127617   6.738   6.799   6.706
 8906SOL    HW227618   6.744   6.754   6.863
 8907SOL     OW27619   3.328   2.087   4.926
 8907SOL    HW127620   3.414   2.129   4.895
 8907SOL    HW227621   3.261   2.158   4.944
 8908SOL     OW27622   1.518   3.162   6.864
 8908SOL    HW127623   1.548   3.085   6.808
 8908SOL    HW227624   1.458   3.129   6.937
 8909SOL     OW27625   1.820   0.243   5.171
 8909SOL    HW127626   1.859   0.333   5.158
 8909SOL    HW227627   1.793   0.205   5.082
 8910SOL     OW27628   1.965   2.935   6.235
 8910SOL    HW127629   1.869   2.940   6.208
 8910SOL    HW227630   2.022   2.977   6.164
 8911SOL     OW27631   3.636   2.147   4.999
 8911SOL    HW127632   3.688   2.078   5.049
 8911SOL    HW227633   3.697   2.221   4.969
 8912SOL     OW27634   4.073   1.399   6.792
 8912SOL    HW127635   4.042   1.443   6.876
 8912SOL    HW227636   4.058   1.300   6.799
 8913SOL     OW27637   4.828   5.106   1.010
 8913SOL    HW127638   4.898   5.166   0.971
 8913SOL    HW227639   4.781   5.058   0.935
 8914SOL     OW27640   4.385   0.916   5.859
 8914SOL    HW127641   4.449   0.926   5.783
 8914SOL    HW227642   4.437   0.902   5.944
 8915SOL     OW27643   0.930   2.246   3.765
 8915SOL    HW127644   0.839   2.265   3.801
 8915SOL    HW227645   0.923   2.178   3.693
 8916SOL     OW27646   0.528   3.425   2.022
 8916SOL    HW127647   0.583   3.414   2.105
 8916SOL    HW227648   0.550   3.352   1.958
 8917SOL     OW27649   5.903   5.189   6.107
 8917SOL    HW127650   5.877   5.163   6.200
 8917SOL    HW227651   5.917   5.288   6.103
 8918SOL     OW27652   6.955   5.957   0.611
 8918SOL    HW127653   6.949   5.871   0.663
 8918SOL    HW227654   6.906   5.947   0.524
 8919SOL     OW27655   4.218   3.057   0.600
 8919SOL    HW127656   4.281   3.023   0.671
 8919SOL    HW227657   4.185   3.147   0.626
 8920SOL     OW27658   6.927   6.526   6.750
 8920SOL    HW127659   7.012   6.529   6.802
 8920SOL    HW227660   6.852   6.563   6.806
 8921SOL     OW27661   2.294   1.562   3.157
 8921SOL    HW127662   2.274   1.546   3.061
 8921SOL    HW227663   2.280   1.659   3.178
 8922SOL     OW27664   2.572   5.328   1.180
 8922SOL    HW127665   2.592   5.230   1.182
 8922SOL    HW227666   2.507   5.351   1.252
 8923SOL     OW27667   2.016   3.882   6.406
 8923SOL    HW127668   2.026   3.975   6.443
 8923SOL    HW227669   2.097   3.859   6.352
 8924SOL     OW27670   3.019   5.841   5.851
 8924SOL    HW127671   3.031   5.822   5.948
 8924SOL    HW227672   2.923   5.858   5.831
 8925SOL     OW27673   0.984   0.530   2.110
 8925SOL    HW127674   1.084   0.521   2.109
 8925SOL    HW227675   0.946   0.472   2.181
 8926SOL     OW27676   5.631   2.852   0.948
 8926SOL    HW127677   5.678   2.861   0.860
 8926SOL    HW227678   5.570   2.930   0.961
 8927SOL     OW27679   1.994   1.950   4.968
 8927SOL    HW127680   1.937   2.021   5.010
 8927SOL    HW227681   2.089   1.965   4.995
 8928SOL     OW27682   6.901   0.714   5.113
 8928SOL    HW127683   6.972   0.782   5.095
 8928SOL    HW227684   6.881   0.663   5.029
 8929SOL     OW27685   0.335   3.551   3.668
 8929SOL    HW127686   0.365   3.645   3.654
 8929SOL    HW227687   0.235   3.546   3.660
 8930SOL     OW27688   1.678   4.881   4.707
 8930SOL    HW127689   1.584   4.896   4.738
 8930SOL    HW227690   1.676   4.824   4.625
 8931SOL     OW27691   4.003   2.763   0.513
 8931SOL    HW127692   4.007   2.771   0.414
 8931SOL    HW227693   4.091   2.731   0.548
 8932SOL     OW27694   5.252   0.136   6.936
 8932SOL    HW127695   5.332   0.134   6.875
 8932SOL    HW227696   5.233   0.043   6.968
 8933SOL     OW27697   0.731   2.161   5.613
 8933SOL    HW127698   0.752   2.076   5.564
 8933SOL    HW227699   0.635   2.185   5.599
 8934SOL     OW27700   2.503   5.304   3.679
 8934SOL    HW127701   2.569   5.379   3.681
 8934SOL    HW227702   2.548   5.220   3.649
 8935SOL     OW27703   5.060   3.924   1.786
 8935SOL    HW127704   5.119   3.849   1.815
 8935SOL    HW227705   5.064   3.934   1.687
 8936SOL     OW27706   0.656   3.284   0.747
 8936SOL    HW127707   0.567   3.274   0.791
 8936SOL    HW227708   0.726   3.244   0.806
 8937SOL     OW27709   0.194   1.192   4.027
 8937SOL    HW127710   0.163   1.098   4.011
 8937SOL    HW227711   0.116   1.255   4.020
 8938SOL     OW27712   6.636   1.442   0.727
 8938SOL    HW127713   6.580   1.487   0.657
 8938SOL    HW227714   6.718   1.495   0.744
 8939SOL     OW27715   6.545   2.805   4.720
 8939SOL    HW127716   6.575   2.791   4.625
 8939SOL    HW227717   6.525   2.716   4.761
 8940SOL     OW27718   6.007   2.538   0.358
 8940SOL    HW127719   6.049   2.466   0.412
 8940SOL    HW227720   5.921   2.506   0.319
 8941SOL     OW27721   4.928   2.183   1.536
 8941SOL    HW127722   4.852   2.135   1.578
 8941SOL    HW227723   4.962   2.253   1.598
 8942SOL     OW27724   0.197   5.019   3.979
 8942SOL    HW127725   0.289   4.981   3.984
 8942SOL    HW227726   0.203   5.119   3.975
 8943SOL     OW27727   4.340   4.487   0.248
 8943SOL    HW127728   4.246   4.458   0.227
 8943SOL    HW227729   4.357   4.478   0.346
 8944SOL     OW27730   5.043   4.869   4.572
 8944SOL    HW127731   5.047   4.888   4.474
 8944SOL    HW227732   5.074   4.949   4.623
 8945SOL     OW27733   6.725   3.170   4.984
 8945SOL    HW127734   6.773   3.198   4.902
 8945SOL    HW227735   6.789   3.168   5.061
 8946SOL     OW27736   3.671   0.313   4.708
 8946SOL    HW127737   3.621   0.388   4.663
 8946SOL    HW227738   3.768   0.320   4.685
 8947SOL     OW27739   1.723   4.233   6.301
 8947SOL    HW127740   1.761   4.312   6.253
 8947SOL    HW227741   1.740   4.242   6.399
 8948SOL     OW27742   6.655   6.296   4.047
 8948SOL    HW127743   6.590   6.370   4.066
 8948SOL    HW227744   6.723   6.327   3.981
 8949SOL     OW27745   3.804   5.719   6.907
 8949SOL    HW127746   3.863   5.779   6.961
 8949SOL    HW227747   3.851   5.632   6.891
 8950SOL     OW27748   4.758   3.369   1.212
 8950SOL    HW127749   4.794   3.460   1.233
 8950SOL    HW227750   4.809   3.300   1.263
 8951SOL     OW27751   2.432   1.200   4.489
 8951SOL    HW127752   2.465   1.261   4.562
 8951SOL    HW227753   2.348   1.238   4.449
 8952SOL     OW27754   2.138   4.861   3.596
 8952SOL    HW127755   2.223   4.812   3.579
 8952SOL    HW227756   2.141   4.951   3.552
 8953SOL     OW27757   2.513   5.177   1.708
 8953SOL    HW127758   2.548   5.255   1.761
 8953SOL    HW227759   2.572   5.098   1.721
 8954SOL     OW27760   0.715   5.689   4.040
 8954SOL    HW127761   0.801   5.739   4.047
 8954SOL    HW227762   0.653   5.717   4.113
 8955SOL     OW27763   7.008   2.804   2.812
 8955SOL    HW127764   6.932   2.744   2.837
 8955SOL    HW227765   0.030   2.768   2.730
 8956SOL     OW27766   0.752   6.979   6.710
 8956SOL    HW127767   0.801   7.012   6.629
 8956SOL    HW227768   0.661   7.019   6.713
 8957SOL     OW27769   1.858   5.391   1.811
 8957SOL    HW127770   1.823   5.401   1.718
 8957SOL    HW227771   1.816   5.459   1.870
 8958SOL     OW27772   1.532   2.454   4.759
 8958SOL    HW127773   1.531   2.504   4.672
 8958SOL    HW227774   1.561   2.360   4.743
 8959SOL     OW27775   1.031   3.597   2.256
 8959SOL    HW127776   1.028   3.625   2.352
 8959SOL    HW227777   1.056   3.500   2.251
 8960SOL     OW27778   6.615   4.698   4.234
 8960SOL    HW127779   6.529   4.648   4.227
 8960SOL    HW227780   6.681   4.660   4.169
 8961SOL     OW27781   3.587   0.702   4.124
 8961SOL    HW127782   3.664   0.762   4.101
 8961SOL    HW227783   3.574   0.635   4.050
 8962SOL     OW27784   0.642   6.122   2.134
 8962SOL    HW127785   0.559   6.174   2.153
 8962SOL    HW227786   0.682   6.154   2.048
 8963SOL     OW27787   3.501   5.981   4.552
 8963SOL    HW127788   3.421   5.969   4.610
 8963SOL    HW227789   3.575   5.921   4.583
 8964SOL     OW27790   5.703   3.957   2.431
 8964SOL    HW127791   5.692   3.915   2.521
 8964SOL    HW227792   5.688   3.889   2.360
 8965SOL     OW27793   3.010   4.707   0.422
 8965SOL    HW127794   3.053   4.656   0.498
 8965SOL    HW227795   3.047   4.674   0.335
 8966SOL     OW27796   6.803   5.506   6.322
 8966SOL    HW127797   6.825   5.408   6.319
 8966SOL    HW227798   6.851   5.554   6.249
 8967SOL     OW27799   4.173   0.767   3.532
 8967SOL    HW127800   4.252   0.822   3.561
 8967SOL    HW227801   4.094   0.790   3.589
 8968SOL     OW27802   2.492   4.786   1.604
 8968SOL    HW127803   2.433   4.796   1.683
 8968SOL    HW227804   2.585   4.765   1.634
 8969SOL     OW27805   0.456   0.411   3.171
 8969SOL    HW127806   0.455   0.458   3.083
 8969SOL    HW227807   0.485   0.316   3.158
 8970SOL     OW27808   1.548   2.659   6.735
 8970SOL    HW127809   1.508   2.569   6.753
 8970SOL    HW227810   1.591   2.659   6.645
 8971SOL     OW27811   4.736   6.786   1.286
 8971SOL    HW127812   4.642   6.766   1.316
 8971SOL    HW227813   4.733   6.852   1.210
 8972SOL     OW27814   5.536   4.643   0.742
 8972SOL    HW127815   5.636   4.640   0.750
 8972SOL    HW227816   5.504   4.737   0.755
 8973SOL     OW27817   0.054   2.630   2.377
 8973SOL    HW127818   0.113   2.612   2.299
 8973SOL    HW227819   0.108   2.667   2.453
 8974SOL     OW27820   2.087   3.648   3.613
 8974SOL    HW127821   2.081   3.681   3.707
 8974SOL    HW227822   2.091   3.726   3.551
 8975SOL     OW27823   0.374   6.782   6.546
 8975SOL    HW127824   0.437   6.778   6.623
 8975SOL    HW227825   0.424   6.777   6.460
 8976SOL     OW27826   6.396   6.663   0.965
 8976SOL    HW127827   6.380   6.674   0.867
 8976SOL    HW227828   6.323   6.709   1.016
 8977SOL     OW27829   0.065   4.957   6.587
 8977SOL    HW127830   0.036   5.025   6.519
 8977SOL    HW227831   7.020   4.884   6.592
 8978SOL     OW27832   5.197   6.547   5.153
 8978SOL    HW127833   5.184   6.503   5.064
 8978SOL    HW227834   5.119   6.606   5.173
 8979SOL     OW27835   1.205   5.281   6.139
 8979SOL    HW127836   1.208   5.379   6.118
 8979SOL    HW227837   1.169   5.231   6.060
 8980SOL     OW27838   4.359   2.079   5.812
 8980SOL    HW127839   4.329   2.025   5.890
 8980SOL    HW227840   4.305   2.163   5.806
 8981SOL     OW27841   4.538   2.440   5.866
 8981SOL    HW127842   4.575   2.409   5.778
 8981SOL    HW227843   4.527   2.362   5.927
 8982SOL     OW27844   6.700   1.905   1.739
 8982SOL    HW127845   6.733   1.914   1.645
 8982SOL    HW227846   6.767   1.854   1.793
 8983SOL     OW27847   1.333   5.086   1.624
 8983SOL    HW127848   1.241   5.116   1.650
 8983SOL    HW227849   1.391   5.166   1.610
 8984SOL     OW27850   6.307   0.102   4.471
 8984SOL    HW127851   6.350   0.103   4.380
 8984SOL    HW227852   6.258   0.188   4.486
 8985SOL     OW27853   4.731   1.733   0.898
 8985SOL    HW127854   4.800   1.764   0.964
 8985SOL    HW227855   4.716   1.805   0.830
 8986SOL     OW27856   5.415   4.613   2.243
 8986SOL    HW127857   5.326   4.656   2.224
 8986SOL    HW227858   5.452   4.575   2.158
 8987SOL     OW27859   2.999   0.568   1.306
 8987SOL    HW127860   3.025   0.510   1.229
 8987SOL    HW227861   3.015   0.519   1.391
 8988SOL     OW27862   1.728   5.672   0.967
 8988SOL    HW127863   1.823   5.656   0.995
 8988SOL    HW227864   1.680   5.720   1.041
 8989SOL     OW27865   5.192   3.055   2.903
 8989SOL    HW127866   5.120   3.124   2.915
 8989SOL    HW227867   5.154   2.964   2.923
 8990SOL     OW27868   2.753   6.194   0.828
 8990SOL    HW127869   2.792   6.238   0.909
 8990SOL    HW227870   2.693   6.258   0.781
 8991SOL     OW27871   2.394   2.534   1.590
 8991SOL    HW127872   2.420   2.628   1.568
 8991SOL    HW227873   2.379   2.483   1.506
 8992SOL     OW27874   0.593   3.070   0.137
 8992SOL    HW127875   0.546   3.005   0.196
 8992SOL    HW227876   0.530   3.145   0.114
 8993SOL     OW27877   4.716   2.158   3.627
 8993SOL    HW127878   4.699   2.116   3.538
 8993SOL    HW227879   4.814   2.167   3.642
 8994SOL     OW27880   1.880   4.654   4.331
 8994SOL    HW127881   1.911   4.563   4.304
 8994SOL    HW227882   1.825   4.646   4.415
 8995SOL     OW27883   1.086   2.456   5.240
 8995SOL    HW127884   1.019   2.384   5.223
 8995SOL    HW227885   1.054   2.515   5.315
 8996SOL     OW27886   0.379   3.487   1.279
 8996SOL    HW127887   0.366   3.568   1.336
 8996SOL    HW227888   0.465   3.443   1.304
 8997SOL     OW27889   5.030   1.147   5.875
 8997SOL    HW127890   5.031   1.054   5.837
 8997SOL    HW227891   4.984   1.145   5.964
 8998SOL     OW27892   6.860   2.296   5.104
 8998SOL    HW127893   6.819   2.207   5.124
 8998SOL    HW227894   6.798   2.348   5.044
 8999SOL     OW27895   5.027   1.172   6.351
 8999SOL    HW127896   5.059   1.087   6.394
 8999SOL    HW227897   4.952   1.210   6.404
 9000SOL     OW27898   3.076   4.129   6.967
 9000SOL    HW127899   2.990   4.179   6.953
 9000SOL    HW227900   3.111   4.149   0.035
 9001SOL     OW27901   1.396   4.672   3.151
 9001SOL    HW127902   1.455   4.737   3.200
 9001SOL    HW227903   1.436   4.581   3.155
 9002SOL     OW27904   0.062   5.698   5.556
 9002SOL    HW127905   0.145   5.683   5.609
 9002SOL    HW227906   7.005   5.671   5.611
 9003SOL     OW27907   6.275   2.558   0.581
 9003SOL    HW127908   6.345   2.489   0.599
 9003SOL    HW227909   6.283   2.632   0.648
 9004SOL     OW27910   5.076   6.949   1.596
 9004SOL    HW127911   5.018   6.886   1.647
 9004SOL    HW227912   5.113   6.903   1.516
 9005SOL     OW27913   4.993   2.432   4.259
 9005SOL    HW127914   4.980   2.349   4.312
 9005SOL    HW227915   4.940   2.425   4.174
 9006SOL     OW27916   1.184   5.558   1.078
 9006SOL    HW127917   1.213   5.634   1.020
 9006SOL    HW227918   1.251   5.484   1.071
 9007SOL     OW27919   3.340   5.414   3.393
 9007SOL    HW127920   3.268   5.446   3.331
 9007SOL    HW227921   3.334   5.465   3.479
 9008SOL     OW27922   6.543   4.990   2.429
 9008SOL    HW127923   6.605   5.065   2.404
 9008SOL    HW227924   6.593   4.923   2.484
 9009SOL     OW27925   3.067   6.626   0.841
 9009SOL    HW127926   3.142   6.610   0.778
 9009SOL    HW227927   3.052   6.545   0.897
 9010SOL     OW27928   0.971   6.914   4.540
 9010SOL    HW127929   1.038   6.850   4.576
 9010SOL    HW227930   1.014   6.972   4.470
 9011SOL     OW27931   3.906   2.186   1.551
 9011SOL    HW127932   3.991   2.153   1.510
 9011SOL    HW227933   3.927   2.251   1.624
 9012SOL     OW27934   1.938   5.726   0.613
 9012SOL    HW127935   1.951   5.786   0.691
 9012SOL    HW227936   1.842   5.700   0.606
 9013SOL     OW27937   6.469   5.829   4.586
 9013SOL    HW127938   6.525   5.812   4.505
 9013SOL    HW227939   6.377   5.856   4.558
 9014SOL     OW27940   1.468   1.275   0.228
 9014SOL    HW127941   1.454   1.357   0.283
 9014SOL    HW227942   1.447   1.194   0.283
 9015SOL     OW27943   0.113   1.136   6.980
 9015SOL    HW127944   0.110   1.044   6.941
 9015SOL    HW227945   0.094   1.131   0.055
 9016SOL     OW27946   6.649   6.417   5.556
 9016SOL    HW127947   6.600   6.405   5.642
 9016SOL    HW227948   6.662   6.515   5.538
 9017SOL     OW27949   6.187   2.341   3.815
 9017SOL    HW127950   6.221   2.304   3.728
 9017SOL    HW227951   6.108   2.400   3.796
 9018SOL     OW27952   3.676   1.533   5.233
 9018SOL    HW127953   3.727   1.614   5.204
 9018SOL    HW227954   3.699   1.511   5.328
 9019SOL     OW27955   2.159   6.264   6.726
 9019SOL    HW127956   2.257   6.282   6.720
 9019SOL    HW227957   2.143   6.167   6.746
 9020SOL     OW27958   1.795   3.987   2.356
 9020SOL    HW127959   1.745   4.072   2.340
 9020SOL    HW227960   1.787   3.961   2.452
 9021SOL     OW27961   6.771   6.339   3.780
 9021SOL    HW127962   6.871   6.329   3.783
 9021SOL    HW227963   6.746   6.395   3.701
 9022SOL     OW27964   2.585   0.426   0.469
 9022SOL    HW127965   2.607   0.399   0.563
 9022SOL    HW227966   2.638   0.370   0.405
 9023SOL     OW27967   3.602   3.751   3.695
 9023SOL    HW127968   3.600   3.675   3.759
 9023SOL    HW227969   3.652   3.828   3.735
 9024SOL     OW27970   1.577   5.995   6.082
 9024SOL    HW127971   1.578   6.008   6.181
 9024SOL    HW227972   1.666   5.962   6.052
 9025SOL     OW27973   6.220   5.633   1.457
 9025SOL    HW127974   6.310   5.675   1.470
 9025SOL    HW227975   6.171   5.630   1.544
 9026SOL     OW27976   3.328   3.201   4.080
 9026SOL    HW127977   3.425   3.225   4.073
 9026SOL    HW227978   3.310   3.117   4.029
 9027SOL     OW27979   2.776   2.068   3.331
 9027SOL    HW127980   2.755   1.980   3.373
 9027SOL    HW227981   2.693   2.104   3.287
 9028SOL     OW27982   1.790   4.700   6.358
 9028SOL    HW127983   1.774   4.781   6.302
 9028SOL    HW227984   1.726   4.627   6.331
 9029SOL     OW27985   3.743   5.006   4.969
 9029SOL    HW127986   3.739   4.988   4.871
 9029SOL    HW227987   3.793   5.092   4.985
 9030SOL     OW27988   1.693   0.431   2.467
 9030SOL    HW127989   1.747   0.369   2.411
 9030SOL    HW227990   1.635   0.379   2.530
 9031SOL     OW27991   3.016   5.237   5.283
 9031SOL    HW127992   3.068   5.297   5.344
 9031SOL    HW227993   2.987   5.156   5.334
 9032SOL     OW27994   3.593   2.745   1.192
 9032SOL    HW127995   3.639   2.824   1.231
 9032SOL    HW227996   3.604   2.666   1.252
 9033SOL     OW27997   2.213   3.003   4.099
 9033SOL    HW127998   2.133   3.018   4.040
 9033SOL    HW227999   2.203   3.057   4.182
 9034SOL     OW28000   2.782   0.020   5.242
 9034SOL    HW128001   2.865   6.998   5.276
 9034SOL    HW228002   2.745   6.990   5.166
 9035SOL     OW28003   0.655   6.616   5.258
 9035SOL    HW128004   0.617   6.524   5.263
 9035SOL    HW228005   0.683   6.645   5.349
 9036SOL     OW28006   2.196   2.429   5.309
 9036SOL    HW128007   2.103   2.459   5.329
 9036SOL    HW228008   2.261   2.494   5.349
 9037SOL     OW28009   2.526   3.834   6.526
 9037SOL    HW128010   2.482   3.782   6.453
 9037SOL    HW228011   2.587   3.773   6.577
 9038SOL     OW28012   5.614   0.785   5.886
 9038SOL    HW128013   5.712   0.807   5.892
 9038SOL    HW228014   5.590   0.719   5.957
 9039SOL     OW28015   1.650   4.254   4.998
 9039SOL    HW128016   1.721   4.315   5.033
 9039SOL    HW228017   1.622   4.283   4.907
 9040SOL     OW28018   2.781   0.657   3.231
 9040SOL    HW128019   2.785   0.687   3.135
 9040SOL    HW228020   2.825   0.726   3.289
 9041SOL     OW28021   0.577   1.865   2.182
 9041SOL    HW128022   0.510   1.804   2.225
 9041SOL    HW228023   0.661   1.865   2.236
 9042SOL     OW28024   2.480   6.997   3.710
 9042SOL    HW128025   2.413   6.945   3.657
 9042SOL    HW228026   2.474   6.972   3.806
 9043SOL     OW28027   2.002   2.088   5.922
 9043SOL    HW128028   1.966   1.998   5.899
 9043SOL    HW228029   1.926   2.153   5.933
 9044SOL     OW28030   6.265   1.358   0.466
 9044SOL    HW128031   6.327   1.357   0.387
 9044SOL    HW228032   6.307   1.308   0.542
 9045SOL     OW28033   4.246   0.877   2.989
 9045SOL    HW128034   4.212   0.809   2.924
 9045SOL    HW228035   4.191   0.874   3.072
 9046SOL     OW28036   3.896   4.092   5.690
 9046SOL    HW128037   3.924   4.160   5.622
 9046SOL    HW228038   3.805   4.059   5.668
 9047SOL     OW28039   1.880   3.879   5.318
 9047SOL    HW128040   1.955   3.825   5.358
 9047SOL    HW228041   1.885   3.973   5.351
 9048SOL     OW28042   1.751   3.656   5.956
 9048SOL    HW128043   1.811   3.730   5.927
 9048SOL    HW228044   1.805   3.583   5.997
 9049SOL     OW28045   4.938   6.070   6.172
 9049SOL    HW128046   4.981   6.160   6.165
 9049SOL    HW228047   4.909   6.040   6.081
 9050SOL     OW28048   0.940   4.931   6.840
 9050SOL    HW128049   0.986   4.906   6.755
 9050SOL    HW228050   0.997   4.996   6.890
 9051SOL     OW28051   4.167   6.378   0.888
 9051SOL    HW128052   4.255   6.386   0.933
 9051SOL    HW228053   4.174   6.316   0.810
 9052SOL     OW28054   2.558   4.596   4.442
 9052SOL    HW128055   2.576   4.675   4.501
 9052SOL    HW228056   2.623   4.595   4.366
 9053SOL     OW28057   2.510   2.593   3.936
 9053SOL    HW128058   2.578   2.520   3.942
 9053SOL    HW228059   2.426   2.564   3.983
 9054SOL     OW28060   1.832   0.668   2.589
 9054SOL    HW128061   1.918   0.701   2.551
 9054SOL    HW228062   1.795   0.596   2.530
 9055SOL     OW28063   0.380   3.818   3.588
 9055SOL    HW128064   0.472   3.857   3.587
 9055SOL    HW228065   0.348   3.802   3.495
 9056SOL     OW28066   4.585   0.672   1.222
 9056SOL    HW128067   4.569   0.622   1.136
 9056SOL    HW228068   4.603   0.768   1.202
 9057SOL     OW28069   6.082   4.706   6.325
 9057SOL    HW128070   6.007   4.771   6.312
 9057SOL    HW228071   6.167   4.746   6.290
 9058SOL     OW28072   1.835   2.302   4.819
 9058SOL    HW128073   1.874   2.374   4.876
 9058SOL    HW228074   1.805   2.342   4.732
 9059SOL     OW28075   6.476   0.625   3.313
 9059SOL    HW128076   6.378   0.644   3.306
 9059SOL    HW228077   6.524   0.671   3.239
 9060SOL     OW28078   6.790   3.511   2.372
 9060SOL    HW128079   6.799   3.513   2.273
 9060SOL    HW228080   6.854   3.577   2.412
 9061SOL     OW28081   4.842   5.634   3.151
 9061SOL    HW128082   4.749   5.620   3.185
 9061SOL    HW228083   4.884   5.712   3.198
 9062SOL     OW28084   1.034   4.788   1.768
 9062SOL    HW128085   0.964   4.720   1.786
 9062SOL    HW228086   1.026   4.863   1.833
 9063SOL     OW28087   2.834   1.124   2.699
 9063SOL    HW128088   2.903   1.068   2.653
 9063SOL    HW228089   2.874   1.164   2.782
 9064SOL     OW28090   6.478   4.089   3.913
 9064SOL    HW128091   6.519   4.174   3.880
 9064SOL    HW228092   6.410   4.110   3.983
 9065SOL     OW28093   2.689   5.864   5.804
 9065SOL    HW128094   2.648   5.795   5.744
 9065SOL    HW228095   2.643   5.864   5.892
 9066SOL     OW28096   6.430   0.052   5.980
 9066SOL    HW128097   6.426   0.090   6.073
 9066SOL    HW228098   6.341   0.013   5.957
 9067SOL     OW28099   6.588   6.374   4.550
 9067SOL    HW128100   6.614   6.470   4.565
 9067SOL    HW228101   6.670   6.320   4.530
 9068SOL     OW28102   3.687   6.914   5.092
 9068SOL    HW128103   3.694   6.843   5.022
 9068SOL    HW228104   3.668   7.002   5.049
 9069SOL     OW28105   4.855   2.222   3.051
 9069SOL    HW128106   4.880   2.133   3.090
 9069SOL    HW228107   4.772   2.255   3.095
 9070SOL     OW28108   1.616   2.254   6.330
 9070SOL    HW128109   1.605   2.337   6.275
 9070SOL    HW228110   1.626   2.279   6.426
 9071SOL     OW28111   5.396   0.581   6.459
 9071SOL    HW128112   5.458   0.530   6.519
 9071SOL    HW228113   5.346   0.649   6.513
 9072SOL     OW28114   5.047   6.646   1.615
 9072SOL    HW128115   4.974   6.589   1.576
 9072SOL    HW228116   5.117   6.663   1.545
 9073SOL     OW28117   4.043   6.462   0.592
 9073SOL    HW128118   4.045   6.534   0.523
 9073SOL    HW228119   4.001   6.496   0.675
 9074SOL     OW28120   1.397   1.016   1.543
 9074SOL    HW128121   1.362   1.098   1.498
 9074SOL    HW228122   1.408   0.943   1.475
 9075SOL     OW28123   0.208   0.603   2.249
 9075SOL    HW128124   0.111   0.623   2.242
 9075SOL    HW228125   0.245   0.583   2.158
 9076SOL     OW28126   4.547   1.170   3.871
 9076SOL    HW128127   4.549   1.172   3.971
 9076SOL    HW228128   4.452   1.163   3.840
 9077SOL     OW28129   4.532   1.221   6.273
 9077SOL    HW128130   4.531   1.316   6.240
 9077SOL    HW228131   4.610   1.209   6.334
 9078SOL     OW28132   5.522   5.051   6.559
 9078SOL    HW128133   5.552   5.144   6.579
 9078SOL    HW228134   5.512   5.039   6.461
 9079SOL     OW28135   1.446   0.500   5.172
 9079SOL    HW128136   1.416   0.460   5.259
 9079SOL    HW228137   1.543   0.523   5.178
 9080SOL     OW28138   6.403   2.786   6.940
 9080SOL    HW128139   6.502   2.794   6.933
 9080SOL    HW228140   6.361   2.876   6.941
 9081SOL     OW28141   3.480   1.639   1.611
 9081SOL    HW128142   3.423   1.597   1.540
 9081SOL    HW228143   3.441   1.727   1.637
 9082SOL     OW28144   2.299   6.686   4.710
 9082SOL    HW128145   2.276   6.737   4.628
 9082SOL    HW228146   2.280   6.589   4.696
 9083SOL     OW28147   4.549   4.015   6.221
 9083SOL    HW128148   4.472   4.078   6.232
 9083SOL    HW228149   4.633   4.068   6.207
 9084SOL     OW28150   1.084   2.325   6.275
 9084SOL    HW128151   1.041   2.358   6.358
 9084SOL    HW228152   1.039   2.365   6.195
 9085SOL     OW28153   2.620   5.849   1.245
 9085SOL    HW128154   2.571   5.900   1.174
 9085SOL    HW228155   2.659   5.913   1.312
 9086SOL     OW28156   6.408   4.241   0.556
 9086SOL    HW128157   6.424   4.180   0.633
 9086SOL    HW228158   6.339   4.309   0.580
 9087SOL     OW28159   5.472   3.077   2.473
 9087SOL    HW128160   5.561   3.113   2.446
 9087SOL    HW228161   5.455   3.101   2.569
 9088SOL     OW28162   5.762   6.966   1.704
 9088SOL    HW128163   5.852   6.938   1.671
 9088SOL    HW228164   5.771   7.015   1.790
 9089SOL     OW28165   3.988   5.775   5.146
 9089SOL    HW128166   3.899   5.798   5.107
 9089SOL    HW228167   3.994   5.809   5.239
 9090SOL     OW28168   4.818   6.825   4.481
 9090SOL    HW128169   4.821   6.825   4.381
 9090SOL    HW228170   4.790   6.915   4.514
 9091SOL     OW28171   3.115   2.993   0.963
 9091SOL    HW128172   3.147   2.956   1.050
 9091SOL    HW228173   3.053   3.069   0.980
 9092SOL     OW28174   1.137   1.023   6.693
 9092SOL    HW128175   1.082   1.054   6.615
 9092SOL    HW228176   1.134   1.091   6.766
 9093SOL     OW28177   1.704   6.270   7.010
 9093SOL    HW128178   1.647   6.351   6.996
 9093SOL    HW228179   1.798   6.289   6.981
 9094SOL     OW28180   0.835   5.232   2.834
 9094SOL    HW128181   0.848   5.330   2.825
 9094SOL    HW228182   0.853   5.204   2.929
 9095SOL     OW28183   5.190   3.642   5.864
 9095SOL    HW128184   5.279   3.629   5.907
 9095SOL    HW228185   5.196   3.712   5.793
 9096SOL     OW28186   5.066   3.676   2.890
 9096SOL    HW128187   5.015   3.647   2.809
 9096SOL    HW228188   5.004   3.718   2.956
 9097SOL     OW28189   0.468   3.356   0.154
 9097SOL    HW128190   0.426   3.332   0.242
 9097SOL    HW228191   0.413   3.319   0.080
 9098SOL     OW28192   3.738   3.236   0.434
 9098SOL    HW128193   3.720   3.278   0.345
 9098SOL    HW228194   3.654   3.234   0.488
 9099SOL     OW28195   3.508   3.619   0.558
 9099SOL    HW128196   3.595   3.600   0.513
 9099SOL    HW228197   3.453   3.680   0.501
 9100SOL     OW28198   1.153   3.203   2.730
 9100SOL    HW128199   1.138   3.219   2.827
 9100SOL    HW228200   1.191   3.111   2.717
 9101SOL     OW28201   1.890   2.848   2.819
 9101SOL    HW128202   1.902   2.791   2.737
 9101SOL    HW228203   1.888   2.789   2.900
 9102SOL     OW28204   3.769   6.323   1.603
 9102SOL    HW128205   3.708   6.353   1.676
 9102SOL    HW228206   3.721   6.328   1.516
 9103SOL     OW28207   6.541   3.642   0.081
 9103SOL    HW128208   6.480   3.650   0.159
 9103SOL    HW228209   6.488   3.625   7.021
 9104SOL     OW28210   4.477   6.235   2.333
 9104SOL    HW128211   4.480   6.143   2.372
 9104SOL    HW228212   4.514   6.232   2.240
 9105SOL     OW28213   1.516   0.829   0.696
 9105SOL    HW128214   1.443   0.895   0.717
 9105SOL    HW228215   1.476   0.739   0.683
 9106SOL     OW28216   5.853   3.768   6.638
 9106SOL    HW128217   5.839   3.792   6.542
 9106SOL    HW228218   5.939   3.806   6.671
 9107SOL     OW28219   3.843   0.514   5.951
 9107SOL    HW128220   3.809   0.547   5.863
 9107SOL    HW228221   3.941   0.495   5.945
 9108SOL     OW28222   4.727   3.857   5.841
 9108SOL    HW128223   4.759   3.943   5.881
 9108SOL    HW228224   4.795   3.786   5.856
 9109SOL     OW28225   1.519   2.724   2.866
 9109SOL    HW128226   1.581   2.771   2.929
 9109SOL    HW228227   1.427   2.762   2.876
 9110SOL     OW28228   2.012   4.277   3.999
 9110SOL    HW128229   2.083   4.244   4.062
 9110SOL    HW228230   2.047   4.353   3.945
 9111SOL     OW28231   4.438   3.583   0.347
 9111SOL    HW128232   4.373   3.658   0.338
 9111SOL    HW228233   4.429   3.542   0.438
 9112SOL     OW28234   0.491   4.053   4.706
 9112SOL    HW128235   0.515   3.956   4.718
 9112SOL    HW228236   0.552   4.094   4.638
 9113SOL     OW28237   4.554   6.521   0.617
 9113SOL    HW128238   4.534   6.518   0.715
 9113SOL    HW228239   4.619   6.449   0.594
 9114SOL     OW28240   1.732   5.098   1.325
 9114SOL    HW128241   1.748   5.115   1.422
 9114SOL    HW228242   1.640   5.064   1.312
 9115SOL     OW28243   1.136   5.731   6.145
 9115SOL    HW128244   1.188   5.810   6.112
 9115SOL    HW228245   1.038   5.754   6.145
 9116SOL     OW28246   6.595   1.863   0.754
 9116SOL    HW128247   6.562   1.810   0.676
 9116SOL    HW228248   6.525   1.929   0.782
 9117SOL     OW28249   6.158   2.942   0.235
 9117SOL    HW128250   6.118   3.017   0.183
 9117SOL    HW228251   6.157   2.858   0.181
 9118SOL     OW28252   6.596   5.773   0.629
 9118SOL    HW128253   6.610   5.788   0.727
 9118SOL    HW228254   6.596   5.861   0.582
 9119SOL     OW28255   5.953   1.835   1.987
 9119SOL    HW128256   6.023   1.769   2.015
 9119SOL    HW228257   5.994   1.926   1.977
 9120SOL     OW28258   5.737   3.167   5.891
 9120SOL    HW128259   5.749   3.068   5.886
 9120SOL    HW228260   5.642   3.188   5.917
 9121SOL     OW28261   2.067   2.473   6.427
 9121SOL    HW128262   2.098   2.396   6.371
 9121SOL    HW228263   1.997   2.524   6.378
 9122SOL     OW28264   1.861   3.685   2.212
 9122SOL    HW128265   1.924   3.728   2.148
 9122SOL    HW228266   1.889   3.705   2.306
 9123SOL     OW28267   3.663   0.158   4.941
 9123SOL    HW128268   3.656   0.216   4.859
 9123SOL    HW228269   3.638   0.211   5.022
 9124SOL     OW28270   5.505   0.212   5.759
 9124SOL    HW128271   5.414   0.230   5.797
 9124SOL    HW228272   5.575   0.239   5.824
 9125SOL     OW28273   5.082   4.054   2.030
 9125SOL    HW128274   5.048   4.148   2.031
 9125SOL    HW228275   5.083   4.020   1.936
 9126SOL     OW28276   5.756   2.473   2.201
 9126SOL    HW128277   5.788   2.526   2.279
 9126SOL    HW228278   5.798   2.382   2.202
 9127SOL     OW28279   6.763   1.678   6.112
 9127SOL    HW128280   6.742   1.776   6.113
 9127SOL    HW228281   6.797   1.651   6.203
 9128SOL     OW28282   4.556   1.321   5.157
 9128SOL    HW128283   4.586   1.270   5.076
 9128SOL    HW228284   4.489   1.390   5.129
 9129SOL     OW28285   0.076   3.106   1.382
 9129SOL    HW128286   7.008   3.134   1.414
 9129SOL    HW228287   0.079   3.109   1.282
 9130SOL     OW28288   0.001   3.169   0.527
 9130SOL    HW128289   0.024   3.072   0.517
 9130SOL    HW228290   6.944   3.190   0.471
 9131SOL     OW28291   6.820   3.376   5.736
 9131SOL    HW128292   6.797   3.431   5.816
 9131SOL    HW228293   6.903   3.413   5.694
 9132SOL     OW28294   6.939   4.750   4.332
 9132SOL    HW128295   6.900   4.658   4.319
 9132SOL    HW228296   6.882   4.817   4.285
 9133SOL     OW28297   3.936   6.387   1.297
 9133SOL    HW128298   3.968   6.442   1.219
 9133SOL    HW228299   3.875   6.315   1.264
 9134SOL     OW28300   4.058   5.608   0.625
 9134SOL    HW128301   4.133   5.597   0.560
 9134SOL    HW228302   4.092   5.596   0.718
 9135SOL     OW28303   6.297   6.107   1.701
 9135SOL    HW128304   6.236   6.115   1.780
 9135SOL    HW228305   6.255   6.047   1.632
 9136SOL     OW28306   5.298   5.229   6.293
 9136SOL    HW128307   5.390   5.190   6.282
 9136SOL    HW228308   5.236   5.160   6.329
 9137SOL     OW28309   5.376   1.756   1.364
 9137SOL    HW128310   5.384   1.657   1.353
 9137SOL    HW228311   5.425   1.785   1.446
 9138SOL     OW28312   6.557   5.670   5.810
 9138SOL    HW128313   6.649   5.672   5.771
 9138SOL    HW228314   6.545   5.586   5.862
 9139SOL     OW28315   2.348   1.623   4.864
 9139SOL    HW128316   2.416   1.594   4.931
 9139SOL    HW228317   2.341   1.723   4.864
 9140SOL     OW28318   5.888   3.298   2.973
 9140SOL    HW128319   5.933   3.233   3.034
 9140SOL    HW228320   5.928   3.292   2.882
 9141SOL     OW28321   5.760   0.673   6.940
 9141SOL    HW128322   5.833   0.629   6.886
 9141SOL    HW228323   5.799   0.748   6.993
 9142SOL     OW28324   0.982   2.023   1.196
 9142SOL    HW128325   0.919   1.959   1.239
 9142SOL    HW228326   0.988   2.002   1.098
 9143SOL     OW28327   5.924   2.777   1.333
 9143SOL    HW128328   5.856   2.708   1.357
 9143SOL    HW228329   6.012   2.754   1.374
 9144SOL     OW28330   2.157   5.330   5.563
 9144SOL    HW128331   2.133   5.235   5.544
 9144SOL    HW228332   2.233   5.333   5.627
 9145SOL     OW28333   0.090   5.497   0.741
 9145SOL    HW128334   0.074   5.415   0.797
 9145SOL    HW228335   0.097   5.470   0.645
 9146SOL     OW28336   5.452   2.981   3.207
 9146SOL    HW128337   5.509   3.044   3.156
 9146SOL    HW228338   5.458   2.890   3.166
 9147SOL     OW28339   5.878   0.189   4.419
 9147SOL    HW128340   5.844   0.131   4.345
 9147SOL    HW228341   5.859   0.145   4.507
 9148SOL     OW28342   5.108   6.336   0.501
 9148SOL    HW128343   5.109   6.434   0.522
 9148SOL    HW228344   5.032   6.316   0.439
 9149SOL     OW28345   5.956   3.311   3.605
 9149SOL    HW128346   6.019   3.234   3.600
 9149SOL    HW228347   5.929   3.338   3.512
 9150SOL     OW28348   2.793   5.284   2.092
 9150SOL    HW128349   2.801   5.307   2.190
 9150SOL    HW228350   2.842   5.353   2.038
 9151SOL     OW28351   1.614   4.179   3.792
 9151SOL    HW128352   1.643   4.083   3.797
 9151SOL    HW228353   1.661   4.232   3.863
 9152SOL     OW28354   2.353   4.476   4.857
 9152SOL    HW128355   2.273   4.509   4.906
 9152SOL    HW228356   2.342   4.379   4.836
 9153SOL     OW28357   1.348   3.376   0.493
 9153SOL    HW128358   1.379   3.447   0.557
 9153SOL    HW228359   1.298   3.419   0.418
 9154SOL     OW28360   4.572   4.313   6.177
 9154SOL    HW128361   4.543   4.313   6.272
 9154SOL    HW228362   4.586   4.407   6.146
 9155SOL     OW28363   1.763   3.734   1.407
 9155SOL    HW128364   1.698   3.675   1.455
 9155SOL    HW228365   1.722   3.825   1.394
 9156SOL     OW28366   1.261   2.642   0.475
 9156SOL    HW128367   1.318   2.724   0.465
 9156SOL    HW228368   1.201   2.653   0.554
 9157SOL     OW28369   6.323   4.606   5.823
 9157SOL    HW128370   6.360   4.610   5.916
 9157SOL    HW228371   6.370   4.533   5.772
 9158SOL     OW28372   5.907   3.752   4.845
 9158SOL    HW128373   5.905   3.771   4.747
 9158SOL    HW228374   5.988   3.794   4.885
 9159SOL     OW28375   1.949   0.109   2.668
 9159SOL    HW128376   2.040   0.138   2.697
 9159SOL    HW228377   1.956   0.059   2.581
 9160SOL     OW28378   6.354   0.402   5.385
 9160SOL    HW128379   6.344   0.426   5.289
 9160SOL    HW228380   6.316   0.476   5.442
 9161SOL     OW28381   4.650   4.386   4.808
 9161SOL    HW128382   4.571   4.387   4.868
 9161SOL    HW228383   4.621   4.369   4.714
 9162SOL     OW28384   4.430   0.636   4.757
 9162SOL    HW128385   4.382   0.630   4.670
 9162SOL    HW228386   4.431   0.731   4.789
 9163SOL     OW28387   1.433   2.864   4.460
 9163SOL    HW128388   1.375   2.922   4.517
 9163SOL    HW228389   1.413   2.883   4.364
 9164SOL     OW28390   2.665   1.023   6.077
 9164SOL    HW128391   2.737   0.972   6.125
 9164SOL    HW228392   2.704   1.067   5.996
 9165SOL     OW28393   6.139   2.068   5.598
 9165SOL    HW128394   6.155   1.981   5.550
 9165SOL    HW228395   6.044   2.096   5.584
 9166SOL     OW28396   4.018   5.825   0.962
 9166SOL    HW128397   4.056   5.740   0.926
 9166SOL    HW228398   4.028   5.898   0.893
 9167SOL     OW28399   1.902   2.845   6.705
 9167SOL    HW128400   1.962   2.841   6.625
 9167SOL    HW228401   1.858   2.935   6.708
 9168SOL     OW28402   6.925   0.072   6.461
 9168SOL    HW128403   7.021   0.077   6.435
 9168SOL    HW228404   6.900   0.154   6.513
 9169SOL     OW28405   5.962   1.204   4.957
 9169SOL    HW128406   5.886   1.265   4.933
 9169SOL    HW228407   5.928   1.129   5.013
 9170SOL     OW28408   1.623   5.691   6.999
 9170SOL    HW128409   1.595   5.675   6.904
 9170SOL    HW228410   1.706   5.639   7.018
 9171SOL     OW28411   4.228   5.162   1.011
 9171SOL    HW128412   4.276   5.249   1.015
 9171SOL    HW228413   4.230   5.127   0.918
 9172SOL     OW28414   4.079   1.181   3.352
 9172SOL    HW128415   4.007   1.249   3.334
 9172SOL    HW228416   4.050   1.093   3.314
 9173SOL     OW28417   6.279   3.685   5.024
 9173SOL    HW128418   6.221   3.613   5.061
 9173SOL    HW228419   6.334   3.725   5.097
 9174SOL     OW28420   5.413   4.086   1.760
 9174SOL    HW128421   5.386   4.123   1.849
 9174SOL    HW228422   5.344   4.111   1.692
 9175SOL     OW28423   1.000   0.397   5.362
 9175SOL    HW128424   1.076   0.340   5.330
 9175SOL    HW228425   1.032   0.489   5.382
 9176SOL     OW28426   3.038   0.917   5.234
 9176SOL    HW128427   3.130   0.953   5.249
 9176SOL    HW228428   2.972   0.968   5.289
 9177SOL     OW28429   0.636   5.036   4.969
 9177SOL    HW128430   0.584   5.053   5.053
 9177SOL    HW228431   0.589   5.079   4.892
 9178SOL     OW28432   1.651   5.294   0.294
 9178SOL    HW128433   1.602   5.233   0.356
 9178SOL    HW228434   1.650   5.256   0.201
 9179SOL     OW28435   2.725   4.656   4.233
 9179SOL    HW128436   2.673   4.656   4.147
 9179SOL    HW228437   2.770   4.744   4.245
 9180SOL     OW28438   6.077   2.796   3.260
 9180SOL    HW128439   6.101   2.846   3.343
 9180SOL    HW228440   6.016   2.720   3.283
 9181SOL     OW28441   4.380   1.855   5.650
 9181SOL    HW128442   4.396   1.942   5.698
 9181SOL    HW228443   4.390   1.870   5.551
 9182SOL     OW28444   2.902   7.006   2.008
 9182SOL    HW128445   2.910   6.943   1.931
 9182SOL    HW228446   2.973   6.985   2.075
 9183SOL     OW28447   4.777   5.659   0.378
 9183SOL    HW128448   4.804   5.607   0.459
 9183SOL    HW228449   4.693   5.711   0.398
 9184SOL     OW28450   4.623   1.315   0.440
 9184SOL    HW128451   4.706   1.260   0.445
 9184SOL    HW228452   4.607   1.360   0.528
 9185SOL     OW28453   4.555   6.628   4.494
 9185SOL    HW128454   4.508   6.642   4.407
 9185SOL    HW228455   4.593   6.715   4.525
 9186SOL     OW28456   5.386   6.138   4.794
 9186SOL    HW128457   5.479   6.143   4.755
 9186SOL    HW228458   5.384   6.188   4.881
 9187SOL     OW28459   2.357   2.082   0.760
 9187SOL    HW128460   2.428   2.083   0.690
 9187SOL    HW228461   2.378   2.010   0.827
 9188SOL     OW28462   1.595   6.368   0.758
 9188SOL    HW128463   1.596   6.277   0.717
 9188SOL    HW228464   1.501   6.402   0.761
 9189SOL     OW28465   3.777   5.480   1.847
 9189SOL    HW128466   3.867   5.519   1.827
 9189SOL    HW228467   3.708   5.524   1.790
 9190SOL     OW28468   2.711   4.406   5.868
 9190SOL    HW128469   2.777   4.422   5.795
 9190SOL    HW228470   2.743   4.447   5.953
 9191SOL     OW28471   6.092   2.116   6.419
 9191SOL    HW128472   6.105   2.143   6.515
 9191SOL    HW228473   6.025   2.176   6.376
 9192SOL     OW28474   0.840   3.211   5.755
 9192SOL    HW128475   0.881   3.302   5.742
 9192SOL    HW228476   0.772   3.196   5.683
 9193SOL     OW28477   4.627   4.360   6.892
 9193SOL    HW128478   4.623   4.371   6.992
 9193SOL    HW228479   4.703   4.299   6.869
 9194SOL     OW28480   3.301   1.011   3.551
 9194SOL    HW128481   3.280   1.080   3.620
 9194SOL    HW228482   3.398   1.012   3.530
 9195SOL     OW28483   1.813   1.650   3.558
 9195SOL    HW128484   1.882   1.664   3.488
 9195SOL    HW228485   1.729   1.699   3.532
 9196SOL     OW28486   5.004   0.471   2.698
 9196SOL    HW128487   5.013   0.520   2.786
 9196SOL    HW228488   4.908   0.447   2.683
 9197SOL     OW28489   1.936   5.587   1.541
 9197SOL    HW128490   1.960   5.627   1.629
 9197SOL    HW228491   1.992   5.506   1.524
 9198SOL     OW28492   6.033   4.849   6.913
 9198SOL    HW128493   6.041   4.832   6.815
 9198SOL    HW228494   6.119   4.887   6.947
 9199SOL     OW28495   0.852   3.920   5.827
 9199SOL    HW128496   0.838   3.821   5.825
 9199SOL    HW228497   0.846   3.952   5.921
 9200SOL     OW28498   2.787   6.486   6.720
 9200SOL    HW128499   2.874   6.467   6.675
 9200SOL    HW228500   2.791   6.578   6.761
 9201SOL     OW28501   6.851   2.567   0.199
 9201SOL    HW128502   6.923   2.512   0.241
 9201SOL    HW228503   6.774   2.508   0.174
 9202SOL     OW28504   1.150   6.722   2.042
 9202SOL    HW128505   1.231   6.776   2.062
 9202SOL    HW228506   1.142   6.710   1.943
 9203SOL     OW28507   0.535   3.783   5.965
 9203SOL    HW128508   0.596   3.799   6.042
 9203SOL    HW228509   0.516   3.870   5.919
 9204SOL     OW28510   4.864   3.061   5.880
 9204SOL    HW128511   4.859   3.150   5.835
 9204SOL    HW228512   4.957   3.045   5.912
 9205SOL     OW28513   5.799   5.288   3.420
 9205SOL    HW128514   5.852   5.226   3.362
 9205SOL    HW228515   5.701   5.275   3.403
 9206SOL     OW28516   4.072   5.794   2.982
 9206SOL    HW128517   4.114   5.885   2.983
 9206SOL    HW228518   3.987   5.797   2.929
 9207SOL     OW28519   5.266   3.858   5.616
 9207SOL    HW128520   5.311   3.804   5.544
 9207SOL    HW228521   5.183   3.899   5.579
 9208SOL     OW28522   5.671   4.755   3.552
 9208SOL    HW128523   5.598   4.699   3.512
 9208SOL    HW228524   5.695   4.718   3.642
 9209SOL     OW28525   4.118   0.076   6.619
 9209SOL    HW128526   4.175   0.001   6.653
 9209SOL    HW228527   4.043   0.093   6.683
 9210SOL     OW28528   0.358   0.853   2.611
 9210SOL    HW128529   0.340   0.940   2.565
 9210SOL    HW228530   0.404   0.791   2.548
 9211SOL     OW28531   0.910   2.464   6.076
 9211SOL    HW128532   0.943   2.496   5.987
 9211SOL    HW228533   0.826   2.512   6.100
 9212SOL     OW28534   4.476   5.823   4.173
 9212SOL    HW128535   4.517   5.829   4.082
 9212SOL    HW228536   4.411   5.747   4.175
 9213SOL     OW28537   5.423   3.058   4.897
 9213SOL    HW128538   5.488   3.110   4.840
 9213SOL    HW228539   5.455   3.057   4.991
 9214SOL     OW28540   6.674   3.683   6.517
 9214SOL    HW128541   6.708   3.766   6.472
 9214SOL    HW228542   6.748   3.640   6.568
 9215SOL     OW28543   0.686   2.533   1.484
 9215SOL    HW128544   0.667   2.486   1.398
 9215SOL    HW228545   0.686   2.632   1.469
 9216SOL     OW28546   3.531   6.971   2.210
 9216SOL    HW128547   3.573   0.015   2.272
 9216SOL    HW228548   3.603   6.926   2.157
 9217SOL     OW28549   0.035   2.848   6.654
 9217SOL    HW128550   0.135   2.843   6.658
 9217SOL    HW228551   7.019   2.804   6.736
 9218SOL     OW28552   1.615   0.034   0.215
 9218SOL    HW128553   1.627   0.020   0.314
 9218SOL    HW228554   1.666   0.116   0.187
 9219SOL     OW28555   6.450   3.194   1.275
 9219SOL    HW128556   6.489   3.104   1.292
 9219SOL    HW228557   6.351   3.187   1.267
 9220SOL     OW28558   1.848   6.231   1.256
 9220SOL    HW128559   1.896   6.249   1.341
 9220SOL    HW228560   1.788   6.308   1.234
 9221SOL     OW28561   3.150   0.606   3.160
 9221SOL    HW128562   3.229   0.577   3.107
 9221SOL    HW228563   3.178   0.674   3.228
 9222SOL     OW28564   2.234   6.239   6.281
 9222SOL    HW128565   2.224   6.203   6.374
 9222SOL    HW228566   2.270   6.167   6.221
 9223SOL     OW28567   1.062   1.471   3.927
 9223SOL    HW128568   1.055   1.376   3.955
 9223SOL    HW228569   1.008   1.487   3.844
 9224SOL     OW28570   1.056   5.116   4.577
 9224SOL    HW128571   1.124   5.165   4.631
 9224SOL    HW228572   0.995   5.066   4.638
 9225SOL     OW28573   3.156   6.671   5.935
 9225SOL    HW128574   3.255   6.676   5.947
 9225SOL    HW228575   3.113   6.754   5.972
 9226SOL     OW28576   6.023   6.631   0.910
 9226SOL    HW128577   6.030   6.605   1.007
 9226SOL    HW228578   6.069   6.561   0.854
 9227SOL     OW28579   1.170   5.551   0.609
 9227SOL    HW128580   1.127   5.525   0.695
 9227SOL    HW228581   1.265   5.578   0.627
 9228SOL     OW28582   1.392   1.906   5.544
 9228SOL    HW128583   1.394   1.845   5.465
 9228SOL    HW228584   1.393   2.001   5.514
 9229SOL     OW28585   1.038   5.819   5.154
 9229SOL    HW128586   1.119   5.868   5.188
 9229SOL    HW228587   0.986   5.782   5.232
 9230SOL     OW28588   4.837   1.870   3.977
 9230SOL    HW128589   4.865   1.775   3.961
 9230SOL    HW228590   4.761   1.893   3.916
 9231SOL     OW28591   0.251   4.011   4.359
 9231SOL    HW128592   0.332   4.030   4.304
 9231SOL    HW228593   0.247   4.076   4.435
 9232SOL     OW28594   3.476   5.349   0.128
 9232SOL    HW128595   3.495   5.309   0.218
 9232SOL    HW228596   3.410   5.423   0.138
 9233SOL     OW28597   5.450   5.246   2.082
 9233SOL    HW128598   5.535   5.227   2.131
 9233SOL    HW228599   5.373   5.234   2.144
 9234SOL     OW28600   3.549   5.967   5.723
 9234SOL    HW128601   3.566   6.039   5.791
 9234SOL    HW228602   3.452   5.943   5.724
 9235SOL     OW28603   1.620   3.361   3.480
 9235SOL    HW128604   1.671   3.404   3.405
 9235SOL    HW228605   1.639   3.409   3.565
 9236SOL     OW28606   2.341   4.476   5.850
 9236SOL    HW128607   2.251   4.516   5.837
 9236SOL    HW228608   2.411   4.537   5.813
 9237SOL     OW28609   1.812   5.461   4.223
 9237SOL    HW128610   1.716   5.448   4.248
 9237SOL    HW228611   1.818   5.496   4.129
 9238SOL     OW28612   3.760   0.913   0.039
 9238SOL    HW128613   3.719   0.984   7.004
 9238SOL    HW228614   3.702   0.898   0.119
 9239SOL     OW28615   6.728   4.221   0.248
 9239SOL    HW128616   6.794   4.222   0.322
 9239SOL    HW228617   6.775   4.231   0.160
 9240SOL     OW28618   5.524   1.136   1.479
 9240SOL    HW128619   5.550   1.176   1.391
 9240SOL    HW228620   5.525   1.208   1.550
 9241SOL     OW28621   0.605   5.467   5.292
 9241SOL    HW128622   0.639   5.516   5.212
 9241SOL    HW228623   0.682   5.431   5.345
 9242SOL     OW28624   0.538   5.247   0.008
 9242SOL    HW128625   0.487   5.333   7.023
 9242SOL    HW228626   0.611   5.259   0.076
 9243SOL     OW28627   5.361   6.760   1.161
 9243SOL    HW128628   5.282   6.698   1.153
 9243SOL    HW228629   5.368   6.816   1.079
 9244SOL     OW28630   4.391   5.714   6.351
 9244SOL    HW128631   4.305   5.668   6.326
 9244SOL    HW228632   4.403   5.794   6.293
 9245SOL     OW28633   1.321   4.978   3.486
 9245SOL    HW128634   1.375   5.025   3.417
 9245SOL    HW228635   1.350   4.882   3.491
 9246SOL     OW28636   0.321   5.748   2.419
 9246SOL    HW128637   0.352   5.662   2.377
 9246SOL    HW228638   0.329   5.822   2.352
 9247SOL     OW28639   1.483   6.789   2.601
 9247SOL    HW128640   1.501   6.758   2.695
 9247SOL    HW228641   1.396   6.751   2.570
 9248SOL     OW28642   1.815   1.933   4.444
 9248SOL    HW128643   1.830   1.995   4.521
 9248SOL    HW228644   1.899   1.881   4.427
 9249SOL     OW28645   4.403   4.160   0.245
 9249SOL    HW128646   4.336   4.113   0.188
 9249SOL    HW228647   4.495   4.130   0.220
 9250SOL     OW28648   5.561   3.454   4.358
 9250SOL    HW128649   5.602   3.532   4.406
 9250SOL    HW228650   5.506   3.401   4.423
 9251SOL     OW28651   4.435   2.040   3.085
 9251SOL    HW128652   4.440   2.044   2.985
 9251SOL    HW228653   4.342   2.018   3.113
 9252SOL     OW28654   5.837   0.437   4.801
 9252SOL    HW128655   5.835   0.438   4.701
 9252SOL    HW228656   5.843   0.531   4.835
 9253SOL     OW28657   5.599   6.407   5.338
 9253SOL    HW128658   5.588   6.470   5.260
 9253SOL    HW228659   5.527   6.424   5.405
 9254SOL     OW28660   6.269   4.608   2.650
 9254SOL    HW128661   6.184   4.563   2.678
 9254SOL    HW228662   6.347   4.558   2.687
 9255SOL     OW28663   4.811   3.447   6.918
 9255SOL    HW128664   4.774   3.397   6.996
 9255SOL    HW228665   4.750   3.523   6.895
 9256SOL     OW28666   4.486   6.594   2.913
 9256SOL    HW128667   4.422   6.556   2.979
 9256SOL    HW228668   4.571   6.617   2.958
 9257SOL     OW28669   0.597   3.780   2.792
 9257SOL    HW128670   0.559   3.873   2.788
 9257SOL    HW228671   0.594   3.739   2.701
 9258SOL     OW28672   3.238   3.442   3.790
 9258SOL    HW128673   3.251   3.370   3.858
 9258SOL    HW228674   3.311   3.438   3.722
 9259SOL     OW28675   1.272   2.748   6.230
 9259SOL    HW128676   1.215   2.745   6.313
 9259SOL    HW228677   1.214   2.753   6.150
 9260SOL     OW28678   5.116   2.046   4.836
 9260SOL    HW128679   5.159   1.956   4.832
 9260SOL    HW228680   5.103   2.081   4.743
 9261SOL     OW28681   4.454   0.863   6.692
 9261SOL    HW128682   4.469   0.960   6.712
 9261SOL    HW228683   4.483   0.808   6.770
 9262SOL     OW28684   6.942   3.486   6.260
 9262SOL    HW128685   0.001   3.481   6.204
 9262SOL    HW228686   6.886   3.404   6.245
 9263SOL     OW28687   5.356   5.911   2.083
 9263SOL    HW128688   5.387   5.820   2.109
 9263SOL    HW228689   5.432   5.976   2.091
 9264SOL     OW28690   5.743   4.277   0.207
 9264SOL    HW128691   5.793   4.355   0.169
 9264SOL    HW228692   5.789   4.246   0.290
 9265SOL     OW28693   3.614   1.862   6.895
 9265SOL    HW128694   3.680   1.795   6.931
 9265SOL    HW228695   3.606   1.938   6.959
 9266SOL     OW28696   2.276   6.909   1.965
 9266SOL    HW128697   2.283   6.933   2.062
 9266SOL    HW228698   2.360   6.935   1.918
 9267SOL     OW28699   0.556   3.840   5.638
 9267SOL    HW128700   0.568   3.894   5.721
 9267SOL    HW228701   0.466   3.796   5.640
 9268SOL     OW28702   1.275   5.652   2.071
 9268SOL    HW128703   1.365   5.607   2.065
 9268SOL    HW228704   1.227   5.643   1.984
 9269SOL     OW28705   2.869   1.289   6.093
 9269SOL    HW128706   2.946   1.345   6.063
 9269SOL    HW228707   2.835   1.234   6.017
 9270SOL     OW28708   4.407   6.536   6.081
 9270SOL    HW128709   4.311   6.551   6.101
 9270SOL    HW228710   4.460   6.544   6.166
 9271SOL     OW28711   1.008   6.975   6.938
 9271SOL    HW128712   0.910   6.971   6.956
 9271SOL    HW228713   1.032   6.909   6.866
 9272SOL     OW28714   1.668   5.113   4.566
 9272SOL    HW128715   1.695   5.084   4.658
 9272SOL    HW228716   1.683   5.039   4.502
 9273SOL     OW28717   5.732   6.227   3.703
 9273SOL    HW128718   5.661   6.171   3.745
 9273SOL    HW228719   5.774   6.286   3.772
 9274SOL     OW28720   6.506   2.637   0.144
 9274SOL    HW128721   6.415   2.625   0.182
 9274SOL    HW228722   6.501   2.697   0.064
 9275SOL     OW28723   6.691   1.986   6.992
 9275SOL    HW128724   6.667   2.042   6.913
 9275SOL    HW228725   6.648   2.024   0.051
 9276SOL     OW28726   1.673   4.245   2.428
 9276SOL    HW128727   1.668   4.291   2.339
 9276SOL    HW228728   1.580   4.234   2.465
 9277SOL     OW28729   5.602   3.096   0.078
 9277SOL    HW128730   5.598   3.052   7.011
 9277SOL    HW228731   5.510   3.124   0.106
 9278SOL     OW28732   1.250   0.059   6.107
 9278SOL    HW128733   1.151   0.053   6.111
 9278SOL    HW228734   1.282   0.022   6.019
 9279SOL     OW28735   5.238   0.576   1.583
 9279SOL    HW128736   5.227   0.594   1.486
 9279SOL    HW228737   5.333   0.592   1.609
 9280SOL     OW28738   1.850   1.210   3.186
 9280SOL    HW128739   1.906   1.289   3.210
 9280SOL    HW228740   1.840   1.205   3.086
 9281SOL     OW28741   2.455   4.467   0.987
 9281SOL    HW128742   2.546   4.507   0.977
 9281SOL    HW228743   2.459   4.390   1.051
 9282SOL     OW28744   5.286   0.564   4.538
 9282SOL    HW128745   5.350   0.505   4.587
 9282SOL    HW228746   5.230   0.614   4.604
 9283SOL     OW28747   5.826   0.859   3.856
 9283SOL    HW128748   5.894   0.896   3.793
 9283SOL    HW228749   5.742   0.912   3.849
 9284SOL     OW28750   3.035   4.251   6.237
 9284SOL    HW128751   3.003   4.168   6.192
 9284SOL    HW228752   3.099   4.227   6.310
 9285SOL     OW28753   5.076   2.419   1.215
 9285SOL    HW128754   5.108   2.508   1.245
 9285SOL    HW228755   5.112   2.399   1.124
 9286SOL     OW28756   5.073   6.025   0.037
 9286SOL    HW128757   5.094   5.942   7.009
 9286SOL    HW228758   5.153   6.086   0.036
 9287SOL     OW28759   3.453   4.897   6.370
 9287SOL    HW128760   3.538   4.859   6.335
 9287SOL    HW228761   3.438   4.988   6.331
 9288SOL     OW28762   4.341   1.320   4.125
 9288SOL    HW128763   4.248   1.283   4.122
 9288SOL    HW228764   4.378   1.310   4.218
 9289SOL     OW28765   4.133   1.396   2.493
 9289SOL    HW128766   4.095   1.488   2.504
 9289SOL    HW228767   4.162   1.361   2.582
 9290SOL     OW28768   5.384   1.267   2.932
 9290SOL    HW128769   5.389   1.169   2.947
 9290SOL    HW228770   5.312   1.306   2.989
 9291SOL     OW28771   1.539   7.021   4.094
 9291SOL    HW128772   1.638   7.021   4.076
 9291SOL    HW228773   1.517   6.951   4.162
 9292SOL     OW28774   0.600   3.290   6.848
 9292SOL    HW128775   0.568   3.384   6.837
 9292SOL    HW228776   0.667   3.286   6.922
 9293SOL     OW28777   5.649   3.932   6.735
 9293SOL    HW128778   5.652   3.919   6.834
 9293SOL    HW228779   5.696   3.856   6.690
 9294SOL     OW28780   3.267   0.348   4.738
 9294SOL    HW128781   3.323   0.265   4.747
 9294SOL    HW228782   3.323   0.423   4.704
 9295SOL     OW28783   5.375   1.953   4.276
 9295SOL    HW128784   5.430   1.919   4.200
 9295SOL    HW228785   5.371   2.053   4.272
 9296SOL     OW28786   0.441   6.102   6.263
 9296SOL    HW128787   0.432   6.151   6.350
 9296SOL    HW228788   0.363   6.041   6.252
 9297SOL     OW28789   6.606   1.194   0.513
 9297SOL    HW128790   6.563   1.227   0.598
 9297SOL    HW228791   6.544   1.209   0.436
 9298SOL     OW28792   1.283   0.672   4.952
 9298SOL    HW128793   1.304   0.582   4.914
 9298SOL    HW228794   1.192   0.670   4.994
 9299SOL     OW28795   0.746   2.129   4.203
 9299SOL    HW128796   0.703   2.044   4.172
 9299SOL    HW228797   0.690   2.207   4.175
 9300SOL     OW28798   0.566   4.500   5.531
 9300SOL    HW128799   0.516   4.490   5.446
 9300SOL    HW228800   0.663   4.484   5.515
 9301SOL     OW28801   4.791   4.445   3.797
 9301SOL    HW128802   4.888   4.456   3.822
 9301SOL    HW228803   4.737   4.429   3.879
 9302SOL     OW28804   2.352   2.826   3.925
 9302SOL    HW128805   2.319   2.866   4.011
 9302SOL    HW228806   2.413   2.749   3.946
 9303SOL     OW28807   3.005   5.146   0.419
 9303SOL    HW128808   3.022   5.242   0.399
 9303SOL    HW228809   3.024   5.129   0.516
 9304SOL     OW28810   4.640   4.332   2.210
 9304SOL    HW128811   4.605   4.311   2.118
 9304SOL    HW228812   4.671   4.247   2.253
 9305SOL     OW28813   3.524   1.045   1.569
 9305SOL    HW128814   3.474   1.009   1.490
 9305SOL    HW228815   3.583   0.974   1.607
 9306SOL     OW28816   0.073   4.587   4.691
 9306SOL    HW128817   7.022   4.534   4.732
 9306SOL    HW228818   0.152   4.586   4.752
 9307SOL     OW28819   1.812   3.661   1.869
 9307SOL    HW128820   1.882   3.711   1.921
 9307SOL    HW228821   1.846   3.569   1.849
 9308SOL     OW28822   2.139   4.228   0.553
 9308SOL    HW128823   2.090   4.315   0.557
 9308SOL    HW228824   2.199   4.221   0.632
 9309SOL     OW28825   3.326   4.879   5.607
 9309SOL    HW128826   3.400   4.865   5.541
 9309SOL    HW228827   3.276   4.963   5.583
 9310SOL     OW28828   4.717   5.122   6.438
 9310SOL    HW128829   4.683   5.044   6.490
 9310SOL    HW228830   4.660   5.202   6.457
 9311SOL     OW28831   4.175   4.776   2.181
 9311SOL    HW128832   4.195   4.759   2.084
 9311SOL    HW228833   4.078   4.761   2.198
 9312SOL     OW28834   1.252   3.434   1.445
 9312SOL    HW128835   1.219   3.425   1.351
 9312SOL    HW228836   1.186   3.488   1.498
 9313SOL     OW28837   0.435   0.276   1.012
 9313SOL    HW128838   0.503   0.348   0.995
 9313SOL    HW228839   0.350   0.299   0.964
 9314SOL     OW28840   4.833   5.893   5.949
 9314SOL    HW128841   4.781   5.902   6.034
 9314SOL    HW228842   4.775   5.921   5.872
 9315SOL     OW28843   6.789   0.641   5.341
 9315SOL    HW128844   6.702   0.688   5.351
 9315SOL    HW228845   6.823   0.652   5.247
 9316SOL     OW28846   4.204   5.676   5.447
 9316SOL    HW128847   4.249   5.591   5.475
 9316SOL    HW228848   4.104   5.663   5.447
 9317SOL     OW28849   6.395   5.299   3.231
 9317SOL    HW128850   6.392   5.200   3.243
 9317SOL    HW228851   6.359   5.322   3.141
 9318SOL     OW28852   6.238   0.584   5.777
 9318SOL    HW128853   6.271   0.502   5.825
 9318SOL    HW228854   6.277   0.665   5.820
 9319SOL     OW28855   1.650   3.286   0.057
 9319SOL    HW128856   1.693   3.201   0.086
 9319SOL    HW228857   1.595   3.270   6.998
 9320SOL     OW28858   3.763   0.453   5.235
 9320SOL    HW128859   3.811   0.451   5.148
 9320SOL    HW228860   3.807   0.519   5.296
 9321SOL     OW28861   6.473   0.432   3.703
 9321SOL    HW128862   6.501   0.432   3.799
 9321SOL    HW228863   6.462   0.526   3.671
 9322SOL     OW28864   1.058   4.218   6.585
 9322SOL    HW128865   1.155   4.195   6.584
 9322SOL    HW228866   1.011   4.163   6.654
 9323SOL     OW28867   1.478   0.991   5.619
 9323SOL    HW128868   1.437   1.010   5.530
 9323SOL    HW228869   1.445   0.904   5.653
 9324SOL     OW28870   1.809   4.443   0.476
 9324SOL    HW128871   1.821   4.355   0.522
 9324SOL    HW228872   1.871   4.510   0.517
 9325SOL     OW28873   4.767   0.900   7.000
 9325SOL    HW128874   4.773   0.879   6.903
 9325SOL    HW228875   4.702   0.975   7.015
 9326SOL     OW28876   2.101   5.549   0.746
 9326SOL    HW128877   2.152   5.596   0.819
 9326SOL    HW228878   2.022   5.604   0.720
 9327SOL     OW28879   5.201   0.376   3.239
 9327SOL    HW128880   5.236   0.377   3.333
 9327SOL    HW228881   5.258   0.315   3.183
 9328SOL     OW28882   2.662   0.307   5.773
 9328SOL    HW128883   2.574   0.345   5.801
 9328SOL    HW228884   2.736   0.369   5.800
 9329SOL     OW28885   5.776   4.030   1.555
 9329SOL    HW128886   5.752   4.127   1.560
 9329SOL    HW228887   5.725   3.979   1.625
 9330SOL     OW28888   5.984   6.693   6.627
 9330SOL    HW128889   5.937   6.648   6.703
 9330SOL    HW228890   6.082   6.671   6.631
 9331SOL     OW28891   1.928   1.145   0.181
 9331SOL    HW128892   1.876   1.065   0.152
 9331SOL    HW228893   1.866   1.217   0.212
 9332SOL     OW28894   3.844   4.087   1.811
 9332SOL    HW128895   3.857   4.184   1.794
 9332SOL    HW228896   3.895   4.034   1.743
 9333SOL     OW28897   3.928   3.326   0.884
 9333SOL    HW128898   3.957   3.421   0.875
 9333SOL    HW228899   3.890   3.294   0.797
 9334SOL     OW28900   5.534   6.003   3.742
 9334SOL    HW128901   5.483   5.939   3.685
 9334SOL    HW228902   5.630   5.976   3.743
 9335SOL     OW28903   0.834   1.083   6.585
 9335SOL    HW128904   0.814   0.987   6.563
 9335SOL    HW228905   0.902   1.118   6.520
 9336SOL     OW28906   2.783   5.475   5.735
 9336SOL    HW128907   2.821   5.493   5.644
 9336SOL    HW228908   2.833   5.401   5.779
 9337SOL     OW28909   4.693   1.903   4.394
 9337SOL    HW128910   4.647   1.839   4.331
 9337SOL    HW228911   4.626   1.967   4.431
 9338SOL     OW28912   4.946   0.996   2.159
 9338SOL    HW128913   4.923   0.907   2.197
 9338SOL    HW228914   4.985   0.984   2.067
 9339SOL     OW28915   5.731   0.002   1.429
 9339SOL    HW128916   5.654   0.045   1.383
 9339SOL    HW228917   5.711   7.016   1.527
 9340SOL     OW28918   5.874   3.791   4.593
 9340SOL    HW128919   5.859   3.890   4.591
 9340SOL    HW228920   5.793   3.745   4.556
 9341SOL     OW28921   6.954   5.706   0.717
 9341SOL    HW128922   7.020   5.633   0.735
 9341SOL    HW228923   6.883   5.673   0.656
 9342SOL     OW28924   2.073   6.634   3.873
 9342SOL    HW128925   2.139   6.663   3.942
 9342SOL    HW228926   1.990   6.600   3.918
 9343SOL     OW28927   6.102   4.241   2.552
 9343SOL    HW128928   6.032   4.300   2.591
 9343SOL    HW228929   6.059   4.174   2.491
 9344SOL     OW28930   4.613   6.299   2.927
 9344SOL    HW128931   4.557   6.367   2.880
 9344SOL    HW228932   4.633   6.330   3.020
 9345SOL     OW28933   6.249   5.096   2.254
 9345SOL    HW128934   6.230   5.008   2.297
 9345SOL    HW228935   6.175   5.117   2.189
 9346SOL     OW28936   6.620   0.836   0.995
 9346SOL    HW128937   6.641   0.755   1.049
 9346SOL    HW228938   6.689   0.907   1.013
 9347SOL     OW28939   1.922   3.832   0.758
 9347SOL    HW128940   1.846   3.773   0.731
 9347SOL    HW228941   1.974   3.789   0.832
 9348SOL     OW28942   3.641   5.828   1.987
 9348SOL    HW128943   3.729   5.854   1.949
 9348SOL    HW228944   3.639   5.729   2.003
 9349SOL     OW28945   6.607   5.661   3.701
 9349SOL    HW128946   6.652   5.581   3.660
 9349SOL    HW228947   6.523   5.632   3.747
 9350SOL     OW28948   0.628   3.589   5.251
 9350SOL    HW128949   0.598   3.569   5.344
 9350SOL    HW228950   0.632   3.688   5.239
 9351SOL     OW28951   2.537   0.211   6.974
 9351SOL    HW128952   2.548   0.206   6.875
 9351SOL    HW228953   2.450   0.169   7.000
 9352SOL     OW28954   3.551   1.944   6.641
 9352SOL    HW128955   3.582   1.932   6.735
 9352SOL    HW228956   3.624   1.920   6.578
 9353SOL     OW28957   0.321   4.160   0.852
 9353SOL    HW128958   0.275   4.073   0.870
 9353SOL    HW228959   0.355   4.160   0.758
 9354SOL     OW28960   7.009   2.022   6.697
 9354SOL    HW128961   0.081   2.053   6.696
 9354SOL    HW228962   7.006   1.922   6.692
 9355SOL     OW28963   0.318   2.216   4.345
 9355SOL    HW128964   0.259   2.221   4.426
 9355SOL    HW228965   0.321   2.306   4.301
 9356SOL     OW28966   4.787   0.810   1.756
 9356SOL    HW128967   4.882   0.793   1.730
 9356SOL    HW228968   4.761   0.749   1.831
 9357SOL     OW28969   1.769   2.819   5.497
 9357SOL    HW128970   1.815   2.834   5.410
 9357SOL    HW228971   1.684   2.872   5.500
 9358SOL     OW28972   6.367   3.819   2.108
 9358SOL    HW128973   6.318   3.852   2.027
 9358SOL    HW228974   6.316   3.744   2.149
 9359SOL     OW28975   1.162   4.428   6.093
 9359SOL    HW128976   1.181   4.479   6.177
 9359SOL    HW228977   1.229   4.354   6.083
 9360SOL     OW28978   1.108   4.756   6.175
 9360SOL    HW128979   1.126   4.844   6.218
 9360SOL    HW228980   1.149   4.683   6.231
 9361SOL     OW28981   1.525   4.543   3.570
 9361SOL    HW128982   1.554   4.621   3.515
 9361SOL    HW228983   1.487   4.575   3.657
 9362SOL     OW28984   0.963   1.207   2.594
 9362SOL    HW128985   0.951   1.271   2.518
 9362SOL    HW228986   1.061   1.192   2.609
 9363SOL     OW28987   2.734   5.647   2.063
 9363SOL    HW128988   2.738   5.671   1.966
 9363SOL    HW228989   2.826   5.632   2.098
 9364SOL     OW28990   2.477   2.225   0.033
 9364SOL    HW128991   2.382   2.253   0.050
 9364SOL    HW228992   2.479   2.130   0.005
 9365SOL     OW28993   2.994   1.946   3.147
 9365SOL    HW128994   2.932   1.973   3.221
 9365SOL    HW228995   3.030   2.028   3.103
 9366SOL     OW28996   3.059   5.621   6.601
 9366SOL    HW128997   2.999   5.664   6.668
 9366SOL    HW228998   3.012   5.545   6.558
 9367SOL     OW28999   6.572   6.591   2.148
 9367SOL    HW129000   6.561   6.509   2.091
 9367SOL    HW229001   6.668   6.599   2.176
 9368SOL     OW29002   3.613   0.385   2.340
 9368SOL    HW129003   3.515   0.375   2.354
 9368SOL    HW229004   3.662   0.347   2.419
 9369SOL     OW29005   6.530   6.782   3.617
 9369SOL    HW129006   6.570   6.859   3.567
 9369SOL    HW229007   6.439   6.761   3.580
 9370SOL     OW29008   5.525   0.428   4.521
 9370SOL    HW129009   5.616   0.468   4.506
 9370SOL    HW229010   5.487   0.398   4.433
 9371SOL     OW29011   2.734   5.856   0.105
 9371SOL    HW129012   2.725   5.928   0.036
 9371SOL    HW229013   2.693   5.886   0.191
 9372SOL     OW29014   5.462   0.099   1.410
 9372SOL    HW129015   5.405   0.104   1.328
 9372SOL    HW229016   5.424   0.029   1.471
 9373SOL     OW29017   4.636   2.158   1.123
 9373SOL    HW129018   4.717   2.212   1.145
 9373SOL    HW229019   4.656   2.061   1.139
 9374SOL     OW29020   0.691   3.379   6.202
 9374SOL    HW129021   0.653   3.311   6.139
 9374SOL    HW229022   0.723   3.333   6.285
 9375SOL     OW29023   0.761   2.161   0.635
 9375SOL    HW129024   0.712   2.208   0.709
 9375SOL    HW229025   0.821   2.091   0.673
 9376SOL     OW29026   2.001   3.923   1.795
 9376SOL    HW129027   2.012   3.851   1.727
 9376SOL    HW229028   1.928   3.984   1.768
 9377SOL     OW29029   1.811   5.121   3.507
 9377SOL    HW129030   1.755   5.139   3.425
 9377SOL    HW229031   1.834   5.024   3.510
 9378SOL     OW29032   3.690   1.024   3.395
 9378SOL    HW129033   3.631   0.944   3.406
 9378SOL    HW229034   3.776   0.996   3.353
 9379SOL     OW29035   4.915   0.269   4.575
 9379SOL    HW129036   4.872   0.348   4.619
 9379SOL    HW229037   4.989   0.300   4.515
 9380SOL     OW29038   3.729   5.793   5.067
 9380SOL    HW129039   3.655   5.811   5.003
 9380SOL    HW229040   3.732   5.695   5.088
 9381SOL     OW29041   5.460   2.902   5.865
 9381SOL    HW129042   5.486   2.991   5.902
 9381SOL    HW229043   5.489   2.896   5.770
 9382SOL     OW29044   4.145   1.451   3.919
 9382SOL    HW129045   4.092   1.380   3.872
 9382SOL    HW229046   4.225   1.409   3.963
 9383SOL     OW29047   5.792   4.953   4.192
 9383SOL    HW129048   5.818   4.958   4.096
 9383SOL    HW229049   5.709   5.007   4.207
 9384SOL     OW29050   3.736   6.961   2.022
 9384SOL    HW129051   3.831   6.940   1.997
 9384SOL    HW229052   3.721   0.037   2.014
 9385SOL     OW29053   4.619   1.158   4.156
 9385SOL    HW129054   4.606   1.092   4.230
 9385SOL    HW229055   4.716   1.172   4.140
 9386SOL     OW29056   3.154   5.656   4.881
 9386SOL    HW129057   3.133   5.558   4.884
 9386SOL    HW229058   3.252   5.670   4.895
 9387SOL     OW29059   3.374   2.317   0.725
 9387SOL    HW129060   3.279   2.285   0.734
 9387SOL    HW229061   3.400   2.316   0.628
 9388SOL     OW29062   1.760   6.401   3.663
 9388SOL    HW129063   1.703   6.483   3.664
 9388SOL    HW229064   1.795   6.386   3.571
 9389SOL     OW29065   2.965   6.484   2.882
 9389SOL    HW129066   3.007   6.394   2.891
 9389SOL    HW229067   2.991   6.525   2.795
 9390SOL     OW29068   5.873   5.530   5.833
 9390SOL    HW129069   5.965   5.497   5.852
 9390SOL    HW229070   5.866   5.555   5.736
 9391SOL     OW29071   0.189   0.448   5.721
 9391SOL    HW129072   0.289   0.439   5.715
 9391SOL    HW229073   0.155   0.490   5.637
 9392SOL     OW29074   5.392   4.469   4.755
 9392SOL    HW129075   5.369   4.566   4.751
 9392SOL    HW229076   5.482   4.453   4.715
 9393SOL     OW29077   2.802   6.612   5.418
 9393SOL    HW129078   2.822   6.646   5.326
 9393SOL    HW229079   2.705   6.586   5.423
 9394SOL     OW29080   6.018   0.620   1.024
 9394SOL    HW129081   6.107   0.577   1.008
 9394SOL    HW229082   6.023   0.677   1.106
 9395SOL     OW29083   2.099   1.293   0.880
 9395SOL    HW129084   2.111   1.214   0.939
 9395SOL    HW229085   2.069   1.263   0.790
 9396SOL     OW29086   1.194   4.152   4.723
 9396SOL    HW129087   1.117   4.209   4.694
 9396SOL    HW229088   1.186   4.133   4.821
 9397SOL     OW29089   2.547   6.315   5.716
 9397SOL    HW129090   2.589   6.225   5.708
 9397SOL    HW229091   2.458   6.314   5.671
 9398SOL     OW29092   6.276   1.503   5.895
 9398SOL    HW129093   6.236   1.572   5.834
 9398SOL    HW229094   6.263   1.532   5.990
 9399SOL     OW29095   1.114   3.177   4.023
 9399SOL    HW129096   1.031   3.172   4.080
 9399SOL    HW229097   1.190   3.210   4.078
 9400SOL     OW29098   4.640   0.366   0.696
 9400SOL    HW129099   4.613   0.436   0.631
 9400SOL    HW229100   4.615   0.395   0.789
 9401SOL     OW29101   0.275   1.926   2.426
 9401SOL    HW129102   0.225   1.848   2.387
 9401SOL    HW229103   0.231   1.955   2.511
 9402SOL     OW29104   1.142   4.402   2.863
 9402SOL    HW129105   1.139   4.305   2.837
 9402SOL    HW229106   1.218   4.446   2.814
 9403SOL     OW29107   6.677   1.615   2.011
 9403SOL    HW129108   6.670   1.652   1.918
 9403SOL    HW229109   6.590   1.626   2.058
 9404SOL     OW29110   0.255   1.863   0.785
 9404SOL    HW129111   0.203   1.911   0.856
 9404SOL    HW229112   0.194   1.802   0.734
 9405SOL     OW29113   1.426   3.713   4.379
 9405SOL    HW129114   1.506   3.761   4.345
 9405SOL    HW229115   1.455   3.638   4.439
 9406SOL     OW29116   1.222   3.471   0.267
 9406SOL    HW129117   1.126   3.499   0.264
 9406SOL    HW229118   1.268   3.500   0.183
 9407SOL     OW29119   2.503   4.878   4.333
 9407SOL    HW129120   2.540   4.864   4.424
 9407SOL    HW229121   2.445   4.800   4.308
 9408SOL     OW29122   0.757   2.006   6.412
 9408SOL    HW129123   0.811   2.065   6.473
 9408SOL    HW229124   0.706   2.063   6.348
 9409SOL     OW29125   6.451   5.842   1.337
 9409SOL    HW129126   6.470   5.751   1.301
 9409SOL    HW229127   6.522   5.868   1.403
 9410SOL     OW29128   4.065   1.392   1.848
 9410SOL    HW129129   3.966   1.404   1.838
 9410SOL    HW229130   4.083   1.341   1.933
 9411SOL     OW29131   3.774   3.501   3.128
 9411SOL    HW129132   3.753   3.565   3.054
 9411SOL    HW229133   3.722   3.527   3.210
 9412SOL     OW29134   1.628   0.128   2.156
 9412SOL    HW129135   1.541   0.167   2.126
 9412SOL    HW229136   1.615   0.032   2.181
 9413SOL     OW29137   4.743   5.416   4.721
 9413SOL    HW129138   4.741   5.388   4.817
 9413SOL    HW229139   4.788   5.505   4.713
 9414SOL     OW29140   3.031   1.959   4.207
 9414SOL    HW129141   3.017   2.039   4.266
 9414SOL    HW229142   3.121   1.965   4.164
 9415SOL     OW29143   2.454   0.103   1.522
 9415SOL    HW129144   2.531   0.096   1.586
 9415SOL    HW229145   2.444   0.198   1.492
 9416SOL     OW29146   0.431   0.870   5.421
 9416SOL    HW129147   0.411   0.839   5.514
 9416SOL    HW229148   0.474   0.960   5.424
 9417SOL     OW29149   4.213   6.666   1.384
 9417SOL    HW129150   4.226   6.576   1.343
 9417SOL    HW229151   4.128   6.666   1.437
 9418SOL     OW29152   2.513   1.359   2.597
 9418SOL    HW129153   2.561   1.385   2.681
 9418SOL    HW229154   2.578   1.315   2.535
 9419SOL     OW29155   2.407   3.491   6.720
 9419SOL    HW129156   2.364   3.409   6.757
 9419SOL    HW229157   2.506   3.478   6.716
 9420SOL     OW29158   5.222   4.418   0.340
 9420SOL    HW129159   5.303   4.433   0.282
 9420SOL    HW229160   5.250   4.374   0.425
 9421SOL     OW29161   3.087   5.202   3.900
 9421SOL    HW129162   3.013   5.266   3.878
 9421SOL    HW229163   3.050   5.122   3.946
 9422SOL     OW29164   2.870   6.253   3.910
 9422SOL    HW129165   2.958   6.263   3.954
 9422SOL    HW229166   2.881   6.200   3.826
 9423SOL     OW29167   3.904   6.158   2.925
 9423SOL    HW129168   3.890   6.171   3.024
 9423SOL    HW229169   3.999   6.130   2.909
 9424SOL     OW29170   5.501   1.657   4.647
 9424SOL    HW129171   5.469   1.584   4.707
 9424SOL    HW229172   5.555   1.722   4.700
 9425SOL     OW29173   5.614   5.596   1.012
 9425SOL    HW129174   5.516   5.614   1.013
 9425SOL    HW229175   5.664   5.682   1.003
 9426SOL     OW29176   2.247   1.511   6.077
 9426SOL    HW129177   2.237   1.480   6.171
 9426SOL    HW229178   2.192   1.453   6.017
 9427SOL     OW29179   2.213   6.075   3.189
 9427SOL    HW129180   2.215   6.024   3.103
 9427SOL    HW229181   2.306   6.087   3.223
 9428SOL     OW29182   6.925   0.222   0.512
 9428SOL    HW129183   6.864   0.166   0.456
 9428SOL    HW229184   6.872   0.270   0.581
 9429SOL     OW29185   1.652   2.319   3.942
 9429SOL    HW129186   1.587   2.246   3.922
 9429SOL    HW229187   1.745   2.282   3.945
 9430SOL     OW29188   0.336   2.471   4.250
 9430SOL    HW129189   0.384   2.509   4.171
 9430SOL    HW229190   0.239   2.491   4.243
 9431SOL     OW29191   6.717   4.330   1.169
 9431SOL    HW129192   6.748   4.308   1.077
 9431SOL    HW229193   6.738   4.425   1.190
 9432SOL     OW29194   6.127   1.484   4.546
 9432SOL    HW129195   6.112   1.517   4.640
 9432SOL    HW229196   6.134   1.384   4.547
 9433SOL     OW29197   4.009   6.128   3.431
 9433SOL    HW129198   4.016   6.222   3.465
 9433SOL    HW229199   3.913   6.098   3.436
 9434SOL     OW29200   5.840   5.714   3.581
 9434SOL    HW129201   5.868   5.787   3.518
 9434SOL    HW229202   5.882   5.628   3.552
 9435SOL     OW29203   0.158   2.044   2.640
 9435SOL    HW129204   0.209   2.045   2.725
 9435SOL    HW229205   0.078   2.105   2.648
 9436SOL     OW29206   1.186   1.424   2.813
 9436SOL    HW129207   1.278   1.462   2.809
 9436SOL    HW229208   1.183   1.337   2.764
 9437SOL     OW29209   0.924   5.252   3.677
 9437SOL    HW129210   0.988   5.236   3.602
 9437SOL    HW229211   0.974   5.257   3.763
 9438SOL     OW29212   1.399   0.222   2.046
 9438SOL    HW129213   1.329   0.160   2.081
 9438SOL    HW229214   1.359   0.312   2.030
 9439SOL     OW29215   0.828   3.066   1.285
 9439SOL    HW129216   0.847   3.051   1.382
 9439SOL    HW229217   0.873   2.995   1.230
 9440SOL     OW29218   3.291   4.987   3.365
 9440SOL    HW129219   3.239   5.056   3.314
 9440SOL    HW229220   3.239   4.960   3.446
 9441SOL     OW29221   6.488   6.144   5.630
 9441SOL    HW129222   6.508   6.233   5.671
 9441SOL    HW229223   6.479   6.075   5.702
 9442SOL     OW29224   4.754   3.303   1.729
 9442SOL    HW129225   4.690   3.362   1.679
 9442SOL    HW229226   4.717   3.210   1.733
 9443SOL     OW29227   2.799   6.030   1.411
 9443SOL    HW129228   2.834   6.113   1.369
 9443SOL    HW229229   2.829   6.026   1.507
 9444SOL     OW29230   1.847   4.205   0.654
 9444SOL    HW129231   1.814   4.135   0.717
 9444SOL    HW229232   1.910   4.163   0.588
 9445SOL     OW29233   6.811   2.506   3.166
 9445SOL    HW129234   6.720   2.523   3.128
 9445SOL    HW229235   6.824   2.408   3.179
 9446SOL     OW29236   0.462   5.099   4.335
 9446SOL    HW129237   0.550   5.114   4.380
 9446SOL    HW229238   0.405   5.040   4.392
 9447SOL     OW29239   5.400   4.671   3.422
 9447SOL    HW129240   5.403   4.684   3.322
 9447SOL    HW229241   5.332   4.732   3.461
 9448SOL     OW29242   6.766   6.778   6.265
 9448SOL    HW129243   6.718   6.691   6.256
 9448SOL    HW229244   6.761   6.808   6.360
 9449SOL     OW29245   5.666   6.820   0.224
 9449SOL    HW129246   5.690   6.872   0.142
 9449SOL    HW229247   5.749   6.802   0.278
 9450SOL     OW29248   1.995   5.234   3.746
 9450SOL    HW129249   2.080   5.181   3.748
 9450SOL    HW229250   1.934   5.194   3.677
 9451SOL     OW29251   4.441   5.885   6.167
 9451SOL    HW129252   4.372   5.834   6.116
 9451SOL    HW229253   4.424   5.983   6.158
 9452SOL     OW29254   0.569   3.934   6.985
 9452SOL    HW129255   0.659   3.953   6.948
 9452SOL    HW229256   0.541   4.008   0.024
 9453SOL     OW29257   2.537   5.006   2.484
 9453SOL    HW129258   2.614   4.958   2.526
 9453SOL    HW229259   2.538   4.989   2.385
 9454SOL     OW29260   4.031   3.569   0.193
 9454SOL    HW129261   3.941   3.565   0.149
 9454SOL    HW229262   4.102   3.577   0.123
 9455SOL     OW29263   2.332   1.986   2.815
 9455SOL    HW129264   2.296   2.066   2.767
 9455SOL    HW229265   2.431   1.993   2.822
 9456SOL     OW29266   6.084   4.406   1.830
 9456SOL    HW129267   6.136   4.351   1.894
 9456SOL    HW229268   6.122   4.394   1.738
 9457SOL     OW29269   0.284   4.504   4.264
 9457SOL    HW129270   0.347   4.525   4.189
 9457SOL    HW229271   0.194   4.485   4.227
 9458SOL     OW29272   0.050   3.556   0.291
 9458SOL    HW129273   0.145   3.539   0.317
 9458SOL    HW229274   0.018   3.483   0.230
 9459SOL     OW29275   5.433   4.497   3.971
 9459SOL    HW129276   5.354   4.499   4.033
 9459SOL    HW229277   5.493   4.575   3.991
 9460SOL     OW29278   2.251   2.811   4.328
 9460SOL    HW129279   2.303   2.843   4.249
 9460SOL    HW229280   2.258   2.878   4.402
 9461SOL     OW29281   0.770   1.367   1.707
 9461SOL    HW129282   0.731   1.409   1.789
 9461SOL    HW229283   0.732   1.276   1.695
 9462SOL     OW29284   1.979   3.092   3.729
 9462SOL    HW129285   1.927   3.138   3.657
 9462SOL    HW229286   1.951   2.996   3.734
 9463SOL     OW29287   5.294   0.066   1.180
 9463SOL    HW129288   5.373   0.075   1.119
 9463SOL    HW229289   5.254   0.156   1.197
 9464SOL     OW29290   5.683   0.024   0.801
 9464SOL    HW129291   5.701   7.018   0.895
 9464SOL    HW229292   5.689   0.124   0.795
 9465SOL     OW29293   6.824   3.974   1.452
 9465SOL    HW129294   6.821   4.055   1.511
 9465SOL    HW229295   6.914   3.966   1.409
 9466SOL     OW29296   3.586   4.487   5.983
 9466SOL    HW129297   3.515   4.500   6.052
 9466SOL    HW229298   3.560   4.535   5.899
 9467SOL     OW29299   1.124   2.654   1.214
 9467SOL    HW129300   1.210   2.657   1.162
 9467SOL    HW229301   1.052   2.698   1.160
 9468SOL     OW29302   6.549   3.671   6.815
 9468SOL    HW129303   6.566   3.663   6.717
 9468SOL    HW229304   6.635   3.658   6.865
 9469SOL     OW29305   0.409   5.929   1.113
 9469SOL    HW129306   0.345   5.859   1.144
 9469SOL    HW229307   0.362   6.017   1.108
 9470SOL     OW29308   4.841   3.881   6.853
 9470SOL    HW129309   4.832   3.978   6.831
 9470SOL    HW229310   4.826   3.868   6.951
 9471SOL     OW29311   5.573   2.324   5.663
 9471SOL    HW129312   5.546   2.272   5.744
 9471SOL    HW229313   5.576   2.422   5.685
 9472SOL     OW29314   0.827   4.030   6.076
 9472SOL    HW129315   0.871   4.077   6.152
 9472SOL    HW229316   0.789   4.097   6.012
 9473SOL     OW29317   3.095   3.969   6.754
 9473SOL    HW129318   3.167   3.905   6.783
 9473SOL    HW229319   3.097   4.049   6.814
 9474SOL     OW29320   5.946   3.264   1.755
 9474SOL    HW129321   5.945   3.167   1.780
 9474SOL    HW229322   6.005   3.314   1.819
 9475SOL     OW29323   4.688   3.539   0.214
 9475SOL    HW129324   4.733   3.606   0.155
 9475SOL    HW229325   4.596   3.571   0.236
 9476SOL     OW29326   3.905   3.820   5.532
 9476SOL    HW129327   3.880   3.736   5.483
 9476SOL    HW229328   3.913   3.801   5.630
 9477SOL     OW29329   1.700   3.256   0.838
 9477SOL    HW129330   1.656   3.195   0.772
 9477SOL    HW229331   1.645   3.340   0.846
 9478SOL     OW29332   4.759   2.720   1.011
 9478SOL    HW129333   4.686   2.689   1.072
 9478SOL    HW229334   4.788   2.812   1.038
 9479SOL     OW29335   4.196   6.758   0.523
 9479SOL    HW129336   4.273   6.819   0.504
 9479SOL    HW229337   4.204   6.721   0.615
 9480SOL     OW29338   5.908   5.140   0.494
 9480SOL    HW129339   5.913   5.152   0.395
 9480SOL    HW229340   5.930   5.226   0.539
 9481SOL     OW29341   4.918   2.503   3.005
 9481SOL    HW129342   4.915   2.550   3.093
 9481SOL    HW229343   4.902   2.405   3.018
 9482SOL     OW29344   6.101   0.365   2.377
 9482SOL    HW129345   6.177   0.413   2.333
 9482SOL    HW229346   6.115   0.364   2.476
 9483SOL     OW29347   1.393   1.035   0.368
 9483SOL    HW129348   1.315   1.011   0.309
 9483SOL    HW229349   1.459   0.960   0.367
 9484SOL     OW29350   2.368   0.270   4.709
 9484SOL    HW129351   2.444   0.231   4.657
 9484SOL    HW229352   2.389   0.265   4.807
 9485SOL     OW29353   6.988   1.579   0.832
 9485SOL    HW129354   6.971   1.604   0.737
 9485SOL    HW229355   0.024   1.498   0.835
 9486SOL     OW29356   4.911   6.236   1.197
 9486SOL    HW129357   4.992   6.260   1.143
 9486SOL    HW229358   4.936   6.230   1.293
 9487SOL     OW29359   3.375   4.014   4.685
 9487SOL    HW129360   3.429   4.004   4.602
 9487SOL    HW229361   3.407   4.093   4.736
 9488SOL     OW29362   2.426   0.337   0.971
 9488SOL    HW129363   2.383   0.289   0.895
 9488SOL    HW229364   2.378   0.316   1.055
 9489SOL     OW29365   5.198   4.333   1.065
 9489SOL    HW129366   5.269   4.371   1.006
 9489SOL    HW229367   5.127   4.402   1.081
 9490SOL     OW29368   0.052   6.313   3.786
 9490SOL    HW129369   0.083   6.272   3.700
 9490SOL    HW229370   0.121   6.376   3.820
 9491SOL     OW29371   5.903   5.600   4.561
 9491SOL    HW129372   5.927   5.533   4.632
 9491SOL    HW229373   5.950   5.686   4.579
 9492SOL     OW29374   4.019   3.230   5.345
 9492SOL    HW129375   4.030   3.133   5.364
 9492SOL    HW229376   3.963   3.272   5.416
 9493SOL     OW29377   3.655   5.435   4.124
 9493SOL    HW129378   3.653   5.440   4.025
 9493SOL    HW229379   3.644   5.340   4.154
 9494SOL     OW29380   5.791   2.865   2.350
 9494SOL    HW129381   5.771   2.827   2.260
 9494SOL    HW229382   5.877   2.916   2.347
 9495SOL     OW29383   0.060   1.540   2.706
 9495SOL    HW129384   0.038   1.493   2.620
 9495SOL    HW229385   7.008   1.602   2.730
 9496SOL     OW29386   4.803   2.395   1.913
 9496SOL    HW129387   4.827   2.379   2.009
 9496SOL    HW229388   4.882   2.373   1.856
 9497SOL     OW29389   5.173   6.239   5.649
 9497SOL    HW129390   5.188   6.333   5.622
 9497SOL    HW229391   5.255   6.202   5.693
 9498SOL     OW29392   6.634   4.451   5.303
 9498SOL    HW129393   6.633   4.360   5.263
 9498SOL    HW229394   6.587   4.515   5.242
 9499SOL     OW29395   0.359   6.095   5.010
 9499SOL    HW129396   0.320   6.049   4.929
 9499SOL    HW229397   0.349   6.036   5.090
 9500SOL     OW29398   3.791   6.289   0.582
 9500SOL    HW129399   3.797   6.257   0.677
 9500SOL    HW229400   3.824   6.383   0.577
 9501SOL     OW29401   1.843   1.473   4.470
 9501SOL    HW129402   1.791   1.559   4.474
 9501SOL    HW229403   1.936   1.490   4.502
 9502SOL     OW29404   6.292   4.113   4.111
 9502SOL    HW129405   6.304   4.040   4.177
 9502SOL    HW229406   6.230   4.183   4.148
 9503SOL     OW29407   7.018   2.480   0.644
 9503SOL    HW129408   7.022   2.448   0.739
 9503SOL    HW229409   0.018   2.577   0.640
 9504SOL     OW29410   6.359   3.836   1.368
 9504SOL    HW129411   6.451   3.798   1.380
 9504SOL    HW229412   6.365   3.918   1.311
 9505SOL     OW29413   5.530   4.577   5.430
 9505SOL    HW129414   5.527   4.478   5.412
 9505SOL    HW229415   5.550   4.592   5.527
 9506SOL     OW29416   1.875   2.625   0.434
 9506SOL    HW129417   1.952   2.689   0.433
 9506SOL    HW229418   1.793   2.671   0.401
 9507SOL     OW29419   6.600   0.574   1.389
 9507SOL    HW129420   6.651   0.642   1.441
 9507SOL    HW229421   6.506   0.568   1.425
 9508SOL     OW29422   5.806   2.173   3.179
 9508SOL    HW129423   5.854   2.186   3.092
 9508SOL    HW229424   5.721   2.225   3.179
 9509SOL     OW29425   0.145   0.274   3.588
 9509SOL    HW129426   0.158   0.195   3.528
 9509SOL    HW229427   0.127   0.355   3.533
 9510SOL     OW29428   1.011   3.381   3.243
 9510SOL    HW129429   1.076   3.327   3.297
 9510SOL    HW229430   0.970   3.452   3.301
 9511SOL     OW29431   1.671   0.702   1.865
 9511SOL    HW129432   1.668   0.604   1.849
 9511SOL    HW229433   1.691   0.720   1.962
 9512SOL     OW29434   6.563   2.275   1.181
 9512SOL    HW129435   6.649   2.295   1.228
 9512SOL    HW229436   6.503   2.355   1.185
 9513SOL     OW29437   2.729   4.758   5.913
 9513SOL    HW129438   2.633   4.734   5.927
 9513SOL    HW229439   2.736   4.830   5.844
 9514SOL     OW29440   2.836   4.254   6.939
 9514SOL    HW129441   2.779   4.178   6.908
 9514SOL    HW229442   2.826   4.265   0.015
 9515SOL     OW29443   2.201   5.885   2.680
 9515SOL    HW129444   2.278   5.894   2.617
 9515SOL    HW229445   2.117   5.865   2.629
 9516SOL     OW29446   5.772   4.485   7.016
 9516SOL    HW129447   5.751   4.537   6.934
 9516SOL    HW229448   5.859   4.515   0.031
 9517SOL     OW29449   1.589   3.576   1.511
 9517SOL    HW129450   1.565   3.517   1.589
 9517SOL    HW229451   1.508   3.627   1.483
 9518SOL     OW29452   2.441   1.572   0.908
 9518SOL    HW129453   2.472   1.629   0.984
 9518SOL    HW229454   2.466   1.477   0.925
 9519SOL     OW29455   2.755   2.844   5.397
 9519SOL    HW129456   2.704   2.766   5.435
 9519SOL    HW229457   2.853   2.824   5.399
 9520SOL     OW29458   2.944   0.440   2.928
 9520SOL    HW129459   2.924   0.537   2.940
 9520SOL    HW229460   2.919   0.390   3.011
 9521SOL     OW29461   5.971   5.178   2.529
 9521SOL    HW129462   6.044   5.142   2.470
 9521SOL    HW229463   5.961   5.119   2.609
 9522SOL     OW29464   3.065   5.366   0.689
 9522SOL    HW129465   3.045   5.409   0.601
 9522SOL    HW229466   3.043   5.268   0.685
 9523SOL     OW29467   3.346   5.385   4.511
 9523SOL    HW129468   3.279   5.353   4.578
 9523SOL    HW229469   3.342   5.485   4.505
 9524SOL     OW29470   3.982   2.626   1.714
 9524SOL    HW129471   3.990   2.701   1.779
 9524SOL    HW229472   4.001   2.659   1.622
 9525SOL     OW29473   2.329   2.641   6.185
 9525SOL    HW129474   2.310   2.543   6.185
 9525SOL    HW229475   2.390   2.663   6.261
 9526SOL     OW29476   5.514   5.710   2.222
 9526SOL    HW129477   5.495   5.613   2.241
 9526SOL    HW229478   5.590   5.741   2.279
 9527SOL     OW29479   1.177   0.582   1.292
 9527SOL    HW129480   1.106   0.526   1.335
 9527SOL    HW229481   1.216   0.532   1.215
 9528SOL     OW29482   0.075   0.844   0.048
 9528SOL    HW129483   7.003   0.871   0.064
 9528SOL    HW229484   0.121   0.829   0.136
 9529SOL     OW29485   0.130   3.367   5.230
 9529SOL    HW129486   0.059   3.400   5.168
 9529SOL    HW229487   0.218   3.409   5.205
 9530SOL     OW29488   1.773   2.833   3.653
 9530SOL    HW129489   1.759   2.816   3.556
 9530SOL    HW229490   1.734   2.921   3.678
 9531SOL     OW29491   3.999   5.366   3.363
 9531SOL    HW129492   3.937   5.433   3.404
 9531SOL    HW229493   4.041   5.311   3.436
 9532SOL     OW29494   0.988   5.837   1.826
 9532SOL    HW129495   0.956   5.819   1.919
 9532SOL    HW229496   1.069   5.782   1.807
 9533SOL     OW29497   0.167   0.911   5.307
 9533SOL    HW129498   0.262   0.881   5.311
 9533SOL    HW229499   0.159   1.001   5.350
 9534SOL     OW29500   5.972   3.218   5.588
 9534SOL    HW129501   5.894   3.272   5.617
 9534SOL    HW229502   6.057   3.270   5.602
 9535SOL     OW29503   2.566   1.347   5.979
 9535SOL    HW129504   2.536   1.333   5.885
 9535SOL    HW229505   2.666   1.341   5.983
 9536SOL     OW29506   1.929   5.160   5.003
 9536SOL    HW129507   1.954   5.254   5.024
 9536SOL    HW229508   1.858   5.129   5.067
 9537SOL     OW29509   2.909   0.459   2.398
 9537SOL    HW129510   2.825   0.450   2.452
 9537SOL    HW229511   2.933   0.370   2.359
 9538SOL     OW29512   6.445   1.552   4.133
 9538SOL    HW129513   6.378   1.478   4.143
 9538SOL    HW229514   6.477   1.556   4.038
 9539SOL     OW29515   2.044   4.532   6.429
 9539SOL    HW129516   2.123   4.527   6.490
 9539SOL    HW229517   2.007   4.625   6.430
 9540SOL     OW29518   4.643   4.433   5.138
 9540SOL    HW129519   4.658   4.505   5.205
 9540SOL    HW229520   4.613   4.350   5.185
 9541SOL     OW29521   2.053   2.207   5.382
 9541SOL    HW129522   2.120   2.273   5.349
 9541SOL    HW229523   2.054   2.206   5.482
 9542SOL     OW29524   4.821   3.619   5.386
 9542SOL    HW129525   4.773   3.569   5.314
 9542SOL    HW229526   4.884   3.685   5.344
 9543SOL     OW29527   4.644   0.512   4.645
 9543SOL    HW129528   4.652   0.585   4.576
 9543SOL    HW229529   4.560   0.525   4.697
 9544SOL     OW29530   5.519   0.555   1.610
 9544SOL    HW129531   5.560   0.608   1.684
 9544SOL    HW229532   5.539   0.458   1.623
 9545SOL     OW29533   6.562   5.594   2.896
 9545SOL    HW129534   6.634   5.557   2.955
 9545SOL    HW229535   6.593   5.590   2.801
 9546SOL     OW29536   2.680   4.088   6.460
 9546SOL    HW129537   2.652   3.992   6.460
 9546SOL    HW229538   2.607   4.144   6.501
 9547SOL     OW29539   2.205   6.099   4.442
 9547SOL    HW129540   2.217   6.119   4.344
 9547SOL    HW229541   2.111   6.068   4.458
 9548SOL     OW29542   6.657   5.163   5.050
 9548SOL    HW129543   6.557   5.170   5.054
 9548SOL    HW229544   6.697   5.255   5.058
 9549SOL     OW29545   3.112   4.970   0.946
 9549SOL    HW129546   3.035   4.952   1.007
 9549SOL    HW229547   3.077   5.006   0.859
 9550SOL     OW29548   6.671   1.122   6.560
 9550SOL    HW129549   6.684   1.180   6.640
 9550SOL    HW229550   6.719   1.035   6.574
 9551SOL     OW29551   0.276   6.605   4.363
 9551SOL    HW129552   0.374   6.583   4.360
 9551SOL    HW229553   0.234   6.559   4.441
 9552SOL     OW29554   1.742   6.321   3.074
 9552SOL    HW129555   1.681   6.272   3.011
 9552SOL    HW229556   1.828   6.342   3.028
 9553SOL     OW29557   5.981   5.317   6.538
 9553SOL    HW129558   6.054   5.385   6.542
 9553SOL    HW229559   5.945   5.301   6.630
 9554SOL     OW29560   3.161   1.130   1.499
 9554SOL    HW129561   3.211   1.164   1.578
 9554SOL    HW229562   3.194   1.174   1.416
 9555SOL     OW29563   6.400   2.517   1.468
 9555SOL    HW129564   6.465   2.486   1.537
 9555SOL    HW229565   6.449   2.564   1.394
 9556SOL     OW29566   2.510   1.714   1.819
 9556SOL    HW129567   2.452   1.713   1.738
 9556SOL    HW229568   2.606   1.725   1.792
 9557SOL     OW29569   5.732   0.664   2.441
 9557SOL    HW129570   5.663   0.731   2.416
 9557SOL    HW229571   5.809   0.710   2.486
 9558SOL     OW29572   7.018   5.384   3.265
 9558SOL    HW129573   6.923   5.410   3.281
 9558SOL    HW229574   0.020   5.404   3.170
 9559SOL     OW29575   0.183   4.226   2.525
 9559SOL    HW129576   0.145   4.247   2.435
 9559SOL    HW229577   0.238   4.143   2.520
 9560SOL     OW29578   2.028   1.173   2.444
 9560SOL    HW129579   2.114   1.182   2.495
 9560SOL    HW229580   1.991   1.264   2.425
 9561SOL     OW29581   2.650   6.891   0.337
 9561SOL    HW129582   2.632   6.815   0.400
 9561SOL    HW229583   2.623   6.865   0.245
 9562SOL     OW29584   3.591   5.581   4.576
 9562SOL    HW129585   3.494   5.592   4.599
 9562SOL    HW229586   3.623   5.492   4.608
 9563SOL     OW29587   6.296   6.415   6.834
 9563SOL    HW129588   6.384   6.377   6.805
 9563SOL    HW229589   6.303   6.447   6.929
 9564SOL     OW29590   2.469   6.939   6.492
 9564SOL    HW129591   2.536   6.899   6.430
 9564SOL    HW229592   2.495   0.009   6.515
 9565SOL     OW29593   4.529   5.805   5.515
 9565SOL    HW129594   4.433   5.803   5.543
 9565SOL    HW229595   4.536   5.778   5.419
 9566SOL     OW29596   3.742   4.268   6.626
 9566SOL    HW129597   3.820   4.206   6.614
 9566SOL    HW229598   3.675   4.252   6.555
 9567SOL     OW29599   6.368   5.765   6.291
 9567SOL    HW129600   6.328   5.674   6.297
 9567SOL    HW229601   6.343   5.806   6.203
 9568SOL     OW29602   5.088   3.548   6.545
 9568SOL    HW129603   5.059   3.497   6.626
 9568SOL    HW229604   5.063   3.644   6.556
 9569SOL     OW29605   6.336   0.950   0.278
 9569SOL    HW129606   6.241   0.934   0.305
 9569SOL    HW229607   6.367   0.876   0.219
 9570SOL     OW29608   0.546   1.472   1.419
 9570SOL    HW129609   0.450   1.446   1.424
 9570SOL    HW229610   0.593   1.439   1.501
 9571SOL     OW29611   2.806   3.779   6.977
 9571SOL    HW129612   2.897   3.738   6.982
 9571SOL    HW229613   2.763   3.775   0.044
 9572SOL     OW29614   1.311   4.266   1.180
 9572SOL    HW129615   1.365   4.233   1.103
 9572SOL    HW229616   1.298   4.365   1.171
 9573SOL     OW29617   0.910   0.666   6.767
 9573SOL    HW129618   0.861   0.694   6.685
 9573SOL    HW229619   1.001   0.633   6.742
 9574SOL     OW29620   3.243   3.649   5.347
 9574SOL    HW129621   3.169   3.583   5.362
 9574SOL    HW229622   3.254   3.666   5.249
 9575SOL     OW29623   6.218   0.577   1.271
 9575SOL    HW129624   6.179   0.486   1.285
 9575SOL    HW229625   6.149   0.647   1.289
 9576SOL     OW29626   4.017   1.564   3.688
 9576SOL    HW129627   4.075   1.540   3.766
 9576SOL    HW229628   3.974   1.653   3.706
 9577SOL     OW29629   0.920   0.334   2.301
 9577SOL    HW129630   0.958   0.358   2.391
 9577SOL    HW229631   0.835   0.283   2.314
 9578SOL     OW29632   6.049   3.122   3.103
 9578SOL    HW129633   6.011   3.104   3.194
 9578SOL    HW229634   6.148   3.137   3.111
 9579SOL     OW29635   0.882   6.869   2.023
 9579SOL    HW129636   0.979   6.845   2.032
 9579SOL    HW229637   0.834   6.796   1.974
 9580SOL     OW29638   5.055   3.636   6.969
 9580SOL    HW129639   5.092   3.546   6.946
 9580SOL    HW229640   4.957   3.639   6.947
 9581SOL     OW29641   1.830   5.096   5.905
 9581SOL    HW129642   1.913   5.133   5.947
 9581SOL    HW229643   1.760   5.168   5.901
 9582SOL     OW29644   4.420   4.621   4.007
 9582SOL    HW129645   4.478   4.547   4.042
 9582SOL    HW229646   4.347   4.639   4.073
 9583SOL     OW29647   1.972   3.453   1.942
 9583SOL    HW129648   1.971   3.367   1.892
 9583SOL    HW229649   2.065   3.475   1.971
 9584SOL     OW29650   5.997   5.161   0.216
 9584SOL    HW129651   5.973   5.071   0.181
 9584SOL    HW229652   6.079   5.154   0.273
 9585SOL     OW29653   5.522   0.014   2.936
 9585SOL    HW129654   5.487   0.100   2.900
 9585SOL    HW229655   5.460   6.962   2.912
 9586SOL     OW29656   5.223   3.724   3.802
 9586SOL    HW129657   5.214   3.722   3.702
 9586SOL    HW229658   5.245   3.632   3.834
 9587SOL     OW29659   6.215   0.289   1.389
 9587SOL    HW129660   6.310   0.265   1.410
 9587SOL    HW229661   6.195   0.265   1.294
 9588SOL     OW29662   0.155   0.728   1.216
 9588SOL    HW129663   0.171   0.740   1.314
 9588SOL    HW229664   0.100   0.805   1.181
 9589SOL     OW29665   2.170   6.509   6.253
 9589SOL    HW129666   2.089   6.488   6.307
 9589SOL    HW229667   2.217   6.424   6.229
 9590SOL     OW29668   0.440   3.932   2.300
 9590SOL    HW129669   0.535   3.919   2.329
 9590SOL    HW229670   0.427   3.894   2.209
 9591SOL     OW29671   2.064   6.450   0.781
 9591SOL    HW129672   1.974   6.454   0.739
 9591SOL    HW229673   2.133   6.434   0.711
 9592SOL     OW29674   3.886   5.349   3.113
 9592SOL    HW129675   3.950   5.379   3.184
 9592SOL    HW229676   3.937   5.328   3.030
 9593SOL     OW29677   5.543   2.415   4.340
 9593SOL    HW129678   5.581   2.323   4.329
 9593SOL    HW229679   5.609   2.474   4.385
 9594SOL     OW29680   6.616   6.278   3.105
 9594SOL    HW129681   6.517   6.283   3.094
 9594SOL    HW229682   6.659   6.359   3.064
 9595SOL     OW29683   1.839   5.789   4.515
 9595SOL    HW129684   1.771   5.753   4.452
 9595SOL    HW229685   1.849   5.728   4.593
 9596SOL     OW29686   0.103   5.525   5.373
 9596SOL    HW129687   0.181   5.558   5.320
 9596SOL    HW229688   0.081   5.592   5.444
 9597SOL     OW29689   0.218   4.202   1.928
 9597SOL    HW129690   0.305   4.244   1.900
 9597SOL    HW229691   0.161   4.188   1.847
 9598SOL     OW29692   0.589   4.282   5.716
 9598SOL    HW129693   0.615   4.338   5.795
 9598SOL    HW229694   0.552   4.341   5.644
 9599SOL     OW29695   3.446   0.227   5.570
 9599SOL    HW129696   3.501   0.272   5.499
 9599SOL    HW229697   3.433   0.131   5.546
 9600SOL     OW29698   1.308   0.404   5.838
 9600SOL    HW129699   1.226   0.452   5.806
 9600SOL    HW229700   1.304   0.394   5.937
 9601SOL     OW29701   0.154   4.551   6.264
 9601SOL    HW129702   0.182   4.644   6.285
 9601SOL    HW229703   0.235   4.493   6.256
 9602SOL     OW29704   6.857   4.839   6.123
 9602SOL    HW129705   6.785   4.824   6.191
 9602SOL    HW229706   6.883   4.752   6.082
 9603SOL     OW29707   2.550   5.842   4.362
 9603SOL    HW129708   2.537   5.913   4.432
 9603SOL    HW229709   2.619   5.873   4.297
 9604SOL     OW29710   5.271   1.145   0.066
 9604SOL    HW129711   5.190   1.092   0.040
 9604SOL    HW229712   5.275   1.229   0.011
 9605SOL     OW29713   1.642   5.174   5.135
 9605SOL    HW129714   1.596   5.261   5.114
 9605SOL    HW229715   1.582   5.098   5.110
 9606SOL     OW29716   0.551   6.606   3.122
 9606SOL    HW129717   0.493   6.660   3.183
 9606SOL    HW229718   0.598   6.535   3.174
 9607SOL     OW29719   0.971   0.695   1.639
 9607SOL    HW129720   0.967   0.794   1.647
 9607SOL    HW229721   1.066   0.664   1.648
 9608SOL     OW29722   6.792   0.198   2.193
 9608SOL    HW129723   6.854   0.276   2.183
 9608SOL    HW229724   6.712   0.226   2.246
 9609SOL     OW29725   1.900   4.102   4.953
 9609SOL    HW129726   1.915   4.178   4.891
 9609SOL    HW229727   1.967   4.106   5.028
 9610SOL     OW29728   1.618   2.325   5.729
 9610SOL    HW129729   1.560   2.259   5.776
 9610SOL    HW229730   1.562   2.379   5.665
 9611SOL     OW29731   6.694   0.309   0.980
 9611SOL    HW129732   6.599   0.332   0.997
 9611SOL    HW229733   6.753   0.381   1.016
 9612SOL     OW29734   6.915   2.756   0.460
 9612SOL    HW129735   6.895   2.726   0.366
 9612SOL    HW229736   6.833   2.746   0.516
 9613SOL     OW29737   5.575   0.162   4.562
 9613SOL    HW129738   5.639   0.156   4.639
 9613SOL    HW229739   5.554   0.258   4.544
 9614SOL     OW29740   3.808   3.964   2.211
 9614SOL    HW129741   3.829   4.049   2.260
 9614SOL    HW229742   3.710   3.959   2.193
 9615SOL     OW29743   1.732   5.899   2.792
 9615SOL    HW129744   1.778   5.933   2.710
 9615SOL    HW229745   1.742   5.800   2.797
 9616SOL     OW29746   3.861   2.535   0.905
 9616SOL    HW129747   3.774   2.558   0.861
 9616SOL    HW229748   3.918   2.616   0.911
 9617SOL     OW29749   0.770   3.260   3.592
 9617SOL    HW129750   0.832   3.227   3.664
 9617SOL    HW229751   0.721   3.341   3.625
 9618SOL     OW29752   3.903   6.650   6.740
 9618SOL    HW129753   3.918   6.574   6.677
 9618SOL    HW229754   3.888   6.734   6.687
 9619SOL     OW29755   1.996   5.846   0.272
 9619SOL    HW129756   1.921   5.872   0.332
 9619SOL    HW229757   2.077   5.825   0.326
 9620SOL     OW29758   3.316   0.457   6.620
 9620SOL    HW129759   3.325   0.494   6.527
 9620SOL    HW229760   3.406   0.450   6.662
 9621SOL     OW29761   0.525   0.217   2.665
 9621SOL    HW129762   0.590   0.250   2.733
 9621SOL    HW229763   0.437   0.199   2.710
 9622SOL     OW29764   6.528   0.830   6.815
 9622SOL    HW129765   6.453   0.875   6.767
 9622SOL    HW229766   6.560   0.888   6.889
 9623SOL     OW29767   5.023   5.765   6.545
 9623SOL    HW129768   5.105   5.777   6.602
 9623SOL    HW229769   5.043   5.798   6.452
 9624SOL     OW29770   5.211   5.205   5.325
 9624SOL    HW129771   5.228   5.107   5.317
 9624SOL    HW229772   5.274   5.245   5.392
 9625SOL     OW29773   5.579   4.750   6.379
 9625SOL    HW129774   5.487   4.779   6.354
 9625SOL    HW229775   5.584   4.734   6.478
 9626SOL     OW29776   1.478   4.728   4.910
 9626SOL    HW129777   1.466   4.816   4.864
 9626SOL    HW229778   1.567   4.690   4.887
 9627SOL     OW29779   1.838   4.644   5.630
 9627SOL    HW129780   1.861   4.728   5.678
 9627SOL    HW229781   1.907   4.626   5.560
 9628SOL     OW29782   5.796   4.203   6.943
 9628SOL    HW129783   5.716   4.155   6.979
 9628SOL    HW229784   5.813   4.284   6.999
 9629SOL     OW29785   6.423   6.105   2.662
 9629SOL    HW129786   6.358   6.088   2.735
 9629SOL    HW229787   6.509   6.058   2.681
 9630SOL     OW29788   6.279   6.478   5.835
 9630SOL    HW129789   6.180   6.489   5.835
 9630SOL    HW229790   6.321   6.550   5.779
 9631SOL     OW29791   4.399   0.940   1.117
 9631SOL    HW129792   4.341   0.947   1.036
 9631SOL    HW229793   4.351   0.890   1.189
 9632SOL     OW29794   2.255   5.062   1.725
 9632SOL    HW129795   2.351   5.088   1.723
 9632SOL    HW229796   2.202   5.130   1.776
 9633SOL     OW29797   3.614   3.324   1.979
 9633SOL    HW129798   3.573   3.304   1.890
 9633SOL    HW229799   3.712   3.338   1.969
 9634SOL     OW29800   5.058   4.538   2.444
 9634SOL    HW129801   5.123   4.604   2.480
 9634SOL    HW229802   4.965   4.571   2.459
 9635SOL     OW29803   0.638   3.518   4.193
 9635SOL    HW129804   0.658   3.540   4.288
 9635SOL    HW229805   0.647   3.600   4.137
 9636SOL     OW29806   4.257   1.817   5.887
 9636SOL    HW129807   4.299   1.826   5.797
 9636SOL    HW229808   4.157   1.822   5.878
 9637SOL     OW29809   2.395   2.769   1.440
 9637SOL    HW129810   2.471   2.819   1.398
 9637SOL    HW229811   2.335   2.733   1.369
 9638SOL     OW29812   6.973   4.528   6.040
 9638SOL    HW129813   0.012   4.491   5.971
 9638SOL    HW229814   0.003   4.560   6.118
 9639SOL     OW29815   4.386   2.460   1.952
 9639SOL    HW129816   4.322   2.476   1.876
 9639SOL    HW229817   4.336   2.419   2.028
 9640SOL     OW29818   3.989   1.332   2.272
 9640SOL    HW129819   3.940   1.415   2.247
 9640SOL    HW229820   4.051   1.351   2.348
 9641SOL     OW29821   5.877   4.647   2.623
 9641SOL    HW129822   5.816   4.716   2.583
 9641SOL    HW229823   5.965   4.689   2.642
 9642SOL     OW29824   1.393   7.009   4.490
 9642SOL    HW129825   1.353   0.003   4.580
 9642SOL    HW229826   1.479   0.035   4.482
 9643SOL     OW29827   4.897   4.167   4.360
 9643SOL    HW129828   4.940   4.204   4.277
 9643SOL    HW229829   4.966   4.123   4.417
 9644SOL     OW29830   2.124   6.387   5.278
 9644SOL    HW129831   2.180   6.465   5.306
 9644SOL    HW229832   2.035   6.419   5.247
 9645SOL     OW29833   0.863   4.847   5.067
 9645SOL    HW129834   0.803   4.925   5.050
 9645SOL    HW229835   0.821   4.786   5.133
 9646SOL     OW29836   3.017   7.011   4.532
 9646SOL    HW129837   2.946   0.036   4.480
 9646SOL    HW229838   2.978   6.930   4.574
 9647SOL     OW29839   6.252   6.096   2.867
 9647SOL    HW129840   6.170   6.133   2.824
 9647SOL    HW229841   6.227   6.019   2.925
 9648SOL     OW29842   5.228   2.436   1.623
 9648SOL    HW129843   5.219   2.532   1.595
 9648SOL    HW229844   5.232   2.378   1.541
 9649SOL     OW29845   2.219   3.540   6.386
 9649SOL    HW129846   2.267   3.476   6.326
 9649SOL    HW229847   2.259   3.536   6.478
 9650SOL     OW29848   6.213   4.729   3.579
 9650SOL    HW129849   6.165   4.780   3.652
 9650SOL    HW229850   6.265   4.793   3.523
 9651SOL     OW29851   3.037   1.213   0.123
 9651SOL    HW129852   3.095   1.200   0.043
 9651SOL    HW229853   3.004   1.307   0.125
 9652SOL     OW29854   0.688   4.223   1.149
 9652SOL    HW129855   0.646   4.226   1.240
 9652SOL    HW229856   0.640   4.156   1.093
 9653SOL     OW29857   4.482   4.108   5.662
 9653SOL    HW129858   4.383   4.121   5.660
 9653SOL    HW229859   4.517   4.126   5.754
 9654SOL     OW29860   3.748   3.132   2.830
 9654SOL    HW129861   3.673   3.097   2.774
 9654SOL    HW229862   3.712   3.167   2.916
 9655SOL     OW29863   6.540   1.281   1.193
 9655SOL    HW129864   6.532   1.373   1.232
 9655SOL    HW229865   6.604   1.228   1.248
 9656SOL     OW29866   4.899   3.009   0.488
 9656SOL    HW129867   4.917   3.015   0.390
 9656SOL    HW229868   4.985   3.012   0.538
 9657SOL     OW29869   5.281   4.278   3.895
 9657SOL    HW129870   5.325   4.233   3.817
 9657SOL    HW229871   5.338   4.354   3.926
 9658SOL     OW29872   4.956   2.079   2.377
 9658SOL    HW129873   4.937   2.007   2.310
 9658SOL    HW229874   4.994   2.038   2.460
 9659SOL     OW29875   2.946   1.900   0.435
 9659SOL    HW129876   3.039   1.877   0.466
 9659SOL    HW229877   2.893   1.816   0.422
 9660SOL     OW29878   0.868   6.370   0.900
 9660SOL    HW129879   0.770   6.388   0.908
 9660SOL    HW229880   0.898   6.312   0.976
 9661SOL     OW29881   4.352   5.701   1.254
 9661SOL    HW129882   4.273   5.759   1.271
 9661SOL    HW229883   4.367   5.692   1.156
 9662SOL     OW29884   5.513   4.137   6.633
 9662SOL    HW129885   5.475   4.186   6.712
 9662SOL    HW229886   5.561   4.056   6.665
 9663SOL     OW29887   0.388   4.917   2.781
 9663SOL    HW129888   0.372   4.949   2.688
 9663SOL    HW229889   0.486   4.899   2.794
 9664SOL     OW29890   5.324   4.063   3.699
 9664SOL    HW129891   5.252   4.001   3.667
 9664SOL    HW229892   5.405   4.010   3.724
 9665SOL     OW29893   6.382   6.284   5.395
 9665SOL    HW129894   6.333   6.369   5.414
 9665SOL    HW229895   6.476   6.293   5.425
 9666SOL     OW29896   6.369   4.761   1.345
 9666SOL    HW129897   6.453   4.725   1.386
 9666SOL    HW229898   6.315   4.810   1.414
 9667SOL     OW29899   4.655   4.466   0.996
 9667SOL    HW129900   4.667   4.376   0.953
 9667SOL    HW229901   4.627   4.532   0.927
 9668SOL     OW29902   1.314   0.333   6.098
 9668SOL    HW129903   1.318   0.236   6.122
 9668SOL    HW229904   1.241   0.377   6.150
 9669SOL     OW29905   2.795   0.081   0.805
 9669SOL    HW129906   2.879   0.068   0.857
 9669SOL    HW229907   2.739   7.021   0.809
 9670SOL     OW29908   0.436   6.971   5.156
 9670SOL    HW129909   0.464   0.012   5.228
 9670SOL    HW229910   0.415   6.882   5.197
 9671SOL     OW29911   0.479   4.598   0.435
 9671SOL    HW129912   0.480   4.678   0.495
 9671SOL    HW229913   0.571   4.583   0.399
 9672SOL     OW29914   1.192   5.239   2.638
 9672SOL    HW129915   1.270   5.182   2.661
 9672SOL    HW229916   1.117   5.181   2.606
 9673SOL     OW29917   3.273   4.248   1.678
 9673SOL    HW129918   3.251   4.239   1.581
 9673SOL    HW229919   3.192   4.228   1.733
 9674SOL     OW29920   3.892   6.620   2.936
 9674SOL    HW129921   3.794   6.632   2.955
 9674SOL    HW229922   3.906   6.537   2.883
 9675SOL     OW29923   5.263   4.002   0.466
 9675SOL    HW129924   5.238   4.094   0.495
 9675SOL    HW229925   5.275   4.001   0.367
 9676SOL     OW29926   1.594   3.296   6.621
 9676SOL    HW129927   1.564   3.391   6.631
 9676SOL    HW229928   1.545   3.239   6.687
 9677SOL     OW29929   6.241   5.031   6.434
 9677SOL    HW129930   6.248   5.079   6.521
 9677SOL    HW229931   6.304   4.953   6.433
 9678SOL     OW29932   3.257   3.839   5.134
 9678SOL    HW129933   3.212   3.910   5.188
 9678SOL    HW229934   3.245   3.858   5.037
 9679SOL     OW29935   2.640   1.953   4.844
 9679SOL    HW129936   2.687   2.011   4.777
 9679SOL    HW229937   2.593   1.878   4.796
 9680SOL     OW29938   5.150   6.576   4.495
 9680SOL    HW129939   5.153   6.580   4.395
 9680SOL    HW229940   5.077   6.635   4.529
 9681SOL     OW29941   3.228   1.258   1.718
 9681SOL    HW129942   3.204   1.182   1.778
 9681SOL    HW229943   3.249   1.339   1.772
 9682SOL     OW29944   5.314   4.861   3.670
 9682SOL    HW129945   5.235   4.913   3.636
 9682SOL    HW229946   5.285   4.769   3.695
 9683SOL     OW29947   1.810   6.181   0.391
 9683SOL    HW129948   1.806   6.269   0.344
 9683SOL    HW229949   1.864   6.190   0.474
 9684SOL     OW29950   1.025   3.265   4.884
 9684SOL    HW129951   0.963   3.323   4.832
 9684SOL    HW229952   0.979   3.230   4.966
 9685SOL     OW29953   4.539   3.864   0.667
 9685SOL    HW129954   4.546   3.766   0.686
 9685SOL    HW229955   4.444   3.893   0.680
 9686SOL     OW29956   0.581   2.491   6.594
 9686SOL    HW129957   0.571   2.400   6.634
 9686SOL    HW229958   0.639   2.485   6.513
 9687SOL     OW29959   6.263   6.684   1.986
 9687SOL    HW129960   6.242   6.774   1.948
 9687SOL    HW229961   6.280   6.693   2.084
 9688SOL     OW29962   0.752   3.765   1.112
 9688SOL    HW129963   0.714   3.714   1.035
 9688SOL    HW229964   0.849   3.783   1.095
 9689SOL     OW29965   0.906   5.178   5.657
 9689SOL    HW129966   0.958   5.183   5.572
 9689SOL    HW229967   0.808   5.183   5.637
 9690SOL     OW29968   4.642   5.392   5.902
 9690SOL    HW129969   4.705   5.466   5.924
 9690SOL    HW229970   4.617   5.343   5.986
 9691SOL     OW29971   3.491   3.939   2.784
 9691SOL    HW129972   3.414   4.003   2.778
 9691SOL    HW229973   3.494   3.899   2.875
 9692SOL     OW29974   5.014   5.166   0.681
 9692SOL    HW129975   4.982   5.176   0.587
 9692SOL    HW229976   5.073   5.085   0.687
 9693SOL     OW29977   6.035   4.486   4.131
 9693SOL    HW129978   6.001   4.578   4.111
 9693SOL    HW229979   6.087   4.488   4.217
 9694SOL     OW29980   3.442   0.542   1.246
 9694SOL    HW129981   3.442   0.604   1.325
 9694SOL    HW229982   3.517   0.476   1.255
 9695SOL     OW29983   0.089   3.885   2.528
 9695SOL    HW129984   0.184   3.911   2.544
 9695SOL    HW229985   0.050   3.944   2.457
 9696SOL     OW29986   5.845   1.958   2.726
 9696SOL    HW129987   5.854   1.936   2.823
 9696SOL    HW229988   5.843   2.057   2.713
 9697SOL     OW29989   0.129   6.304   0.118
 9697SOL    HW129990   0.125   6.394   0.073
 9697SOL    HW229991   0.061   6.244   0.076
 9698SOL     OW29992   5.692   2.972   6.208
 9698SOL    HW129993   5.685   3.071   6.206
 9698SOL    HW229994   5.606   2.931   6.178
 9699SOL     OW29995   0.693   5.902   6.927
 9699SOL    HW129996   0.601   5.877   6.898
 9699SOL    HW229997   0.710   5.863   7.018
 9700SOL     OW29998   7.014   6.126   3.957
 9700SOL    HW129999   0.020   6.199   3.896
 9700SOL    HW230000   6.931   6.083   3.921
 9701SOL     OW30001   4.551   3.343   6.501
 9701SOL    HW130002   4.460   3.377   6.476
 9701SOL    HW230003   4.620   3.410   6.476
 9702SOL     OW30004   4.176   2.743   0.757
 9702SOL    HW130005   4.205   2.654   0.792
 9702SOL    HW230006   4.207   2.815   0.820
 9703SOL     OW30007   5.748   3.831   4.233
 9703SOL    HW130008   5.799   3.914   4.213
 9703SOL    HW230009   5.654   3.840   4.199
 9704SOL     OW30010   3.171   4.858   2.556
 9704SOL    HW130011   3.263   4.897   2.562
 9704SOL    HW230012   3.157   4.791   2.628
 9705SOL     OW30013   6.091   3.858   5.982
 9705SOL    HW130014   6.176   3.869   5.932
 9705SOL    HW230015   6.102   3.788   6.052
 9706SOL     OW30016   2.144   1.564   1.237
 9706SOL    HW130017   2.195   1.647   1.218
 9706SOL    HW230018   2.201   1.501   1.290
 9707SOL     OW30019   5.860   4.995   2.232
 9707SOL    HW130020   5.889   4.962   2.322
 9707SOL    HW230021   5.873   4.922   2.165
 9708SOL     OW30022   1.209   1.699   2.162
 9708SOL    HW130023   1.174   1.703   2.069
 9708SOL    HW230024   1.231   1.604   2.186
 9709SOL     OW30025   5.114   4.351   1.783
 9709SOL    HW130026   5.100   4.404   1.699
 9709SOL    HW230027   5.182   4.280   1.766
 9710SOL     OW30028   6.464   0.301   0.053
 9710SOL    HW130029   6.498   0.358   0.128
 9710SOL    HW230030   6.376   0.260   0.080
 9711SOL     OW30031   3.961   6.091   5.805
 9711SOL    HW130032   3.881   6.046   5.847
 9711SOL    HW230033   4.044   6.059   5.850
 9712SOL     OW30034   6.256   3.311   0.373
 9712SOL    HW130035   6.222   3.242   0.309
 9712SOL    HW230036   6.346   3.343   0.343
 9713SOL     OW30037   2.473   6.293   3.052
 9713SOL    HW130038   2.381   6.326   3.073
 9713SOL    HW230039   2.494   6.312   2.956
 9714SOL     OW30040   4.155   6.008   5.485
 9714SOL    HW130041   4.090   6.027   5.412
 9714SOL    HW230042   4.244   6.048   5.461
 9715SOL     OW30043   6.201   4.893   0.276
 9715SOL    HW130044   6.129   4.889   0.345
 9715SOL    HW230045   6.270   4.959   0.304
 9716SOL     OW30046   4.016   3.857   0.114
 9716SOL    HW130047   3.919   3.845   0.136
 9716SOL    HW230048   4.048   3.778   0.062
 9717SOL     OW30049   4.493   6.404   0.037
 9717SOL    HW130050   4.505   6.325   6.998
 9717SOL    HW230051   4.416   6.459   0.006
 9718SOL     OW30052   4.368   2.652   0.159
 9718SOL    HW130053   4.302   2.586   0.195
 9718SOL    HW230054   4.354   2.664   0.061
 9719SOL     OW30055   5.265   6.752   5.588
 9719SOL    HW130056   5.193   6.818   5.564
 9719SOL    HW230057   5.317   6.787   5.666
 9720SOL     OW30058   1.216   3.613   2.746
 9720SOL    HW130059   1.276   3.636   2.669
 9720SOL    HW230060   1.185   3.519   2.737
 9721SOL     OW30061   0.492   1.851   7.019
 9721SOL    HW130062   0.420   1.883   6.958
 9721SOL    HW230063   0.530   1.765   6.983
 9722SOL     OW30064   3.457   1.831   5.148
 9722SOL    HW130065   3.405   1.882   5.216
 9722SOL    HW230066   3.413   1.743   5.131
 9723SOL     OW30067   5.859   5.439   4.209
 9723SOL    HW130068   5.860   5.527   4.163
 9723SOL    HW230069   5.951   5.418   4.243
 9724SOL     OW30070   2.178   4.839   6.493
 9724SOL    HW130071   2.250   4.784   6.535
 9724SOL    HW230072   2.089   4.809   6.527
 9725SOL     OW30073   4.427   6.098   5.401
 9725SOL    HW130074   4.463   6.122   5.310
 9725SOL    HW230075   4.504   6.087   5.464
 9726SOL     OW30076   5.055   1.225   4.342
 9726SOL    HW130077   5.070   1.135   4.302
 9726SOL    HW230078   5.144   1.269   4.359
 9727SOL     OW30079   0.530   2.658   0.101
 9727SOL    HW130080   0.595   2.684   0.029
 9727SOL    HW230081   0.500   2.563   0.086
 9728SOL     OW30082   6.985   1.928   6.149
 9728SOL    HW130083   0.015   1.882   6.077
 9728SOL    HW230084   0.023   1.988   6.202
 9729SOL     OW30085   1.663   3.441   4.052
 9729SOL    HW130086   1.729   3.464   3.981
 9729SOL    HW230087   1.642   3.343   4.047
 9730SOL     OW30088   1.134   4.726   3.028
 9730SOL    HW130089   1.226   4.705   3.059
 9730SOL    HW230090   1.094   4.797   3.087
 9731SOL     OW30091   5.177   5.613   2.039
 9731SOL    HW130092   5.138   5.542   1.981
 9731SOL    HW230093   5.109   5.644   2.105
 9732SOL     OW30094   0.002   2.885   1.815
 9732SOL    HW130095   0.034   2.879   1.720
 9732SOL    HW230096   0.082   2.884   1.876
 9733SOL     OW30097   5.818   5.495   1.253
 9733SOL    HW130098   5.756   5.499   1.175
 9733SOL    HW230099   5.873   5.579   1.256
 9734SOL     OW30100   6.507   0.094   0.431
 9734SOL    HW130101   6.552   0.081   0.519
 9734SOL    HW230102   6.573   0.127   0.364
 9735SOL     OW30103   1.391   2.593   3.200
 9735SOL    HW130104   1.382   2.664   3.270
 9735SOL    HW230105   1.417   2.507   3.244
 9736SOL     OW30106   4.832   1.982   6.175
 9736SOL    HW130107   4.837   2.076   6.206
 9736SOL    HW230108   4.914   1.960   6.121
 9737SOL     OW30109   5.757   1.994   3.371
 9737SOL    HW130110   5.775   2.047   3.288
 9737SOL    HW230111   5.725   1.903   3.346
 9738SOL     OW30112   1.843   6.698   0.397
 9738SOL    HW130113   1.858   6.679   0.494
 9738SOL    HW230114   1.760   6.751   0.385
 9739SOL     OW30115   4.754   6.084   0.081
 9739SOL    HW130116   4.704   6.005   0.046
 9739SOL    HW230117   4.794   6.135   0.006
 9740SOL     OW30118   5.769   1.266   2.785
 9740SOL    HW130119   5.747   1.169   2.773
 9740SOL    HW230120   5.710   1.305   2.856
 9741SOL     OW30121   2.223   0.757   3.941
 9741SOL    HW130122   2.228   0.659   3.963
 9741SOL    HW230123   2.282   0.808   4.003
 9742SOL     OW30124   4.291   0.940   0.363
 9742SOL    HW130125   4.206   0.896   0.390
 9742SOL    HW230126   4.274   1.036   0.345
 9743SOL     OW30127   0.178   4.304   3.263
 9743SOL    HW130128   0.275   4.327   3.275
 9743SOL    HW230129   0.170   4.231   3.194
 9744SOL     OW30130   2.562   6.927   3.113
 9744SOL    HW130131   2.519   6.873   3.186
 9744SOL    HW230132   2.614   7.002   3.154
 9745SOL     OW30133   5.431   2.639   5.993
 9745SOL    HW130134   5.424   2.697   5.911
 9745SOL    HW230135   5.418   2.696   6.075
 9746SOL     OW30136   5.675   6.425   6.208
 9746SOL    HW130137   5.660   6.523   6.204
 9746SOL    HW230138   5.724   6.402   6.293
 9747SOL     OW30139   2.836   2.116   1.689
 9747SOL    HW130140   2.802   2.210   1.685
 9747SOL    HW230141   2.901   2.101   1.614
 9748SOL     OW30142   0.297   6.601   2.616
 9748SOL    HW130143   0.288   6.503   2.634
 9748SOL    HW230144   0.348   6.644   2.690
 9749SOL     OW30145   0.696   1.174   2.627
 9749SOL    HW130146   0.796   1.172   2.622
 9749SOL    HW230147   0.660   1.087   2.597
 9750SOL     OW30148   6.375   5.387   3.992
 9750SOL    HW130149   6.290   5.357   4.036
 9750SOL    HW230150   6.453   5.339   4.032
 9751SOL     OW30151   1.814   0.070   0.766
 9751SOL    HW130152   1.871   0.041   0.844
 9751SOL    HW230153   1.749   0.139   0.797
 9752SOL     OW30154   3.652   1.988   6.158
 9752SOL    HW130155   3.686   1.975   6.251
 9752SOL    HW230156   3.646   1.899   6.112
 9753SOL     OW30157   1.212   5.646   6.391
 9753SOL    HW130158   1.208   5.733   6.440
 9753SOL    HW230159   1.183   5.660   6.296
 9754SOL     OW30160   3.672   6.715   0.626
 9754SOL    HW130161   3.707   6.809   0.621
 9754SOL    HW230162   3.638   6.688   0.536
 9755SOL     OW30163   3.483   4.000   5.341
 9755SOL    HW130164   3.468   3.911   5.296
 9755SOL    HW230165   3.581   4.017   5.350
 9756SOL     OW30166   5.891   1.907   6.438
 9756SOL    HW130167   5.945   1.973   6.386
 9756SOL    HW230168   5.926   1.900   6.531
 9757SOL     OW30169   5.797   4.615   4.317
 9757SOL    HW130170   5.838   4.685   4.375
 9757SOL    HW230171   5.821   4.524   4.351
 9758SOL     OW30172   1.641   1.252   0.026
 9758SOL    HW130173   1.705   1.327   0.040
 9758SOL    HW230174   1.573   1.251   0.100
 9759SOL     OW30175   1.169   2.113   0.398
 9759SOL    HW130176   1.218   2.059   0.466
 9759SOL    HW230177   1.188   2.077   0.307
 9760SOL     OW30178   5.184   3.356   6.942
 9760SOL    HW130179   5.121   3.367   6.865
 9760SOL    HW230180   5.278   3.359   6.909
 9761SOL     OW30181   1.315   2.246   2.321
 9761SOL    HW130182   1.338   2.271   2.227
 9761SOL    HW230183   1.231   2.191   2.321
 9762SOL     OW30184   3.256   1.592   4.865
 9762SOL    HW130185   3.221   1.685   4.872
 9762SOL    HW230186   3.245   1.558   4.772
 9763SOL     OW30187   5.683   1.121   3.114
 9763SOL    HW130188   5.782   1.132   3.102
 9763SOL    HW230189   5.637   1.206   3.087
 9764SOL     OW30190   6.543   2.088   2.486
 9764SOL    HW130191   6.569   2.041   2.401
 9764SOL    HW230192   6.562   2.029   2.564
 9765SOL     OW30193   6.801   0.362   3.142
 9765SOL    HW130194   6.819   0.340   3.238
 9765SOL    HW230195   6.812   0.460   3.127
 9766SOL     OW30196   2.428   0.083   2.583
 9766SOL    HW130197   2.456   0.072   2.488
 9766SOL    HW230198   2.510   0.100   2.639
 9767SOL     OW30199   2.183   2.809   5.132
 9767SOL    HW130200   2.193   2.814   5.231
 9767SOL    HW230201   2.264   2.847   5.088
 9768SOL     OW30202   4.592   1.865   1.154
 9768SOL    HW130203   4.542   1.879   1.069
 9768SOL    HW230204   4.681   1.825   1.135
 9769SOL     OW30205   3.558   0.843   4.778
 9769SOL    HW130206   3.550   0.895   4.863
 9769SOL    HW230207   3.628   0.773   4.787
 9770SOL     OW30208   4.214   1.491   5.502
 9770SOL    HW130209   4.160   1.566   5.540
 9770SOL    HW230210   4.169   1.456   5.420
 9771SOL     OW30211   2.529   6.035   1.034
 9771SOL    HW130212   2.575   6.078   0.956
 9771SOL    HW230213   2.462   6.098   1.072
 9772SOL     OW30214   2.555   5.913   1.552
 9772SOL    HW130215   2.547   5.993   1.611
 9772SOL    HW230216   2.638   5.920   1.496
 9773SOL     OW30217   5.484   5.504   3.346
 9773SOL    HW130218   5.534   5.418   3.339
 9773SOL    HW230219   5.536   5.577   3.302
 9774SOL     OW30220   0.884   4.613   2.993
 9774SOL    HW130221   0.833   4.657   3.067
 9774SOL    HW230222   0.975   4.653   2.987
 9775SOL     OW30223   2.632   0.318   3.493
 9775SOL    HW130224   2.699   0.254   3.530
 9775SOL    HW230225   2.553   0.322   3.554
 9776SOL     OW30226   1.394   4.489   5.824
 9776SOL    HW130227   1.351   4.578   5.810
 9776SOL    HW230228   1.357   4.446   5.906
 9777SOL     OW30229   5.382   5.805   0.542
 9777SOL    HW130230   5.308   5.743   0.569
 9777SOL    HW230231   5.399   5.870   0.617
 9778SOL     OW30232   0.219   1.922   4.618
 9778SOL    HW130233   0.187   1.875   4.536
 9778SOL    HW230234   0.141   1.969   4.661
 9779SOL     OW30235   0.204   2.325   3.499
 9779SOL    HW130236   0.214   2.376   3.584
 9779SOL    HW230237   0.230   2.229   3.514
 9780SOL     OW30238   2.037   1.783   0.843
 9780SOL    HW130239   2.089   1.705   0.809
 9780SOL    HW230240   1.939   1.764   0.836
 9781SOL     OW30241   2.143   3.034   4.545
 9781SOL    HW130242   2.176   2.976   4.620
 9781SOL    HW230243   2.170   3.129   4.562
 9782SOL     OW30244   0.664   1.829   0.228
 9782SOL    HW130245   0.663   1.731   0.250
 9782SOL    HW230246   0.616   1.844   0.142
 9783SOL     OW30247   4.492   2.312   3.872
 9783SOL    HW130248   4.555   2.235   3.887
 9783SOL    HW230249   4.494   2.339   3.776
 9784SOL     OW30250   3.471   0.858   6.052
 9784SOL    HW130251   3.492   0.808   5.968
 9784SOL    HW230252   3.386   0.822   6.092
 9785SOL     OW30253   6.053   2.712   5.471
 9785SOL    HW130254   6.036   2.804   5.508
 9785SOL    HW230255   5.999   2.700   5.388
 9786SOL     OW30256   2.377   3.857   0.551
 9786SOL    HW130257   2.468   3.875   0.513
 9786SOL    HW230258   2.307   3.896   0.492
 9787SOL     OW30259   3.130   3.405   3.342
 9787SOL    HW130260   3.230   3.398   3.336
 9787SOL    HW230261   3.097   3.346   3.416
 9788SOL     OW30262   0.285   6.858   1.941
 9788SOL    HW130263   0.204   6.901   1.903
 9788SOL    HW230264   0.283   6.864   2.041
 9789SOL     OW30265   2.292   6.407   0.059
 9789SOL    HW130266   2.346   6.369   7.008
 9789SOL    HW230267   2.226   6.339   0.090
 9790SOL     OW30268   6.329   4.786   6.238
 9790SOL    HW130269   6.282   4.856   6.185
 9790SOL    HW230270   6.388   4.732   6.178
 9791SOL     OW30271   0.595   0.034   0.199
 9791SOL    HW130272   0.624   0.130   0.195
 9791SOL    HW230273   0.503   0.028   0.237
 9792SOL     OW30274   3.139   5.091   0.691
 9792SOL    HW130275   3.172   5.012   0.639
 9792SOL    HW230276   3.217   5.137   0.734
 9793SOL     OW30277   4.267   0.003   2.712
 9793SOL    HW130278   4.223   6.937   2.705
 9793SOL    HW230279   4.365   7.017   2.693
 9794SOL     OW30280   5.821   4.446   5.342
 9794SOL    HW130281   5.845   4.410   5.433
 9794SOL    HW230282   5.895   4.506   5.310
 9795SOL     OW30283   1.020   2.651   4.399
 9795SOL    HW130284   1.067   2.732   4.365
 9795SOL    HW230285   1.087   2.584   4.431
 9796SOL     OW30286   3.848   3.952   3.610
 9796SOL    HW130287   3.826   3.963   3.707
 9796SOL    HW230288   3.940   3.912   3.602
 9797SOL     OW30289   2.347   5.367   6.702
 9797SOL    HW130290   2.349   5.388   6.800
 9797SOL    HW230291   2.440   5.354   6.669
 9798SOL     OW30292   2.311   1.139   1.803
 9798SOL    HW130293   2.350   1.156   1.713
 9798SOL    HW230294   2.367   1.183   1.873
 9799SOL     OW30295   3.191   3.910   5.871
 9799SOL    HW130296   3.200   3.919   5.772
 9799SOL    HW230297   3.113   3.965   5.902
 9800SOL     OW30298   5.727   4.724   3.868
 9800SOL    HW130299   5.673   4.698   3.948
 9800SOL    HW230300   5.736   4.824   3.865
 9801SOL     OW30301   5.250   4.826   0.255
 9801SOL    HW130302   5.348   4.812   0.241
 9801SOL    HW230303   5.231   4.828   0.353
 9802SOL     OW30304   4.712   5.016   0.614
 9802SOL    HW130305   4.642   5.032   0.544
 9802SOL    HW230306   4.794   5.068   0.591
 9803SOL     OW30307   2.464   3.703   6.304
 9803SOL    HW130308   2.514   3.739   6.225
 9803SOL    HW230309   2.366   3.706   6.286
 9804SOL     OW30310   0.295   6.153   3.187
 9804SOL    HW130311   0.208   6.191   3.156
 9804SOL    HW230312   0.278   6.071   3.242
 9805SOL     OW30313   0.424   6.838   3.237
 9805SOL    HW130314   0.366   6.920   3.247
 9805SOL    HW230315   0.490   6.853   3.164
 9806SOL     OW30316   1.890   1.469   7.001
 9806SOL    HW130317   1.935   1.555   6.978
 9806SOL    HW230318   1.959   1.398   7.015
 9807SOL     OW30319   3.250   3.570   1.928
 9807SOL    HW130320   3.334   3.617   1.954
 9807SOL    HW230321   3.225   3.595   1.834
 9808SOL     OW30322   3.425   5.804   3.981
 9808SOL    HW130323   3.486   5.849   3.916
 9808SOL    HW230324   3.480   5.758   4.052
 9809SOL     OW30325   0.626   3.502   0.596
 9809SOL    HW130326   0.620   3.421   0.654
 9809SOL    HW230327   0.534   3.539   0.580
 9810SOL     OW30328   2.995   2.056   4.858
 9810SOL    HW130329   3.027   1.963   4.876
 9810SOL    HW230330   3.045   2.121   4.916
 9811SOL     OW30331   5.912   4.794   3.441
 9811SOL    HW130332   5.970   4.713   3.451
 9811SOL    HW230333   5.817   4.769   3.459
 9812SOL     OW30334   2.830   1.179   4.894
 9812SOL    HW130335   2.781   1.164   4.809
 9812SOL    HW230336   2.910   1.236   4.877
 9813SOL     OW30337   5.314   1.876   1.092
 9813SOL    HW130338   5.363   1.807   1.039
 9813SOL    HW230339   5.333   1.864   1.189
 9814SOL     OW30340   6.070   1.262   0.140
 9814SOL    HW130341   6.013   1.237   0.218
 9814SOL    HW230342   6.091   1.180   0.087
 9815SOL     OW30343   4.664   2.505   4.345
 9815SOL    HW130344   4.581   2.496   4.291
 9815SOL    HW230345   4.691   2.416   4.381
 9816SOL     OW30346   0.755   0.813   6.555
 9816SOL    HW130347   0.748   0.807   6.456
 9816SOL    HW230348   0.684   0.757   6.598
 9817SOL     OW30349   1.192   0.050   3.585
 9817SOL    HW130350   1.174   6.979   3.556
 9817SOL    HW230351   1.289   0.061   3.602
 9818SOL     OW30352   6.466   2.255   4.580
 9818SOL    HW130353   6.449   2.184   4.512
 9818SOL    HW230354   6.459   2.345   4.538
 9819SOL     OW30355   4.830   3.109   3.527
 9819SOL    HW130356   4.892   3.152   3.591
 9819SOL    HW230357   4.807   3.017   3.559
 9820SOL     OW30358   3.911   3.183   6.668
 9820SOL    HW130359   3.864   3.097   6.687
 9820SOL    HW230360   3.853   3.240   6.610
 9821SOL     OW30361   5.753   1.232   6.974
 9821SOL    HW130362   5.679   1.167   6.993
 9821SOL    HW230363   5.833   1.208   0.005
 9822SOL     OW30364   1.614   6.652   3.588
 9822SOL    HW130365   1.571   6.599   3.514
 9822SOL    HW230366   1.708   6.675   3.562
 9823SOL     OW30367   4.028   0.097   0.905
 9823SOL    HW130368   4.048   7.023   0.914
 9823SOL    HW230369   4.021   0.138   0.996
 9824SOL     OW30370   1.915   4.521   5.273
 9824SOL    HW130371   2.009   4.554   5.263
 9824SOL    HW230372   1.912   4.447   5.339
 9825SOL     OW30373   3.193   5.132   5.610
 9825SOL    HW130374   3.211   5.213   5.554
 9825SOL    HW230375   3.237   5.142   5.699
 9826SOL     OW30376   5.127   5.040   6.441
 9826SOL    HW130377   5.071   4.965   6.408
 9826SOL    HW230378   5.068   5.114   6.474
 9827SOL     OW30379   2.190   3.264   3.769
 9827SOL    HW130380   2.212   3.311   3.683
 9827SOL    HW230381   2.109   3.207   3.757
 9828SOL     OW30382   2.713   3.037   6.317
 9828SOL    HW130383   2.654   3.116   6.334
 9828SOL    HW230384   2.745   3.000   6.404
 9829SOL     OW30385   3.318   6.191   0.318
 9829SOL    HW130386   3.367   6.104   0.320
 9829SOL    HW230387   3.280   6.206   0.227
 9830SOL     OW30388   5.535   2.522   1.528
 9830SOL    HW130389   5.524   2.422   1.532
 9830SOL    HW230390   5.583   2.554   1.610
 9831SOL     OW30391   1.597   6.110   1.241
 9831SOL    HW130392   1.574   6.070   1.330
 9831SOL    HW230393   1.696   6.128   1.237
 9832SOL     OW30394   5.127   5.224   2.356
 9832SOL    HW130395   5.178   5.242   2.440
 9832SOL    HW230396   5.117   5.309   2.304
 9833SOL     OW30397   3.465   2.900   5.072
 9833SOL    HW130398   3.524   2.938   5.144
 9833SOL    HW230399   3.401   2.835   5.112
 9834SOL     OW30400   3.399   4.603   5.501
 9834SOL    HW130401   3.332   4.537   5.468
 9834SOL    HW230402   3.392   4.687   5.447
 9835SOL     OW30403   3.291   2.639   5.783
 9835SOL    HW130404   3.317   2.701   5.857
 9835SOL    HW230405   3.342   2.554   5.792
 9836SOL     OW30406   6.034   4.529   3.519
 9836SOL    HW130407   6.107   4.584   3.560
 9836SOL    HW230408   5.952   4.533   3.576
 9837SOL     OW30409   3.347   0.206   2.678
 9837SOL    HW130410   3.395   0.153   2.747
 9837SOL    HW230411   3.312   0.291   2.718
 9838SOL     OW30412   0.310   6.939   5.923
 9838SOL    HW130413   0.343   0.010   5.924
 9838SOL    HW230414   0.210   6.939   5.919
 9839SOL     OW30415   5.612   1.391   2.967
 9839SOL    HW130416   5.579   1.483   2.986
 9839SOL    HW230417   5.534   1.329   2.956
 9840SOL     OW30418   0.880   1.055   1.482
 9840SOL    HW130419   0.870   0.970   1.430
 9840SOL    HW230420   0.934   1.038   1.564
 9841SOL     OW30421   1.188   3.987   4.948
 9841SOL    HW130422   1.134   3.932   4.885
 9841SOL    HW230423   1.155   3.972   5.041
 9842SOL     OW30424   4.044   3.697   3.010
 9842SOL    HW130425   3.950   3.728   2.994
 9842SOL    HW230426   4.055   3.673   3.106
 9843SOL     OW30427   6.236   1.447   1.554
 9843SOL    HW130428   6.161   1.385   1.577
 9843SOL    HW230429   6.206   1.541   1.568
 9844SOL     OW30430   5.472   0.522   2.358
 9844SOL    HW130431   5.428   0.568   2.435
 9844SOL    HW230432   5.562   0.562   2.342
 9845SOL     OW30433   3.062   1.291   3.661
 9845SOL    HW130434   2.974   1.243   3.660
 9845SOL    HW230435   3.066   1.354   3.584
 9846SOL     OW30436   4.002   3.592   1.542
 9846SOL    HW130437   3.984   3.618   1.637
 9846SOL    HW230438   4.024   3.495   1.538
 9847SOL     OW30439   3.127   2.902   5.205
 9847SOL    HW130440   3.119   2.935   5.111
 9847SOL    HW230441   3.217   2.862   5.219
 9848SOL     OW30442   3.379   2.763   6.008
 9848SOL    HW130443   3.435   2.842   6.033
 9848SOL    HW230444   3.426   2.679   6.033
 9849SOL     OW30445   6.592   0.436   0.249
 9849SOL    HW130446   6.588   0.426   0.348
 9849SOL    HW230447   6.672   0.490   0.223
 9850SOL     OW30448   6.391   5.887   3.225
 9850SOL    HW130449   6.377   5.815   3.293
 9850SOL    HW230450   6.321   5.880   3.154
 9851SOL     OW30451   4.659   1.975   5.965
 9851SOL    HW130452   4.735   1.972   6.030
 9851SOL    HW230453   4.581   1.923   6.002
 9852SOL     OW30454   4.257   1.871   2.531
 9852SOL    HW130455   4.206   1.912   2.607
 9852SOL    HW230456   4.329   1.933   2.502
 9853SOL     OW30457   5.064   4.451   3.866
 9853SOL    HW130458   5.104   4.522   3.808
 9853SOL    HW230459   5.132   4.381   3.885
 9854SOL     OW30460   0.358   5.330   4.629
 9854SOL    HW130461   0.283   5.385   4.666
 9854SOL    HW230462   0.338   5.305   4.535
 9855SOL     OW30463   2.610   3.872   1.389
 9855SOL    HW130464   2.625   3.774   1.378
 9855SOL    HW230465   2.578   3.891   1.482
 9856SOL     OW30466   4.952   3.696   6.156
 9856SOL    HW130467   5.048   3.684   6.184
 9856SOL    HW230468   4.903   3.610   6.167
 9857SOL     OW30469   4.382   1.927   4.639
 9857SOL    HW130470   4.416   1.991   4.570
 9857SOL    HW230471   4.393   1.967   4.730
 9858SOL     OW30472   0.522   0.763   1.153
 9858SOL    HW130473   0.492   0.706   1.077
 9858SOL    HW230474   0.544   0.705   1.232
 9859SOL     OW30475   5.618   6.734   1.937
 9859SOL    HW130476   5.705   6.707   1.896
 9859SOL    HW230477   5.543   6.695   1.884
 9860SOL     OW30478   0.078   1.545   3.195
 9860SOL    HW130479   7.006   1.527   3.218
 9860SOL    HW230480   0.095   1.517   3.100
 9861SOL     OW30481   3.696   0.147   2.794
 9861SOL    HW130482   3.785   0.103   2.806
 9861SOL    HW230483   3.630   0.080   2.762
 9862SOL     OW30484   2.834   4.482   0.726
 9862SOL    HW130485   2.781   4.535   0.793
 9862SOL    HW230486   2.773   4.450   0.654
 9863SOL     OW30487   3.675   0.545   3.663
 9863SOL    HW130488   3.743   0.576   3.597
 9863SOL    HW230489   3.587   0.533   3.618
 9864SOL     OW30490   3.646   6.122   3.998
 9864SOL    HW130491   3.637   6.069   4.083
 9864SOL    HW230492   3.587   6.202   4.002
 9865SOL     OW30493   1.780   0.786   4.430
 9865SOL    HW130494   1.804   0.755   4.338
 9865SOL    HW230495   1.703   0.732   4.464
 9866SOL     OW30496   5.699   5.037   5.610
 9866SOL    HW130497   5.669   5.056   5.704
 9866SOL    HW230498   5.758   4.956   5.610
 9867SOL     OW30499   5.828   0.622   0.841
 9867SOL    HW130500   5.881   0.621   0.926
 9867SOL    HW230501   5.753   0.557   0.848
 9868SOL     OW30502   0.686   3.964   5.457
 9868SOL    HW130503   0.674   4.063   5.446
 9868SOL    HW230504   0.652   3.936   5.547
 9869SOL     OW30505   1.459   3.364   2.315
 9869SOL    HW130506   1.489   3.346   2.222
 9869SOL    HW230507   1.535   3.402   2.368
 9870SOL     OW30508   4.411   5.670   2.386
 9870SOL    HW130509   4.507   5.644   2.372
 9870SOL    HW230510   4.373   5.618   2.462
 9871SOL     OW30511   0.702   6.235   6.198
 9871SOL    HW130512   0.633   6.200   6.262
 9871SOL    HW230513   0.728   6.328   6.224
 9872SOL     OW30514   2.374   4.640   4.206
 9872SOL    HW130515   2.450   4.619   4.146
 9872SOL    HW230516   2.400   4.619   4.301
 9873SOL     OW30517   2.983   2.573   1.267
 9873SOL    HW130518   2.979   2.628   1.184
 9873SOL    HW230519   2.993   2.633   1.347
 9874SOL     OW30520   1.391   2.997   4.226
 9874SOL    HW130521   1.373   3.095   4.235
 9874SOL    HW230522   1.355   2.964   4.139
 9875SOL     OW30523   6.829   6.821   2.029
 9875SOL    HW130524   6.859   6.771   1.948
 9875SOL    HW230525   6.817   6.758   2.105
 9876SOL     OW30526   6.448   0.919   2.888
 9876SOL    HW130527   6.528   0.965   2.925
 9876SOL    HW230528   6.386   0.895   2.963
 9877SOL     OW30529   0.355   6.427   3.440
 9877SOL    HW130530   0.436   6.372   3.418
 9877SOL    HW230531   0.379   6.524   3.439
 9878SOL     OW30532   2.499   4.982   4.906
 9878SOL    HW130533   2.458   4.910   4.851
 9878SOL    HW230534   2.598   4.967   4.911
 9879SOL     OW30535   5.411   5.857   4.084
 9879SOL    HW130536   5.356   5.788   4.131
 9879SOL    HW230537   5.462   5.814   4.009
 9880SOL     OW30538   3.342   1.212   5.555
 9880SOL    HW130539   3.273   1.281   5.578
 9880SOL    HW230540   3.402   1.248   5.484
 9881SOL     OW30541   1.031   1.351   5.029
 9881SOL    HW130542   1.011   1.318   4.937
 9881SOL    HW230543   1.115   1.405   5.027
 9882SOL     OW30544   0.724   3.000   3.860
 9882SOL    HW130545   0.628   3.022   3.878
 9882SOL    HW230546   0.781   3.081   3.875
 9883SOL     OW30547   1.051   5.843   0.295
 9883SOL    HW130548   1.055   5.878   0.388
 9883SOL    HW230549   1.072   5.745   0.295
 9884SOL     OW30550   4.651   2.065   2.612
 9884SOL    HW130551   4.605   2.054   2.524
 9884SOL    HW230552   4.655   2.162   2.636
 9885SOL     OW30553   6.967   2.669   5.015
 9885SOL    HW130554   7.001   2.601   5.080
 9885SOL    HW230555   7.012   2.656   4.926
 9886SOL     OW30556   1.148   4.425   2.351
 9886SOL    HW130557   1.149   4.339   2.400
 9886SOL    HW230558   1.232   4.476   2.369
 9887SOL     OW30559   3.685   0.488   5.679
 9887SOL    HW130560   3.758   0.423   5.661
 9887SOL    HW230561   3.613   0.477   5.610
 9888SOL     OW30562   5.791   4.411   2.419
 9888SOL    HW130563   5.759   4.333   2.366
 9888SOL    HW230564   5.807   4.382   2.514
 9889SOL     OW30565   0.138   5.133   1.710
 9889SOL    HW130566   0.069   5.096   1.648
 9889SOL    HW230567   0.141   5.078   1.793
 9890SOL     OW30568   1.524   2.017   0.397
 9890SOL    HW130569   1.443   1.981   0.443
 9890SOL    HW230570   1.522   2.117   0.400
 9891SOL     OW30571   5.297   3.378   2.096
 9891SOL    HW130572   5.313   3.295   2.150
 9891SOL    HW230573   5.233   3.357   2.022
 9892SOL     OW30574   0.060   4.764   0.833
 9892SOL    HW130575   6.988   4.749   0.806
 9892SOL    HW230576   0.068   4.758   0.932
 9893SOL     OW30577   0.861   0.405   0.928
 9893SOL    HW130578   0.913   0.472   0.875
 9893SOL    HW230579   0.844   0.324   0.872
 9894SOL     OW30580   2.687   2.409   1.219
 9894SOL    HW130581   2.719   2.430   1.311
 9894SOL    HW230582   2.765   2.409   1.156
 9895SOL     OW30583   5.984   4.896   4.690
 9895SOL    HW130584   5.995   4.897   4.591
 9895SOL    HW230585   5.913   4.830   4.715
 9896SOL     OW30586   6.853   0.874   6.577
 9896SOL    HW130587   6.904   0.853   6.660
 9896SOL    HW230588   6.791   0.799   6.555
 9897SOL     OW30589   5.740   6.094   2.611
 9897SOL    HW130590   5.792   6.009   2.605
 9897SOL    HW230591   5.749   6.132   2.703
 9898SOL     OW30592   1.786   6.115   4.318
 9898SOL    HW130593   1.693   6.080   4.331
 9898SOL    HW230594   1.844   6.084   4.393
 9899SOL     OW30595   0.792   6.039   0.778
 9899SOL    HW130596   0.751   5.953   0.748
 9899SOL    HW230597   0.875   6.021   0.829
 9900SOL     OW30598   1.911   3.178   2.900
 9900SOL    HW130599   1.881   3.177   2.995
 9900SOL    HW230600   1.854   3.114   2.847
 9901SOL     OW30601   2.649   0.682   0.096
 9901SOL    HW130602   2.577   0.750   0.082
 9901SOL    HW230603   2.738   0.725   0.089
 9902SOL     OW30604   2.765   4.829   0.430
 9902SOL    HW130605   2.764   4.899   0.502
 9902SOL    HW230606   2.854   4.782   0.432
 9903SOL     OW30607   5.298   2.163   2.214
 9903SOL    HW130608   5.283   2.245   2.157
 9903SOL    HW230609   5.223   2.155   2.280
 9904SOL     OW30610   1.025   3.606   6.695
 9904SOL    HW130611   0.941   3.643   6.735
 9904SOL    HW230612   1.024   3.622   6.596
 9905SOL     OW30613   1.962   7.001   6.048
 9905SOL    HW130614   1.956   0.002   6.145
 9905SOL    HW230615   1.897   6.928   6.028
 9906SOL     OW30616   2.275   3.572   1.640
 9906SOL    HW130617   2.301   3.528   1.727
 9906SOL    HW230618   2.195   3.526   1.602
 9907SOL     OW30619   6.804   0.427   1.329
 9907SOL    HW130620   6.839   0.447   1.237
 9907SOL    HW230621   6.756   0.507   1.364
 9908SOL     OW30622   5.929   2.003   4.771
 9908SOL    HW130623   5.954   1.912   4.805
 9908SOL    HW230624   5.996   2.033   4.703
 9909SOL     OW30625   4.386   0.700   3.314
 9909SOL    HW130626   4.325   0.666   3.385
 9909SOL    HW230627   4.481   0.683   3.340
 9910SOL     OW30628   1.424   4.735   2.268
 9910SOL    HW130629   1.335   4.748   2.312
 9910SOL    HW230630   1.480   4.674   2.324
 9911SOL     OW30631   2.868   5.992   2.109
 9911SOL    HW130632   2.966   6.006   2.126
 9911SOL    HW230633   2.857   5.935   2.028
 9912SOL     OW30634   3.518   0.420   1.486
 9912SOL    HW130635   3.598   0.478   1.469
 9912SOL    HW230636   3.457   0.465   1.551
 9913SOL     OW30637   5.707   3.650   1.223
 9913SOL    HW130638   5.749   3.739   1.242
 9913SOL    HW230639   5.666   3.614   1.307
 9914SOL     OW30640   5.758   1.393   4.906
 9914SOL    HW130641   5.720   1.423   4.994
 9914SOL    HW230642   5.759   1.470   4.842
 9915SOL     OW30643   5.386   0.458   3.512
 9915SOL    HW130644   5.397   0.554   3.537
 9915SOL    HW230645   5.316   0.416   3.570
 9916SOL     OW30646   2.217   2.193   2.660
 9916SOL    HW130647   2.234   2.276   2.607
 9916SOL    HW230648   2.122   2.191   2.689
 9917SOL     OW30649   5.142   4.385   6.762
 9917SOL    HW130650   5.077   4.368   6.688
 9917SOL    HW230651   5.140   4.483   6.785
 9918SOL     OW30652   3.476   1.646   2.846
 9918SOL    HW130653   3.450   1.554   2.815
 9918SOL    HW230654   3.529   1.691   2.775
 9919SOL     OW30655   1.131   5.137   1.052
 9919SOL    HW130656   1.155   5.202   0.980
 9919SOL    HW230657   1.102   5.051   1.010
 9920SOL     OW30658   5.191   1.448   2.388
 9920SOL    HW130659   5.196   1.538   2.431
 9920SOL    HW230660   5.097   1.415   2.391
 9921SOL     OW30661   4.125   0.218   5.129
 9921SOL    HW130662   4.069   0.143   5.095
 9921SOL    HW230663   4.215   0.182   5.157
 9922SOL     OW30664   2.603   4.158   1.054
 9922SOL    HW130665   2.608   4.059   1.044
 9922SOL    HW230666   2.528   4.181   1.116
 9923SOL     OW30667   5.376   4.708   7.008
 9923SOL    HW130668   5.396   4.652   0.066
 9923SOL    HW230669   5.352   4.800   0.014
 9924SOL     OW30670   6.191   1.365   4.126
 9924SOL    HW130671   6.149   1.296   4.067
 9924SOL    HW230672   6.204   1.449   4.074
 9925SOL     OW30673   0.204   4.119   4.081
 9925SOL    HW130674   0.282   4.131   4.020
 9925SOL    HW230675   0.231   4.063   4.159
 9926SOL     OW30676   4.270   2.705   1.493
 9926SOL    HW130677   4.358   2.749   1.476
 9926SOL    HW230678   4.285   2.611   1.525
 9927SOL     OW30679   0.311   0.007   1.019
 9927SOL    HW130680   0.344   0.094   1.057
 9927SOL    HW230681   0.367   7.006   0.940
 9928SOL     OW30682   4.653   4.223   2.831
 9928SOL    HW130683   4.639   4.286   2.908
 9928SOL    HW230684   4.599   4.141   2.845
 9929SOL     OW30685   3.675   4.322   5.714
 9929SOL    HW130686   3.669   4.399   5.651
 9929SOL    HW230687   3.744   4.342   5.784
 9930SOL     OW30688   6.417   6.486   4.866
 9930SOL    HW130689   6.427   6.411   4.932
 9930SOL    HW230690   6.453   6.456   4.777
 9931SOL     OW30691   0.744   5.433   4.212
 9931SOL    HW130692   0.761   5.481   4.298
 9931SOL    HW230693   0.776   5.489   4.136
 9932SOL     OW30694   3.693   3.058   6.909
 9932SOL    HW130695   3.760   2.985   6.894
 9932SOL    HW230696   3.739   3.138   6.947
 9933SOL     OW30697   0.398   5.851   3.406
 9933SOL    HW130698   0.355   5.821   3.320
 9933SOL    HW230699   0.461   5.780   3.437
 9934SOL     OW30700   6.394   2.485   5.567
 9934SOL    HW130701   6.480   2.436   5.580
 9934SOL    HW230702   6.329   2.426   5.518
 9935SOL     OW30703   2.785   6.210   6.807
 9935SOL    HW130704   2.760   6.306   6.793
 9935SOL    HW230705   2.881   6.197   6.780
 9936SOL     OW30706   6.932   4.883   6.925
 9936SOL    HW130707   7.007   4.943   6.897
 9936SOL    HW230708   6.934   4.799   6.871
 9937SOL     OW30709   0.236   1.722   1.226
 9937SOL    HW130710   0.141   1.703   1.201
 9937SOL    HW230711   0.237   1.774   1.312
 9938SOL     OW30712   6.690   5.064   3.374
 9938SOL    HW130713   6.766   5.009   3.338
 9938SOL    HW230714   6.707   5.084   3.471
 9939SOL     OW30715   4.117   2.102   1.398
 9939SOL    HW130716   4.213   2.124   1.381
 9939SOL    HW230717   4.060   2.146   1.328
 9940SOL     OW30718   1.312   0.190   1.218
 9940SOL    HW130719   1.286   0.167   1.124
 9940SOL    HW230720   1.394   0.247   1.217
 9941SOL     OW30721   3.565   3.495   5.111
 9941SOL    HW130722   3.591   3.413   5.162
 9941SOL    HW230723   3.617   3.500   5.026
 9942SOL     OW30724   2.381   5.623   2.547
 9942SOL    HW130725   2.428   5.560   2.484
 9942SOL    HW230726   2.315   5.572   2.602
 9943SOL     OW30727   0.373   4.627   5.901
 9943SOL    HW130728   0.390   4.657   5.807
 9943SOL    HW230729   0.352   4.707   5.958
 9944SOL     OW30730   0.728   4.297   6.461
 9944SOL    HW130731   0.772   4.369   6.514
 9944SOL    HW230732   0.765   4.297   6.368
 9945SOL     OW30733   4.958   5.362   6.820
 9945SOL    HW130734   4.947   5.312   6.735
 9945SOL    HW230735   5.003   5.304   6.888
 9946SOL     OW30736   6.026   0.614   3.515
 9946SOL    HW130737   5.996   0.538   3.458
 9946SOL    HW230738   6.070   0.684   3.459
 9947SOL     OW30739   2.125   2.394   4.937
 9947SOL    HW130740   2.077   2.436   5.014
 9947SOL    HW230741   2.166   2.308   4.967
 9948SOL     OW30742   6.181   3.817   5.484
 9948SOL    HW130743   6.138   3.899   5.520
 9948SOL    HW230744   6.133   3.787   5.401
 9949SOL     OW30745   6.369   5.506   4.349
 9949SOL    HW130746   6.469   5.494   4.349
 9949SOL    HW230747   6.332   5.474   4.436
 9950SOL     OW30748   5.740   6.185   5.639
 9950SOL    HW130749   5.816   6.245   5.665
 9950SOL    HW230750   5.733   6.110   5.705
 9951SOL     OW30751   0.057   1.401   3.844
 9951SOL    HW130752   0.005   1.401   3.758
 9951SOL    HW230753   0.154   1.412   3.824
 9952SOL     OW30754   1.501   4.526   0.529
 9952SOL    HW130755   1.480   4.589   0.454
 9952SOL    HW230756   1.597   4.534   0.554
 9953SOL     OW30757   5.247   2.726   4.445
 9953SOL    HW130758   5.276   2.678   4.527
 9953SOL    HW230759   5.291   2.816   4.442
 9954SOL     OW30760   6.871   0.841   6.309
 9954SOL    HW130761   6.856   0.870   6.403
 9954SOL    HW230762   6.952   0.783   6.304
 9955SOL     OW30763   5.948   3.531   5.629
 9955SOL    HW130764   5.899   3.602   5.579
 9955SOL    HW230765   5.882   3.472   5.677
 9956SOL     OW30766   1.559   6.903   1.489
 9956SOL    HW130767   1.571   6.848   1.407
 9956SOL    HW230768   1.588   6.997   1.472
 9957SOL     OW30769   5.058   6.015   2.712
 9957SOL    HW130770   4.988   6.059   2.655
 9957SOL    HW230771   5.083   5.927   2.672
 9958SOL     OW30772   3.040   5.304   6.940
 9958SOL    HW130773   3.104   5.287   7.015
 9958SOL    HW230774   3.042   5.401   6.915
 9959SOL     OW30775   4.152   3.694   4.890
 9959SOL    HW130776   4.146   3.661   4.985
 9959SOL    HW230777   4.246   3.717   4.868
 9960SOL     OW30778   6.972   0.640   2.203
 9960SOL    HW130779   6.923   0.690   2.275
 9960SOL    HW230780   6.931   0.662   2.114
 9961SOL     OW30781   1.397   4.794   4.384
 9961SOL    HW130782   1.303   4.830   4.377
 9961SOL    HW230783   1.403   4.731   4.461
 9962SOL     OW30784   5.645   5.806   1.859
 9962SOL    HW130785   5.676   5.869   1.930
 9962SOL    HW230786   5.564   5.757   1.891
 9963SOL     OW30787   3.023   3.528   6.628
 9963SOL    HW130788   3.012   3.626   6.610
 9963SOL    HW230789   2.997   3.476   6.547
 9964SOL     OW30790   5.536   4.603   5.714
 9964SOL    HW130791   5.453   4.646   5.749
 9964SOL    HW230792   5.537   4.507   5.740
 9965SOL     OW30793   3.712   6.385   6.068
 9965SOL    HW130794   3.779   6.454   6.038
 9965SOL    HW230795   3.652   6.425   6.138
 9966SOL     OW30796   1.807   6.000   2.220
 9966SOL    HW130797   1.745   5.936   2.265
 9966SOL    HW230798   1.862   5.951   2.153
 9967SOL     OW30799   6.630   0.210   2.426
 9967SOL    HW130800   6.711   0.268   2.416
 9967SOL    HW230801   6.597   0.215   2.520
 9968SOL     OW30802   3.372   3.836   0.416
 9968SOL    HW130803   3.375   3.868   0.321
 9968SOL    HW230804   3.284   3.861   0.456
 9969SOL     OW30805   1.670   3.035   2.803
 9969SOL    HW130806   1.676   2.950   2.855
 9969SOL    HW230807   1.601   3.094   2.845
 9970SOL     OW30808   5.410   3.768   2.592
 9970SOL    HW130809   5.355   3.699   2.639
 9970SOL    HW230810   5.373   3.782   2.500
 9971SOL     OW30811   2.096   5.352   1.227
 9971SOL    HW130812   2.004   5.379   1.196
 9971SOL    HW230813   2.165   5.393   1.168
 9972SOL     OW30814   4.061   4.815   1.457
 9972SOL    HW130815   4.138   4.879   1.455
 9972SOL    HW230816   4.070   4.750   1.381
 9973SOL     OW30817   4.673   2.168   4.185
 9973SOL    HW130818   4.661   2.201   4.278
 9973SOL    HW230819   4.764   2.129   4.174
 9974SOL     OW30820   6.956   3.109   3.371
 9974SOL    HW130821   6.912   3.058   3.297
 9974SOL    HW230822   6.912   3.086   3.458
 9975SOL     OW30823   6.111   4.566   6.899
 9975SOL    HW130824   6.080   4.630   6.970
 9975SOL    HW230825   6.202   4.532   6.924
 9976SOL     OW30826   0.230   6.626   5.452
 9976SOL    HW130827   0.266   6.635   5.545
 9976SOL    HW230828   0.131   6.637   5.453
 9977SOL     OW30829   6.945   5.344   5.277
 9977SOL    HW130830   6.917   5.379   5.188
 9977SOL    HW230831   7.000   5.412   5.325
 9978SOL     OW30832   6.574   2.993   3.384
 9978SOL    HW130833   6.652   2.952   3.336
 9978SOL    HW230834   6.582   3.092   3.382
 9979SOL     OW30835   5.952   4.851   5.438
 9979SOL    HW130836   5.886   4.817   5.506
 9979SOL    HW230837   5.977   4.945   5.460
 9980SOL     OW30838   2.118   1.757   6.140
 9980SOL    HW130839   2.187   1.822   6.172
 9980SOL    HW230840   2.162   1.669   6.119
 9981SOL     OW30841   2.151   1.926   1.794
 9981SOL    HW130842   2.146   2.026   1.787
 9981SOL    HW230843   2.186   1.901   1.885
 9982SOL     OW30844   6.721   6.908   3.807
 9982SOL    HW130845   6.744   6.828   3.864
 9982SOL    HW230846   6.647   6.883   3.745
 9983SOL     OW30847   0.235   2.699   3.180
 9983SOL    HW130848   0.276   2.753   3.253
 9983SOL    HW230849   0.247   2.602   3.200
 9984SOL     OW30850   2.114   1.180   0.393
 9984SOL    HW130851   2.049   1.153   0.322
 9984SOL    HW230852   2.207   1.162   0.362
 9985SOL     OW30853   1.776   1.214   1.596
 9985SOL    HW130854   1.816   1.216   1.687
 9985SOL    HW230855   1.755   1.119   1.571
 9986SOL     OW30856   5.662   4.318   5.715
 9986SOL    HW130857   5.624   4.341   5.805
 9986SOL    HW230858   5.649   4.220   5.699
 9987SOL     OW30859   6.834   3.233   4.137
 9987SOL    HW130860   6.788   3.145   4.126
 9987SOL    HW230861   6.929   3.225   4.109
 9988SOL     OW30862   0.085   5.848   5.050
 9988SOL    HW130863   0.016   5.830   5.120
 9988SOL    HW230864   0.176   5.831   5.087
 9989SOL     OW30865   6.424   4.075   3.218
 9989SOL    HW130866   6.498   4.127   3.259
 9989SOL    HW230867   6.458   3.985   3.191
 9990SOL     OW30868   2.717   5.611   1.744
 9990SOL    HW130869   2.711   5.526   1.796
 9990SOL    HW230870   2.678   5.598   1.653
 9991SOL     OW30871   1.868   2.642   3.814
 9991SOL    HW130872   1.846   2.726   3.764
 9991SOL    HW230873   1.784   2.601   3.849
 9992SOL     OW30874   5.570   4.694   0.439
 9992SOL    HW130875   5.533   4.687   0.531
 9992SOL    HW230876   5.554   4.787   0.403
 9993SOL     OW30877   3.160   0.296   0.811
 9993SOL    HW130878   3.112   0.223   0.859
 9993SOL    HW230879   3.255   0.300   0.841
 9994SOL     OW30880   6.905   4.919   3.267
 9994SOL    HW130881   6.961   4.846   3.306
 9994SOL    HW230882   6.952   5.007   3.277
 9995SOL     OW30883   4.428   0.979   3.330
 9995SOL    HW130884   4.396   0.886   3.314
 9995SOL    HW230885   4.385   1.042   3.265
 9996SOL     OW30886   2.664   2.687   1.475
 9996SOL    HW130887   2.655   2.729   1.565
 9996SOL    HW230888   2.707   2.597   1.484
 9997SOL     OW30889   3.379   1.619   0.412
 9997SOL    HW130890   3.349   1.525   0.395
 9997SOL    HW230891   3.428   1.653   0.332
 9998SOL     OW30892   5.321   4.561   6.590
 9998SOL    HW130893   5.284   4.468   6.591
 9998SOL    HW230894   5.408   4.563   6.639
 9999SOL     OW30895   7.022   3.135   5.281
 9999SOL    HW130896   7.016   3.077   5.200
 9999SOL    HW230897   0.063   3.209   5.265
10000SOL     OW30898   0.126   4.218   0.102
10000SOL    HW130899   0.150   4.133   0.055
10000SOL    HW230900   0.041   4.255   0.064
10001SOL     OW30901   4.635   6.842   2.224
10001SOL    HW130902   4.694   6.921   2.240
10001SOL    HW230903   4.587   6.818   2.308
10002SOL     OW30904   1.933   6.486   2.455
10002SOL    HW130905   1.886   6.474   2.368
10002SOL    HW230906   2.017   6.432   2.456
10003SOL     OW30907   3.979   1.606   3.258
10003SOL    HW130908   3.959   1.677   3.326
10003SOL    HW230909   4.072   1.620   3.222
10004SOL     OW30910   6.146   2.166   4.378
10004SOL    HW130911   6.145   2.266   4.383
10004SOL    HW230912   6.164   2.138   4.284
10005SOL     OW30913   4.580   0.228   4.549
10005SOL    HW130914   4.647   0.154   4.562
10005SOL    HW230915   4.627   0.316   4.556
10006SOL     OW30916   5.343   6.126   4.173
10006SOL    HW130917   5.378   6.037   4.141
10006SOL    HW230918   5.324   6.184   4.094
10007SOL     OW30919   6.850   5.170   5.659
10007SOL    HW130920   6.893   5.216   5.737
10007SOL    HW230921   6.838   5.073   5.681
10008SOL     OW30922   4.413   1.197   4.601
10008SOL    HW130923   4.511   1.176   4.601
10008SOL    HW230924   4.364   1.130   4.544
10009SOL     OW30925   1.990   3.732   1.582
10009SOL    HW130926   1.914   3.757   1.522
10009SOL    HW230927   2.008   3.634   1.573
10010SOL     OW30928   1.945   0.795   5.916
10010SOL    HW130929   1.938   0.777   6.014
10010SOL    HW230930   1.914   0.887   5.897
10011SOL     OW30931   5.108   1.147   5.507
10011SOL    HW130932   5.053   1.103   5.578
10011SOL    HW230933   5.195   1.098   5.497
10012SOL     OW30934   5.852   1.419   3.100
10012SOL    HW130935   5.763   1.420   3.053
10012SOL    HW230936   5.883   1.325   3.111
10013SOL     OW30937   0.151   1.056   3.308
10013SOL    HW130938   0.236   1.007   3.327
10013SOL    HW230939   0.168   1.154   3.307
10014SOL     OW30940   0.012   3.710   0.908
10014SOL    HW130941   0.010   3.668   0.999
10014SOL    HW230942   0.072   3.655   0.848
10015SOL     OW30943   2.412   4.783   0.642
10015SOL    HW130944   2.317   4.782   0.676
10015SOL    HW230945   2.469   4.834   0.706
10016SOL     OW30946   1.589   0.775   6.983
10016SOL    HW130947   1.680   0.750   6.949
10016SOL    HW230948   1.597   0.851   0.024
10017SOL     OW30949   2.773   1.396   3.074
10017SOL    HW130950   2.780   1.491   3.104
10017SOL    HW230951   2.706   1.348   3.131
10018SOL     OW30952   4.131   0.488   5.932
10018SOL    HW130953   4.160   0.486   5.836
10018SOL    HW230954   4.173   0.567   5.978
10019SOL     OW30955   0.317   1.647   3.061
10019SOL    HW130956   0.402   1.619   3.017
10019SOL    HW230957   0.330   1.648   3.160
10020SOL     OW30958   1.376   2.548   0.760
10020SOL    HW130959   1.360   2.595   0.673
10020SOL    HW230960   1.396   2.451   0.743
10021SOL     OW30961   6.986   2.380   1.561
10021SOL    HW130962   6.952   2.470   1.532
10021SOL    HW230963   0.029   2.346   1.494
10022SOL     OW30964   2.791   1.129   5.845
10022SOL    HW130965   2.862   1.195   5.821
10022SOL    HW230966   2.774   1.069   5.766
10023SOL     OW30967   0.870   4.856   0.663
10023SOL    HW130968   0.859   4.790   0.738
10023SOL    HW230969   0.960   4.900   0.672
10024SOL     OW30970   2.505   6.341   2.374
10024SOL    HW130971   2.468   6.396   2.299
10024SOL    HW230972   2.597   6.372   2.396
10025SOL     OW30973   1.244   2.246   0.923
10025SOL    HW130974   1.324   2.298   0.951
10025SOL    HW230975   1.166   2.272   0.980
10026SOL     OW30976   5.566   6.470   3.775
10026SOL    HW130977   5.664   6.454   3.790
10026SOL    HW230978   5.522   6.384   3.749
10027SOL     OW30979   6.261   4.587   4.636
10027SOL    HW130980   6.237   4.520   4.705
10027SOL    HW230981   6.339   4.641   4.667
10028SOL     OW30982   1.246   1.191   2.644
10028SOL    HW130983   1.248   1.091   2.652
10028SOL    HW230984   1.323   1.222   2.588
10029SOL     OW30985   5.249   1.809   4.857
10029SOL    HW130986   5.178   1.782   4.922
10029SOL    HW230987   5.242   1.753   4.775
10030SOL     OW30988   1.977   0.420   3.895
10030SOL    HW130989   1.927   0.340   3.861
10030SOL    HW230990   1.923   0.502   3.877
10031SOL     OW30991   5.131   4.905   5.031
10031SOL    HW130992   5.035   4.879   5.038
10031SOL    HW230993   5.169   4.918   5.123
10032SOL     OW30994   2.838   1.345   5.128
10032SOL    HW130995   2.926   1.312   5.164
10032SOL    HW230996   2.820   1.302   5.039
10033SOL     OW30997   6.819   3.114   4.544
10033SOL    HW130998   6.868   3.078   4.623
10033SOL    HW230999   6.875   3.182   4.498
10034SOL     OW31000   3.858   0.595   4.275
10034SOL    HW131001   3.889   0.601   4.180
10034SOL    HW231002   3.758   0.592   4.278
10035SOL     OW31003   6.978   5.100   1.515
10035SOL    HW131004   6.993   5.197   1.497
10035SOL    HW231005   6.934   5.058   1.435
10036SOL     OW31006   6.256   2.107   1.153
10036SOL    HW131007   6.223   2.119   1.247
10036SOL    HW231008   6.297   2.017   1.143
10037SOL     OW31009   0.406   1.435   0.271
10037SOL    HW131010   0.326   1.495   0.278
10037SOL    HW231011   0.394   1.374   0.193
10038SOL     OW31012   5.406   0.541   7.019
10038SOL    HW131013   5.329   0.541   0.061
10038SOL    HW231014   5.482   0.490   0.035
10039SOL     OW31015   3.794   0.928   4.083
10039SOL    HW131016   3.721   0.990   4.057
10039SOL    HW231017   3.850   0.970   4.154
10040SOL     OW31018   5.623   5.304   6.608
10040SOL    HW131019   5.559   5.365   6.562
10040SOL    HW231020   5.663   5.350   6.687
10041SOL     OW31021   4.383   5.337   6.971
10041SOL    HW131022   4.371   5.238   6.979
10041SOL    HW231023   4.299   5.383   6.998
10042SOL     OW31024   0.551   1.642   3.824
10042SOL    HW131025   0.487   1.718   3.812
10042SOL    HW231026   0.621   1.667   3.891
10043SOL     OW31027   6.013   1.583   5.152
10043SOL    HW131028   5.935   1.645   5.147
10043SOL    HW231029   5.990   1.504   5.209
10044SOL     OW31030   2.593   2.450   4.976
10044SOL    HW131031   2.540   2.414   5.053
10044SOL    HW231032   2.553   2.537   4.946
10045SOL     OW31033   3.791   0.908   1.789
10045SOL    HW131034   3.697   0.874   1.793
10045SOL    HW231035   3.791   1.008   1.795
10046SOL     OW31036   1.922   3.230   0.654
10046SOL    HW131037   1.946   3.315   0.606
10046SOL    HW231038   1.841   3.245   0.710
10047SOL     OW31039   0.809   2.992   4.961
10047SOL    HW131040   0.719   3.035   4.971
10047SOL    HW231041   0.878   3.048   5.007
10048SOL     OW31042   6.775   6.941   2.800
10048SOL    HW131043   6.789   6.856   2.749
10048SOL    HW231044   6.713   7.001   2.749
10049SOL     OW31045   1.700   1.665   5.548
10049SOL    HW131046   1.765   1.733   5.582
10049SOL    HW231047   1.734   1.627   5.462
10050SOL     OW31048   5.198   3.558   4.592
10050SOL    HW131049   5.108   3.601   4.583
10050SOL    HW231050   5.269   3.627   4.583
10051SOL     OW31051   0.797   4.398   4.970
10051SOL    HW131052   0.777   4.496   4.974
10051SOL    HW231053   0.716   4.349   4.937
10052SOL     OW31054   2.037   0.762   3.168
10052SOL    HW131055   2.137   0.755   3.173
10052SOL    HW231056   1.997   0.670   3.169
10053SOL     OW31057   4.311   6.163   3.986
10053SOL    HW131058   4.372   6.216   4.045
10053SOL    HW231059   4.224   6.147   4.032
10054SOL     OW31060   5.595   4.108   5.279
10054SOL    HW131061   5.560   4.024   5.239
10054SOL    HW231062   5.605   4.177   5.208
10055SOL     OW31063   6.495   2.559   6.146
10055SOL    HW131064   6.414   2.617   6.138
10055SOL    HW231065   6.467   2.464   6.164
10056SOL     OW31066   5.237   4.334   3.202
10056SOL    HW131067   5.185   4.249   3.190
10056SOL    HW231068   5.270   4.366   3.113
10057SOL     OW31069   5.625   3.451   5.375
10057SOL    HW131070   5.536   3.405   5.377
10057SOL    HW231071   5.640   3.498   5.462
10058SOL     OW31072   6.513   3.708   4.136
10058SOL    HW131073   6.544   3.713   4.041
10058SOL    HW231074   6.416   3.685   4.139
10059SOL     OW31075   6.738   1.653   0.893
10059SOL    HW131076   6.720   1.729   0.831
10059SOL    HW231077   6.824   1.608   0.868
10060SOL     OW31078   2.532   2.029   2.515
10060SOL    HW131079   2.464   2.100   2.501
10060SOL    HW231080   2.522   1.958   2.444
10061SOL     OW31081   4.426   1.613   3.999
10061SOL    HW131082   4.335   1.623   4.040
10061SOL    HW231083   4.482   1.552   4.055
10062SOL     OW31084   6.398   6.766   4.487
10062SOL    HW131085   6.356   6.855   4.504
10062SOL    HW231086   6.497   6.774   4.498
10063SOL     OW31087   2.447   1.975   4.486
10063SOL    HW131088   2.480   1.906   4.551
10063SOL    HW231089   2.400   1.930   4.410
10064SOL     OW31090   4.522   5.678   6.586
10064SOL    HW131091   4.616   5.690   6.555
10064SOL    HW231092   4.459   5.700   6.512
10065SOL     OW31093   1.576   0.991   1.950
10065SOL    HW131094   1.643   1.016   2.020
10065SOL    HW231095   1.617   0.927   1.885
10066SOL     OW31096   0.563   3.117   5.025
10066SOL    HW131097   0.542   3.067   5.109
10066SOL    HW231098   0.583   3.212   5.047
10067SOL     OW31099   0.907   2.947   6.141
10067SOL    HW131100   0.871   2.923   6.231
10067SOL    HW231101   0.888   2.873   6.077
10068SOL     OW31102   1.726   3.616   2.713
10068SOL    HW131103   1.704   3.520   2.731
10068SOL    HW231104   1.817   3.623   2.673
10069SOL     OW31105   3.526   5.065   1.770
10069SOL    HW131106   3.598   5.096   1.707
10069SOL    HW231107   3.548   5.097   1.862
10070SOL     OW31108   1.544   5.436   4.315
10070SOL    HW131109   1.476   5.371   4.281
10070SOL    HW231110   1.497   5.510   4.363
10071SOL     OW31111   0.517   6.694   4.058
10071SOL    HW131112   0.569   6.639   3.992
10071SOL    HW231113   0.571   6.708   4.140
10072SOL     OW31114   0.289   1.446   2.365
10072SOL    HW131115   0.203   1.483   2.400
10072SOL    HW231116   0.357   1.445   2.438
10073SOL     OW31117   6.201   3.187   3.643
10073SOL    HW131118   6.257   3.157   3.720
10073SOL    HW231119   6.243   3.156   3.558
10074SOL     OW31120   1.176   5.571   0.300
10074SOL    HW131121   1.153   5.514   0.379
10074SOL    HW231122   1.185   5.513   0.219
10075SOL     OW31123   2.481   0.699   2.560
10075SOL    HW131124   2.501   0.683   2.656
10075SOL    HW231125   2.407   0.638   2.530
10076SOL     OW31126   5.015   5.435   3.417
10076SOL    HW131127   4.976   5.392   3.335
10076SOL    HW231128   4.942   5.458   3.481
10077SOL     OW31129   5.753   3.148   0.333
10077SOL    HW131130   5.759   3.091   0.251
10077SOL    HW231131   5.657   3.158   0.360
10078SOL     OW31132   0.068   6.544   4.889
10078SOL    HW131133   0.143   6.593   4.933
10078SOL    HW231134   0.033   6.474   4.951
10079SOL     OW31135   5.684   2.545   3.930
10079SOL    HW131136   5.618   2.501   3.869
10079SOL    HW231137   5.676   2.645   3.922
10080SOL     OW31138   5.334   0.903   5.788
10080SOL    HW131139   5.394   0.845   5.843
10080SOL    HW231140   5.383   0.985   5.760
10081SOL     OW31141   1.404   1.463   6.849
10081SOL    HW131142   1.502   1.455   6.831
10081SOL    HW231143   1.353   1.445   6.765
10082SOL     OW31144   1.397   5.125   3.280
10082SOL    HW131145   1.343   5.204   3.250
10082SOL    HW231146   1.492   5.137   3.253
10083SOL     OW31147   3.480   5.815   3.548
10083SOL    HW131148   3.503   5.887   3.614
10083SOL    HW231149   3.454   5.858   3.461
10084SOL     OW31150   0.536   6.912   5.466
10084SOL    HW131151   0.457   6.908   5.527
10084SOL    HW231152   0.603   6.843   5.494
10085SOL     OW31153   3.991   6.630   0.148
10085SOL    HW131154   3.923   6.599   0.213
10085SOL    HW231155   4.081   6.633   0.192
10086SOL     OW31156   5.609   6.566   2.390
10086SOL    HW131157   5.644   6.649   2.433
10086SOL    HW231158   5.659   6.548   2.305
10087SOL     OW31159   0.569   6.778   4.647
10087SOL    HW131160   0.535   6.731   4.728
10087SOL    HW231161   0.621   6.859   4.674
10088SOL     OW31162   6.998   1.724   0.185
10088SOL    HW131163   7.017   1.813   0.226
10088SOL    HW231164   6.967   1.737   0.091
10089SOL     OW31165   3.679   1.496   2.587
10089SOL    HW131166   3.600   1.460   2.638
10089SOL    HW231167   3.706   1.431   2.517
10090SOL     OW31168   0.699   5.183   1.716
10090SOL    HW131169   0.776   5.196   1.654
10090SOL    HW231170   0.728   5.129   1.796
10091SOL     OW31171   6.454   5.788   6.544
10091SOL    HW131172   6.504   5.702   6.555
10091SOL    HW231173   6.423   5.796   6.449
10092SOL     OW31174   1.113   3.456   5.190
10092SOL    HW131175   1.141   3.381   5.131
10092SOL    HW231176   1.030   3.430   5.240
10093SOL     OW31177   5.040   3.530   5.572
10093SOL    HW131178   4.985   3.447   5.581
10093SOL    HW231179   4.988   3.598   5.520
10094SOL     OW31180   3.257   6.591   0.630
10094SOL    HW131181   3.312   6.509   0.616
10094SOL    HW231182   3.197   6.605   0.551
10095SOL     OW31183   5.347   2.332   4.726
10095SOL    HW131184   5.263   2.283   4.748
10095SOL    HW231185   5.324   2.426   4.699
10096SOL     OW31186   4.949   0.675   2.190
10096SOL    HW131187   4.992   0.642   2.274
10096SOL    HW231188   5.019   0.685   2.119
10097SOL     OW31189   1.907   2.070   6.354
10097SOL    HW131190   1.857   2.115   6.429
10097SOL    HW231191   1.842   2.022   6.296
10098SOL     OW31192   3.319   5.646   4.527
10098SOL    HW131193   3.331   5.710   4.452
10098SOL    HW231194   3.287   5.695   4.608
10099SOL     OW31195   6.677   4.425   1.520
10099SOL    HW131196   6.636   4.499   1.574
10099SOL    HW231197   6.633   4.421   1.430
10100SOL     OW31198   5.530   5.511   5.537
10100SOL    HW131199   5.546   5.537   5.632
10100SOL    HW231200   5.492   5.419   5.533
10101SOL     OW31201   6.639   2.767   1.662
10101SOL    HW131202   6.613   2.732   1.751
10101SOL    HW231203   6.630   2.695   1.593
10102SOL     OW31204   5.434   0.492   0.374
10102SOL    HW131205   5.496   0.446   0.436
10102SOL    HW231206   5.421   0.436   0.292
10103SOL     OW31207   0.693   0.424   6.171
10103SOL    HW131208   0.748   0.461   6.097
10103SOL    HW231209   0.600   0.462   6.166
10104SOL     OW31210   2.061   0.854   6.263
10104SOL    HW131211   2.100   0.920   6.327
10104SOL    HW231212   1.976   0.890   6.225
10105SOL     OW31213   2.701   1.385   5.652
10105SOL    HW131214   2.678   1.473   5.695
10105SOL    HW231215   2.631   1.318   5.676
10106SOL     OW31216   5.040   6.370   1.649
10106SOL    HW131217   4.976   6.446   1.644
10106SOL    HW231218   5.121   6.398   1.702
10107SOL     OW31219   4.980   4.371   6.559
10107SOL    HW131220   4.959   4.273   6.551
10107SOL    HW231221   4.923   4.422   6.495
10108SOL     OW31222   2.072   3.032   0.158
10108SOL    HW131223   2.144   3.019   0.226
10108SOL    HW231224   1.995   2.971   0.178
10109SOL     OW31225   0.429   0.985   0.082
10109SOL    HW131226   0.499   0.932   0.033
10109SOL    HW231227   0.418   1.074   0.038
10110SOL     OW31228   4.797   4.784   2.272
10110SOL    HW131229   4.849   4.722   2.214
10110SOL    HW231230   4.736   4.839   2.215
10111SOL     OW31231   0.907   2.759   2.142
10111SOL    HW131232   0.905   2.790   2.047
10111SOL    HW231233   0.862   2.670   2.149
10112SOL     OW31234   6.667   3.246   3.371
10112SOL    HW131235   6.763   3.255   3.344
10112SOL    HW231236   6.639   3.326   3.423
10113SOL     OW31237   5.033   1.071   6.792
10113SOL    HW131238   4.942   1.085   6.831
10113SOL    HW231239   5.058   1.151   6.736
10114SOL     OW31240   4.175   2.141   3.368
10114SOL    HW131241   4.198   2.053   3.327
10114SOL    HW231242   4.202   2.141   3.464
10115SOL     OW31243   3.279   1.308   4.299
10115SOL    HW131244   3.257   1.405   4.312
10115SOL    HW231245   3.363   1.300   4.246
10116SOL     OW31246   5.857   0.254   5.500
10116SOL    HW131247   5.851   0.182   5.569
10116SOL    HW231248   5.928   0.231   5.433
10117SOL     OW31249   6.397   5.224   5.400
10117SOL    HW131250   6.482   5.187   5.437
10117SOL    HW231251   6.349   5.152   5.349
10118SOL     OW31252   2.595   4.873   4.587
10118SOL    HW131253   2.513   4.846   4.638
10118SOL    HW231254   2.606   4.972   4.592
10119SOL     OW31255   0.490   4.976   4.093
10119SOL    HW131256   0.565   5.015   4.041
10119SOL    HW231257   0.479   5.027   4.179
10120SOL     OW31258   1.248   2.915   2.775
10120SOL    HW131259   1.262   2.865   2.860
10120SOL    HW231260   1.178   2.868   2.720
10121SOL     OW31261   6.851   4.745   0.689
10121SOL    HW131262   6.827   4.648   0.680
10121SOL    HW231263   6.871   4.783   0.599
10122SOL     OW31264   6.906   1.997   3.995
10122SOL    HW131265   6.827   1.993   3.933
10122SOL    HW231266   6.960   2.079   3.974
10123SOL     OW31267   5.838   6.413   1.149
10123SOL    HW131268   5.909   6.483   1.154
10123SOL    HW231269   5.865   6.343   1.083
10124SOL     OW31270   1.505   5.507   2.334
10124SOL    HW131271   1.414   5.467   2.322
10124SOL    HW231272   1.536   5.545   2.246
10125SOL     OW31273   1.733   1.841   1.090
10125SOL    HW131274   1.691   1.771   1.147
10125SOL    HW231275   1.730   1.813   0.994
10126SOL     OW31276   5.938   0.840   0.070
10126SOL    HW131277   5.996   0.914   0.037
10126SOL    HW231278   5.948   0.832   0.169
10127SOL     OW31279   1.564   4.612   5.640
10127SOL    HW131280   1.662   4.598   5.652
10127SOL    HW231281   1.513   4.552   5.701
10128SOL     OW31282   3.250   0.844   0.250
10128SOL    HW131283   3.301   0.894   0.319
10128SOL    HW231284   3.216   0.758   0.290
10129SOL     OW31285   5.898   1.645   3.257
10129SOL    HW131286   5.884   1.561   3.205
10129SOL    HW231287   5.810   1.689   3.273
10130SOL     OW31288   0.683   2.452   2.375
10130SOL    HW131289   0.588   2.419   2.382
10130SOL    HW231290   0.716   2.477   2.466
10131SOL     OW31291   2.059   0.804   4.545
10131SOL    HW131292   2.035   0.869   4.618
10131SOL    HW231293   1.978   0.786   4.489
10132SOL     OW31294   6.649   0.632   2.699
10132SOL    HW131295   6.666   0.534   2.695
10132SOL    HW231296   6.729   0.681   2.666
10133SOL     OW31297   4.734   5.371   1.018
10133SOL    HW131298   4.755   5.334   1.108
10133SOL    HW231299   4.708   5.296   0.957
10134SOL     OW31300   5.968   0.945   2.021
10134SOL    HW131301   5.888   0.991   2.059
10134SOL    HW231302   6.033   0.926   2.095
10135SOL     OW31303   5.634   0.335   3.839
10135SOL    HW131304   5.699   0.376   3.775
10135SOL    HW231305   5.682   0.303   3.920
10136SOL     OW31306   4.864   2.053   2.771
10136SOL    HW131307   4.860   2.123   2.843
10136SOL    HW231308   4.793   2.071   2.703
10137SOL     OW31309   0.137   5.888   5.783
10137SOL    HW131310   0.075   5.964   5.764
10137SOL    HW231311   0.215   5.893   5.721
10138SOL     OW31312   5.904   1.539   0.469
10138SOL    HW131313   5.927   1.441   0.467
10138SOL    HW231314   5.928   1.580   0.381
10139SOL     OW31315   3.219   3.512   6.080
10139SOL    HW131316   3.202   3.463   6.165
10139SOL    HW231317   3.290   3.465   6.028
10140SOL     OW31318   0.027   5.944   6.348
10140SOL    HW131319   0.041   6.010   6.274
10140SOL    HW231320   6.954   5.921   6.355
10141SOL     OW31321   3.446   1.509   3.855
10141SOL    HW131322   3.533   1.554   3.871
10141SOL    HW231323   3.462   1.421   3.810
10142SOL     OW31324   5.570   6.412   4.701
10142SOL    HW131325   5.490   6.412   4.641
10142SOL    HW231326   5.622   6.496   4.687
10143SOL     OW31327   5.711   3.412   0.373
10143SOL    HW131328   5.750   3.331   0.329
10143SOL    HW231329   5.651   3.384   0.448
10144SOL     OW31330   3.977   6.392   5.434
10144SOL    HW131331   4.075   6.375   5.447
10144SOL    HW231332   3.952   6.479   5.478
10145SOL     OW31333   4.929   6.120   1.602
10145SOL    HW131334   5.008   6.060   1.610
10145SOL    HW231335   4.947   6.207   1.648
10146SOL     OW31336   0.310   3.753   4.104
10146SOL    HW131337   0.382   3.713   4.048
10146SOL    HW231338   0.220   3.728   4.067
10147SOL     OW31339   4.604   5.349   6.520
10147SOL    HW131340   4.619   5.423   6.454
10147SOL    HW231341   4.546   5.383   6.594
10148SOL     OW31342   0.657   4.836   0.131
10148SOL    HW131343   0.743   4.874   0.165
10148SOL    HW231344   0.672   4.791   0.043
10149SOL     OW31345   4.890   5.078   1.526
10149SOL    HW131346   4.837   5.035   1.599
10149SOL    HW231347   4.839   5.072   1.440
10150SOL     OW31348   4.864   3.794   0.653
10150SOL    HW131349   4.793   3.757   0.713
10150SOL    HW231350   4.868   3.740   0.569
10151SOL     OW31351   6.805   0.326   5.873
10151SOL    HW131352   6.746   0.250   5.846
10151SOL    HW231353   6.804   0.396   5.802
10152SOL     OW31354   5.952   6.135   2.858
10152SOL    HW131355   6.003   6.141   2.772
10152SOL    HW231356   5.956   6.223   2.905
10153SOL     OW31357   4.589   5.347   3.927
10153SOL    HW131358   4.687   5.365   3.921
10153SOL    HW231359   4.549   5.349   3.836
10154SOL     OW31360   3.921   4.908   5.712
10154SOL    HW131361   4.017   4.883   5.724
10154SOL    HW231362   3.864   4.826   5.715
10155SOL     OW31363   4.521   2.225   6.013
10155SOL    HW131364   4.597   2.234   6.076
10155SOL    HW231365   4.536   2.147   5.952
10156SOL     OW31366   4.970   0.655   0.878
10156SOL    HW131367   4.934   0.680   0.788
10156SOL    HW231368   4.908   0.589   0.921
10157SOL     OW31369   6.984   2.623   1.298
10157SOL    HW131370   6.912   2.561   1.265
10157SOL    HW231371   6.979   2.631   1.397
10158SOL     OW31372   5.147   6.634   2.160
10158SOL    HW131373   5.082   6.688   2.214
10158SOL    HW231374   5.169   6.549   2.209
10159SOL     OW31375   3.681   3.246   3.079
10159SOL    HW131376   3.703   3.343   3.074
10159SOL    HW231377   3.582   3.235   3.088
10160SOL     OW31378   1.765   4.507   2.761
10160SOL    HW131379   1.721   4.586   2.718
10160SOL    HW231380   1.733   4.498   2.855
10161SOL     OW31381   3.692   4.778   6.310
10161SOL    HW131382   3.786   4.811   6.301
10161SOL    HW231383   3.691   4.694   6.365
10162SOL     OW31384   1.845   4.396   1.779
10162SOL    HW131385   1.836   4.401   1.680
10162SOL    HW231386   1.776   4.454   1.822
10163SOL     OW31387   1.529   6.376   5.343
10163SOL    HW131388   1.458   6.327   5.393
10163SOL    HW231389   1.531   6.346   5.248
10164SOL     OW31390   6.558   2.887   3.623
10164SOL    HW131391   6.608   2.949   3.683
10164SOL    HW231392   6.559   2.922   3.530
10165SOL     OW31393   6.145   2.783   4.082
10165SOL    HW131394   6.227   2.834   4.109
10165SOL    HW231395   6.139   2.780   3.982
10166SOL     OW31396   1.007   2.742   0.951
10166SOL    HW131397   1.066   2.809   0.905
10166SOL    HW231398   0.980   2.672   0.886
10167SOL     OW31399   0.420   5.753   6.376
10167SOL    HW131400   0.415   5.656   6.352
10167SOL    HW231401   0.498   5.769   6.436
10168SOL     OW31402   5.921   1.447   6.986
10168SOL    HW131403   5.986   1.400   0.023
10168SOL    HW231404   5.848   1.384   6.961
10169SOL     OW31405   6.930   3.950   3.173
10169SOL    HW131406   6.854   3.996   3.217
10169SOL    HW231407   6.896   3.886   3.104
10170SOL     OW31408   6.323   6.362   0.123
10170SOL    HW131409   6.236   6.318   0.143
10170SOL    HW231410   6.388   6.293   0.090
10171SOL     OW31411   1.812   2.963   5.096
10171SOL    HW131412   1.863   2.998   5.174
10171SOL    HW231413   1.864   2.890   5.051
10172SOL     OW31414   6.657   0.155   3.017
10172SOL    HW131415   6.696   0.236   3.061
10172SOL    HW231416   6.642   0.174   2.920
10173SOL     OW31417   3.603   4.742   6.812
10173SOL    HW131418   3.503   4.732   6.819
10173SOL    HW231419   3.644   4.653   6.796
10174SOL     OW31420   5.130   6.770   3.204
10174SOL    HW131421   5.187   6.842   3.163
10174SOL    HW231422   5.186   6.690   3.224
10175SOL     OW31423   6.678   2.284   3.677
10175SOL    HW131424   6.596   2.323   3.636
10175SOL    HW231425   6.742   2.256   3.605
10176SOL     OW31426   6.520   3.247   5.706
10176SOL    HW131427   6.609   3.201   5.703
10176SOL    HW231428   6.484   3.255   5.613
10177SOL     OW31429   2.503   0.323   1.710
10177SOL    HW131430   2.417   0.356   1.748
10177SOL    HW231431   2.537   0.388   1.642
10178SOL     OW31432   2.066   1.941   0.304
10178SOL    HW131433   2.086   1.950   0.207
10178SOL    HW231434   1.967   1.935   0.318
10179SOL     OW31435   0.069   4.329   0.620
10179SOL    HW131436   0.043   4.234   0.631
10179SOL    HW231437   0.122   4.339   0.535
10180SOL     OW31438   4.408   6.820   6.001
10180SOL    HW131439   4.423   6.894   6.066
10180SOL    HW231440   4.437   6.733   6.041
10181SOL     OW31441   6.366   4.028   1.179
10181SOL    HW131442   6.435   3.984   1.122
10181SOL    HW231443   6.307   4.085   1.121
10182SOL     OW31444   5.606   1.789   0.268
10182SOL    HW131445   5.597   1.730   0.189
10182SOL    HW231446   5.681   1.854   0.254
10183SOL     OW31447   6.704   2.221   6.147
10183SOL    HW131448   6.795   2.260   6.163
10183SOL    HW231449   6.711   2.122   6.140
10184SOL     OW31450   6.174   3.704   6.473
10184SOL    HW131451   6.272   3.722   6.486
10184SOL    HW231452   6.121   3.777   6.516
10185SOL     OW31453   4.030   5.917   2.158
10185SOL    HW131454   4.103   5.854   2.187
10185SOL    HW231455   3.949   5.902   2.216
10186SOL     OW31456   5.049   4.011   5.562
10186SOL    HW131457   5.015   4.070   5.636
10186SOL    HW231458   4.984   4.013   5.486
10187SOL     OW31459   2.416   4.226   5.691
10187SOL    HW131460   2.500   4.215   5.638
10187SOL    HW231461   2.369   4.309   5.661
10188SOL     OW31462   2.549   6.440   6.592
10188SOL    HW131463   2.522   6.533   6.617
10188SOL    HW231464   2.646   6.427   6.610
10189SOL     OW31465   1.398   1.203   6.420
10189SOL    HW131466   1.463   1.166   6.354
10189SOL    HW231467   1.447   1.230   6.503
10190SOL     OW31468   2.904   4.029   1.647
10190SOL    HW131469   2.868   3.993   1.561
10190SOL    HW231470   2.900   3.957   1.717
10191SOL     OW31471   5.977   5.371   0.039
10191SOL    HW131472   6.056   5.430   0.050
10191SOL    HW231473   5.979   5.299   0.109
10192SOL     OW31474   2.296   1.957   5.390
10192SOL    HW131475   2.201   1.984   5.408
10192SOL    HW231476   2.334   1.912   5.471
10193SOL     OW31477   4.084   3.274   2.440
10193SOL    HW131478   4.045   3.235   2.523
10193SOL    HW231479   4.079   3.374   2.445
10194SOL     OW31480   3.914   0.341   4.615
10194SOL    HW131481   4.001   0.354   4.663
10194SOL    HW231482   3.914   0.252   4.570
10195SOL     OW31483   5.539   0.115   2.090
10195SOL    HW131484   5.609   0.062   2.042
10195SOL    HW231485   5.565   0.126   2.186
10196SOL     OW31486   5.583   2.172   3.481
10196SOL    HW131487   5.606   2.267   3.503
10196SOL    HW231488   5.667   2.121   3.462
10197SOL     OW31489   5.966   0.176   3.133
10197SOL    HW131490   5.987   0.090   3.086
10197SOL    HW231491   5.935   0.243   3.066
10198SOL     OW31492   3.096   6.328   1.523
10198SOL    HW131493   3.049   6.348   1.609
10198SOL    HW231494   3.187   6.291   1.542
10199SOL     OW31495   1.300   1.810   6.698
10199SOL    HW131496   1.331   1.795   6.604
10199SOL    HW231497   1.375   1.796   6.761
10200SOL     OW31498   5.988   4.088   5.877
10200SOL    HW131499   5.911   4.124   5.928
10200SOL    HW231500   6.037   4.021   5.933
10201SOL     OW31501   0.672   5.425   2.399
10201SOL    HW131502   0.637   5.475   2.319
10201SOL    HW231503   0.663   5.482   2.480
10202SOL     OW31504   0.078   3.884   1.341
10202SOL    HW131505   0.016   3.889   1.262
10202SOL    HW231506   0.118   3.974   1.358
10203SOL     OW31507   1.865   3.201   2.420
10203SOL    HW131508   1.878   3.115   2.469
10203SOL    HW231509   1.942   3.262   2.440
10204SOL     OW31510   3.117   4.670   5.570
10204SOL    HW131511   3.150   4.582   5.604
10204SOL    HW231512   3.188   4.739   5.580
10205SOL     OW31513   5.125   1.282   3.631
10205SOL    HW131514   5.157   1.295   3.725
10205SOL    HW231515   5.203   1.273   3.570
10206SOL     OW31516   5.634   6.688   6.173
10206SOL    HW131517   5.634   6.788   6.180
10206SOL    HW231518   5.571   6.660   6.101
10207SOL     OW31519   2.128   1.168   2.176
10207SOL    HW131520   2.226   1.148   2.170
10207SOL    HW231521   2.104   1.188   2.271
10208SOL     OW31522   5.798   5.768   5.070
10208SOL    HW131523   5.859   5.702   5.026
10208SOL    HW231524   5.754   5.824   4.999
10209SOL     OW31525   0.096   1.299   6.212
10209SOL    HW131526   0.055   1.388   6.192
10209SOL    HW231527   0.099   1.245   6.129
10210SOL     OW31528   5.751   7.016   1.979
10210SOL    HW131529   5.839   0.013   2.020
10210SOL    HW231530   5.729   6.919   1.992
10211SOL     OW31531   3.918   6.310   5.157
10211SOL    HW131532   3.910   6.356   5.246
10211SOL    HW231533   4.003   6.258   5.154
10212SOL     OW31534   0.299   1.120   4.265
10212SOL    HW131535   0.398   1.133   4.261
10212SOL    HW231536   0.256   1.159   4.184
10213SOL     OW31537   5.556   1.869   2.800
10213SOL    HW131538   5.497   1.815   2.741
10213SOL    HW231539   5.650   1.868   2.764
10214SOL     OW31540   6.292   0.489   2.022
10214SOL    HW131541   6.335   0.403   1.994
10214SOL    HW231542   6.321   0.511   2.115
10215SOL     OW31543   3.022   3.677   6.245
10215SOL    HW131544   3.096   3.639   6.189
10215SOL    HW231545   2.968   3.740   6.189
10216SOL     OW31546   6.412   6.821   0.692
10216SOL    HW131547   6.373   6.832   0.601
10216SOL    HW231548   6.405   6.907   0.743
10217SOL     OW31549   2.464   1.601   4.408
10217SOL    HW131550   2.483   1.540   4.485
10217SOL    HW231551   2.379   1.573   4.364
10218SOL     OW31552   0.925   1.614   1.444
10218SOL    HW131553   0.851   1.660   1.493
10218SOL    HW231554   0.961   1.541   1.502
10219SOL     OW31555   0.527   2.168   2.151
10219SOL    HW131556   0.459   2.182   2.222
10219SOL    HW231557   0.582   2.087   2.172
10220SOL     OW31558   4.175   1.600   1.240
10220SOL    HW131559   4.161   1.535   1.314
10220SOL    HW231560   4.211   1.685   1.277
10221SOL     OW31561   2.703   0.938   5.165
10221SOL    HW131562   2.740   0.898   5.081
10221SOL    HW231563   2.635   0.876   5.204
10222SOL     OW31564   0.988   3.821   5.400
10222SOL    HW131565   0.905   3.834   5.346
10222SOL    HW231566   0.995   3.725   5.426
10223SOL     OW31567   1.251   4.925   6.804
10223SOL    HW131568   1.248   5.024   6.818
10223SOL    HW231569   1.208   4.903   6.716
10224SOL     OW31570   1.603   0.870   4.715
10224SOL    HW131571   1.648   0.959   4.702
10224SOL    HW231572   1.608   0.844   4.811
10225SOL     OW31573   0.717   6.086   4.747
10225SOL    HW131574   0.751   6.035   4.827
10225SOL    HW231575   0.653   6.028   4.696
10226SOL     OW31576   2.974   1.279   6.699
10226SOL    HW131577   3.023   1.249   6.617
10226SOL    HW231578   2.960   1.201   6.760
10227SOL     OW31579   4.636   4.493   0.578
10227SOL    HW131580   4.685   4.539   0.504
10227SOL    HW231581   4.580   4.419   0.541
10228SOL     OW31582   0.526   5.522   2.138
10228SOL    HW131583   0.490   5.602   2.090
10228SOL    HW231584   0.551   5.452   2.071
10229SOL     OW31585   1.053   0.888   3.541
10229SOL    HW131586   1.029   0.956   3.610
10229SOL    HW231587   1.005   0.802   3.560
10230SOL     OW31588   0.013   0.054   3.438
10230SOL    HW131589   0.024   7.010   3.512
10230SOL    HW231590   6.961   0.117   3.461
10231SOL     OW31591   6.431   6.778   4.819
10231SOL    HW131592   6.401   6.683   4.827
10231SOL    HW231593   6.359   6.832   4.776
10232SOL     OW31594   3.924   1.274   4.306
10232SOL    HW131595   3.923   1.204   4.378
10232SOL    HW231596   4.008   1.264   4.252
10233SOL     OW31597   4.238   2.838   5.916
10233SOL    HW131598   4.294   2.780   5.857
10233SOL    HW231599   4.273   2.931   5.913
10234SOL     OW31600   4.996   0.786   0.433
10234SOL    HW131601   4.968   0.744   0.520
10234SOL    HW231602   5.053   0.866   0.451
10235SOL     OW31603   4.618   0.846   0.422
10235SOL    HW131604   4.661   0.807   0.341
10235SOL    HW231605   4.531   0.888   0.396
10236SOL     OW31606   1.966   6.601   1.688
10236SOL    HW131607   1.958   6.502   1.677
10236SOL    HW231608   2.039   6.622   1.753
10237SOL     OW31609   6.463   4.197   1.633
10237SOL    HW131610   6.449   4.104   1.667
10237SOL    HW231611   6.543   4.200   1.574
10238SOL     OW31612   3.750   4.016   5.395
10238SOL    HW131613   3.809   3.961   5.453
10238SOL    HW231614   3.805   4.066   5.328
10239SOL     OW31615   0.846   4.195   5.615
10239SOL    HW131616   0.889   4.162   5.699
10239SOL    HW231617   0.747   4.200   5.629
10240SOL     OW31618   0.929   4.529   2.445
10240SOL    HW131619   0.948   4.528   2.543
10240SOL    HW231620   1.013   4.512   2.394
10241SOL     OW31621   0.153   1.031   1.823
10241SOL    HW131622   0.227   1.038   1.755
10241SOL    HW231623   0.174   0.958   1.888
10242SOL     OW31624   0.540   1.795   6.206
10242SOL    HW131625   0.618   1.757   6.257
10242SOL    HW231626   0.510   1.880   6.249
10243SOL     OW31627   0.116   5.319   1.525
10243SOL    HW131628   0.135   5.257   1.601
10243SOL    HW231629   0.178   5.300   1.449
10244SOL     OW31630   1.871   4.685   6.920
10244SOL    HW131631   1.962   4.716   6.890
10244SOL    HW231632   1.833   4.751   6.984
10245SOL     OW31633   2.391   3.688   6.993
10245SOL    HW131634   2.437   3.604   7.021
10245SOL    HW231635   2.302   3.666   6.953
10246SOL     OW31636   2.996   3.995   4.846
10246SOL    HW131637   2.931   4.046   4.904
10246SOL    HW231638   2.968   3.899   4.842
10247SOL     OW31639   0.466   5.241   5.360
10247SOL    HW131640   0.393   5.275   5.419
10247SOL    HW231641   0.504   5.316   5.306
10248SOL     OW31642   3.332   0.303   2.420
10248SOL    HW131643   3.243   0.350   2.417
10248SOL    HW231644   3.336   0.247   2.503
10249SOL     OW31645   3.356   0.545   5.333
10249SOL    HW131646   3.366   0.583   5.242
10249SOL    HW231647   3.271   0.491   5.338
10250SOL     OW31648   0.003   1.685   1.103
10250SOL    HW131649   6.989   1.630   1.029
10250SOL    HW231650   6.958   1.693   1.176
10251SOL     OW31651   2.387   2.713   5.738
10251SOL    HW131652   2.446   2.744   5.812
10251SOL    HW231653   2.413   2.759   5.653
10252SOL     OW31654   5.885   6.780   0.381
10252SOL    HW131655   5.867   6.802   0.477
10252SOL    HW231656   5.891   6.681   0.370
10253SOL     OW31657   4.860   5.176   0.418
10253SOL    HW131658   4.760   5.173   0.424
10253SOL    HW231659   4.887   5.251   0.358
10254SOL     OW31660   3.357   2.012   4.382
10254SOL    HW131661   3.282   2.056   4.333
10254SOL    HW231662   3.342   2.022   4.481
10255SOL     OW31663   1.894   6.289   1.865
10255SOL    HW131664   1.861   6.339   1.945
10255SOL    HW231665   1.986   6.322   1.841
10256SOL     OW31666   5.363   0.210   0.781
10256SOL    HW131667   5.363   0.140   0.710
10256SOL    HW231668   5.275   0.257   0.781
10257SOL     OW31669   0.769   4.606   5.243
10257SOL    HW131670   0.746   4.520   5.198
10257SOL    HW231671   0.840   4.590   5.311
10258SOL     OW31672   5.283   6.681   3.682
10258SOL    HW131673   5.356   6.658   3.618
10258SOL    HW231674   5.212   6.611   3.678
10259SOL     OW31675   1.196   5.382   3.672
10259SOL    HW131676   1.255   5.308   3.703
10259SOL    HW231677   1.250   5.449   3.621
10260SOL     OW31678   6.951   6.572   2.984
10260SOL    HW131679   6.857   6.597   2.963
10260SOL    HW231680   6.966   6.577   3.082
10261SOL     OW31681   0.171   6.228   2.154
10261SOL    HW131682   0.105   6.154   2.144
10261SOL    HW231683   0.122   6.313   2.174
10262SOL     OW31684   3.555   5.214   4.525
10262SOL    HW131685   3.562   5.228   4.624
10262SOL    HW231686   3.471   5.256   4.492
10263SOL     OW31687   4.747   1.852   6.903
10263SOL    HW131688   4.845   1.858   6.883
10263SOL    HW231689   4.734   1.807   6.992
10264SOL     OW31690   5.982   1.633   6.522
10264SOL    HW131691   5.935   1.718   6.497
10264SOL    HW231692   5.941   1.557   6.472
10265SOL     OW31693   3.073   1.590   2.788
10265SOL    HW131694   3.057   1.650   2.710
10265SOL    HW231695   3.086   1.645   2.870
10266SOL     OW31696   3.880   3.770   5.812
10266SOL    HW131697   3.797   3.805   5.855
10266SOL    HW231698   3.953   3.838   5.818
10267SOL     OW31699   6.556   1.749   6.973
10267SOL    HW131700   6.462   1.780   6.982
10267SOL    HW231701   6.617   1.828   6.968
10268SOL     OW31702   5.365   6.378   1.385
10268SOL    HW131703   5.280   6.327   1.372
10268SOL    HW231704   5.377   6.398   1.482
10269SOL     OW31705   2.355   1.546   5.587
10269SOL    HW131706   2.280   1.482   5.607
10269SOL    HW231707   2.385   1.534   5.493
10270SOL     OW31708   2.388   5.775   0.982
10270SOL    HW131709   2.463   5.716   1.012
10270SOL    HW231710   2.398   5.865   1.026
10271SOL     OW31711   3.237   3.576   0.248
10271SOL    HW131712   3.331   3.550   0.271
10271SOL    HW231713   3.232   3.676   0.241
10272SOL     OW31714   0.874   0.995   4.163
10272SOL    HW131715   0.866   0.997   4.263
10272SOL    HW231716   0.901   0.903   4.134
10273SOL     OW31717   4.080   5.872   4.190
10273SOL    HW131718   4.155   5.806   4.195
10273SOL    HW231719   3.993   5.824   4.193
10274SOL     OW31720   1.261   4.666   5.316
10274SOL    HW131721   1.309   4.744   5.355
10274SOL    HW231722   1.300   4.644   5.226
10275SOL     OW31723   1.184   0.063   2.708
10275SOL    HW131724   1.109   0.006   2.742
10275SOL    HW231725   1.257   0.066   2.777
10276SOL     OW31726   6.895   5.609   6.063
10276SOL    HW131727   6.981   5.659   6.061
10276SOL    HW231728   6.820   5.670   6.041
10277SOL     OW31729   3.249   6.355   4.191
10277SOL    HW131730   3.171   6.394   4.241
10277SOL    HW231731   3.314   6.314   4.256
10278SOL     OW31732   6.800   1.440   5.878
10278SOL    HW131733   6.861   1.365   5.852
10278SOL    HW231734   6.737   1.407   5.950
10279SOL     OW31735   3.632   0.554   3.909
10279SOL    HW131736   3.698   0.496   3.955
10279SOL    HW231737   3.639   0.542   3.810
10280SOL     OW31738   2.166   4.695   1.469
10280SOL    HW131739   2.204   4.715   1.559
10280SOL    HW231740   2.137   4.781   1.426
10281SOL     OW31741   5.046   1.938   2.591
10281SOL    HW131742   4.988   1.960   2.669
10281SOL    HW231743   5.139   1.969   2.608
10282SOL     OW31744   6.804   3.254   3.793
10282SOL    HW131745   6.775   3.344   3.760
10282SOL    HW231746   6.892   3.263   3.839
10283SOL     OW31747   1.112   3.018   0.937
10283SOL    HW131748   1.129   3.028   1.035
10283SOL    HW231749   1.148   3.098   0.889
10284SOL     OW31750   5.726   4.291   5.140
10284SOL    HW131751   5.698   4.352   5.066
10284SOL    HW231752   5.769   4.345   5.213
10285SOL     OW31753   4.501   0.338   1.380
10285SOL    HW131754   4.425   0.385   1.335
10285SOL    HW231755   4.544   0.398   1.447
10286SOL     OW31756   3.627   1.829   2.644
10286SOL    HW131757   3.640   1.924   2.671
10286SOL    HW231758   3.536   1.816   2.606
10287SOL     OW31759   2.050   7.012   1.868
10287SOL    HW131760   2.093   0.029   1.787
10287SOL    HW231761   2.121   6.972   1.927
10288SOL     OW31762   5.537   6.009   2.447
10288SOL    HW131763   5.529   5.927   2.504
10288SOL    HW231764   5.615   6.063   2.479
10289SOL     OW31765   3.658   1.391   1.416
10289SOL    HW131766   3.631   1.479   1.377
10289SOL    HW231767   3.613   1.317   1.366
10290SOL     OW31768   3.702   4.101   2.833
10290SOL    HW131769   3.611   4.066   2.809
10290SOL    HW231770   3.757   4.110   2.750
10291SOL     OW31771   3.990   0.790   3.953
10291SOL    HW131772   3.906   0.836   3.983
10291SOL    HW231773   3.988   0.695   3.983
10292SOL     OW31774   0.442   2.032   4.513
10292SOL    HW131775   0.363   2.001   4.565
10292SOL    HW231776   0.411   2.088   4.436
10293SOL     OW31777   1.506   6.702   3.270
10293SOL    HW131778   1.506   6.614   3.318
10293SOL    HW231779   1.413   6.738   3.267
10294SOL     OW31780   4.881   3.341   3.188
10294SOL    HW131781   4.876   3.247   3.221
10294SOL    HW231782   4.905   3.402   3.263
10295SOL     OW31783   5.802   4.781   5.656
10295SOL    HW131784   5.878   4.760   5.717
10295SOL    HW231785   5.734   4.707   5.661
10296SOL     OW31786   5.889   4.438   6.120
10296SOL    HW131787   5.951   4.450   6.043
10296SOL    HW231788   5.813   4.503   6.112
10297SOL     OW31789   2.542   6.902   4.417
10297SOL    HW131790   2.453   6.893   4.371
10297SOL    HW231791   2.560   6.998   4.437
10298SOL     OW31792   4.633   4.606   3.215
10298SOL    HW131793   4.713   4.563   3.256
10298SOL    HW231794   4.637   4.705   3.230
10299SOL     OW31795   4.327   4.608   3.197
10299SOL    HW131796   4.379   4.582   3.278
10299SOL    HW231797   4.375   4.577   3.115
10300SOL     OW31798   1.606   4.071   2.041
10300SOL    HW131799   1.609   4.171   2.046
10300SOL    HW231800   1.693   4.034   2.074
10301SOL     OW31801   5.383   1.799   3.214
10301SOL    HW131802   5.351   1.715   3.258
10301SOL    HW231803   5.343   1.878   3.259
10302SOL     OW31804   1.293   6.412   2.166
10302SOL    HW131805   1.230   6.490   2.170
10302SOL    HW231806   1.282   6.356   2.248
10303SOL     OW31807   3.827   3.643   1.332
10303SOL    HW131808   3.896   3.619   1.401
10303SOL    HW231809   3.762   3.709   1.371
10304SOL     OW31810   5.840   0.313   4.097
10304SOL    HW131811   5.795   0.234   4.138
10304SOL    HW231812   5.935   0.316   4.127
10305SOL     OW31813   1.483   6.152   0.121
10305SOL    HW131814   1.468   6.056   0.144
10305SOL    HW231815   1.566   6.161   0.066
10306SOL     OW31816   4.304   4.957   6.875
10306SOL    HW131817   4.304   5.036   6.813
10306SOL    HW231818   4.349   4.880   6.830
10307SOL     OW31819   1.704   1.138   5.252
10307SOL    HW131820   1.632   1.075   5.282
10307SOL    HW231821   1.761   1.162   5.330
10308SOL     OW31822   3.406   4.980   3.724
10308SOL    HW131823   3.432   5.076   3.733
10308SOL    HW231824   3.440   4.944   3.637
10309SOL     OW31825   6.237   6.542   3.197
10309SOL    HW131826   6.326   6.544   3.152
10309SOL    HW231827   6.208   6.636   3.217
10310SOL     OW31828   3.037   3.742   1.978
10310SOL    HW131829   3.101   3.671   1.949
10310SOL    HW231830   2.960   3.746   1.914
10311SOL     OW31831   0.643   5.834   0.701
10311SOL    HW131832   0.675   5.756   0.756
10311SOL    HW231833   0.560   5.871   0.742
10312SOL     OW31834   3.235   4.747   0.629
10312SOL    HW131835   3.306   4.762   0.698
10312SOL    HW231836   3.178   4.669   0.656
10313SOL     OW31837   4.321   6.972   2.307
10313SOL    HW131838   4.363   6.914   2.376
10313SOL    HW231839   4.289   0.034   2.350
10314SOL     OW31840   6.371   0.396   0.682
10314SOL    HW131841   6.468   0.390   0.662
10314SOL    HW231842   6.325   0.448   0.609
10315SOL     OW31843   5.640   6.154   5.398
10315SOL    HW131844   5.625   6.242   5.352
10315SOL    HW231845   5.685   6.170   5.486
10316SOL     OW31846   0.344   3.515   5.158
10316SOL    HW131847   0.397   3.481   5.081
10316SOL    HW231848   0.396   3.502   5.243
10317SOL     OW31849   3.934   4.909   6.181
10317SOL    HW131850   3.886   4.997   6.176
10317SOL    HW231851   4.009   4.916   6.247
10318SOL     OW31852   6.137   5.311   1.558
10318SOL    HW131853   6.200   5.239   1.584
10318SOL    HW231854   6.153   5.336   1.462
10319SOL     OW31855   0.200   4.751   4.362
10319SOL    HW131856   0.115   4.699   4.363
10319SOL    HW231857   0.275   4.691   4.332
10320SOL     OW31858   1.010   0.120   0.956
10320SOL    HW131859   1.054   0.034   0.981
10320SOL    HW231860   1.079   0.188   0.935
10321SOL     OW31861   3.831   6.062   4.938
10321SOL    HW131862   3.808   6.075   5.035
10321SOL    HW231863   3.787   6.133   4.883
10322SOL     OW31864   6.266   5.926   0.287
10322SOL    HW131865   6.246   5.945   0.383
10322SOL    HW231866   6.298   5.832   0.278
10323SOL     OW31867   6.666   3.214   6.431
10323SOL    HW131868   6.599   3.150   6.393
10323SOL    HW231869   6.655   3.304   6.388
10324SOL     OW31870   3.663   3.133   3.343
10324SOL    HW131871   3.674   3.173   3.252
10324SOL    HW231872   3.602   3.054   3.337
10325SOL     OW31873   6.877   4.422   3.606
10325SOL    HW131874   6.811   4.349   3.591
10325SOL    HW231875   6.903   4.424   3.703
10326SOL     OW31876   5.252   2.246   0.719
10326SOL    HW131877   5.165   2.293   0.732
10326SOL    HW231878   5.238   2.147   0.723
10327SOL     OW31879   1.781   1.246   2.917
10327SOL    HW131880   1.696   1.192   2.912
10327SOL    HW231881   1.775   1.323   2.854
10328SOL     OW31882   5.766   3.343   2.557
10328SOL    HW131883   5.687   3.353   2.618
10328SOL    HW231884   5.797   3.433   2.527
10329SOL     OW31885   3.081   0.441   3.572
10329SOL    HW131886   3.122   0.532   3.583
10329SOL    HW231887   3.001   0.448   3.513
10330SOL     OW31888   3.652   5.189   3.066
10330SOL    HW131889   3.577   5.213   3.128
10330SOL    HW231890   3.731   5.248   3.086
10331SOL     OW31891   5.488   0.696   3.534
10331SOL    HW131892   5.424   0.760   3.491
10331SOL    HW231893   5.564   0.747   3.574
10332SOL     OW31894   6.817   1.931   0.589
10332SOL    HW131895   6.747   1.904   0.655
10332SOL    HW231896   6.867   1.851   0.558
10333SOL     OW31897   5.720   5.196   3.766
10333SOL    HW131898   5.673   5.280   3.794
10333SOL    HW231899   5.810   5.220   3.728
10334SOL     OW31900   1.924   4.753   3.738
10334SOL    HW131901   2.003   4.781   3.683
10334SOL    HW231902   1.921   4.653   3.744
10335SOL     OW31903   2.286   5.085   6.418
10335SOL    HW131904   2.248   4.996   6.440
10335SOL    HW231905   2.221   5.157   6.445
10336SOL     OW31906   4.387   0.091   2.087
10336SOL    HW131907   4.369   0.023   2.158
10336SOL    HW231908   4.485   0.109   2.081
10337SOL     OW31909   0.036   5.009   4.867
10337SOL    HW131910   0.100   4.965   4.930
10337SOL    HW231911   0.027   4.952   4.784
10338SOL     OW31912   3.834   6.966   1.126
10338SOL    HW131913   3.914   6.909   1.144
10338SOL    HW231914   3.803   6.952   1.032
10339SOL     OW31915   3.446   5.639   0.853
10339SOL    HW131916   3.364   5.589   0.881
10339SOL    HW231917   3.525   5.604   0.903
10340SOL     OW31918   2.496   5.265   6.491
10340SOL    HW131919   2.565   5.200   6.524
10340SOL    HW231920   2.421   5.215   6.448
10341SOL     OW31921   2.468   2.530   2.209
10341SOL    HW131922   2.473   2.565   2.302
10341SOL    HW231923   2.551   2.478   2.189
10342SOL     OW31924   2.378   6.628   6.011
10342SOL    HW131925   2.415   6.687   5.939
10342SOL    HW231926   2.291   6.666   6.044
10343SOL     OW31927   2.302   4.095   6.179
10343SOL    HW131928   2.319   4.142   6.265
10343SOL    HW231929   2.369   4.125   6.111
10344SOL     OW31930   4.078   3.664   4.570
10344SOL    HW131931   4.103   3.742   4.512
10344SOL    HW231932   4.084   3.691   4.666
10345SOL     OW31933   2.752   1.366   0.414
10345SOL    HW131934   2.743   1.286   0.355
10345SOL    HW231935   2.710   1.346   0.503
10346SOL     OW31936   5.538   6.800   6.706
10346SOL    HW131937   5.506   6.893   6.726
10346SOL    HW231938   5.529   6.782   6.608
10347SOL     OW31939   5.421   1.624   1.041
10347SOL    HW131940   5.434   1.594   1.135
10347SOL    HW231941   5.499   1.681   1.013
10348SOL     OW31942   6.096   1.489   6.210
10348SOL    HW131943   6.121   1.446   6.123
10348SOL    HW231944   6.039   1.426   6.263
10349SOL     OW31945   5.901   0.896   0.942
10349SOL    HW131946   5.903   0.797   0.929
10349SOL    HW231947   5.855   0.918   1.028
10350SOL     OW31948   3.731   5.849   4.156
10350SOL    HW131949   3.807   5.821   4.098
10350SOL    HW231950   3.689   5.769   4.197
10351SOL     OW31951   6.062   5.433   5.177
10351SOL    HW131952   6.021   5.382   5.253
10351SOL    HW231953   6.106   5.515   5.213
10352SOL     OW31954   5.616   1.853   6.965
10352SOL    HW131955   5.552   1.777   6.980
10352SOL    HW231956   5.572   1.923   6.910
10353SOL     OW31957   0.053   3.336   3.434
10353SOL    HW131958   7.019   3.268   3.387
10353SOL    HW231959   7.019   3.412   3.463
10354SOL     OW31960   0.529   3.889   0.612
10354SOL    HW131961   0.502   3.822   0.682
10354SOL    HW231962   0.572   3.842   0.535
10355SOL     OW31963   1.067   1.715   1.164
10355SOL    HW131964   1.043   1.624   1.130
10355SOL    HW231965   1.152   1.745   1.120
10356SOL     OW31966   0.462   3.029   6.448
10356SOL    HW131967   0.408   3.112   6.459
10356SOL    HW231968   0.542   3.032   6.507
10357SOL     OW31969   1.441   2.210   6.652
10357SOL    HW131970   1.380   2.220   6.573
10357SOL    HW231971   1.530   2.250   6.631
10358SOL     OW31972   1.637   2.665   2.649
10358SOL    HW131973   1.599   2.705   2.565
10358SOL    HW231974   1.578   2.687   2.726
10359SOL     OW31975   5.063   2.437   2.784
10359SOL    HW131976   5.004   2.481   2.851
10359SOL    HW231977   5.016   2.359   2.743
10360SOL     OW31978   5.374   5.230   3.169
10360SOL    HW131979   5.438   5.251   3.243
10360SOL    HW231980   5.319   5.150   3.195
10361SOL     OW31981   1.992   1.523   1.574
10361SOL    HW131982   1.972   1.515   1.671
10361SOL    HW231983   1.958   1.611   1.540
10362SOL     OW31984   0.111   5.442   2.029
10362SOL    HW131985   0.118   5.417   2.125
10362SOL    HW231986   0.105   5.542   2.021
10363SOL     OW31987   4.580   3.588   0.711
10363SOL    HW131988   4.642   3.611   0.786
10363SOL    HW231989   4.573   3.489   0.703
10364SOL     OW31990   5.362   5.046   1.062
10364SOL    HW131991   5.389   5.048   1.158
10364SOL    HW231992   5.265   5.023   1.054
10365SOL     OW31993   5.872   4.938   0.087
10365SOL    HW131994   5.835   4.873   0.152
10365SOL    HW231995   5.930   4.891   0.021
10366SOL     OW31996   4.292   6.473   3.087
10366SOL    HW131997   4.271   6.376   3.091
10366SOL    HW231998   4.304   6.509   3.179
10367SOL     OW31999   6.762   1.903   1.478
10367SOL    HW132000   6.834   1.905   1.408
10367SOL    HW232001   6.683   1.956   1.445
10368SOL     OW32002   3.015   0.635   2.614
10368SOL    HW132003   2.996   0.595   2.524
10368SOL    HW232004   3.111   0.660   2.619
10369SOL     OW32005   2.894   6.085   5.524
10369SOL    HW132006   2.836   6.094   5.605
10369SOL    HW232007   2.853   6.018   5.462
10370SOL     OW32008   6.186   1.168   4.312
10370SOL    HW132009   6.215   1.242   4.251
10370SOL    HW232010   6.103   1.195   4.361
10371SOL     OW32011   3.639   6.677   2.989
10371SOL    HW132012   3.675   6.769   3.002
10371SOL    HW232013   3.544   6.682   2.958
10372SOL     OW32014   3.003   0.435   1.605
10372SOL    HW132015   3.085   0.391   1.568
10372SOL    HW232016   2.922   0.391   1.567
10373SOL     OW32017   0.444   0.190   5.008
10373SOL    HW132018   0.406   0.198   4.915
10373SOL    HW232019   0.427   0.099   5.044
10374SOL     OW32020   2.850   6.599   4.431
10374SOL    HW132021   2.828   6.667   4.501
10374SOL    HW232022   2.907   6.528   4.472
10375SOL     OW32023   2.919   2.887   6.084
10375SOL    HW132024   2.992   2.856   6.146
10375SOL    HW232025   2.883   2.974   6.116
10376SOL     OW32026   1.259   6.210   3.343
10376SOL    HW132027   1.266   6.252   3.253
10376SOL    HW232028   1.325   6.134   3.350
10377SOL     OW32029   0.132   1.843   1.694
10377SOL    HW132030   0.098   1.761   1.647
10377SOL    HW232031   0.203   1.817   1.759
10378SOL     OW32032   0.349   5.580   5.270
10378SOL    HW132033   0.437   5.543   5.299
10378SOL    HW232034   0.363   5.656   5.207
10379SOL     OW32035   2.579   6.318   4.305
10379SOL    HW132036   2.631   6.386   4.253
10379SOL    HW232037   2.544   6.360   4.389
10380SOL     OW32038   1.206   1.904   4.552
10380SOL    HW132039   1.225   1.849   4.633
10380SOL    HW232040   1.123   1.958   4.567
10381SOL     OW32041   3.812   4.205   1.419
10381SOL    HW132042   3.902   4.162   1.425
10381SOL    HW232043   3.794   4.255   1.504
10382SOL     OW32044   2.540   6.044   2.277
10382SOL    HW132045   2.514   6.107   2.350
10382SOL    HW232046   2.544   6.093   2.190
10383SOL     OW32047   1.903   4.520   0.152
10383SOL    HW132048   1.918   4.423   0.170
10383SOL    HW232049   1.891   4.533   0.053
10384SOL     OW32050   6.609   6.340   1.323
10384SOL    HW132051   6.693   6.365   1.275
10384SOL    HW232052   6.631   6.316   1.418
10385SOL     OW32053   3.697   5.215   5.893
10385SOL    HW132054   3.645   5.133   5.916
10385SOL    HW232055   3.788   5.190   5.861
10386SOL     OW32056   7.010   1.525   6.121
10386SOL    HW132057   6.941   1.530   6.049
10386SOL    HW232058   6.980   1.579   6.200
10387SOL     OW32059   5.480   2.928   3.749
10387SOL    HW132060   5.445   2.927   3.655
10387SOL    HW232061   5.552   2.859   3.758
10388SOL     OW32062   2.551   0.310   6.676
10388SOL    HW132063   2.505   0.274   6.594
10388SOL    HW232064   2.518   0.403   6.694
10389SOL     OW32065   6.583   3.893   0.344
10389SOL    HW132066   6.616   3.892   0.250
10389SOL    HW232067   6.605   3.806   0.388
10390SOL     OW32068   1.775   2.512   0.667
10390SOL    HW132069   1.818   2.552   0.586
10390SOL    HW232070   1.845   2.495   0.736
10391SOL     OW32071   1.464   6.270   3.573
10391SOL    HW132072   1.437   6.194   3.514
10391SOL    HW232073   1.527   6.236   3.643
10392SOL     OW32074   5.793   5.348   5.316
10392SOL    HW132075   5.748   5.259   5.328
10392SOL    HW232076   5.729   5.413   5.276
10393SOL     OW32077   1.802   3.658   3.628
10393SOL    HW132078   1.900   3.651   3.605
10393SOL    HW232079   1.748   3.657   3.544
10394SOL     OW32080   2.520   5.545   4.020
10394SOL    HW132081   2.545   5.488   3.941
10394SOL    HW232082   2.430   5.586   4.005
10395SOL     OW32083   0.458   6.434   1.524
10395SOL    HW132084   0.503   6.393   1.445
10395SOL    HW232085   0.433   6.528   1.503
10396SOL     OW32086   4.188   1.748   4.111
10396SOL    HW132087   4.207   1.678   4.180
10396SOL    HW232088   4.098   1.730   4.070
10397SOL     OW32089   3.167   2.119   3.023
10397SOL    HW132090   3.181   2.196   3.086
10397SOL    HW232091   3.255   2.091   2.984
10398SOL     OW32092   6.056   2.749   0.860
10398SOL    HW132093   5.997   2.807   0.917
10398SOL    HW232094   6.023   2.749   0.766
10399SOL     OW32095   5.176   2.048   3.803
10399SOL    HW132096   5.162   1.951   3.818
10399SOL    HW232097   5.264   2.062   3.756
10400SOL     OW32098   4.238   6.628   0.278
10400SOL    HW132099   4.292   6.555   0.320
10400SOL    HW232100   4.202   6.688   0.349
10401SOL     OW32101   6.782   0.463   3.631
10401SOL    HW132102   6.753   0.515   3.552
10401SOL    HW232103   6.724   0.485   3.710
10402SOL     OW32104   6.252   3.475   5.479
10402SOL    HW132105   6.237   3.431   5.567
10402SOL    HW232106   6.221   3.570   5.484
10403SOL     OW32107   4.772   0.999   3.726
10403SOL    HW132108   4.697   1.048   3.772
10403SOL    HW232109   4.744   0.975   3.633
10404SOL     OW32110   6.133   6.724   5.413
10404SOL    HW132111   6.142   6.625   5.425
10404SOL    HW232112   6.103   6.743   5.319
10405SOL     OW32113   0.315   1.347   5.277
10405SOL    HW132114   0.257   1.424   5.304
10405SOL    HW232115   0.411   1.373   5.283
10406SOL     OW32116   2.806   5.011   3.123
10406SOL    HW132117   2.812   5.103   3.084
10406SOL    HW232118   2.865   4.949   3.072
10407SOL     OW32119   3.015   6.874   6.024
10407SOL    HW132120   3.016   6.932   6.106
10407SOL    HW232121   2.922   6.868   5.989
10408SOL     OW32122   4.561   0.151   1.179
10408SOL    HW132123   4.628   0.077   1.173
10408SOL    HW232124   4.589   0.216   1.249
10409SOL     OW32125   0.172   4.450   1.103
10409SOL    HW132126   0.250   4.388   1.099
10409SOL    HW232127   0.108   4.428   1.029
10410SOL     OW32128   5.578   1.832   0.677
10410SOL    HW132129   5.597   1.761   0.609
10410SOL    HW232130   5.487   1.869   0.662
10411SOL     OW32131   3.517   6.698   3.586
10411SOL    HW132132   3.461   6.766   3.540
10411SOL    HW232133   3.572   6.743   3.657
10412SOL     OW32134   0.270   0.858   0.248
10412SOL    HW132135   0.330   0.902   0.181
10412SOL    HW232136   0.273   0.759   0.236
10413SOL     OW32137   6.293   3.022   0.882
10413SOL    HW132138   6.336   2.963   0.813
10413SOL    HW232139   6.279   2.969   0.966
10414SOL     OW32140   4.206   4.581   5.560
10414SOL    HW132141   4.149   4.555   5.638
10414SOL    HW232142   4.208   4.506   5.494
10415SOL     OW32143   1.458   3.529   4.590
10415SOL    HW132144   1.459   3.431   4.570
10415SOL    HW232145   1.474   3.543   4.688
10416SOL     OW32146   6.212   0.410   4.823
10416SOL    HW132147   6.132   0.371   4.868
10416SOL    HW232148   6.294   0.363   4.855
10417SOL     OW32149   2.969   5.314   4.283
10417SOL    HW132150   2.953   5.406   4.247
10417SOL    HW232151   2.931   5.307   4.375
10418SOL     OW32152   6.972   4.471   6.464
10418SOL    HW132153   7.017   4.523   6.391
10418SOL    HW232154   0.009   4.468   6.544
10419SOL     OW32155   1.625   6.811   6.302
10419SOL    HW132156   1.549   6.874   6.312
10419SOL    HW232157   1.685   6.817   6.382
10420SOL     OW32158   6.400   4.012   2.723
10420SOL    HW132159   6.464   4.016   2.800
10420SOL    HW232160   6.434   4.069   2.648
10421SOL     OW32161   0.189   1.659   3.427
10421SOL    HW132162   0.254   1.595   3.469
10421SOL    HW232163   0.159   1.624   3.338
10422SOL     OW32164   6.618   3.501   5.168
10422SOL    HW132165   6.656   3.412   5.195
10422SOL    HW232166   6.582   3.495   5.075
10423SOL     OW32167   6.018   5.455   4.752
10423SOL    HW132168   6.045   5.359   4.757
10423SOL    HW232169   5.957   5.477   4.828
10424SOL     OW32170   5.596   2.556   0.650
10424SOL    HW132171   5.517   2.521   0.600
10424SOL    HW232172   5.565   2.621   0.720
10425SOL     OW32173   0.892   0.172   1.649
10425SOL    HW132174   0.950   0.124   1.584
10425SOL    HW232175   0.865   0.110   1.723
10426SOL     OW32176   6.818   4.863   0.426
10426SOL    HW132177   6.754   4.937   0.448
10426SOL    HW232178   6.789   4.816   0.343
10427SOL     OW32179   3.661   0.537   6.617
10427SOL    HW132180   3.614   0.469   6.673
10427SOL    HW232181   3.760   0.521   6.623
10428SOL     OW32182   2.986   1.420   4.396
10428SOL    HW132183   2.943   1.457   4.314
10428SOL    HW232184   2.986   1.489   4.468
10429SOL     OW32185   0.135   5.018   0.733
10429SOL    HW132186   0.125   4.931   0.783
10429SOL    HW232187   0.180   5.085   0.793
10430SOL     OW32188   4.838   6.284   3.806
10430SOL    HW132189   4.900   6.206   3.809
10430SOL    HW232190   4.876   6.355   3.747
10431SOL     OW32191   3.182   5.911   4.068
10431SOL    HW132192   3.272   5.875   4.043
10431SOL    HW232193   3.185   5.942   4.163
10432SOL     OW32194   6.247   0.126   4.946
10432SOL    HW132195   6.324   0.144   4.885
10432SOL    HW232196   6.164   0.168   4.908
10433SOL     OW32197   2.308   6.104   1.467
10433SOL    HW132198   2.404   6.085   1.444
10433SOL    HW232199   2.287   6.063   1.556
10434SOL     OW32200   4.113   6.914   3.489
10434SOL    HW132201   4.212   6.914   3.474
10434SOL    HW232202   4.081   7.009   3.493
10435SOL     OW32203   0.577   0.433   4.647
10435SOL    HW132204   0.484   0.417   4.680
10435SOL    HW232205   0.599   0.530   4.659
10436SOL     OW32206   0.919   5.376   5.913
10436SOL    HW132207   0.884   5.304   5.854
10436SOL    HW232208   0.846   5.409   5.973
10437SOL     OW32209   6.458   5.268   6.200
10437SOL    HW132210   6.489   5.331   6.271
10437SOL    HW232211   6.367   5.234   6.223
10438SOL     OW32212   5.776   6.546   0.549
10438SOL    HW132213   5.762   6.448   0.566
10438SOL    HW232214   5.691   6.595   0.571
10439SOL     OW32215   4.033   1.621   6.608
10439SOL    HW132216   4.059   1.711   6.643
10439SOL    HW232217   4.089   1.551   6.652
10440SOL     OW32218   1.153   6.444   0.414
10440SOL    HW132219   1.181   6.382   0.341
10440SOL    HW232220   1.221   6.517   0.424
10441SOL     OW32221   3.951   0.390   0.050
10441SOL    HW132222   4.007   0.320   0.006
10441SOL    HW232223   3.864   0.400   0.001
10442SOL     OW32224   3.544   6.164   5.917
10442SOL    HW132225   3.625   6.215   5.946
10442SOL    HW232226   3.462   6.211   5.948
10443SOL     OW32227   4.927   3.934   5.011
10443SOL    HW132228   4.868   3.913   5.089
10443SOL    HW232229   4.892   4.014   4.963
10444SOL     OW32230   3.902   6.730   4.499
10444SOL    HW132231   3.902   6.691   4.407
10444SOL    HW232232   3.996   6.745   4.529
10445SOL     OW32233   1.089   5.614   4.347
10445SOL    HW132234   0.991   5.612   4.364
10445SOL    HW232235   1.106   5.610   4.249
10446SOL     OW32236   0.672   2.778   5.671
10446SOL    HW132237   0.589   2.793   5.617
10446SOL    HW232238   0.750   2.817   5.624
10447SOL     OW32239   0.379   0.968   2.139
10447SOL    HW132240   0.345   1.061   2.126
10447SOL    HW232241   0.398   0.953   2.237
10448SOL     OW32242   3.680   1.694   1.394
10448SOL    HW132243   3.613   1.686   1.468
10448SOL    HW232244   3.772   1.701   1.433
10449SOL     OW32245   2.185   5.038   4.551
10449SOL    HW132246   2.105   5.096   4.566
10449SOL    HW232247   2.253   5.055   4.623
10450SOL     OW32248   0.791   2.603   0.310
10450SOL    HW132249   0.830   2.545   0.239
10450SOL    HW232250   0.747   2.682   0.267
10451SOL     OW32251   1.895   5.249   2.794
10451SOL    HW132252   1.954   5.251   2.714
10451SOL    HW232253   1.947   5.273   2.876
10452SOL     OW32254   5.874   3.666   3.387
10452SOL    HW132255   5.963   3.688   3.347
10452SOL    HW232256   5.854   3.730   3.461
10453SOL     OW32257   4.983   5.820   1.804
10453SOL    HW132258   5.073   5.864   1.806
10453SOL    HW232259   4.980   5.753   1.730
10454SOL     OW32260   4.238   2.860   1.015
10454SOL    HW132261   4.262   2.942   1.067
10454SOL    HW232262   4.204   2.790   1.078
10455SOL     OW32263   6.716   5.616   2.169
10455SOL    HW132264   6.632   5.579   2.129
10455SOL    HW232265   6.724   5.713   2.146
10456SOL     OW32266   3.354   6.275   1.188
10456SOL    HW132267   3.353   6.350   1.122
10456SOL    HW232268   3.288   6.205   1.160
10457SOL     OW32269   3.289   2.938   2.806
10457SOL    HW132270   3.372   2.913   2.756
10457SOL    HW232271   3.275   3.037   2.799
10458SOL     OW32272   0.144   0.976   6.482
10458SOL    HW132273   0.118   0.926   6.565
10458SOL    HW232274   0.150   0.911   6.405
10459SOL     OW32275   5.317   4.937   2.634
10459SOL    HW132276   5.255   4.871   2.592
10459SOL    HW232277   5.402   4.891   2.659
10460SOL     OW32278   1.543   5.547   1.393
10460SOL    HW132279   1.474   5.614   1.367
10460SOL    HW232280   1.604   5.588   1.461
10461SOL     OW32281   1.261   5.926   4.953
10461SOL    HW132282   1.268   5.830   4.925
10461SOL    HW232283   1.164   5.953   4.955
10462SOL     OW32284   5.194   1.834   2.987
10462SOL    HW132285   5.242   1.799   3.068
10462SOL    HW232286   5.222   1.929   2.971
10463SOL     OW32287   3.953   2.717   5.500
10463SOL    HW132288   3.934   2.642   5.437
10463SOL    HW232289   4.052   2.727   5.510
10464SOL     OW32290   5.519   6.718   0.782
10464SOL    HW132291   5.596   6.692   0.839
10464SOL    HW232292   5.540   6.701   0.686
10465SOL     OW32293   5.855   6.853   0.638
10465SOL    HW132294   5.799   6.887   0.714
10465SOL    HW232295   5.939   6.812   0.675
10466SOL     OW32296   4.579   4.976   5.128
10466SOL    HW132297   4.526   4.980   5.212
10466SOL    HW232298   4.520   4.949   5.052
10467SOL     OW32299   0.689   1.900   5.136
10467SOL    HW132300   0.775   1.951   5.133
10467SOL    HW232301   0.653   1.901   5.229
10468SOL     OW32302   3.642   4.911   3.105
10468SOL    HW132303   3.544   4.891   3.105
10468SOL    HW232304   3.657   5.004   3.138
10469SOL     OW32305   3.462   2.744   6.601
10469SOL    HW132306   3.535   2.688   6.641
10469SOL    HW232307   3.374   2.698   6.615
10470SOL     OW32308   2.520   1.817   3.166
10470SOL    HW132309   2.502   1.916   3.161
10470SOL    HW232310   2.562   1.796   3.254
10471SOL     OW32311   2.137   3.266   0.882
10471SOL    HW132312   2.204   3.308   0.943
10471SOL    HW232313   2.055   3.322   0.878
10472SOL     OW32314   3.376   5.937   0.753
10472SOL    HW132315   3.400   5.848   0.792
10472SOL    HW232316   3.426   5.950   0.667
10473SOL     OW32317   5.628   0.146   0.358
10473SOL    HW132318   5.619   0.067   0.419
10473SOL    HW232319   5.592   0.227   0.403
10474SOL     OW32320   4.695   0.870   4.756
10474SOL    HW132321   4.696   0.787   4.812
10474SOL    HW232322   4.784   0.916   4.764
10475SOL     OW32323   4.478   6.238   2.047
10475SOL    HW132324   4.454   6.163   1.986
10475SOL    HW232325   4.554   6.291   2.008
10476SOL     OW32326   0.108   5.209   6.410
10476SOL    HW132327   0.038   5.218   6.339
10476SOL    HW232328   0.190   5.167   6.371
10477SOL     OW32329   6.022   2.341   5.019
10477SOL    HW132330   6.015   2.305   4.926
10477SOL    HW232331   5.940   2.394   5.041
10478SOL     OW32332   0.342   0.230   0.600
10478SOL    HW132333   0.395   0.145   0.597
10478SOL    HW232334   0.251   0.210   0.635
10479SOL     OW32335   0.447   2.711   1.941
10479SOL    HW132336   0.536   2.749   1.968
10479SOL    HW232337   0.453   2.677   1.847
10480SOL     OW32338   5.820   0.352   1.200
10480SOL    HW132339   5.882   0.376   1.125
10480SOL    HW232340   5.871   0.353   1.286
10481SOL     OW32341   2.459   0.951   5.616
10481SOL    HW132342   2.410   0.983   5.534
10481SOL    HW232343   2.414   0.869   5.651
10482SOL     OW32344   0.501   5.949   4.648
10482SOL    HW132345   0.448   5.866   4.664
10482SOL    HW232346   0.443   6.019   4.607
10483SOL     OW32347   6.982   5.160   0.553
10483SOL    HW132348   7.018   5.171   0.460
10483SOL    HW232349   0.017   5.096   0.604
10484SOL     OW32350   6.881   0.531   1.033
10484SOL    HW132351   6.892   0.618   0.986
10484SOL    HW232352   6.969   0.502   1.071
10485SOL     OW32353   3.512   2.877   2.653
10485SOL    HW132354   3.567   2.959   2.635
10485SOL    HW232355   3.467   2.848   2.569
10486SOL     OW32356   5.948   1.072   6.053
10486SOL    HW132357   6.002   1.016   6.116
10486SOL    HW232358   5.851   1.063   6.075
10487SOL     OW32359   4.377   2.155   1.372
10487SOL    HW132360   4.371   2.062   1.408
10487SOL    HW232361   4.463   2.197   1.402
10488SOL     OW32362   1.811   2.273   5.974
10488SOL    HW132363   1.728   2.324   5.951
10488SOL    HW232364   1.883   2.337   5.999
10489SOL     OW32365   5.589   6.128   3.986
10489SOL    HW132366   5.506   6.097   3.938
10489SOL    HW232367   5.574   6.220   4.022
10490SOL     OW32368   5.707   1.071   0.808
10490SOL    HW132369   5.753   1.157   0.829
10490SOL    HW232370   5.769   0.994   0.825
10491SOL     OW32371   2.422   2.967   6.257
10491SOL    HW132372   2.371   2.919   6.186
10491SOL    HW232373   2.518   2.938   6.255
10492SOL     OW32374   3.835   5.772   0.683
10492SOL    HW132375   3.741   5.739   0.681
10492SOL    HW232376   3.893   5.711   0.630
10493SOL     OW32377   3.197   5.529   1.269
10493SOL    HW132378   3.246   5.613   1.244
10493SOL    HW232379   3.121   5.516   1.205
10494SOL     OW32380   6.841   4.247   5.542
10494SOL    HW132381   6.868   4.188   5.618
10494SOL    HW232382   6.764   4.304   5.570
10495SOL     OW32383   6.402   6.506   0.349
10495SOL    HW132384   6.461   6.587   0.339
10495SOL    HW232385   6.379   6.471   0.258
10496SOL     OW32386   6.181   4.389   4.808
10496SOL    HW132387   6.219   4.390   4.900
10496SOL    HW232388   6.146   4.298   4.787
10497SOL     OW32389   1.212   6.988   1.663
10497SOL    HW132390   1.255   6.898   1.657
10497SOL    HW232391   1.140   6.995   1.594
10498SOL     OW32392   5.504   6.034   0.957
10498SOL    HW132393   5.525   6.111   1.018
10498SOL    HW232394   5.457   5.963   1.008
10499SOL     OW32395   4.837   6.247   0.949
10499SOL    HW132396   4.833   6.257   1.048
10499SOL    HW232397   4.921   6.289   0.915
10500SOL     OW32398   5.298   2.752   5.504
10500SOL    HW132399   5.367   2.823   5.515
10500SOL    HW232400   5.220   2.788   5.453
10501SOL     OW32401   2.416   6.171   2.574
10501SOL    HW132402   2.434   6.239   2.502
10501SOL    HW232403   2.362   6.096   2.536
10502SOL     OW32404   2.323   3.401   1.033
10502SOL    HW132405   2.414   3.365   1.015
10502SOL    HW232406   2.328   3.472   1.104
10503SOL     OW32407   6.181   4.193   6.992
10503SOL    HW132408   6.201   4.264   6.924
10503SOL    HW232409   6.161   4.107   6.946
10504SOL     OW32410   0.790   2.357   5.793
10504SOL    HW132411   0.768   2.288   5.724
10504SOL    HW232412   0.773   2.319   5.884
10505SOL     OW32413   5.652   6.154   1.700
10505SOL    HW132414   5.660   6.122   1.794
10505SOL    HW232415   5.736   6.201   1.673
10506SOL     OW32416   0.648   3.593   0.196
10506SOL    HW132417   0.702   3.601   0.112
10506SOL    HW232418   0.613   3.500   0.205
10507SOL     OW32419   1.966   5.534   6.929
10507SOL    HW132420   1.943   5.545   0.003
10507SOL    HW232421   1.947   5.619   6.880
10508SOL     OW32422   1.313   6.043   3.802
10508SOL    HW132423   1.395   6.100   3.809
10508SOL    HW232424   1.305   6.008   3.709
10509SOL     OW32425   5.882   4.075   4.634
10509SOL    HW132426   5.951   4.121   4.578
10509SOL    HW232427   5.901   4.092   4.731
10510SOL     OW32428   4.887   6.592   6.796
10510SOL    HW132429   4.809   6.532   6.776
10510SOL    HW232430   4.879   6.676   6.742
10511SOL     OW32431   2.761   1.716   2.310
10511SOL    HW132432   2.675   1.765   2.322
10511SOL    HW232433   2.799   1.736   2.219
10512SOL     OW32434   3.986   6.925   5.704
10512SOL    HW132435   3.910   6.979   5.739
10512SOL    HW232436   4.064   6.932   5.766
10513SOL     OW32437   6.526   2.654   3.084
10513SOL    HW132438   6.447   2.715   3.091
10513SOL    HW232439   6.602   2.702   3.041
10514SOL     OW32440   1.485   1.627   1.622
10514SOL    HW132441   1.389   1.653   1.617
10514SOL    HW232442   1.541   1.698   1.579
10515SOL     OW32443   2.752   2.414   3.732
10515SOL    HW132444   2.678   2.467   3.774
10515SOL    HW232445   2.731   2.398   3.636
10516SOL     OW32446   2.788   2.038   7.016
10516SOL    HW132447   2.761   2.127   6.979
10516SOL    HW232448   2.823   1.981   6.942
10517SOL     OW32449   1.565   4.273   1.384
10517SOL    HW132450   1.601   4.181   1.375
10517SOL    HW232451   1.518   4.298   1.299
10518SOL     OW32452   0.057   5.703   2.146
10518SOL    HW132453   0.033   5.670   2.237
10518SOL    HW232454   0.103   5.791   2.154
10519SOL     OW32455   2.872   4.473   1.259
10519SOL    HW132456   2.957   4.444   1.303
10519SOL    HW232457   2.854   4.568   1.281
10520SOL     OW32458   0.095   2.091   6.396
10520SOL    HW132459   0.112   2.190   6.400
10520SOL    HW232460   0.136   2.048   6.476
10521SOL     OW32461   6.270   5.112   1.263
10521SOL    HW132462   6.283   5.210   1.273
10521SOL    HW232463   6.269   5.088   1.166
10522SOL     OW32464   0.372   2.243   3.059
10522SOL    HW132465   0.399   2.164   3.114
10522SOL    HW232466   0.449   2.307   3.054
10523SOL     OW32467   0.384   4.550   3.107
10523SOL    HW132468   0.344   4.641   3.118
10523SOL    HW232469   0.475   4.548   3.148
10524SOL     OW32470   0.529   5.799   4.211
10524SOL    HW132471   0.450   5.757   4.256
10524SOL    HW232472   0.502   5.886   4.170
10525SOL     OW32473   3.903   6.798   5.275
10525SOL    HW132474   3.805   6.808   5.258
10525SOL    HW232475   3.942   6.887   5.301
10526SOL     OW32476   0.463   6.454   1.197
10526SOL    HW132477   0.500   6.369   1.233
10526SOL    HW232478   0.522   6.530   1.225
10527SOL     OW32479   0.730   0.404   5.816
10527SOL    HW132480   0.792   0.365   5.748
10527SOL    HW232481   0.779   0.471   5.871
10528SOL     OW32482   0.419   4.003   6.724
10528SOL    HW132483   0.470   3.923   6.693
10528SOL    HW232484   0.481   4.081   6.732
10529SOL     OW32485   1.667   5.987   4.668
10529SOL    HW132486   1.716   5.915   4.619
10529SOL    HW232487   1.570   5.966   4.671
10530SOL     OW32488   0.773   6.488   5.795
10530SOL    HW132489   0.761   6.445   5.706
10530SOL    HW232490   0.868   6.477   5.825
10531SOL     OW32491   2.778   2.393   4.244
10531SOL    HW132492   2.793   2.386   4.145
10531SOL    HW232493   2.703   2.457   4.262
10532SOL     OW32494   5.759   6.791   6.855
10532SOL    HW132495   5.684   6.795   6.790
10532SOL    HW232496   5.793   6.697   6.860
10533SOL     OW32497   3.379   5.855   4.337
10533SOL    HW132498   3.440   5.894   4.405
10533SOL    HW232499   3.425   5.779   4.291
10534SOL     OW32500   0.006   6.027   2.182
10534SOL    HW132501   6.977   6.016   2.098
10534SOL    HW232502   6.986   5.975   2.255
10535SOL     OW32503   2.269   1.453   1.745
10535SOL    HW132504   2.262   1.548   1.712
10535SOL    HW232505   2.179   1.423   1.778
10536SOL     OW32506   4.070   6.993   3.855
10536SOL    HW132507   4.003   6.958   3.791
10536SOL    HW232508   4.150   6.933   3.856
10537SOL     OW32509   4.991   6.575   3.673
10537SOL    HW132510   4.940   6.661   3.680
10537SOL    HW232511   5.029   6.552   3.763
10538SOL     OW32512   5.657   4.182   2.250
10538SOL    HW132513   5.688   4.128   2.328
10538SOL    HW232514   5.558   4.190   2.252
10539SOL     OW32515   5.932   5.276   1.359
10539SOL    HW132516   5.942   5.370   1.326
10539SOL    HW232517   6.005   5.255   1.423
10540SOL     OW32518   2.543   4.337   6.192
10540SOL    HW132519   2.542   4.285   6.107
10540SOL    HW232520   2.626   4.317   6.244
10541SOL     OW32521   3.246   2.945   3.954
10541SOL    HW132522   3.189   2.863   3.948
10541SOL    HW232523   3.332   2.931   3.905
10542SOL     OW32524   6.870   0.293   4.550
10542SOL    HW132525   6.774   0.268   4.557
10542SOL    HW232526   6.926   0.211   4.538
10543SOL     OW32527   0.546   2.396   5.144
10543SOL    HW132528   0.468   2.340   5.171
10543SOL    HW232529   0.546   2.481   5.197
10544SOL     OW32530   2.018   6.449   3.447
10544SOL    HW132531   2.029   6.422   3.543
10544SOL    HW232532   1.997   6.547   3.443
10545SOL     OW32533   1.114   2.825   2.307
10545SOL    HW132534   1.032   2.798   2.256
10545SOL    HW232535   1.185   2.855   2.243
10546SOL     OW32536   3.476   6.080   1.333
10546SOL    HW132537   3.484   5.994   1.283
10546SOL    HW232538   3.444   6.152   1.272
10547SOL     OW32539   5.140   0.828   4.400
10547SOL    HW132540   5.145   0.823   4.500
10547SOL    HW232541   5.206   0.895   4.367
10548SOL     OW32542   0.719   4.215   4.548
10548SOL    HW132543   0.791   4.266   4.595
10548SOL    HW232544   0.649   4.278   4.516
10549SOL     OW32545   0.794   1.339   0.497
10549SOL    HW132546   0.825   1.429   0.466
10549SOL    HW232547   0.704   1.320   0.460
10550SOL     OW32548   3.897   6.455   3.228
10550SOL    HW132549   3.809   6.468   3.273
10550SOL    HW232550   3.911   6.525   3.159
10551SOL     OW32551   2.510   1.835   6.273
10551SOL    HW132552   2.576   1.905   6.300
10551SOL    HW232553   2.529   1.751   6.323
10552SOL     OW32554   2.501   0.525   5.474
10552SOL    HW132555   2.467   0.608   5.519
10552SOL    HW232556   2.425   0.478   5.429
10553SOL     OW32557   0.004   4.395   0.883
10553SOL    HW132558   0.045   4.378   0.793
10553SOL    HW232559   6.966   4.474   0.878
10554SOL     OW32560   5.828   5.376   2.437
10554SOL    HW132561   5.758   5.402   2.504
10554SOL    HW232562   5.887   5.306   2.476
10555SOL     OW32563   3.109   2.372   0.618
10555SOL    HW132564   3.073   2.414   0.701
10555SOL    HW232565   3.035   2.361   0.551
10556SOL     OW32566   2.837   1.545   3.734
10556SOL    HW132567   2.775   1.606   3.782
10556SOL    HW232568   2.828   1.560   3.635
10557SOL     OW32569   1.912   3.265   4.333
10557SOL    HW132570   1.902   3.210   4.416
10557SOL    HW232571   1.886   3.359   4.352
10558SOL     OW32572   3.138   5.288   6.038
10558SOL    HW132573   3.116   5.233   6.119
10558SOL    HW232574   3.061   5.349   6.018
10559SOL     OW32575   3.536   1.078   0.648
10559SOL    HW132576   3.512   1.070   0.745
10559SOL    HW232577   3.603   1.007   0.624
10560SOL     OW32578   4.422   6.405   1.507
10560SOL    HW132579   4.410   6.351   1.590
10560SOL    HW232580   4.485   6.481   1.526
10561SOL     OW32581   3.633   4.709   1.544
10561SOL    HW132582   3.669   4.664   1.626
10561SOL    HW232583   3.559   4.653   1.506
10562SOL     OW32584   3.509   5.903   0.314
10562SOL    HW132585   3.528   5.955   0.231
10562SOL    HW232586   3.435   5.838   0.296
10563SOL     OW32587   1.231   0.687   0.979
10563SOL    HW132588   1.280   0.774   0.972
10563SOL    HW232589   1.144   0.701   1.025
10564SOL     OW32590   6.319   5.820   3.786
10564SOL    HW132591   6.341   5.856   3.877
10564SOL    HW232592   6.366   5.876   3.717
10565SOL     OW32593   6.595   6.793   5.579
10565SOL    HW132594   6.621   6.738   5.499
10565SOL    HW232595   6.589   6.889   5.552
10566SOL     OW32596   2.839   2.565   0.180
10566SOL    HW132597   2.744   2.559   0.210
10566SOL    HW232598   2.871   2.475   0.153
10567SOL     OW32599   2.245   2.485   5.800
10567SOL    HW132600   2.157   2.487   5.752
10567SOL    HW232601   2.305   2.555   5.762
10568SOL     OW32602   6.068   2.543   6.873
10568SOL    HW132603   6.037   2.484   6.947
10568SOL    HW232604   6.001   2.541   6.799
10569SOL     OW32605   5.529   0.860   1.637
10569SOL    HW132606   5.624   0.894   1.636
10569SOL    HW232607   5.479   0.900   1.560
10570SOL     OW32608   1.641   4.819   3.538
10570SOL    HW132609   1.733   4.822   3.498
10570SOL    HW232610   1.648   4.824   3.637
10571SOL     OW32611   0.476   4.018   5.860
10571SOL    HW132612   0.389   4.041   5.816
10571SOL    HW232613   0.512   4.099   5.906
10572SOL     OW32614   6.894   5.321   2.221
10572SOL    HW132615   6.890   5.379   2.139
10572SOL    HW232616   6.984   5.279   2.227
10573SOL     OW32617   4.749   0.652   5.270
10573SOL    HW132618   4.809   0.711   5.324
10573SOL    HW232619   4.762   0.557   5.297
10574SOL     OW32620   6.644   1.153   3.875
10574SOL    HW132621   6.572   1.157   3.944
10574SOL    HW232622   6.730   1.125   3.918
10575SOL     OW32623   5.951   0.530   3.799
10575SOL    HW132624   5.985   0.566   3.712
10575SOL    HW232625   5.853   0.546   3.806
10576SOL     OW32626   1.254   5.489   2.739
10576SOL    HW132627   1.216   5.404   2.701
10576SOL    HW232628   1.194   5.523   2.811
10577SOL     OW32629   2.258   5.240   0.426
10577SOL    HW132630   2.247   5.153   0.376
10577SOL    HW232631   2.203   5.310   0.382
10578SOL     OW32632   5.164   1.000   3.008
10578SOL    HW132633   5.154   1.021   2.911
10578SOL    HW232634   5.114   0.916   3.029
10579SOL     OW32635   3.193   3.134   1.442
10579SOL    HW132636   3.202   3.103   1.536
10579SOL    HW232637   3.145   3.065   1.388
10580SOL     OW32638   6.334   6.455   6.296
10580SOL    HW132639   6.331   6.548   6.334
10580SOL    HW232640   6.348   6.389   6.370
10581SOL     OW32641   4.854   6.927   2.896
10581SOL    HW132642   4.855   7.003   2.830
10581SOL    HW232643   4.922   6.859   2.869
10582SOL     OW32644   5.564   4.943   6.789
10582SOL    HW132645   5.473   4.916   6.819
10582SOL    HW232646   5.557   4.990   6.700
10583SOL     OW32647   4.136   0.336   4.205
10583SOL    HW132648   4.049   0.302   4.240
10583SOL    HW232649   4.202   0.344   4.280
10584SOL     OW32650   6.600   0.292   6.535
10584SOL    HW132651   6.520   0.334   6.491
10584SOL    HW232652   6.601   0.194   6.515
10585SOL     OW32653   1.796   1.973   5.595
10585SOL    HW132654   1.717   2.022   5.633
10585SOL    HW232655   1.789   1.971   5.495
10586SOL     OW32656   4.886   4.478   5.333
10586SOL    HW132657   4.970   4.531   5.339
10586SOL    HW232658   4.822   4.509   5.403
10587SOL     OW32659   0.133   5.706   6.442
10587SOL    HW132660   0.056   5.764   6.417
10587SOL    HW232661   0.216   5.760   6.448
10588SOL     OW32662   2.195   2.158   5.087
10588SOL    HW132663   2.282   2.113   5.107
10588SOL    HW232664   2.142   2.168   5.171
10589SOL     OW32665   5.122   6.392   4.207
10589SOL    HW132666   5.190   6.458   4.237
10589SOL    HW232667   5.163   6.329   4.141
10590SOL     OW32668   0.586   5.988   1.490
10590SOL    HW132669   0.634   5.924   1.429
10590SOL    HW232670   0.627   5.984   1.581
10591SOL     OW32671   2.318   1.923   1.340
10591SOL    HW132672   2.401   1.874   1.368
10591SOL    HW232673   2.285   1.887   1.253
10592SOL     OW32674   5.764   2.878   4.294
10592SOL    HW132675   5.692   2.820   4.256
10592SOL    HW232676   5.786   2.846   4.387
10593SOL     OW32677   1.348   6.500   0.713
10593SOL    HW132678   1.261   6.458   0.740
10593SOL    HW232679   1.344   6.524   0.616
10594SOL     OW32680   4.275   1.593   3.212
10594SOL    HW132681   4.259   1.512   3.268
10594SOL    HW232682   4.372   1.598   3.188
10595SOL     OW32683   6.144   0.372   0.378
10595SOL    HW132684   6.166   0.455   0.429
10595SOL    HW232685   6.080   0.395   0.304
10596SOL     OW32686   5.036   1.601   6.979
10596SOL    HW132687   4.994   1.577   0.043
10596SOL    HW232688   4.973   1.577   6.904
10597SOL     OW32689   2.118   0.601   5.686
10597SOL    HW132690   2.059   0.670   5.642
10597SOL    HW232691   2.087   0.586   5.780
10598SOL     OW32692   2.799   2.539   6.637
10598SOL    HW132693   2.765   2.480   6.710
10598SOL    HW232694   2.881   2.587   6.669
10599SOL     OW32695   6.574   4.247   6.571
10599SOL    HW132696   6.496   4.279   6.517
10599SOL    HW232697   6.576   4.147   6.572
10600SOL     OW32698   3.931   1.656   1.519
10600SOL    HW132699   3.955   1.750   1.544
10600SOL    HW232700   4.014   1.606   1.497
10601SOL     OW32701   0.866   5.381   5.387
10601SOL    HW132702   0.854   5.423   5.477
10601SOL    HW232703   0.919   5.443   5.329
10602SOL     OW32704   0.976   1.177   0.935
10602SOL    HW132705   0.916   1.251   0.905
10602SOL    HW232706   1.033   1.209   1.011
10603SOL     OW32707   4.737   6.675   3.021
10603SOL    HW132708   4.807   6.628   3.074
10603SOL    HW232709   4.774   6.697   2.930
10604SOL     OW32710   0.087   6.112   4.709
10604SOL    HW132711   0.174   6.066   4.725
10604SOL    HW232712   0.040   6.069   4.631
10605SOL     OW32713   1.817   6.890   6.488
10605SOL    HW132714   1.889   6.823   6.467
10605SOL    HW232715   1.834   6.930   6.578
10606SOL     OW32716   6.793   0.735   1.957
10606SOL    HW132717   6.710   0.790   1.962
10606SOL    HW232718   6.774   0.652   1.903
10607SOL     OW32719   4.274   4.540   0.529
10607SOL    HW132720   4.328   4.620   0.554
10607SOL    HW232721   4.228   4.504   0.610
10608SOL     OW32722   6.745   3.565   3.221
10608SOL    HW132723   6.702   3.545   3.133
10608SOL    HW232724   6.835   3.605   3.205
10609SOL     OW32725   2.597   6.779   0.060
10609SOL    HW132726   2.569   6.699   0.007
10609SOL    HW232727   2.661   6.834   0.007
10610SOL     OW32728   6.841   2.379   4.571
10610SOL    HW132729   6.843   2.477   4.554
10610SOL    HW232730   6.901   2.358   4.649
10611SOL     OW32731   2.498   5.323   5.671
10611SOL    HW132732   2.518   5.389   5.744
10611SOL    HW232733   2.582   5.276   5.645
10612SOL     OW32734   5.244   1.714   4.590
10612SOL    HW132735   5.340   1.709   4.615
10612SOL    HW232736   5.196   1.634   4.625
10613SOL     OW32737   5.674   5.955   4.850
10613SOL    HW132738   5.607   5.881   4.848
10613SOL    HW232739   5.656   6.018   4.774
10614SOL     OW32740   5.107   1.136   4.915
10614SOL    HW132741   5.202   1.128   4.948
10614SOL    HW232742   5.072   1.226   4.940
10615SOL     OW32743   3.677   1.210   5.762
10615SOL    HW132744   3.596   1.152   5.754
10615SOL    HW232745   3.664   1.275   5.836
10616SOL     OW32746   3.009   6.172   6.300
10616SOL    HW132747   2.960   6.258   6.288
10616SOL    HW232748   3.107   6.188   6.290
10617SOL     OW32749   2.231   4.388   1.495
10617SOL    HW132750   2.209   4.473   1.542
10617SOL    HW232751   2.251   4.406   1.399
10618SOL     OW32752   0.701   5.447   4.978
10618SOL    HW132753   0.750   5.361   4.974
10618SOL    HW232754   0.603   5.431   4.965
10619SOL     OW32755   0.567   2.452   3.219
10619SOL    HW132756   0.629   2.405   3.281
10619SOL    HW232757   0.487   2.485   3.271
10620SOL     OW32758   1.141   0.203   5.019
10620SOL    HW132759   1.078   0.279   5.007
10620SOL    HW232760   1.108   0.124   4.967
10621SOL     OW32761   0.118   4.623   1.987
10621SOL    HW132762   0.058   4.617   2.066
10621SOL    HW232763   0.200   4.568   2.005
10622SOL     OW32764   4.632   2.629   1.337
10622SOL    HW132765   4.587   2.718   1.342
10622SOL    HW232766   4.595   2.576   1.261
10623SOL     OW32767   5.825   6.284   5.008
10623SOL    HW132768   5.743   6.336   5.030
10623SOL    HW232769   5.905   6.344   5.009
10624SOL     OW32770   0.233   3.074   4.705
10624SOL    HW132771   0.201   3.136   4.634
10624SOL    HW232772   0.312   3.114   4.752
10625SOL     OW32773   0.623   3.828   1.621
10625SOL    HW132774   0.683   3.876   1.684
10625SOL    HW232775   0.676   3.795   1.543
10626SOL     OW32776   3.449   2.902   1.446
10626SOL    HW132777   3.377   2.927   1.382
10626SOL    HW232778   3.454   2.802   1.455
10627SOL     OW32779   6.074   1.177   6.785
10627SOL    HW132780   5.990   1.225   6.759
10627SOL    HW232781   6.151   1.240   6.780
10628SOL     OW32782   4.628   7.007   0.800
10628SOL    HW132783   4.642   6.922   0.749
10628SOL    HW232784   4.679   0.058   0.757
10629SOL     OW32785   3.252   4.941   4.570
10629SOL    HW132786   3.348   4.914   4.581
10629SOL    HW232787   3.242   5.038   4.592
10630SOL     OW32788   5.756   1.067   2.226
10630SOL    HW132789   5.693   1.003   2.181
10630SOL    HW232790   5.704   1.143   2.265
10631SOL     OW32791   4.020   4.309   5.531
10631SOL    HW132792   3.957   4.373   5.488
10631SOL    HW232793   4.109   4.313   5.484
10632SOL     OW32794   4.816   5.957   3.001
10632SOL    HW132795   4.728   5.938   2.956
10632SOL    HW232796   4.805   5.948   3.100
10633SOL     OW32797   2.718   2.370   1.737
10633SOL    HW132798   2.796   2.389   1.797
10633SOL    HW232799   2.633   2.387   1.786
10634SOL     OW32800   1.866   5.022   0.499
10634SOL    HW132801   1.896   4.981   0.585
10634SOL    HW232802   1.837   5.116   0.515
10635SOL     OW32803   2.315   3.406   0.005
10635SOL    HW132804   2.409   3.424   0.033
10635SOL    HW232805   2.312   3.322   6.973
10636SOL     OW32806   0.070   1.930   0.982
10636SOL    HW132807   0.046   1.836   1.006
10636SOL    HW232808   0.140   1.964   1.044
10637SOL     OW32809   1.538   5.878   6.518
10637SOL    HW132810   1.506   5.842   6.430
10637SOL    HW232811   1.595   5.959   6.503
10638SOL     OW32812   5.425   6.357   2.771
10638SOL    HW132813   5.486   6.284   2.739
10638SOL    HW232814   5.478   6.424   2.823
10639SOL     OW32815   1.723   3.512   2.340
10639SOL    HW132816   1.751   3.590   2.284
10639SOL    HW232817   1.754   3.526   2.434
10640SOL     OW32818   4.809   0.582   3.172
10640SOL    HW132819   4.726   0.566   3.118
10640SOL    HW232820   4.788   0.646   3.246
10641SOL     OW32821   2.370   1.485   3.526
10641SOL    HW132822   2.382   1.404   3.469
10641SOL    HW232823   2.319   1.461   3.609
10642SOL     OW32824   6.020   1.857   0.510
10642SOL    HW132825   6.021   1.770   0.560
10642SOL    HW232826   6.081   1.851   0.431
10643SOL     OW32827   2.324   6.244   4.834
10643SOL    HW132828   2.275   6.300   4.767
10643SOL    HW232829   2.270   6.238   4.918
10644SOL     OW32830   5.645   3.213   1.396
10644SOL    HW132831   5.717   3.260   1.446
10644SOL    HW232832   5.677   3.190   1.304
10645SOL     OW32833   2.113   2.567   3.667
10645SOL    HW132834   2.202   2.613   3.675
10645SOL    HW232835   2.048   2.611   3.728
10646SOL     OW32836   6.072   1.110   5.811
10646SOL    HW132837   6.030   1.125   5.900
10646SOL    HW232838   6.151   1.171   5.801
10647SOL     OW32839   3.370   5.143   5.053
10647SOL    HW132840   3.460   5.187   5.054
10647SOL    HW232841   3.328   5.154   4.963
10648SOL     OW32842   5.809   5.481   6.864
10648SOL    HW132843   5.716   5.516   6.878
10648SOL    HW232844   5.847   5.451   6.952
10649SOL     OW32845   0.892   3.862   3.207
10649SOL    HW132846   0.965   3.857   3.140
10649SOL    HW232847   0.897   3.949   3.256
10650SOL     OW32848   0.719   0.266   4.056
10650SOL    HW132849   0.771   0.258   4.141
10650SOL    HW232850   0.622   0.264   4.076
10651SOL     OW32851   6.259   5.863   6.069
10651SOL    HW132852   6.168   5.905   6.065
10651SOL    HW232853   6.250   5.764   6.065
10652SOL     OW32854   2.106   6.736   6.063
10652SOL    HW132855   2.025   6.788   6.091
10652SOL    HW232856   2.100   6.643   6.099
10653SOL     OW32857   3.624   6.006   5.231
10653SOL    HW132858   3.634   5.961   5.320
10653SOL    HW232859   3.678   5.956   5.163
10654SOL     OW32860   4.844   0.913   6.056
10654SOL    HW132861   4.819   0.927   5.960
10654SOL    HW232862   4.859   1.002   6.100
10655SOL     OW32863   1.714   4.655   0.269
10655SOL    HW132864   1.794   4.599   0.250
10655SOL    HW232865   1.733   4.717   0.345
10656SOL     OW32866   6.837   1.388   2.594
10656SOL    HW132867   6.894   1.310   2.618
10656SOL    HW232868   6.789   1.368   2.508
10657SOL     OW32869   6.112   0.745   4.925
10657SOL    HW132870   6.104   0.841   4.901
10657SOL    HW232871   6.204   0.726   4.960
10658SOL     OW32872   5.977   4.383   4.580
10658SOL    HW132873   6.019   4.353   4.666
10658SOL    HW232874   6.032   4.456   4.540
10659SOL     OW32875   1.173   4.589   0.849
10659SOL    HW132876   1.234   4.650   0.798
10659SOL    HW232877   1.153   4.508   0.794
10660SOL     OW32878   5.968   3.961   5.623
10660SOL    HW132879   5.966   3.995   5.717
10660SOL    HW232880   5.892   4.001   5.572
10661SOL     OW32881   1.713   5.947   0.831
10661SOL    HW132882   1.809   5.939   0.859
10661SOL    HW232883   1.666   5.861   0.853
10662SOL     OW32884   4.408   0.692   2.275
10662SOL    HW132885   4.469   0.765   2.306
10662SOL    HW232886   4.457   0.605   2.276
10663SOL     OW32887   0.755   1.123   2.922
10663SOL    HW132888   0.812   1.041   2.918
10663SOL    HW232889   0.713   1.139   2.833
10664SOL     OW32890   6.477   4.580   5.489
10664SOL    HW132891   6.529   4.516   5.433
10664SOL    HW232892   6.460   4.539   5.579
10665SOL     OW32893   1.868   2.614   6.832
10665SOL    HW132894   1.898   2.700   6.791
10665SOL    HW232895   1.768   2.610   6.831
10666SOL     OW32896   3.157   3.924   2.728
10666SOL    HW132897   3.212   3.990   2.676
10666SOL    HW232898   3.093   3.878   2.668
10667SOL     OW32899   4.634   1.979   3.810
10667SOL    HW132900   4.668   2.055   3.756
10667SOL    HW232901   4.609   1.903   3.749
10668SOL     OW32902   3.331   1.265   4.835
10668SOL    HW132903   3.396   1.341   4.843
10668SOL    HW232904   3.345   1.217   4.749
10669SOL     OW32905   6.414   0.346   1.042
10669SOL    HW132906   6.324   0.370   1.007
10669SOL    HW232907   6.446   0.419   1.104
10670SOL     OW32908   5.566   4.754   4.956
10670SOL    HW132909   5.604   4.827   4.899
10670SOL    HW232910   5.472   4.775   4.980
10671SOL     OW32911   1.597   1.616   4.222
10671SOL    HW132912   1.617   1.634   4.318
10671SOL    HW232913   1.545   1.692   4.184
10672SOL     OW32914   6.496   4.353   1.890
10672SOL    HW132915   6.472   4.298   1.810
10672SOL    HW232916   6.455   4.444   1.881
10673SOL     OW32917   0.645   0.318   0.285
10673SOL    HW132918   0.576   0.373   0.333
10673SOL    HW232919   0.676   0.368   0.204
10674SOL     OW32920   4.112   3.428   4.120
10674SOL    HW132921   4.183   3.495   4.100
10674SOL    HW232922   4.081   3.439   4.214
10675SOL     OW32923   2.157   0.402   6.537
10675SOL    HW132924   2.246   0.376   6.501
10675SOL    HW232925   2.161   0.495   6.573
10676SOL     OW32926   0.327   6.360   4.908
10676SOL    HW132927   0.321   6.448   4.955
10676SOL    HW232928   0.303   6.287   4.971
10677SOL     OW32929   1.732   0.684   1.568
10677SOL    HW132930   1.658   0.634   1.522
10677SOL    HW232931   1.736   0.657   1.664
10678SOL     OW32932   4.361   5.161   4.511
10678SOL    HW132933   4.437   5.157   4.576
10678SOL    HW232934   4.276   5.140   4.559
10679SOL     OW32935   3.907   5.539   6.247
10679SOL    HW132936   3.837   5.543   6.176
10679SOL    HW232937   3.975   5.469   6.223
10680SOL     OW32938   3.544   2.080   3.913
10680SOL    HW132939   3.578   2.015   3.846
10680SOL    HW232940   3.469   2.133   3.874
10681SOL     OW32941   6.932   3.738   0.484
10681SOL    HW132942   6.975   3.680   0.415
10681SOL    HW232943   6.967   3.714   0.574
10682SOL     OW32944   0.043   2.775   5.275
10682SOL    HW132945   6.972   2.789   5.305
10682SOL    HW232946   0.054   2.681   5.242
10683SOL     OW32947   4.785   0.596   3.684
10683SOL    HW132948   4.859   0.624   3.744
10683SOL    HW232949   4.723   0.673   3.669
10684SOL     OW32950   4.057   4.732   2.477
10684SOL    HW132951   4.139   4.772   2.518
10684SOL    HW232952   4.079   4.695   2.387
10685SOL     OW32953   0.617   5.786   1.271
10685SOL    HW132954   0.553   5.832   1.209
10685SOL    HW232955   0.709   5.787   1.231
10686SOL     OW32956   1.371   3.880   5.725
10686SOL    HW132957   1.403   3.974   5.736
10686SOL    HW232958   1.272   3.880   5.708
10687SOL     OW32959   6.088   5.381   4.301
10687SOL    HW132960   6.183   5.387   4.331
10687SOL    HW232961   6.036   5.324   4.365
10688SOL     OW32962   5.658   3.440   3.002
10688SOL    HW132963   5.739   3.382   3.001
10688SOL    HW232964   5.581   3.389   3.040
10689SOL     OW32965   6.376   0.624   2.585
10689SOL    HW132966   6.333   0.606   2.673
10689SOL    HW232967   6.473   0.642   2.599
10690SOL     OW32968   0.161   5.586   3.647
10690SOL    HW132969   0.129   5.669   3.601
10690SOL    HW232970   0.130   5.586   3.742
10691SOL     OW32971   1.743   1.795   2.211
10691SOL    HW132972   1.704   1.797   2.303
10691SOL    HW232973   1.673   1.767   2.145
10692SOL     OW32974   2.465   0.328   3.946
10692SOL    HW132975   2.455   0.309   3.848
10692SOL    HW232976   2.550   0.377   3.962
10693SOL     OW32977   1.528   5.966   1.447
10693SOL    HW132978   1.453   5.904   1.469
10693SOL    HW232979   1.591   5.969   1.525
10694SOL     OW32980   5.098   5.871   6.800
10694SOL    HW132981   5.188   5.841   6.768
10694SOL    HW232982   5.039   5.791   6.813
10695SOL     OW32983   1.628   2.348   2.723
10695SOL    HW132984   1.609   2.399   2.807
10695SOL    HW232985   1.542   2.328   2.675
10696SOL     OW32986   6.334   4.393   3.538
10696SOL    HW132987   6.237   4.379   3.516
10696SOL    HW232988   6.376   4.305   3.559
10697SOL     OW32989   0.544   0.218   5.274
10697SOL    HW132990   0.495   0.261   5.350
10697SOL    HW232991   0.514   0.258   5.188
10698SOL     OW32992   5.149   4.629   6.889
10698SOL    HW132993   5.245   4.643   6.912
10698SOL    HW232994   5.093   4.642   6.971
10699SOL     OW32995   3.982   4.613   1.785
10699SOL    HW132996   4.039   4.554   1.727
10699SOL    HW232997   3.996   4.709   1.757
10700SOL     OW32998   5.386   6.427   0.413
10700SOL    HW132999   5.396   6.340   0.461
10700SOL    HW233000   5.290   6.441   0.389
10701SOL     OW33001   2.510   6.502   6.228
10701SOL    HW133002   2.481   6.430   6.291
10701SOL    HW233003   2.435   6.527   6.167
10702SOL     OW33004   5.678   3.177   1.937
10702SOL    HW133005   5.727   3.133   1.862
10702SOL    HW233006   5.743   3.225   1.996
10703SOL     OW33007   2.683   3.105   5.322
10703SOL    HW133008   2.603   3.098   5.263
10703SOL    HW233009   2.717   3.014   5.343
10704SOL     OW33010   6.093   5.404   1.950
10704SOL    HW133011   6.087   5.310   1.984
10704SOL    HW233012   6.189   5.431   1.941
10705SOL     OW33013   6.404   5.172   1.642
10705SOL    HW133014   6.445   5.080   1.638
10705SOL    HW233015   6.353   5.181   1.727
10706SOL     OW33016   4.537   0.531   3.075
10706SOL    HW133017   4.440   0.524   3.052
10706SOL    HW233018   4.555   0.482   3.160
10707SOL     OW33019   0.371   6.885   4.495
10707SOL    HW133020   0.456   6.849   4.532
10707SOL    HW233021   0.308   6.810   4.475
10708SOL     OW33022   3.882   1.281   1.201
10708SOL    HW133023   3.886   1.282   1.301
10708SOL    HW233024   3.895   1.374   1.167
10709SOL     OW33025   5.829   5.575   5.580
10709SOL    HW133026   5.837   5.533   5.490
10709SOL    HW233027   5.792   5.667   5.570
10710SOL     OW33028   6.429   0.784   4.234
10710SOL    HW133029   6.392   0.848   4.167
10710SOL    HW233030   6.355   0.727   4.271
10711SOL     OW33031   2.127   6.397   4.216
10711SOL    HW133032   2.034   6.362   4.201
10711SOL    HW233033   2.192   6.322   4.209
10712SOL     OW33034   2.882   0.721   1.942
10712SOL    HW133035   2.932   0.702   1.857
10712SOL    HW233036   2.946   0.726   2.018
10713SOL     OW33037   0.751   3.282   1.542
10713SOL    HW133038   0.768   3.379   1.562
10713SOL    HW233039   0.686   3.275   1.467
10714SOL     OW33040   5.631   3.568   5.103
10714SOL    HW133041   5.612   3.537   5.196
10714SOL    HW233042   5.551   3.550   5.045
10715SOL     OW33043   4.518   0.425   2.218
10715SOL    HW133044   4.471   0.406   2.131
10715SOL    HW233045   4.617   0.422   2.204
10716SOL     OW33046   5.645   1.631   3.583
10716SOL    HW133047   5.738   1.618   3.616
10716SOL    HW233048   5.596   1.694   3.643
10717SOL     OW33049   1.072   2.533   1.483
10717SOL    HW133050   1.075   2.586   1.398
10717SOL    HW233051   1.157   2.481   1.493
10718SOL     OW33052   0.899   3.078   6.886
10718SOL    HW133053   0.955   3.159   6.865
10718SOL    HW233054   0.953   3.013   6.938
10719SOL     OW33055   6.662   5.560   2.634
10719SOL    HW133056   6.663   5.607   2.546
10719SOL    HW233057   6.754   5.528   2.656
10720SOL     OW33058   0.161   4.511   5.266
10720SOL    HW133059   0.073   4.487   5.226
10720SOL    HW233060   0.149   4.534   5.362
10721SOL     OW33061   5.493   4.182   4.923
10721SOL    HW133062   5.509   4.167   4.825
10721SOL    HW233063   5.570   4.145   4.975
10722SOL     OW33064   1.076   4.804   6.617
10722SOL    HW133065   1.066   4.833   6.522
10722SOL    HW233066   1.102   4.707   6.619
10723SOL     OW33067   0.584   2.886   5.925
10723SOL    HW133068   0.494   2.931   5.919
10723SOL    HW233069   0.626   2.884   5.834
10724SOL     OW33070   6.608   1.520   6.822
10724SOL    HW133071   6.670   1.558   6.753
10724SOL    HW233072   6.571   1.594   6.879
10725SOL     OW33073   1.448   5.350   3.958
10725SOL    HW133074   1.424   5.307   4.045
10725SOL    HW233075   1.469   5.279   3.890
10726SOL     OW33076   5.436   0.213   5.273
10726SOL    HW133077   5.429   0.299   5.223
10726SOL    HW233078   5.477   0.231   5.363
10727SOL     OW33079   0.472   4.946   5.463
10727SOL    HW133080   0.386   4.988   5.492
10727SOL    HW233081   0.517   5.004   5.395
10728SOL     OW33082   0.610   5.815   6.567
10728SOL    HW133083   0.696   5.779   6.604
10728SOL    HW233084   0.613   5.915   6.567
10729SOL     OW33085   5.505   1.971   2.144
10729SOL    HW133086   5.489   1.895   2.081
10729SOL    HW233087   5.418   2.013   2.168
10730SOL     OW33088   1.922   1.202   1.275
10730SOL    HW133089   1.874   1.119   1.303
10730SOL    HW233090   1.982   1.232   1.350
10731SOL     OW33091   3.544   6.549   0.840
10731SOL    HW133092   3.587   6.610   0.773
10731SOL    HW233093   3.549   6.455   0.808
10732SOL     OW33094   6.015   5.170   4.737
10732SOL    HW133095   6.039   5.077   4.764
10732SOL    HW233096   5.976   5.169   4.645
10733SOL     OW33097   6.583   1.794   1.075
10733SOL    HW133098   6.507   1.735   1.101
10733SOL    HW233099   6.635   1.752   1.001
10734SOL     OW33100   0.966   0.746   0.122
10734SOL    HW133101   1.023   0.786   0.051
10734SOL    HW233102   0.878   0.720   0.083
10735SOL     OW33103   0.537   2.894   3.296
10735SOL    HW133104   0.614   2.928   3.242
10735SOL    HW233105   0.509   2.965   3.361
10736SOL     OW33106   1.417   0.204   3.577
10736SOL    HW133107   1.405   0.299   3.607
10736SOL    HW233108   1.493   0.163   3.626
10737SOL     OW33109   1.606   2.020   1.331
10737SOL    HW133110   1.525   2.040   1.276
10737SOL    HW233111   1.685   2.009   1.271
10738SOL     OW33112   2.530   0.601   3.232
10738SOL    HW133113   2.502   0.598   3.327
10738SOL    HW233114   2.629   0.619   3.227
10739SOL     OW33115   1.307   1.811   1.065
10739SOL    HW133116   1.371   1.882   1.096
10739SOL    HW233117   1.359   1.736   1.023
10740SOL     OW33118   6.763   4.549   4.992
10740SOL    HW133119   6.839   4.522   5.052
10740SOL    HW233120   6.787   4.634   4.944
10741SOL     OW33121   5.558   0.423   1.172
10741SOL    HW133122   5.649   0.390   1.198
10741SOL    HW233123   5.519   0.475   1.247
10742SOL     OW33124   5.471   0.582   0.715
10742SOL    HW133125   5.397   0.552   0.655
10742SOL    HW233126   5.516   0.661   0.674
10743SOL     OW33127   2.473   1.230   5.725
10743SOL    HW133128   2.493   1.133   5.712
10743SOL    HW233129   2.376   1.241   5.747
10744SOL     OW33130   3.767   1.637   1.152
10744SOL    HW133131   3.753   1.657   1.249
10744SOL    HW233132   3.680   1.646   1.103
10745SOL     OW33133   0.111   5.954   6.787
10745SOL    HW133134   0.139   6.050   6.782
10745SOL    HW233135   0.176   5.898   6.735
10746SOL     OW33136   1.738   4.782   1.519
10746SOL    HW133137   1.799   4.772   1.597
10746SOL    HW233138   1.759   4.867   1.471
10747SOL     OW33139   3.640   1.357   4.374
10747SOL    HW133140   3.740   1.356   4.372
10747SOL    HW233141   3.608   1.309   4.456
10748SOL     OW33142   5.011   0.892   1.043
10748SOL    HW133143   5.048   0.971   0.994
10748SOL    HW233144   5.034   0.808   0.992
10749SOL     OW33145   0.705   5.694   2.872
10749SOL    HW133146   0.645   5.701   2.952
10749SOL    HW233147   0.789   5.648   2.898
10750SOL     OW33148   4.103   6.302   4.882
10750SOL    HW133149   4.007   6.280   4.865
10750SOL    HW233150   4.156   6.218   4.884
10751SOL     OW33151   1.738   3.970   4.779
10751SOL    HW133152   1.799   4.012   4.846
10751SOL    HW233153   1.643   3.982   4.809
10752SOL     OW33154   6.241   4.026   6.476
10752SOL    HW133155   6.156   4.036   6.424
10752SOL    HW233156   6.264   3.928   6.483
10753SOL     OW33157   4.646   5.940   4.360
10753SOL    HW133158   4.587   5.889   4.298
10753SOL    HW233159   4.734   5.893   4.370
10754SOL     OW33160   0.824   1.366   3.032
10754SOL    HW133161   0.923   1.375   3.042
10754SOL    HW233162   0.803   1.278   2.989
10755SOL     OW33163   6.523   1.042   6.328
10755SOL    HW133164   6.588   1.096   6.381
10755SOL    HW233165   6.562   0.952   6.309
10756SOL     OW33166   6.785   4.759   0.186
10756SOL    HW133167   6.841   4.806   0.118
10756SOL    HW233168   6.757   4.670   0.150
10757SOL     OW33169   2.237   3.013   0.369
10757SOL    HW133170   2.216   3.062   0.454
10757SOL    HW233171   2.336   3.002   0.360
10758SOL     OW33172   0.288   6.543   4.071
10758SOL    HW133173   0.360   6.609   4.049
10758SOL    HW233174   0.289   6.526   4.170
10759SOL     OW33175   1.822   3.155   1.358
10759SOL    HW133176   1.830   3.194   1.266
10759SOL    HW233177   1.760   3.077   1.355
10760SOL     OW33178   6.174   1.440   2.176
10760SOL    HW133179   6.105   1.378   2.137
10760SOL    HW233180   6.161   1.532   2.138
10761SOL     OW33181   0.867   6.846   6.131
10761SOL    HW133182   0.831   6.838   6.224
10761SOL    HW233183   0.807   6.797   6.068
10762SOL     OW33184   3.679   2.061   4.157
10762SOL    HW133185   3.636   2.053   4.067
10762SOL    HW233186   3.619   2.019   4.225
10763SOL     OW33187   5.173   6.448   2.373
10763SOL    HW133188   5.080   6.431   2.407
10763SOL    HW233189   5.232   6.474   2.450
10764SOL     OW33190   4.843   2.373   5.940
10764SOL    HW133191   4.766   2.415   5.892
10764SOL    HW233192   4.923   2.432   5.933
10765SOL     OW33193   5.296   2.227   0.246
10765SOL    HW133194   5.338   2.144   0.284
10765SOL    HW233195   5.327   2.307   0.298
10766SOL     OW33196   4.889   3.776   0.371
10766SOL    HW133197   4.895   3.678   0.390
10766SOL    HW233198   4.967   3.805   0.315
10767SOL     OW33199   1.430   0.690   0.452
10767SOL    HW133200   1.356   0.690   0.385
10767SOL    HW233201   1.513   0.652   0.410
10768SOL     OW33202   4.640   4.213   1.698
10768SOL    HW133203   4.714   4.204   1.764
10768SOL    HW233204   4.552   4.214   1.746
10769SOL     OW33205   2.693   4.063   5.285
10769SOL    HW133206   2.614   4.027   5.236
10769SOL    HW233207   2.687   4.163   5.289
10770SOL     OW33208   5.644   0.858   5.045
10770SOL    HW133209   5.730   0.881   5.090
10770SOL    HW233210   5.609   0.939   4.997
10771SOL     OW33211   6.204   0.229   3.576
10771SOL    HW133212   6.179   0.287   3.499
10771SOL    HW233213   6.196   0.281   3.661
10772SOL     OW33214   5.817   6.725   4.485
10772SOL    HW133215   5.846   6.714   4.390
10772SOL    HW233216   5.896   6.708   4.545
10773SOL     OW33217   6.514   5.944   6.863
10773SOL    HW133218   6.585   5.907   6.803
10773SOL    HW233219   6.538   5.928   6.958
10774SOL     OW33220   2.650   1.556   0.103
10774SOL    HW133221   2.621   1.463   0.081
10774SOL    HW233222   2.677   1.603   0.019
10775SOL     OW33223   0.214   4.493   1.383
10775SOL    HW133224   0.206   4.504   1.284
10775SOL    HW233225   0.149   4.424   1.415
10776SOL     OW33226   0.131   0.855   6.757
10776SOL    HW133227   0.036   0.842   6.785
10776SOL    HW233228   0.189   0.860   6.839
10777SOL     OW33229   3.638   5.532   2.951
10777SOL    HW133230   3.593   5.619   2.968
10777SOL    HW233231   3.715   5.521   3.015
10778SOL     OW33232   5.827   0.029   4.211
10778SOL    HW133233   5.918   0.006   4.178
10778SOL    HW233234   5.769   6.971   4.210
10779SOL     OW33235   6.723   3.501   3.738
10779SOL    HW133236   6.761   3.592   3.752
10779SOL    HW233237   6.631   3.508   3.700
10780SOL     OW33238   2.260   0.807   3.673
10780SOL    HW133239   2.321   0.884   3.693
10780SOL    HW233240   2.237   0.760   3.758
10781SOL     OW33241   4.590   0.930   4.304
10781SOL    HW133242   4.629   0.962   4.390
10781SOL    HW233243   4.503   0.883   4.322
10782SOL     OW33244   6.290   1.935   1.645
10782SOL    HW133245   6.360   1.906   1.580
10782SOL    HW233246   6.326   2.008   1.703
10783SOL     OW33247   0.474   2.977   2.777
10783SOL    HW133248   0.477   2.926   2.863
10783SOL    HW233249   0.381   2.977   2.741
10784SOL     OW33250   3.563   6.521   4.335
10784SOL    HW133251   3.603   6.495   4.247
10784SOL    HW233252   3.519   6.441   4.376
10785SOL     OW33253   0.089   4.708   1.097
10785SOL    HW133254   0.137   4.761   1.166
10785SOL    HW233255   0.106   4.611   1.110
10786SOL     OW33256   5.927   4.260   3.421
10786SOL    HW133257   6.010   4.234   3.470
10786SOL    HW233258   5.856   4.286   3.486
10787SOL     OW33259   2.207   1.355   5.196
10787SOL    HW133260   2.235   1.259   5.200
10787SOL    HW233261   2.177   1.378   5.103
10788SOL     OW33262   2.031   4.562   6.007
10788SOL    HW133263   2.118   4.521   6.035
10788SOL    HW233264   1.962   4.544   6.077
10789SOL     OW33265   6.980   2.986   6.400
10789SOL    HW133266   6.975   2.906   6.460
10789SOL    HW233267   6.988   2.955   6.305
10790SOL     OW33268   1.249   0.454   2.053
10790SOL    HW133269   1.308   0.531   2.031
10790SOL    HW233270   1.184   0.438   1.978
10791SOL     OW33271   6.551   0.084   1.721
10791SOL    HW133272   6.602   0.168   1.738
10791SOL    HW233273   6.584   0.012   1.782
10792SOL     OW33274   2.998   3.752   4.506
10792SOL    HW133275   2.981   3.691   4.583
10792SOL    HW233276   2.983   3.846   4.534
10793SOL     OW33277   5.343   3.331   4.493
10793SOL    HW133278   5.374   3.256   4.552
10793SOL    HW233279   5.301   3.403   4.549
10794SOL     OW33280   2.981   3.508   3.846
10794SOL    HW133281   2.936   3.470   3.766
10794SOL    HW233282   3.080   3.496   3.838
10795SOL     OW33283   6.760   5.036   1.695
10795SOL    HW133284   6.731   5.117   1.746
10795SOL    HW233285   6.845   5.056   1.646
10796SOL     OW33286   5.653   0.628   6.353
10796SOL    HW133287   5.699   0.647   6.440
10796SOL    HW233288   5.554   0.632   6.367
10797SOL     OW33289   3.520   2.416   1.363
10797SOL    HW133290   3.602   2.380   1.408
10797SOL    HW233291   3.499   2.362   1.282
10798SOL     OW33292   2.714   0.379   0.064
10798SOL    HW133293   2.706   0.475   0.038
10798SOL    HW233294   2.642   0.326   0.018
10799SOL     OW33295   3.799   1.186   1.815
10799SOL    HW133296   3.774   1.220   1.906
10799SOL    HW233297   3.810   1.264   1.753
10800SOL     OW33298   6.925   6.489   6.240
10800SOL    HW133299   6.916   6.552   6.317
10800SOL    HW233300   7.015   6.445   6.244
10801SOL     OW33301   0.745   6.207   5.922
10801SOL    HW133302   0.738   6.221   6.021
10801SOL    HW233303   0.756   6.296   5.877
10802SOL     OW33304   1.056   0.303   2.808
10802SOL    HW133305   1.064   0.384   2.750
10802SOL    HW233306   1.089   0.223   2.758
10803SOL     OW33307   2.043   4.812   6.236
10803SOL    HW133308   2.106   4.780   6.164
10803SOL    HW233309   2.091   4.815   6.323
10804SOL     OW33310   5.775   3.339   2.129
10804SOL    HW133311   5.742   3.279   2.201
10804SOL    HW233312   5.711   3.416   2.117
10805SOL     OW33313   4.699   6.313   6.324
10805SOL    HW133314   4.720   6.296   6.227
10805SOL    HW233315   4.746   6.396   6.354
10806SOL     OW33316   4.193   4.058   6.622
10806SOL    HW133317   4.274   4.102   6.584
10806SOL    HW233318   4.219   3.970   6.662
10807SOL     OW33319   1.469   6.939   2.384
10807SOL    HW133320   1.405   7.014   2.399
10807SOL    HW233321   1.487   6.892   2.470
10808SOL     OW33322   0.117   2.975   5.553
10808SOL    HW133323   0.084   2.944   5.464
10808SOL    HW233324   0.157   3.066   5.544
10809SOL     OW33325   3.092   4.921   3.587
10809SOL    HW133326   3.041   5.007   3.588
10809SOL    HW233327   3.115   4.895   3.681
10810SOL     OW33328   1.281   0.129   4.239
10810SOL    HW133329   1.360   0.116   4.299
10810SOL    HW233330   1.313   0.156   4.148
10811SOL     OW33331   4.556   4.205   5.913
10811SOL    HW133332   4.484   4.249   5.967
10811SOL    HW233333   4.636   4.188   5.971
10812SOL     OW33334   0.872   3.773   0.652
10812SOL    HW133335   0.927   3.855   0.665
10812SOL    HW233336   0.807   3.787   0.577
10813SOL     OW33337   1.612   3.951   6.458
10813SOL    HW133338   1.626   3.970   6.361
10813SOL    HW233339   1.647   3.860   6.480
10814SOL     OW33340   1.471   6.585   6.397
10814SOL    HW133341   1.385   6.570   6.347
10814SOL    HW233342   1.522   6.659   6.354
10815SOL     OW33343   5.122   4.104   3.158
10815SOL    HW133344   5.129   4.059   3.069
10815SOL    HW233345   5.153   4.041   3.229
10816SOL     OW33346   3.556   3.802   3.028
10816SOL    HW133347   3.539   3.721   3.084
10816SOL    HW233348   3.579   3.880   3.087
10817SOL     OW33349   4.572   0.365   3.331
10817SOL    HW133350   4.558   0.423   3.412
10817SOL    HW233351   4.649   0.303   3.347
10818SOL     OW33352   4.694   4.666   4.882
10818SOL    HW133353   4.737   4.731   4.820
10818SOL    HW233354   4.657   4.589   4.829
10819SOL     OW33355   6.855   5.219   6.324
10819SOL    HW133356   6.829   5.208   6.228
10819SOL    HW233357   6.799   5.160   6.381
10820SOL     OW33358   0.329   4.947   4.534
10820SOL    HW133359   0.283   4.874   4.483
10820SOL    HW233360   0.343   4.918   4.628
10821SOL     OW33361   4.689   0.337   3.588
10821SOL    HW133362   4.759   0.265   3.584
10821SOL    HW233363   4.723   0.413   3.642
10822SOL     OW33364   6.192   2.427   3.079
10822SOL    HW133365   6.179   2.329   3.097
10822SOL    HW233366   6.106   2.466   3.046
10823SOL     OW33367   1.143   0.868   2.216
10823SOL    HW133368   1.045   0.885   2.222
10823SOL    HW233369   1.160   0.769   2.224
10824SOL     OW33370   6.720   1.509   2.834
10824SOL    HW133371   6.787   1.577   2.863
10824SOL    HW233372   6.727   1.497   2.735
10825SOL     OW33373   2.068   1.905   6.484
10825SOL    HW133374   1.999   1.972   6.458
10825SOL    HW233375   2.135   1.896   6.410
10826SOL     OW33376   0.747   2.389   3.421
10826SOL    HW133377   0.754   2.480   3.462
10826SOL    HW233378   0.839   2.355   3.399
10827SOL     OW33379   0.206   3.458   4.814
10827SOL    HW133380   0.256   3.514   4.749
10827SOL    HW233381   0.254   3.371   4.827
10828SOL     OW33382   1.493   4.480   0.819
10828SOL    HW133383   1.437   4.559   0.796
10828SOL    HW233384   1.493   4.416   0.742
10829SOL     OW33385   4.473   3.077   0.234
10829SOL    HW133386   4.511   3.134   0.307
10829SOL    HW233387   4.433   2.995   0.273
10830SOL     OW33388   4.617   1.869   3.219
10830SOL    HW133389   4.604   1.771   3.230
10830SOL    HW233390   4.554   1.904   3.150
10831SOL     OW33391   2.922   6.592   3.157
10831SOL    HW133392   2.950   6.506   3.200
10831SOL    HW233393   2.908   6.578   3.059
10832SOL     OW33394   0.612   3.375   5.862
10832SOL    HW133395   0.662   3.460   5.881
10832SOL    HW233396   0.674   3.308   5.821
10833SOL     OW33397   0.629   1.154   2.228
10833SOL    HW133398   0.583   1.094   2.293
10833SOL    HW233399   0.580   1.152   2.141
10834SOL     OW33400   0.192   1.651   0.597
10834SOL    HW133401   0.285   1.640   0.560
10834SOL    HW233402   0.175   1.578   0.664
10835SOL     OW33403   5.971   2.748   0.578
10835SOL    HW133404   5.883   2.708   0.551
10835SOL    HW233405   6.042   2.715   0.516
10836SOL     OW33406   6.402   1.341   4.882
10836SOL    HW133407   6.321   1.316   4.936
10836SOL    HW233408   6.458   1.405   4.934
10837SOL     OW33409   6.493   5.409   1.074
10837SOL    HW133410   6.559   5.335   1.081
10837SOL    HW233411   6.468   5.421   0.978
10838SOL     OW33412   6.897   5.915   3.411
10838SOL    HW133413   6.807   5.897   3.452
10838SOL    HW233414   6.950   5.830   3.408
10839SOL     OW33415   4.429   3.217   1.668
10839SOL    HW133416   4.343   3.190   1.624
10839SOL    HW233417   4.453   3.152   1.739
10840SOL     OW33418   3.240   6.085   2.711
10840SOL    HW133419   3.306   6.020   2.675
10840SOL    HW233420   3.283   6.175   2.721
10841SOL     OW33421   6.361   4.964   5.585
10841SOL    HW133422   6.376   4.870   5.554
10841SOL    HW233423   6.443   5.018   5.565
10842SOL     OW33424   5.159   2.259   1.407
10842SOL    HW133425   5.124   2.325   1.340
10842SOL    HW233426   5.083   2.205   1.443
10843SOL     OW33427   0.805   1.648   1.878
10843SOL    HW133428   0.781   1.741   1.906
10843SOL    HW233429   0.777   1.634   1.783
10844SOL     OW33430   0.640   5.975   3.042
10844SOL    HW133431   0.574   5.944   2.974
10844SOL    HW233432   0.700   5.899   3.067
10845SOL     OW33433   3.387   6.511   5.380
10845SOL    HW133434   3.350   6.424   5.412
10845SOL    HW233435   3.486   6.511   5.390
10846SOL     OW33436   5.852   1.047   0.485
10846SOL    HW133437   5.764   1.010   0.455
10846SOL    HW233438   5.896   0.984   0.547
10847SOL     OW33439   3.428   2.977   0.220
10847SOL    HW133440   3.436   2.971   0.319
10847SOL    HW233441   3.495   2.917   0.177
10848SOL     OW33442   2.627   3.875   0.995
10848SOL    HW133443   2.727   3.882   0.989
10848SOL    HW233444   2.602   3.820   1.074
10849SOL     OW33445   2.442   4.592   3.698
10849SOL    HW133446   2.399   4.619   3.612
10849SOL    HW233447   2.536   4.627   3.701
10850SOL     OW33448   2.536   6.312   5.994
10850SOL    HW133449   2.521   6.313   5.895
10850SOL    HW233450   2.588   6.394   6.020
10851SOL     OW33451   2.352   3.488   0.659
10851SOL    HW133452   2.392   3.556   0.721
10851SOL    HW233453   2.294   3.426   0.710
10852SOL     OW33454   1.210   0.206   6.956
10852SOL    HW133455   1.197   0.251   6.868
10852SOL    HW233456   1.188   0.109   6.947
10853SOL     OW33457   1.675   2.624   4.940
10853SOL    HW133458   1.613   2.573   4.880
10853SOL    HW233459   1.712   2.703   4.890
10854SOL     OW33460   4.718   4.715   5.511
10854SOL    HW133461   4.628   4.717   5.557
10854SOL    HW233462   4.774   4.642   5.552
10855SOL     OW33463   3.809   0.917   0.612
10855SOL    HW133464   3.834   0.821   0.598
10855SOL    HW233465   3.888   0.975   0.594
10856SOL     OW33466   5.337   1.092   0.321
10856SOL    HW133467   5.251   1.052   0.354
10856SOL    HW233468   5.318   1.159   0.249
10857SOL     OW33469   0.349   1.921   2.908
10857SOL    HW133470   0.318   1.946   3.000
10857SOL    HW233471   0.424   1.855   2.915
10858SOL     OW33472   0.965   1.473   6.895
10858SOL    HW133473   0.917   1.419   6.825
10858SOL    HW233474   1.019   1.544   6.851
10859SOL     OW33475   0.993   3.919   4.552
10859SOL    HW133476   1.093   3.909   4.551
10859SOL    HW233477   0.966   3.983   4.480
10860SOL     OW33478   0.317   2.861   4.881
10860SOL    HW133479   0.258   2.785   4.855
10860SOL    HW233480   0.305   2.937   4.817
10861SOL     OW33481   3.529   4.166   3.783
10861SOL    HW133482   3.548   4.263   3.799
10861SOL    HW233483   3.431   4.154   3.766
10862SOL     OW33484   2.176   1.408   6.574
10862SOL    HW133485   2.157   1.502   6.600
10862SOL    HW233486   2.115   1.346   6.624
10863SOL     OW33487   3.408   0.946   3.872
10863SOL    HW133488   3.340   1.010   3.837
10863SOL    HW233489   3.367   0.888   3.942
10864SOL     OW33490   2.225   6.429   0.524
10864SOL    HW133491   2.169   6.461   0.448
10864SOL    HW233492   2.316   6.404   0.491
10865SOL     OW33493   0.276   1.445   1.331
10865SOL    HW133494   0.283   1.380   1.255
10865SOL    HW233495   0.255   1.536   1.296
10866SOL     OW33496   5.450   4.132   0.787
10866SOL    HW133497   5.519   4.066   0.756
10866SOL    HW233498   5.477   4.170   0.876
10867SOL     OW33499   3.756   3.573   6.656
10867SOL    HW133500   3.700   3.626   6.592
10867SOL    HW233501   3.712   3.570   6.745
10868SOL     OW33502   4.929   1.289   4.023
10868SOL    HW133503   4.915   1.359   4.093
10868SOL    HW233504   4.917   1.330   3.932
10869NA      NA33505   6.442   2.814   5.329
10870NA      NA33506   4.519   4.635   5.044
10871NA      NA33507   1.762   3.115   2.213
10872NA      NA33508   5.100   3.853   4.880
10873NA      NA33509   4.235   2.353   5.268
10874NA      NA33510   3.472   4.845   1.747
10875NA      NA33511   0.020   4.799   0.340
10876NA      NA33512   3.456   3.663   4.350
10877NA      NA33513   4.956   6.042   0.246
10878NA      NA33514   3.202   6.493   5.200
10879NA      NA33515   5.689   5.404   1.638
10880NA      NA33516   2.040   0.309   4.362
10881NA      NA33517   3.631   5.301   2.608
10882NA      NA33518   3.897   3.726   2.148
   7.02307   7.02307   7.02307
